Membrane in water
40344
    1TMC1    C1    1   0.301   3.764  12.200  0.1640  0.1972  0.1197
    1TMC1    C2    2   0.430   3.800  12.156 -0.0659 -0.6671 -0.0208
    1TMC1    C3    3   0.490   3.914  12.211  0.4929  0.4182 -0.1479
    1TMC1    C4    4   0.233   3.853  12.278  0.0167  0.4789 -0.7608
    1TMC1    C5    5   0.296   3.968  12.331  0.3176  0.6646  0.2969
    1TMC1    C6    6   0.430   3.990  12.304 -0.9012 -0.0854  0.0151
    1TMC1     C    7   0.221   3.657  12.133  0.6885  1.2381 -0.9953
    1TMC1     O    8   0.098   3.667  12.137 -0.3153  0.3381 -0.2023
    1TMC1     H    9   0.489   3.735  12.092 -0.0606 -1.9009  1.2392
    1TMC1    H1   10   0.132   3.833  12.312  0.4774 -2.2517 -0.9596
    1TMC1    H2   11   0.488   4.072  12.344 -0.0641 -0.7602  0.2061
    1TMC1    C7   12   0.223   4.051  12.428 -0.8985  0.0771 -0.5522
    1TMC1    C8   13   0.631   3.937  12.193  0.1203  0.4546  0.1453
    1TMC1    O1   14   0.141   4.013  12.511 -0.0024 -0.5808  0.0677
    1TMC1    O2   15   0.695   3.942  12.295  0.1260  0.1810  0.2128
    1TMC1    O3   16   0.270   4.178  12.419  0.5036  0.3722 -0.4137
    1TMC1    H3   17   0.323   4.197  12.339 -0.0562  0.9998 -0.6376
    1TMC1    O5   18   0.664   3.880  12.077 -0.1224  0.1797 -0.0503
    1TMC1    H5   19   0.593   3.897  12.011 -1.2439  0.1964  1.1694
    2MPD2     C   20   0.181   3.337  11.729  0.0398  0.2269 -0.0529
    2MPD2    C1   21   0.083   3.401  11.805  0.1921 -0.3056 -0.0454
    2MPD2    C2   22   0.123   3.482  11.910 -0.6323  0.5323 -0.3534
    2MPD2    C3   23   0.256   3.501  11.945 -0.1118 -0.5291  0.2995
    2MPD2    C4   24   0.349   3.426  11.875  0.7374  0.1403  0.5804
    2MPD2    C5   25   0.313   3.350  11.770 -0.0391  0.0978 -0.8917
    2MPD2     H   26   0.045   3.530  11.967 -0.3847  0.6471 -0.1102
    2MPD2    H1   27   0.453   3.430  11.906  0.8722  1.8605 -0.0912
    2MPD2    H2   28   0.158   3.285  11.637 -0.2049 -0.4182  0.3755
    2MPD2    H3   29   0.377   3.285  11.711 -1.2610 -0.1620 -1.9214
    2MPD2     N   30   0.298   3.578  12.055  0.2341  0.1329  0.3960
    2MPD2    H5   31   0.396   3.565  12.077 -0.2532 -1.2831  1.7033
    2MPD2    N1   32   4.688   3.396  11.780 -0.3727  0.3511  0.7398
    2MPD2    H7   33   4.622   3.462  11.822 -0.5658  0.8067 -0.2881
    3TMC1    C1   34   4.296   4.037  10.922 -0.2526 -0.5363 -0.4441
    3TMC1    C2   35   4.351   4.160  10.935 -0.4733 -0.1929  0.1417
    3TMC1    C3   36   4.474   4.186  10.887 -0.0904 -0.4564 -1.0595
    3TMC1    C4   37   4.356   3.938  10.853 -0.3235  0.4220 -0.1938
    3TMC1    C5   38   4.470   3.979  10.790 -0.4571 -0.0490  0.1628
    3TMC1    C6   39   4.544   4.095  10.809  0.1785  0.2247 -0.3545
    3TMC1     C   40   4.160   4.030  10.969 -1.1031 -0.3989 -0.0928
    3TMC1     O   41   4.116   3.916  10.987 -0.1719 -0.0855 -0.5870
    3TMC1     H   42   4.308   4.235  11.001 -0.3321 -0.6538  0.7656
    3TMC1    H1   43   4.298   3.849  10.833  0.3532 -0.7869  3.2159
    3TMC1    H2   44   4.644   4.117  10.773  0.7133  0.4086  1.2483
    3TMC1    C7   45   4.529   3.885  10.693  0.3807 -0.0541  0.4256
    3TMC1    C8   46   4.540   4.303  10.944  0.3662  0.0316 -0.1649
    3TMC1    O1   47   4.506   3.766  10.685 -0.0356 -0.3605  0.6443
    3TMC1    O2   48   4.483   4.409  10.972 -0.7568 -0.2916 -0.2540
    3TMC1    O3   49   4.585   3.962  10.595 -0.6074  0.0315  0.7333
    3TMC1    H3   50   4.590   4.057  10.621 -2.3518  0.1673  0.5788
    3TMC1    O5   51   4.668   4.270  10.979  0.2814  0.9130  0.7068
    3TMC1    H5   52   4.699   4.182  10.949  1.2162  1.2449  0.6965
    4MPD2     C   53   3.696   4.225  11.068 -0.1133  0.2320  0.5929
    4MPD2    C1   54   3.778   4.323  11.014 -0.2418  0.1411 -0.2033
    4MPD2    C2   55   3.904   4.289  10.969 -0.7488 -0.1667  0.4172
    4MPD2    C3   56   3.956   4.164  10.988  0.4772 -0.4707  0.9334
    4MPD2    C4   57   3.882   4.073  11.054  0.4948  0.9341  0.1259
    4MPD2    C5   58   3.752   4.102  11.090 -0.3585 -0.0874  0.0193
    4MPD2     H   59   3.970   4.365  10.928 -0.9750  0.2804  0.8764
    4MPD2    H1   60   3.914   3.972  11.076  0.1253  0.5121 -1.2495
    4MPD2    H2   61   3.592   4.241  11.093 -0.0513 -0.7216  1.4469
    4MPD2    H3   62   3.694   4.026  11.140  0.1428  0.2510  1.1166
    4MPD2     N   63   4.089   4.147  10.950 -0.4056 -0.2938  0.6121
    4MPD2    H5   64   4.146   4.221  10.908 -0.4060  0.0353  1.1936
    4MPD2    N1   65   3.737   4.456  11.007 -0.0638 -0.9464  0.9876
    4MPD2    H7   66   3.797   4.510  10.945  0.4004 -3.4166 -0.7293
    5TCq1    O1   67   4.017   1.464  12.152  0.2996  0.3880  0.2557
    5TCq1    C1   68   4.042   1.378  12.054  0.8299 -0.4721 -0.1369
    5TCq1    O2   69   4.162   1.352  12.028 -0.0279  0.2989 -0.1148
    5TCq1    C2   70   3.944   1.422  11.959  0.5857 -0.2403 -0.0559
    5TCq1    C3   71   3.814   1.429  12.003 -0.9623  0.8201 -0.1587
    5TCq1    C4   72   3.722   1.481  11.916 -0.8858 -0.7866  0.3554
    5TCq1    C5   73   3.758   1.526  11.793 -0.0236 -0.2512 -0.4531
    5TCq1    C6   74   3.889   1.535  11.759  0.1416  0.3560 -0.1392
    5TCq1    C7   75   3.988   1.471  11.839  0.1068  0.0156  0.0267
    5TCq1    C8   76   3.927   1.546  11.617 -0.6372 -0.1870 -0.2658
    5TCq1    O4   77   4.029   1.490  11.590 -0.0818  0.3499 -0.2872
    5TCq1    C9   78   3.581   1.491  11.958 -0.3282  0.5209 -0.8105
    5TCq1    O5   79   3.543   1.440  12.066  0.3752  0.5625 -0.0822
    5TCq1    O6   80   3.500   1.538  11.876  0.5703  0.0210 -0.8186
    5TCq1    H1   81   3.920   1.478  12.153  0.1671 -0.5404  0.6246
    5TCq1    H2   82   3.782   1.373  12.091 -0.5268 -0.8333 -1.0473
    5TCq1    H3   83   3.689   1.573  11.723 -2.1725 -2.8738 -0.0908
    5TCq1    H4   84   4.094   1.469  11.818  0.4871  2.1369  1.7737
    6MPD2     C   85   3.783   1.746  11.354  0.0636  0.4255  0.3518
    6MPD2    C1   86   3.855   1.644  11.407 -0.0549  0.0042 -0.6528
    6MPD2    C2   87   3.920   1.555  11.324 -1.0774  0.8938 -1.0209
    6MPD2    C3   88   3.903   1.561  11.185 -0.1239 -0.4532 -0.3584
    6MPD2    C4   89   3.829   1.665  11.137  0.2395  0.3508 -0.2828
    6MPD2    C5   90   3.766   1.755  11.221  0.0875 -0.1995  0.9863
    6MPD2     H   91   3.988   1.489  11.376 -1.2742  0.3842 -1.4154
    6MPD2    H1   92   3.813   1.688  11.033  2.6586  0.5229 -0.6102
    6MPD2    H2   93   3.738   1.821  11.418  0.4037  0.9366 -0.0119
    6MPD2    H3   94   3.704   1.835  11.182  1.1759  0.0689 -0.1848
    6MPD2     N   95   3.986   1.481  11.104  0.2688 -0.7195 -0.9605
    6MPD2    H5   96   4.055   1.424  11.152 -0.6013  1.4277  2.8450
    6MPD2    N1   97   3.848   1.628  11.545 -0.1327 -0.5649  0.5888
    6MPD2    H7   98   3.781   1.685  11.595 -0.3916 -0.9872  0.7204
    7TCq1    O1   99   1.948   1.099  13.727 -0.2074 -0.1503  0.0664
    7TCq1    C1  100   1.895   0.981  13.689 -0.0896 -0.2850 -0.2496
    7TCq1    O2  101   1.840   0.900  13.762 -0.0086 -0.4390  0.2043
    7TCq1    C2  102   1.915   0.966  13.544  0.1113  0.3645 -0.1006
    7TCq1    C3  103   1.873   1.069  13.470 -0.1706 -0.5497  0.3286
    7TCq1    C4  104   1.826   1.037  13.347 -0.0375 -0.4376 -0.1593
    7TCq1    C5  105   1.799   0.908  13.314 -0.6275  0.3486 -1.0044
    7TCq1    C6  106   1.825   0.804  13.400 -0.0153  0.2316  0.9603
    7TCq1    C7  107   1.890   0.835  13.514 -0.2520  0.2189 -0.0476
    7TCq1    C8  108   1.829   0.668  13.351  0.4101  0.3133 -0.9764
    7TCq1    O4  109   1.906   0.593  13.406 -0.2540 -0.4433  0.0423
    7TCq1    C9  110   1.771   1.140  13.252 -0.9769  0.6972 -0.6354
    7TCq1    O5  111   1.656   1.116  13.200  0.1444 -0.5587  0.2345
    7TCq1    O6  112   1.827   1.259  13.251 -0.2219 -0.4158 -0.5043
    7TCq1    H1  113   1.995   1.145  13.655 -0.5118  0.8592  0.5096
    7TCq1    H2  114   1.887   1.176  13.485 -0.4235 -0.2679 -1.3689
    7TCq1    H3  115   1.749   0.889  13.221 -1.1022 -0.9004 -0.4918
    7TCq1    H4  116   1.889   0.760  13.592 -0.7532  0.1133 -0.1562
    8MPD2     C  117   1.631   0.287  13.049 -0.4938 -0.1604  0.4169
    8MPD2    C1  118   1.710   0.283  13.168  0.7178 -0.0713  0.1632
    8MPD2    C2  119   1.760   0.402  13.229  0.4191  0.2273  0.1095
    8MPD2    C3  120   1.711   0.522  13.186  0.4863  0.3502  0.4046
    8MPD2    C4  121   1.625   0.527  13.077 -0.1263  0.5106 -0.0499
    8MPD2    C5  122   1.595   0.415  13.007 -0.0094  0.1314 -0.2403
    8MPD2     H  123   1.817   0.394  13.321  2.2748 -0.0120 -1.0644
    8MPD2    H1  124   1.575   0.616  13.040  0.5470 -0.5198 -3.4388
    8MPD2    H2  125   1.601   0.203  12.989  4.4148 -1.2522 -0.5095
    8MPD2    H3  126   1.534   0.436  12.920  0.0406 -0.4009 -0.4049
    8MPD2     N  127   1.740   0.645  13.248  0.4713 -0.0054 -0.4361
    8MPD2    H5  128   1.676   0.718  13.217  0.8482  0.2035 -0.7212
    8MPD2    N1  129   1.739   0.152  13.226 -0.2006 -0.0173 -0.1721
    8MPD2    H7  130   1.710   0.082  13.159  0.2524 -2.3135  2.0002
    9TMC1    C1  131   0.070   4.586  10.818 -0.3083  0.0044  0.3693
    9TMC1    C2  132   4.697   4.528  10.757 -0.0749 -0.3160 -0.1462
    9TMC1    C3  133   4.733   4.426  10.673 -0.0278  0.8354  0.1751
    9TMC1    C4  134   0.195   4.544  10.805 -0.4541  0.6936 -0.5488
    9TMC1    C5  135   0.216   4.424  10.743 -0.4415  0.0712  0.0190
    9TMC1    C6  136   0.119   4.371  10.658 -0.6307  0.5603  0.1485
    9TMC1     C  137   0.046   4.688  10.909  0.1099  0.4170 -0.7164
    9TMC1     O  138   0.125   0.042  10.909  0.3020 -0.0031  0.1556
    9TMC1     H  139   4.598   4.569  10.774  1.0740  2.0668  0.8152
    9TMC1    H1  140   0.280   4.594  10.851 -1.0302 -1.4588  2.8800
    9TMC1    H2  141   0.138   4.290  10.588 -2.5629 -0.2450  0.5519
    9TMC1    C7  142   0.349   4.380  10.708 -0.2107 -0.3455 -0.4570
    9TMC1    C8  143   4.631   4.359  10.593 -0.0460  0.5121  0.7786
    9TMC1    O1  144   0.356   4.301  10.614 -0.3085 -0.7519  0.2258
    9TMC1    O2  145   4.635   4.238  10.570  0.0565  0.2739 -0.2961
    9TMC1    O3  146   0.434   4.385  10.814  0.3174  0.5510  0.3878
    9TMC1    H3  147   0.391   4.422  10.894 -0.8310 -2.5017  1.1883
    9TMC1    O5  148   4.519   4.430  10.595 -0.0906 -0.1099 -0.5377
    9TMC1    H5  149   4.525   4.526  10.616  1.0147  0.3039 -2.7188
   10MPD2     C  150   4.664   0.109  11.121 -0.2166  0.7324 -0.4499
   10MPD2    C1  151   4.631   4.720  11.106 -0.5173 -0.4366 -0.1314
   10MPD2    C2  152   4.530   4.668  11.191 -0.4276  0.0019 -0.4220
   10MPD2    C3  153   4.478   0.007  11.298 -0.3119 -0.0066  0.1339
   10MPD2    C4  154   4.525   0.134  11.316 -0.4501 -0.0694 -0.2840
   10MPD2    C5  155   4.611   0.184  11.223 -0.4884  0.5207  0.0850
   10MPD2     H  156   4.492   4.566  11.193  1.6858 -0.7822 -0.1689
   10MPD2    H1  157   4.493   0.193  11.401  0.0969  1.7429 -1.3358
   10MPD2    H2  158   4.731   0.167  11.059  1.5410  0.5916  1.3116
   10MPD2    H3  159   4.648   0.284  11.243 -0.2287  0.2446  0.9811
   10MPD2     N  160   4.404   4.698  11.414  0.9915  0.1292  0.4753
   10MPD2    H5  161   4.394   0.024  11.492  1.8769 -1.0637  1.5592
   10MPD2    N1  162   4.684   4.650  11.001  0.1560 -0.4000  0.5612
   10MPD2    H7  163   4.646   4.557  10.987  0.6567 -0.3468 -1.1158
   11TCq1    O1  164   0.318   4.228  14.108 -0.2514 -0.3455  0.1409
   11TCq1    C1  165   0.247   4.115  14.112  0.1813 -0.4702 -0.3866
   11TCq1    O2  166   0.138   4.110  14.165 -0.1815  0.1062  0.2387
   11TCq1    C2  167   0.296   4.006  14.021 -0.3452 -0.2528 -0.5331
   11TCq1    C3  168   0.400   4.014  13.933  0.0122 -0.0010  0.3796
   11TCq1    C4  169   0.404   3.922  13.835 -0.2400 -0.0163  0.4374
   11TCq1    C5  170   0.326   3.814  13.829 -0.5869  0.4965 -0.0440
   11TCq1    C6  171   0.232   3.799  13.923 -0.4572 -0.1674  0.3149
   11TCq1    C7  172   0.205   3.897  14.015  0.7987 -0.1476 -0.4138
   11TCq1    C8  173   0.133   3.696  13.907  0.2486  0.2542 -0.2246
   11TCq1    O4  174   0.013   3.720  13.933  0.0408  0.5401  0.1640
   11TCq1    C9  175   0.502   3.948  13.733  0.0487 -0.5569  0.3278
   11TCq1    O5  176   0.467   3.924  13.616  0.5064  0.6375 -0.3081
   11TCq1    O6  177   0.614   3.986  13.767 -0.2915  0.5156 -0.0662
   11TCq1    H1  178   0.411   4.215  14.080  0.4122  1.3082  1.6174
   11TCq1    H2  179   0.470   4.096  13.936 -0.9526  0.8816 -1.2424
   11TCq1    H3  180   0.346   3.749  13.744 -1.5741  1.2125 -0.8387
   11TCq1    H4  181   0.126   3.893  14.089 -1.3335  0.3492 -2.6487
   12MPD2     C  182   4.727   3.467  13.780 -0.5319 -0.8477  0.0357
   12MPD2    C1  183   0.118   3.456  13.826  0.6164 -0.0769 -0.1718
   12MPD2    C2  184   0.178   3.339  13.841  0.1215  0.0150 -0.1695
   12MPD2    C3  185   0.117   3.217  13.821  0.0138  1.3846 -0.6619
   12MPD2    C4  186   4.724   3.225  13.774  0.4623  0.3669  0.1078
   12MPD2    C5  187   4.671   3.348  13.749 -0.6315 -0.5745  0.4672
   12MPD2     H  188   0.280   3.336  13.878  0.0633 -0.6053 -0.0504
   12MPD2    H1  189   4.659   3.142  13.748  1.6715  0.1798 -2.3157
   12MPD2    H2  190   4.682   3.561  13.752  0.7991 -0.0119  0.7469
   12MPD2    H3  191   4.572   3.358  13.705 -0.6250  0.7333  0.7274
   12MPD2     N  192   0.170   3.086  13.835  0.9329 -0.1797 -0.1192
   12MPD2    H5  193   0.100   3.013  13.843  0.0953  0.9856  2.8647
   12MPD2    N1  194   0.185   3.577  13.864 -0.2284  0.1713 -0.4346
   12MPD2    H7  195   0.286   3.571  13.869 -0.2642  1.1850  1.8274
   13TCq1    O1  196   0.173   0.164  11.376 -0.3036 -0.4775  0.2352
   13TCq1    C1  197   0.123   0.064  11.463  0.0845  0.0145  0.1180
   13TCq1    O2  198   0.038   0.078  11.550 -0.3069  0.2073  0.0481
   13TCq1    C2  199   0.151   4.669  11.407  0.4031 -0.6508  1.0639
   13TCq1    C3  200   0.246   4.658  11.311  0.2748  0.5585  0.2638
   13TCq1    C4  201   0.251   4.552  11.227  0.0326  0.2515 -0.5671
   13TCq1    C5  202   0.146   4.459  11.232 -0.3328 -0.3010 -0.2449
   13TCq1    C6  203   0.054   4.469  11.336 -0.0316 -0.1926  0.0025
   13TCq1    C7  204   0.050   4.570  11.427  0.1514  0.3209  0.1854
   13TCq1    C8  205   4.681   4.382  11.350 -0.4254  0.1932  0.7111
   13TCq1    O4  206   4.595   4.409  11.432  0.0695 -0.2022 -0.0909
   13TCq1    C9  207   0.354   4.539  11.129 -0.2129  0.3980 -0.5383
   13TCq1    O5  208   0.462   4.597  11.146  0.5562 -0.6009 -0.2243
   13TCq1    O6  209   0.339   4.456  11.036  0.2654 -0.0941  0.1804
   13TCq1    H1  210   0.211   0.132  11.291  1.0052  1.3193  0.1444
   13TCq1    H2  211   0.339   4.713  11.303  0.3663  0.3715  0.0370
   13TCq1    H3  212   0.159   4.374  11.166  0.6475 -1.7149  1.7595
   13TCq1    H4  213   4.693   4.598  11.470  0.7250  1.2303  0.8740
   14MPD2     C  214   4.604   4.045  11.226 -0.0579  0.0128 -0.4470
   14MPD2    C1  215   4.585   4.174  11.270  0.0548 -0.3721 -0.2350
   14MPD2    C2  216   4.454   4.212  11.288  0.9419  0.0567 -0.2336
   14MPD2    C3  217   4.345   4.125  11.275 -0.3144  1.2963 -0.6817
   14MPD2    C4  218   4.380   3.994  11.248 -0.1471  0.6673 -0.0445
   14MPD2    C5  219   4.503   3.957  11.211  0.2492  0.4759  0.1911
   14MPD2     H  220   4.439   4.318  11.303  0.6058  0.0908 -0.8227
   14MPD2    H1  221   4.298   3.929  11.221 -1.4090  1.5178  1.7244
   14MPD2    H2  222   4.703   4.016  11.196  0.1195  1.4611 -1.2320
   14MPD2    H3  223   4.526   3.854  11.184 -0.8340  0.5474 -0.9855
   14MPD2     N  224   4.217   4.174  11.307 -0.8165  0.5465  0.5550
   14MPD2    H5  225   4.208   4.275  11.314  0.4795  0.5869  1.7521
   14MPD2    N1  226   4.691   4.268  11.278  0.0549  0.7354 -0.0629
   14MPD2    H7  227   0.044   4.250  11.236 -0.7093  0.1749 -1.4789
   15TCq1    O1  228   1.316   3.023   1.159 -0.0850  0.5880  0.2420
   15TCq1    C1  229   1.385   3.112   1.085 -0.1634  0.6376 -0.2364
   15TCq1    O2  230   1.373   3.233   1.078  0.3632  0.1363  0.1658
   15TCq1    C2  231   1.510   3.040   1.042 -0.0908 -0.1097 -0.5989
   15TCq1    C3  232   1.617   3.123   1.055  0.1874  0.5045  0.2488
   15TCq1    C4  233   1.735   3.075   1.003  0.4491  0.3563  0.1135
   15TCq1    C5  234   1.744   2.964   0.927  0.2877  0.7431  0.4789
   15TCq1    C6  235   1.628   2.887   0.908  0.4718 -0.7199  0.4662
   15TCq1    C7  236   1.507   2.927   0.965 -0.2582  1.4120  0.3006
   15TCq1    C8  237   1.632   2.776   0.814  0.3706 -0.1030 -0.5300
   15TCq1    O4  238   1.750   2.744   0.796 -0.2102 -0.6572  0.2894
   15TCq1    C9  239   1.865   3.135   1.035  0.0012 -0.5915 -0.3836
   15TCq1    O5  240   1.864   3.213   1.133  0.0157  0.5793 -0.1408
   15TCq1    O6  241   1.962   3.095   0.965  0.2772 -0.3054 -0.0418
   15TCq1    H1  242   1.376   2.947   1.173  0.3414  1.0724  1.0489
   15TCq1    H2  243   1.612   3.224   1.095  0.2690  1.3212 -1.8170
   15TCq1    H3  244   1.839   2.926   0.893 -0.2013 -0.0088 -0.0467
   15TCq1    H4  245   1.412   2.878   0.951  0.2820  1.0123 -1.8884
   16MPD2     C  246   1.401   2.630   0.574 -0.5300 -0.6076 -0.2244
   16MPD2    C1  247   1.505   2.634   0.667  0.7871  0.0074 -0.7878
   16MPD2    C2  248   1.593   2.524   0.676  0.0716 -0.2709 -0.2202
   16MPD2    C3  249   1.562   2.408   0.609 -0.9472  1.0281  0.2806
   16MPD2    C4  250   1.447   2.403   0.527 -0.2820  0.9287 -0.0572
   16MPD2    C5  251   1.370   2.512   0.511  0.2111  0.8231 -0.1030
   16MPD2     H  252   1.682   2.520   0.738 -0.4892 -5.9690  0.2014
   16MPD2    H1  253   1.410   2.307   0.495  3.4834 -0.7565  0.6329
   16MPD2    H2  254   1.323   2.705   0.569  1.1678  1.2092  0.2527
   16MPD2    H3  255   1.278   2.507   0.453  0.7589  0.0757 -0.9190
   16MPD2     N  256   1.643   2.299   0.632  0.2743  0.6349  0.2950
   16MPD2    H5  257   1.735   2.311   0.673 -0.3434  0.2361  1.8000
   16MPD2    N1  258   1.517   2.745   0.757 -0.4084  0.4406  0.9559
   16MPD2    H7  259   1.437   2.806   0.758 -1.7048 -1.2224 -1.0801
   17TMC1    C1  260   3.429   3.547  11.387  0.8221 -0.3833  0.2902
   17TMC1    C2  261   3.533   3.461  11.418 -0.0449 -0.5226 -0.4589
   17TMC1    C3  262   3.495   3.336  11.466  0.0009  0.5003  0.5236
   17TMC1    C4  263   3.304   3.514  11.425  0.2288  0.3326  0.4210
   17TMC1    C5  264   3.272   3.394  11.487  0.2976  0.4705 -0.0640
   17TMC1    C6  265   3.370   3.297  11.505  0.0214  0.8137 -0.5041
   17TMC1     C  266   3.445   3.664  11.303  0.2666  0.3033 -0.3764
   17TMC1     O  267   3.354   3.746  11.312  0.5007  0.4369  0.5944
   17TMC1     H  268   3.634   3.479  11.381 -0.0367  0.6701  0.1641
   17TMC1    H1  269   3.222   3.570  11.382  0.2367 -2.1398 -2.8246
   17TMC1    H2  270   3.344   3.194  11.527  0.6644  0.7714  0.0561
   17TMC1    C7  271   3.151   3.336  11.438  0.4502  0.6758 -0.3556
   17TMC1    C8  272   3.596   3.242  11.465  0.0963  0.2935  0.1600
   17TMC1    O1  273   3.094   3.367  11.333  0.3830  0.0509  0.4398
   17TMC1    O2  274   3.577   3.123  11.463  0.5967  0.6926 -0.6253
   17TMC1    O3  275   3.099   3.267  11.536 -0.3014  0.3547 -0.0352
   17TMC1    H3  276   3.150   3.278  11.619  1.0886 -2.2254 -0.5296
   17TMC1    O5  277   3.693   3.301  11.531 -0.2428  0.2247  0.7563
   17TMC1    H5  278   3.659   3.385  11.567  0.7440 -0.0434  2.3268
   18MPD2     C  279   3.485   3.833  11.064  0.4844 -0.0337 -0.0201
   18MPD2    C1  280   3.573   3.739  11.108 -0.8058  0.4611 -0.1853
   18MPD2    C2  281   3.693   3.727  11.034 -0.0907  0.2083  0.1304
   18MPD2    C3  282   3.716   3.792  10.911  0.4533  0.2777 -0.3152
   18MPD2    C4  283   3.617   3.882  10.871  0.2018  0.2718 -0.2031
   18MPD2    C5  284   3.511   3.910  10.954  0.2903  1.2613 -0.2365
   18MPD2     H  285   3.763   3.648  11.058  1.3913  2.0977  2.0476
   18MPD2    H1  286   3.613   3.941  10.780  0.1626  1.3421  0.5018
   18MPD2    H2  287   3.401   3.850  11.129 -0.9525 -0.5469 -1.7437
   18MPD2    H3  288   3.439   3.985  10.925 -1.4763 -0.5341 -0.4971
   18MPD2     N  289   3.830   3.779  10.827 -0.2029 -0.1415 -0.4620
   18MPD2    H5  290   3.823   3.840  10.746  1.4121  0.3060 -0.2858
   18MPD2    N1  291   3.561   3.663  11.229 -0.0931 -0.5753 -0.7854
   18MPD2    H7  292   3.626   3.588  11.250  0.8053  0.4212 -0.0275
   19TMC2    C1  293   1.223   3.914  13.956 -0.5341  0.1640 -0.0207
   19TMC2    C2  294   1.213   3.970  13.833 -0.4755  0.2189  0.3319
   19TMC2    C3  295   1.118   3.919  13.744 -0.7136 -0.0909 -0.2516
   19TMC2    C4  296   1.147   3.805  13.994 -0.0607  0.2461  0.4319
   19TMC2    C5  297   1.075   3.749  13.894 -0.6977  0.3868 -0.1538
   19TMC2    C6  298   1.058   3.802  13.778  0.0612 -0.2547  0.0783
   19TMC2     C  299   1.324   3.980  14.038  0.0733  0.3636  0.2475
   19TMC2     O  300   1.343   4.099  14.017 -0.2957  0.2197 -0.0615
   19TMC2     H  301   1.280   4.046  13.796 -1.5643  1.8069  1.6485
   19TMC2    H1  302   1.160   3.761  14.092 -0.2134  0.3955  0.5199
   19TMC2    H2  303   1.004   3.745  13.702  1.2603 -1.2013 -0.0663
   19TMC2    C7  304   1.016   3.620  13.910 -0.3680 -0.3319  0.8280
   19TMC2    C8  305   1.147   3.950  13.608  0.8513  0.0243 -0.0133
   19TMC2    O1  306   0.942   3.588  13.818 -0.9056  0.0247  0.2074
   19TMC2    O2  307   1.255   3.998  13.574 -0.3711  0.4934  0.0384
   19TMC2    O5  308   1.044   3.912  13.525 -0.9540 -0.1197  0.3234
   19TMC2    H5  309   0.956   3.902  13.568  0.0388 -3.1957  1.6473
   20MPD2     C  310   1.508   4.063  14.241  0.8791  0.1699 -0.4862
   20MPD2    C1  311   1.491   3.927  14.209 -0.4601  0.7593  1.2213
   20MPD2    C2  312   1.562   3.825  14.263  0.3722 -0.4927 -0.0031
   20MPD2    C3  313   1.674   3.855  14.333 -0.7295  0.2274  0.6751
   20MPD2    C4  314   1.695   3.989  14.365 -0.3184 -0.3892  0.3726
   20MPD2    C5  315   1.615   4.085  14.319 -0.0714 -0.2137  0.8224
   20MPD2     H  316   1.525   3.728  14.230  0.6306 -0.2258 -1.0836
   20MPD2    H1  317   1.786   4.017  14.417 -0.2154 -2.2526  1.1895
   20MPD2    H2  318   1.458   4.152  14.205 -0.2031 -0.5357 -0.7254
   20MPD2    H3  319   1.630   4.186  14.354 -2.2810  0.6873 -0.7991
   20MPD2     N  320   1.765   3.763  14.390  0.1998  0.4636  0.2512
   20MPD2    H5  321   1.835   3.803  14.451  1.0312  0.1567 -0.5024
   20MPD2    N1  322   1.388   3.890  14.119 -0.1489  0.2097 -0.2901
   20MPD2    H7  323   1.368   3.792  14.105 -0.4527  0.2940 -0.4418
   21TMC2    C1  324   3.416   4.008  14.837  0.0011  0.4089  0.3166
   21TMC2    C2  325   3.524   3.933  14.885  0.8254 -0.9740  0.7254
   21TMC2    C3  326   3.559   3.954  15.012  0.0971 -0.0156  0.4765
   21TMC2    C4  327   3.354   4.106  14.919 -0.3267 -0.3869 -0.0402
   21TMC2    C5  328   3.415   4.128  15.043  0.4374  0.4530  0.5908
   21TMC2    C6  329   3.509   4.045  15.097 -0.5830 -0.3327  0.1490
   21TMC2     C  330   3.376   3.971  14.704  0.3388  0.4280 -0.3485
   21TMC2     O  331   3.416   3.857  14.661 -0.0492 -0.4925  0.1082
   21TMC2     H  332   3.575   3.857  14.827 -0.6014 -1.3533 -0.0467
   21TMC2    H1  333   3.271   4.165  14.883 -0.6353 -1.0589 -0.4381
   21TMC2    H2  334   3.560   4.064  15.191 -0.2248 -0.3986 -0.0308
   21TMC2    C7  335   3.373   4.248  15.127 -0.8154  0.5246 -0.1937
   21TMC2    C8  336   3.668   3.867  15.058 -0.5752 -0.4651  0.4165
   21TMC2    O1  337   3.442   4.264  15.226 -0.2941 -0.2745 -0.5677
   21TMC2    O2  338   3.678   3.748  15.042  0.1081  0.0595  0.2226
   21TMC2    O5  339   3.774   3.958  15.051  0.0321  0.0474  0.4951
   21TMC2    H5  340   3.741   4.050  15.042  1.5203  0.4218 -0.9166
   22MPD2     C  341   3.263   4.049  14.219  0.9660 -1.1314 -0.3350
   22MPD2    C1  342   3.360   3.980  14.283  0.1940 -0.6744  0.2291
   22MPD2    C2  343   3.364   3.990  14.419 -0.8308 -0.0952 -0.6622
   22MPD2    C3  344   3.266   4.049  14.494 -0.0040 -0.4199  0.5122
   22MPD2    C4  345   3.172   4.126  14.431  0.2102  0.4772 -0.0961
   22MPD2    C5  346   3.174   4.123  14.296 -0.4262 -0.3967 -0.4725
   22MPD2     H  347   3.456   3.959  14.467 -0.8555  1.1762  0.2089
   22MPD2    H1  348   3.109   4.191  14.490  0.8967  2.0742 -1.1246
   22MPD2    H2  349   3.272   4.057  14.111  2.6706  0.6099 -0.0776
   22MPD2    H3  350   3.102   4.191  14.254  0.0954  1.0261  0.9486
   22MPD2     N  351   3.282   4.053  14.639  0.5785  0.6144  0.1111
   22MPD2    H5  352   3.230   4.129  14.683 -0.2119  0.7757 -1.1025
   22MPD2    N1  353   3.463   3.924  14.204 -0.4041  0.0178 -0.1948
   22MPD2    H7  354   3.552   3.909  14.250 -1.8497 -0.1065  2.5786
   23TMC2    C1  355   4.666   0.246  14.503 -0.4585  0.4507  0.4646
   23TMC2    C2  356   0.033   0.171  14.465 -0.1084 -0.0326 -0.7065
   23TMC2    C3  357   0.006   0.045  14.412 -0.3877  0.0774 -0.4915
   23TMC2    C4  358   4.538   0.198  14.495 -0.0379 -0.1350 -0.2548
   23TMC2    C5  359   4.510   0.070  14.443 -0.6350  0.0398  0.3650
   23TMC2    C6  360   4.618   4.726  14.414  0.4526 -0.0306  0.5849
   23TMC2     C  361   4.689   0.338  14.618  0.4066 -0.2809  0.7443
   23TMC2     O  362   4.618   0.322  14.718 -0.0345 -0.1932  0.2964
   23TMC2     H  363   0.136   0.205  14.469 -0.3387  0.8009 -1.6829
   23TMC2    H1  364   4.457   0.265  14.521  2.4343  2.0122  1.8754
   23TMC2    H2  365   4.611   4.623  14.381  0.7529 -0.6071  2.3245
   23TMC2    C7  366   4.377   0.022  14.433 -0.3612  0.2587 -0.2167
   23TMC2    C8  367   0.114   4.687  14.373 -0.0357  0.1677 -0.0420
   23TMC2    O1  368   4.365   4.643  14.416 -0.3403 -0.3267  0.0474
   23TMC2    O2  369   0.111   4.565  14.378 -0.0342  0.4796 -0.0451
   23TMC2    O5  370   0.212   0.016  14.307  0.1542  0.0196 -0.9004
   23TMC2    H5  371   0.184   0.108  14.291  1.5398  0.2880 -1.7498
   24MPD2     C  372   0.278   0.661  14.852  0.1377  0.0206 -0.9595
   24MPD2    C1  373   0.207   0.555  14.909  0.1241 -0.3293 -0.1116
   24MPD2    C2  374   0.124   0.480  14.828  0.0266  0.5559  0.1627
   24MPD2    C3  375   0.133   0.497  14.691  0.8378  0.0220  0.2327
   24MPD2    C4  376   0.204   0.600  14.635 -0.4960  1.1738 -0.3317
   24MPD2    C5  377   0.277   0.685  14.717 -0.5246 -0.1909 -0.4339
   24MPD2     H  378   0.059   0.408  14.878 -0.2187  0.9272  0.3757
   24MPD2    H1  379   0.207   0.605  14.527 -0.4100  0.2341 -0.3704
   24MPD2    H2  380   0.339   0.715  14.923  0.8178 -0.8821 -0.8564
   24MPD2    H3  381   0.347   0.760  14.680  1.6448 -0.8776  2.2840
   24MPD2     N  382   0.063   0.417  14.595 -0.0920  0.0089  0.4853
   24MPD2    H5  383   0.097   0.427  14.500  0.9205  0.6964  0.9124
   24MPD2    N1  384   0.214   0.520  15.047 -0.2831  0.4954  0.1815
   24MPD2    H7  385   0.172   0.432  15.075 -0.4902  1.2743  2.3177
   25TMC2    C1  386   4.022   2.527  11.487 -0.7748  0.0799 -0.3106
   25TMC2    C2  387   4.140   2.592  11.489 -0.4045 -0.4916  0.3239
   25TMC2    C3  388   4.146   2.697  11.569  0.7975 -0.8776 -0.0259
   25TMC2    C4  389   3.913   2.561  11.558 -0.1252 -0.2457  0.2564
   25TMC2    C5  390   3.921   2.673  11.632  0.1758  0.8709 -0.2677
   25TMC2    C6  391   4.039   2.748  11.635 -0.3791 -0.4369  0.0054
   25TMC2     C  392   4.012   2.433  11.379  0.0337 -0.5793 -0.2996
   25TMC2     O  393   4.111   2.369  11.337 -0.2920 -0.1708 -0.7183
   25TMC2     H  394   4.225   2.561  11.429 -1.2139 -0.6760 -0.7250
   25TMC2    H1  395   3.822   2.503  11.571 -0.3731  0.7951  3.0961
   25TMC2    H2  396   4.039   2.830  11.706  0.4918  0.2700 -0.8136
   25TMC2    C7  397   3.814   2.700  11.728 -0.3710  0.4926 -0.2497
   25TMC2    C8  398   4.246   2.789  11.511  0.2429  0.2679  0.8262
   25TMC2    O1  399   3.748   2.607  11.778 -0.8325  0.2511 -0.1546
   25TMC2    O2  400   4.242   2.823  11.396 -0.2569  0.1909  0.4663
   25TMC2    O5  401   4.243   2.871  11.617  0.4260 -0.0354 -0.3451
   25TMC2    H5  402   4.246   2.823  11.703  0.2214 -1.8246 -1.3467
   26MPD2     C  403   3.719   2.168  11.050 -0.0171 -0.0063  0.1678
   26MPD2    C1  404   3.657   2.291  11.078 -0.5486  0.0993  0.8360
   26MPD2    C2  405   3.713   2.375  11.167  0.4428 -0.0706  0.3516
   26MPD2    C3  406   3.831   2.344  11.228 -0.2432 -0.0090  0.0791
   26MPD2    C4  407   3.893   2.230  11.193  0.3048  0.4952  0.2115
   26MPD2    C5  408   3.836   2.135  11.113  0.0705  1.0581  0.4759
   26MPD2     H  409   3.661   2.464  11.199 -0.5499 -0.4189 -0.2774
   26MPD2    H1  410   3.989   2.210  11.238  0.1553  0.5849  0.5704
   26MPD2    H2  411   3.681   2.094  10.979  0.2984  0.0741 -0.0832
   26MPD2    H3  412   3.886   2.041  11.094 -1.6672  0.5948 -1.8261
   26MPD2     N  413   3.881   2.438  11.326  0.5796  0.2206  0.0733
   26MPD2    H5  414   3.822   2.513  11.361  0.8729  0.5626 -0.1605
   26MPD2    N1  415   3.532   2.319  11.009 -0.1999 -0.2796  0.3801
   26MPD2    H7  416   3.500   2.262  10.932  0.3571  0.2941 -0.2833
   27TMC2    C1  417   2.956   0.275  12.486  0.0683 -0.0652  0.5185
   27TMC2    C2  418   3.093   0.299  12.492  0.0482  0.3711  0.7133
   27TMC2    C3  419   3.152   0.291  12.615  0.8103  0.5466 -0.0779
   27TMC2    C4  420   2.891   0.224  12.592  0.2729 -0.7474 -0.3406
   27TMC2    C5  421   2.959   0.199  12.705  0.2966  0.4835  0.0409
   27TMC2    C6  422   3.089   0.241  12.724 -0.5148 -0.4748  0.4465
   27TMC2     C  423   2.890   0.253  12.358  0.0146 -0.3420  0.0708
   27TMC2     O  424   2.957   0.266  12.258 -0.3007  0.4981  0.0753
   27TMC2     H  425   3.158   0.348  12.421 -0.5636 -2.3435 -1.7326
   27TMC2    H1  426   2.785   0.201  12.596  0.5315 -1.2338  3.8083
   27TMC2    H2  427   3.154   0.214  12.806 -3.0906  0.2497  2.7508
   27TMC2    C7  428   2.900   0.117  12.809 -0.2630  0.1535  1.1548
   27TMC2    C8  429   3.284   0.344  12.627  0.1360 -0.5333  0.1453
   27TMC2    O1  430   2.981   0.088  12.895  0.2537  0.8082 -0.4772
   27TMC2    O2  431   3.361   0.341  12.532  0.2138 -0.2886  0.5112
   27TMC2    O5  432   3.286   0.408  12.744  0.1665  0.4657  0.1883
   27TMC2    H5  433   3.193   0.418  12.772  0.3389 -0.1762  1.0064
   28MPD2     C  434   2.508   0.113  12.064  0.4559 -0.0179  0.3588
   28MPD2    C1  435   2.450   0.195  12.161 -0.0637  0.1925  0.9490
   28MPD2    C2  436   2.535   0.245  12.264  0.0945  0.9488 -0.2983
   28MPD2    C3  437   2.667   0.216  12.257 -0.1201 -0.6490 -0.1779
   28MPD2    C4  438   2.720   0.130  12.158  0.5894 -0.3485  0.0503
   28MPD2    C5  439   2.636   0.084  12.062  0.0747  0.2164 -0.4751
   28MPD2     H  440   2.493   0.309  12.340  1.5040  1.3454  0.1416
   28MPD2    H1  441   2.820   0.090  12.171  0.1043 -1.7507 -0.4826
   28MPD2    H2  442   2.449   0.076  11.981  1.1659 -0.4287  0.0360
   28MPD2    H3  443   2.673   0.014  11.989  0.3080 -0.7150  0.5312
   28MPD2     N  444   2.749   0.250  12.363 -0.0596  0.4458 -0.4511
   28MPD2    H5  445   2.699   0.287  12.442 -0.1217 -0.7479  0.0648
   28MPD2    N1  446   2.310   0.222  12.152 -0.2525 -0.0168 -0.8768
   28MPD2    H7  447   2.260   0.190  12.070  1.8255 -1.9569 -1.3950
   29TMC2    C1  448   2.502   2.607  14.258  0.6852 -0.4967 -0.0862
   29TMC2    C2  449   2.619   2.546  14.273  0.3666  0.6941  0.1375
   29TMC2    C3  450   2.724   2.611  14.322  0.6400 -0.2219 -0.5104
   29TMC2    C4  451   2.497   2.744  14.271  0.4366 -0.0223 -0.0744
   29TMC2    C5  452   2.605   2.812  14.320 -0.1703  0.7018 -0.3764
   29TMC2    C6  453   2.722   2.747  14.349  0.0294  0.2265  1.0300
   29TMC2     C  454   2.385   2.539  14.213  0.2791  0.1692 -0.5399
   29TMC2     O  455   2.287   2.607  14.191 -0.2366  0.1160  0.0558
   29TMC2     H  456   2.631   2.438  14.278  1.5762  0.8514  0.6105
   29TMC2    H1  457   2.407   2.799  14.245  0.6334 -0.2859 -1.3240
   29TMC2    H2  458   2.814   2.797  14.376  1.7682 -2.4427  0.0166
   29TMC2    C7  459   2.577   2.948  14.365  0.4362 -0.3339  0.1736
   29TMC2    C8  460   2.851   2.546  14.315 -0.6080  0.2601  0.1753
   29TMC2    O1  461   2.496   3.003  14.290  0.3558 -0.2026 -0.3474
   29TMC2    O2  462   2.872   2.446  14.246 -0.3814  0.2437 -0.5367
   29TMC2    O5  463   2.925   2.599  14.416 -0.1366  0.1512  0.8943
   29TMC2    H5  464   2.878   2.674  14.458 -0.1579 -0.3519  1.7594
   30MPD2     C  465   2.133   2.131  14.019 -0.4213  0.0979  0.6092
   30MPD2    C1  466   2.251   2.088  14.073  0.0695  0.3209  0.8337
   30MPD2    C2  467   2.336   2.184  14.125  0.3545  0.2719 -0.2314
   30MPD2    C3  468   2.304   2.316  14.126 -0.7468 -0.2892  0.2012
   30MPD2    C4  469   2.182   2.361  14.067  0.4456 -0.4376 -0.6163
   30MPD2    C5  470   2.104   2.266  14.014  0.1655  0.5111 -0.0830
   30MPD2     H  471   2.429   2.147  14.168  0.1079 -0.7401 -0.5665
   30MPD2    H1  472   2.150   2.465  14.061  0.3358 -0.3825  0.8168
   30MPD2    H2  473   2.058   2.068  13.972  0.3560 -1.7792  1.8469
   30MPD2    H3  474   2.017   2.292  13.955 -0.6972  0.4526  1.1562
   30MPD2     N  475   2.397   2.406  14.186  0.2012  0.3971 -0.5191
   30MPD2    H5  476   2.475   2.354  14.225  1.1708  1.3563 -1.1742
   30MPD2    N1  477   2.297   1.955  14.061 -0.2620 -0.0437 -0.3681
   30MPD2    H7  478   2.396   1.938  14.074 -0.9232 -2.8100  1.1037
   31TMC2    C1  479   4.530   1.388  15.618  0.4861 -0.5150  0.3851
   31TMC2    C2  480   4.409   1.448  15.638  0.1735  0.0172 -0.5472
   31TMC2    C3  481   4.358   1.444  15.763 -0.3879  0.0164  0.2944
   31TMC2    C4  482   4.606   1.337  15.718  0.0338  0.7619  0.6638
   31TMC2    C5  483   4.550   1.355  15.843 -0.3730  0.6010 -0.0919
   31TMC2    C6  484   4.430   1.403  15.873  0.1236  0.4632  0.0637
   31TMC2     C  485   4.594   1.436  15.499  0.2648 -0.0936  0.0027
   31TMC2     O  486   4.534   1.528  15.442 -0.4546  0.1901 -0.0291
   31TMC2     H  487   4.344   1.477  15.557 -0.0516 -0.1024 -0.4080
   31TMC2    H1  488   4.712   1.319  15.708 -0.1265  0.0491  0.2436
   31TMC2    H2  489   4.397   1.401  15.977 -2.7195  1.5433 -0.8033
   31TMC2    C7  490   4.643   1.315  15.955 -0.1980  0.2149 -0.3268
   31TMC2    C8  491   4.213   1.458  15.777  0.4853  0.0065 -0.1027
   31TMC2    O1  492   4.716   1.219  15.938 -0.7020 -0.9278  0.3063
   31TMC2    O2  493   4.157   1.437  15.885 -0.2506 -0.4440  0.1998
   31TMC2    O5  494   4.141   1.497  15.670  0.3476  0.5981 -0.0294
   31TMC2    H5  495   4.196   1.567  15.630 -1.5377  2.3866  0.5364
   32MPD2     C  496   0.206   1.434  15.126  0.1037  0.2926  0.5725
   32MPD2    C1  497   0.105   1.525  15.158  0.0743  0.4731  0.1399
   32MPD2    C2  498   0.025   1.503  15.260 -0.5087 -0.5289  0.9816
   32MPD2    C3  499   0.047   1.394  15.345  0.4805 -0.6278  0.1370
   32MPD2    C4  500   0.153   1.308  15.309  0.6767  0.6012  0.4477
   32MPD2    C5  501   0.244   1.335  15.213  0.2141 -0.3576  0.6286
   32MPD2     H  502   4.678   1.568  15.278  1.0432  1.9765 -0.6790
   32MPD2    H1  503   0.176   1.226  15.377  1.0303  0.7080  0.4537
   32MPD2    H2  504   0.264   1.450  15.036 -0.0786 -0.9774  0.2198
   32MPD2    H3  505   0.330   1.271  15.196 -0.5954 -0.3728 -3.3988
   32MPD2     N  506   4.710   1.364  15.462 -0.4718  0.1716  0.3188
   32MPD2    H5  507   4.727   1.278  15.513  0.4025  1.3279  1.9617
   32MPD2    N1  508   0.098   1.638  15.078 -0.4024  0.1182  0.0293
   32MPD2    H7  509   0.183   1.655  15.026 -0.0931 -0.3472  0.3838
   33TMC2    C1  510   4.339   4.388   9.990  0.1842 -0.1152  0.3412
   33TMC2    C2  511   4.247   4.486   9.953 -1.1265  0.6102  0.0801
   33TMC2    C3  512   4.295   4.590   9.873 -0.2472 -0.2913 -0.6788
   33TMC2    C4  513   4.478   4.399   9.960  0.3777 -0.5632 -0.3648
   33TMC2    C5  514   4.515   4.508   9.881  0.2841 -0.5415 -0.0121
   33TMC2    C6  515   4.426   4.597   9.832 -0.3555 -0.0371  0.6102
   33TMC2     C  516   4.274   4.285  10.070 -0.3446 -0.5803 -0.2310
   33TMC2     O  517   4.349   4.223  10.139 -0.0809  0.2346 -0.4424
   33TMC2     H  518   4.148   4.500   9.994 -0.9339  1.4807  0.2387
   33TMC2    H1  519   4.547   4.315   9.968  0.8768  0.2649  3.9448
   33TMC2    H2  520   4.461   4.684   9.778  2.5018 -2.4024 -1.3266
   33TMC2    C7  521   4.646   4.500   9.825 -0.3483  0.6381 -0.6129
   33TMC2    C8  522   4.201   4.661   9.790  0.1020  0.4062  0.2563
   33TMC2    O1  523   4.731   4.477   9.909  0.4029 -0.5554 -0.6041
   33TMC2    O2  524   4.089   4.616   9.772 -0.0872  0.3779  0.4344
   33TMC2    O5  525   4.236   0.047   9.759 -0.3309 -0.1895  0.2547
   33TMC2    H5  526   4.312   0.080   9.812 -0.8280 -0.9951  1.4892
   34MPD2     C  527   3.876   4.027  10.264  0.2750 -0.5747 -0.7226
   34MPD2    C1  528   4.010   4.020  10.301  0.4546 -0.1046  0.6527
   34MPD2    C2  529   4.101   4.101  10.234  0.3215 -0.0714  0.5909
   34MPD2    C3  530   4.055   4.191  10.133 -0.0186 -0.5161  0.1273
   34MPD2    C4  531   3.921   4.198  10.100  0.1742  0.5843  0.0163
   34MPD2    C5  532   3.837   4.112  10.163 -0.5348  0.6199 -0.1178
   34MPD2     H  533   4.205   4.090  10.263  0.7512  0.5646 -0.7168
   34MPD2    H1  534   3.880   4.257  10.019  1.8418  0.2770 -1.0562
   34MPD2    H2  535   3.799   3.980  10.324 -0.6576 -1.1673 -2.3698
   34MPD2    H3  536   3.733   4.123  10.132 -0.5881 -1.1175 -0.5613
   34MPD2     N  537   4.140   4.276  10.058 -0.1146  0.1350 -0.2213
   34MPD2    H5  538   4.105   4.335   9.983 -1.9577  2.1878  2.2420
   34MPD2    N1  539   4.039   3.934  10.410 -0.1088  0.1716 -0.2620
   34MPD2    H7  540   3.959   3.897  10.460 -0.4511 -0.4573 -1.2808
   35TMC2    C1  541   0.914   0.107  11.620  0.2486 -0.1476 -0.1320
   35TMC2    C2  542   0.795   0.129  11.545  1.0607 -0.7110  0.2584
   35TMC2    C3  543   0.678   0.101  11.610  0.0382 -0.2421  0.1271
   35TMC2    C4  544   0.914   0.087  11.754 -0.0209  0.3611  0.0407
   35TMC2    C5  545   0.790   0.061  11.810 -0.0331 -0.5913 -0.5305
   35TMC2    C6  546   0.681   0.060  11.740 -0.3789 -0.1644 -0.0748
   35TMC2     C  547   1.036   0.145  11.556 -0.5956  0.0986 -0.1715
   35TMC2     O  548   1.017   0.225  11.467  0.3489 -0.1464  0.2401
   35TMC2     H  549   0.802   0.150  11.439 -2.8281 -1.0449 -0.0618
   35TMC2    H1  550   1.005   0.071  11.811  0.9275  0.0051 -1.5893
   35TMC2    H2  551   0.596   0.022  11.795 -1.5641  0.8259 -1.2269
   35TMC2    C7  552   0.800   4.683  11.894 -0.0939  0.2799  0.1596
   35TMC2    C8  553   0.565   0.047  11.538  0.2716  0.0545  0.6252
   35TMC2    O1  554   0.738   4.585  11.857 -0.3451  0.3552  0.2862
   35TMC2    O2  555   0.513   4.680  11.577 -0.1944 -0.1983  0.4137
   35TMC2    O5  556   0.590   0.082  11.408 -0.0993 -0.1767  0.3046
   35TMC2    H5  557   0.622   0.175  11.402 -0.1446 -0.2330 -0.7539
   36MPD2     C  558   1.531   0.269  11.562 -0.0974  0.4531  0.0960
   36MPD2    C1  559   1.516   0.154  11.640 -0.5356  0.0286  0.2947
   36MPD2    C2  560   1.385   0.101  11.655 -0.2991 -0.1673  0.5910
   36MPD2    C3  561   1.277   0.167  11.600 -0.2363  0.1882 -0.1957
   36MPD2    C4  562   1.299   0.284  11.527 -0.2484 -0.3968  0.6461
   36MPD2    C5  563   1.422   0.337  11.514 -0.1071 -0.2171  0.3673
   36MPD2     H  564   1.359   0.021  11.723  1.4745 -1.0438  0.2255
   36MPD2    H1  565   1.215   0.320  11.468 -0.0514 -0.3142  0.4160
   36MPD2    H2  566   1.631   0.298  11.535 -0.2137 -1.3013 -2.2814
   36MPD2    H3  567   1.438   0.421  11.447  0.1960 -0.6035 -0.0492
   36MPD2     N  568   1.149   0.117  11.626 -0.0818 -0.1456  0.4893
   36MPD2    H5  569   1.162   0.034  11.683 -0.9309 -1.0105 -0.5977
   36MPD2    N1  570   1.634   0.099  11.691  0.0280  0.4970  0.3215
   36MPD2    H7  571   1.716   0.145  11.655  1.2010 -0.4180  1.8254
   37TMC2    C1  572   3.316   4.711  12.352  0.2313 -0.1689 -1.1922
   37TMC2    C2  573   3.206   4.709  12.271 -0.1640 -0.9496  0.8157
   37TMC2    C3  574   3.222   0.029  12.150  0.3236 -0.3274  0.6451
   37TMC2    C4  575   3.445   0.018  12.305  0.3804 -0.1305 -0.6355
   37TMC2    C5  576   3.456   0.067  12.181 -0.2360  0.2539 -0.4361
   37TMC2    C6  577   3.342   0.082  12.103 -0.1535  0.2027  0.7364
   37TMC2     C  578   3.292   4.693  12.494 -0.3801  0.5083  0.9554
   37TMC2     O  579   3.203   4.615  12.521  0.0354  0.4672 -0.1600
   37TMC2     H  580   3.105   4.690  12.307  0.3795 -1.7623  1.9141
   37TMC2    H1  581   3.534   0.005  12.366 -1.5304 -2.8508  1.5359
   37TMC2    H2  582   3.337   0.134  12.008 -1.6498 -2.3028 -0.5342
   37TMC2    C7  583   3.579   0.130  12.146  0.5722 -0.3959 -0.2704
   37TMC2    C8  584   3.122   4.729  12.051 -0.8519 -0.5538  0.3242
   37TMC2    O1  585   3.666   0.131  12.231  0.3772  0.6549  0.1478
   37TMC2    O2  586   3.040   4.635  12.059 -0.1372  0.1541  0.8309
   37TMC2    O5  587   3.122   0.088  11.957 -0.2603 -0.0240  0.2138
   37TMC2    H5  588   3.181   0.164  11.978 -2.7184  1.8046  0.4841
   38MPD2     C  589   3.414   0.015  12.992  0.0234  0.9022  0.2698
   38MPD2    C1  590   3.499   0.091  12.911  0.2238 -0.4265  0.6948
   38MPD2    C2  591   3.487   0.094  12.777  0.2854 -0.5709  0.3104
   38MPD2    C3  592   3.389   0.021  12.710  0.1715 -0.2845 -0.7454
   38MPD2    C4  593   3.314   4.670  12.790  0.4275  0.1664 -0.4217
   38MPD2    C5  594   3.331   4.668  12.931 -0.1034 -0.4666 -0.4156
   38MPD2     H  595   3.557   0.159  12.725  1.0465 -2.2855 -0.8068
   38MPD2    H1  596   3.227   4.614  12.760 -0.4943  0.9087  0.8442
   38MPD2    H2  597   3.408   0.026  13.099 -0.9051  0.1779  0.2930
   38MPD2    H3  598   3.264   4.611  12.995 -2.7017  2.0727 -0.8733
   38MPD2     N  599   3.375   0.032  12.573 -0.9794 -0.7077  0.2833
   38MPD2    H5  600   3.443   0.088  12.523  0.2257 -2.8144 -0.4188
   38MPD2    N1  601   3.590   0.181  12.965  0.4058  0.2130 -0.4018
   38MPD2    H7  602   3.640   0.233  12.894 -1.2884  0.0266 -1.7295
   39TMC2    C1  603   1.681   2.867   1.321  0.0517  0.6438  0.0379
   39TMC2    C2  604   1.646   2.990   1.373  0.1669 -0.2091  0.2206
   39TMC2    C3  605   1.741   3.083   1.399  0.7416 -0.1825  0.5730
   39TMC2    C4  606   1.814   2.842   1.290  0.3590  0.1933 -0.7277
   39TMC2    C5  607   1.903   2.948   1.310 -0.2023 -0.3525  0.6166
   39TMC2    C6  608   1.874   3.066   1.371  0.5458  0.9167 -0.1681
   39TMC2     C  609   1.570   2.773   1.275 -0.3021  0.6211 -1.1658
   39TMC2     O  610   1.457   2.822   1.269  0.2322  0.6164  0.3908
   39TMC2     H  611   1.546   3.006   1.411 -0.2349  0.1503 -1.0035
   39TMC2    H1  612   1.845   2.750   1.242  0.6769 -0.0398 -0.0688
   39TMC2    H2  613   1.952   3.139   1.392  1.2910 -0.1944  0.9502
   39TMC2    C7  614   2.041   2.904   1.286 -0.0346 -0.0155 -0.0788
   39TMC2    C8  615   1.695   3.211   1.452 -0.3121 -0.6654  0.0321
   39TMC2    O1  616   2.074   2.787   1.284  0.2078 -0.4852  0.0431
   39TMC2    O2  617   1.596   3.220   1.528  0.0147 -0.2627 -0.6440
   39TMC2    O5  618   1.725   3.288   1.345  0.5119 -0.5191 -0.4569
   39TMC2    H5  619   1.790   3.245   1.286 -0.1617  0.8746 -2.2105
   40MPD2     C  620   1.600   2.451   1.109 -0.5649 -0.3954  0.0631
   40MPD2    C1  621   1.550   2.573   1.137 -0.4697 -0.4446 -0.5994
   40MPD2    C2  622   1.430   2.603   1.070 -0.0328 -0.0789  0.3809
   40MPD2    C3  623   1.374   2.520   0.975 -0.0929  0.1568 -0.4755
   40MPD2    C4  624   1.438   2.406   0.942 -0.4087  0.4136  0.1547
   40MPD2    C5  625   1.550   2.370   1.016  0.1088  0.6040 -0.4518
   40MPD2     H  626   1.380   2.697   1.095 -0.1726 -0.3693  1.2033
   40MPD2    H1  627   1.399   2.327   0.879  0.8817 -0.2752  0.2114
   40MPD2    H2  628   1.695   2.416   1.148 -0.4488  0.8301  0.8834
   40MPD2    H3  629   1.602   2.277   0.997 -0.8869 -0.3658  1.6198
   40MPD2     N  630   1.255   2.556   0.900  0.2779  0.3012  0.6042
   40MPD2    H5  631   1.239   2.486   0.828  0.0648  0.0959  0.8513
   40MPD2    N1  632   1.616   2.652   1.232  0.5978 -0.3311 -0.2256
   40MPD2    H7  633   1.711   2.626   1.255  1.1709  1.7784 -0.1940
   41TMC2    C1  634   0.607   1.054  13.472  0.9172 -0.2430  0.0133
   41TMC2    C2  635   0.518   1.094  13.578  0.2035 -0.8294 -0.5625
   41TMC2    C3  636   0.394   1.138  13.542  0.1203  0.7797 -0.0116
   41TMC2    C4  637   0.574   1.061  13.347 -0.0542 -0.0143 -0.5947
   41TMC2    C5  638   0.455   1.115  13.315  0.4785  0.1455 -0.4233
   41TMC2    C6  639   0.365   1.151  13.410 -0.5552 -0.4733  0.1839
   41TMC2     C  640   0.745   1.033  13.501 -0.9420  0.0912  0.2048
   41TMC2     O  641   0.826   1.056  13.409 -0.0385  0.1732  0.0982
   41TMC2     H  642   0.554   1.094  13.680 -1.9119  2.7706  0.1943
   41TMC2    H1  643   0.641   1.043  13.263 -0.9578  0.1784 -1.3606
   41TMC2    H2  644   0.270   1.201  13.391  0.3167  1.9810  2.2214
   41TMC2    C7  645   0.400   1.064  13.199 -0.4176 -0.6884  0.0087
   41TMC2    C8  646   0.347   1.254  13.613 -0.7976  0.6440 -0.6426
   41TMC2    O1  647   0.288   1.109  13.168 -0.3860  0.2420  0.7633
   41TMC2    O2  648   0.321   1.359  13.555 -0.0092  0.5765  0.4375
   41TMC2    O5  649   0.378   1.247  13.744 -0.1663  0.2419  0.3381
   41TMC2    H5  650   0.380   1.154  13.776 -1.8245 -0.1630 -0.7435
   42MPD2     C  651   1.000   1.006  13.649  0.1602 -0.4526  0.4662
   42MPD2    C1  652   0.888   0.922  13.664  0.1928 -0.8514  0.0295
   42MPD2    C2  653   0.899   0.807  13.736 -0.2190 -0.0303 -0.3193
   42MPD2    C3  654   1.018   0.772  13.793  0.4245  0.2865  1.3942
   42MPD2    C4  655   1.127   0.845  13.761 -0.0086 -0.1140  0.3977
   42MPD2    C5  656   1.120   0.962  13.701  0.5940 -0.2837  0.1704
   42MPD2     H  657   0.814   0.740  13.744  0.3171 -0.7783 -0.9044
   42MPD2    H1  658   1.227   0.814  13.785  0.4423 -1.2777 -2.9318
   42MPD2    H2  659   0.996   1.100  13.595  1.3853 -0.1769  0.8681
   42MPD2    H3  660   1.211   1.021  13.703 -1.1722  2.3547  0.8556
   42MPD2     N  661   1.033   0.654  13.870  0.1024 -0.4507  0.1426
   42MPD2    H5  662   1.125   0.629  13.905  0.2823  0.7256  0.5145
   42MPD2    N1  663   0.760   0.958  13.617  0.0048 -0.1923 -0.3485
   42MPD2    H7  664   0.688   0.892  13.645  1.0818 -0.6782  1.2958
   43TMC2    C1  665   2.215   3.814   1.142 -0.6505 -0.4120  0.2085
   43TMC2    C2  666   2.280   3.761   1.251 -0.1494  0.1016 -0.1914
   43TMC2    C3  667   2.303   3.831   1.364 -0.3809  0.3806  0.2256
   43TMC2    C4  668   2.174   3.943   1.155  0.5231  0.6443  0.3150
   43TMC2    C5  669   2.193   4.015   1.268 -0.3266  0.0821  0.1433
   43TMC2    C6  670   2.262   3.958   1.371 -0.1878  0.4136 -0.6153
   43TMC2     C  671   2.269   3.779   1.004  0.6278 -0.3357 -1.0831
   43TMC2     O  672   2.286   3.660   0.976  0.4323 -0.3276 -0.0393
   43TMC2     H  673   2.326   3.664   1.235  1.3425  0.9342 -0.8850
   43TMC2    H1  674   2.115   3.989   1.076  1.1815 -2.0959 -1.7787
   43TMC2    H2  675   2.287   4.008   1.464  0.6459  1.1819 -1.2579
   43TMC2    C7  676   2.220   4.153   1.239  0.5403  0.2130  0.1622
   43TMC2    C8  677   2.401   3.776   1.456  0.3815  0.1183 -0.4604
   43TMC2    O1  678   2.248   4.171   1.119  0.0197 -0.5701 -0.3913
   43TMC2    O2  679   2.467   3.843   1.536 -0.4432  0.2598 -0.2015
   43TMC2    O5  680   2.364   3.653   1.478  0.3830 -0.4421 -0.0436
   43TMC2    H5  681   2.278   3.627   1.437  0.0147  0.9754 -0.1870
   44MPD2     C  682   2.530   3.915   0.589  0.0185 -0.4017  0.0704
   44MPD2    C1  683   2.519   3.792   0.645 -0.3183 -0.3056  0.0956
   44MPD2    C2  684   2.425   3.777   0.752 -0.1686 -0.7109 -0.6763
   44MPD2    C3  685   2.361   3.891   0.807  0.7757  0.7958  0.4148
   44MPD2    C4  686   2.407   4.012   0.761  0.3808 -0.2606  0.7431
   44MPD2    C5  687   2.488   4.020   0.650  0.3822 -0.2388  0.8154
   44MPD2     H  688   2.407   3.679   0.795  1.5252 -0.2135  1.1567
   44MPD2    H1  689   2.373   4.105   0.806  0.8300 -0.3025  1.1756
   44MPD2    H2  690   2.593   3.934   0.503 -0.2748  0.2735  0.0084
   44MPD2    H3  691   2.519   4.114   0.606  2.2372 -0.8920  0.7284
   44MPD2     N  692   2.290   3.895   0.927  0.3961  0.4711 -0.3999
   44MPD2    H5  693   2.264   3.983   0.970  0.3960 -0.7661  2.1093
   44MPD2    N1  694   2.580   3.671   0.594 -0.6794 -0.0750 -0.6281
   44MPD2    H7  695   2.550   3.580   0.627 -2.7171 -0.2020 -2.8016
   45TMC2    C1  696   3.522   0.461   9.728  0.1589 -0.2950 -1.0190
   45TMC2    C2  697   3.632   0.387   9.704  0.1894 -0.1980 -0.7000
   45TMC2    C3  698   3.757   0.442   9.727  0.1015  0.5268 -0.6583
   45TMC2    C4  699   3.533   0.593   9.755 -0.1811 -0.7098  0.0776
   45TMC2    C5  700   3.660   0.641   9.777  0.7274  0.0331  0.4231
   45TMC2    C6  701   3.772   0.568   9.771 -0.0363 -0.1267  0.2619
   45TMC2     C  702   3.397   0.404   9.683  0.3719  0.3666 -0.3354
   45TMC2     O  703   3.390   0.285   9.668  0.1120  0.1472 -0.3496
   45TMC2     H  704   3.616   0.295   9.649  1.4231 -0.2752 -0.9179
   45TMC2    H1  705   3.446   0.653   9.778  1.1528  1.1522  0.2424
   45TMC2    H2  706   3.862   0.600   9.821  0.7306 -1.1705 -0.4469
   45TMC2    C7  707   3.664   0.778   9.822  0.0447 -0.3945 -0.6068
   45TMC2    C8  708   3.866   0.348   9.722 -0.4991 -0.0733  0.1347
   45TMC2    O1  709   3.568   0.817   9.887 -0.1493 -0.2806 -0.2540
   45TMC2    O2  710   3.836   0.230   9.710  0.3477  0.0963  0.3771
   45TMC2    O5  711   3.951   0.417   9.644 -0.2057  0.6716 -0.0417
   45TMC2    H5  712   3.961   0.513   9.662 -1.5637  0.9612 -0.8285
   46MPD2     C  713   3.110   0.341   9.588 -0.4013  0.3069 -0.1271
   46MPD2    C1  714   3.157   0.471   9.615 -0.3410 -0.0316 -0.5800
   46MPD2    C2  715   3.079   0.579   9.581 -0.3555 -0.1725 -0.8354
   46MPD2    C3  716   2.948   0.565   9.550 -0.4200 -0.1124 -0.0654
   46MPD2    C4  717   2.901   0.435   9.525 -0.0371  0.3846  0.0630
   46MPD2    C5  718   2.988   0.327   9.542  0.9554 -0.7032 -0.3269
   46MPD2     H  719   3.126   0.676   9.592 -1.1021  0.4369 -3.1523
   46MPD2    H1  720   2.795   0.421   9.508 -0.1476  1.1923  0.0818
   46MPD2    H2  721   3.172   0.254   9.606  0.1296  1.4373  3.4133
   46MPD2    H3  722   2.952   0.226   9.526 -1.0554  0.0786 -0.8714
   46MPD2     N  723   2.869   0.681   9.538  0.2620  0.7664 -0.2720
   46MPD2    H5  724   2.917   0.770   9.544  0.0314  0.8059  0.9864
   46MPD2    N1  725   3.293   0.498   9.660  0.1780 -0.1413  0.0914
   46MPD2    H7  726   3.322   0.594   9.649 -2.6875  0.7912  0.5871
   47TMC2    C1  727   0.698   1.581   9.251  0.0161  0.4537 -0.5718
   47TMC2    C2  728   0.719   1.482   9.158 -0.1912 -0.5632 -0.3184
   47TMC2    C3  729   0.607   1.425   9.104  0.1646 -0.5946 -0.9409
   47TMC2    C4  730   0.571   1.626   9.276 -0.1171  0.1774  0.1770
   47TMC2    C5  731   0.465   1.564   9.223 -0.0302  0.2402  0.0462
   47TMC2    C6  732   0.481   1.463   9.139  0.4701 -0.2140  0.1893
   47TMC2     C  733   0.792   1.601   9.368 -0.1468 -0.0044  0.3030
   47TMC2     O  734   0.772   1.702   9.434 -0.1485  0.0234  0.2186
   47TMC2     H  735   0.816   1.440   9.132  0.3522 -1.0409  2.4677
   47TMC2    H1  736   0.551   1.693   9.358 -0.6504 -0.5153  0.6166
   47TMC2    H2  737   0.387   1.417   9.111  2.3561 -3.2946 -1.1026
   47TMC2    C7  738   0.336   1.614   9.261 -0.9348  0.0301 -0.3745
   47TMC2    C8  739   0.622   1.305   9.025 -0.4347  0.2115  0.0207
   47TMC2    O1  740   0.229   1.559   9.238 -0.5592 -1.3129  0.0235
   47TMC2    O2  741   0.725   1.235   9.027 -0.0910  0.0370  0.2287
   47TMC2    O5  742   0.505   1.284   8.960  0.3081 -0.3442  0.3222
   47TMC2    H5  743   0.460   1.370   8.947  2.0790  0.6113  0.6226
   48MPD2     C  744   0.973   1.557   9.609 -0.1536 -0.4274  0.3850
   48MPD2    C1  745   0.947   1.463   9.509  0.2850  0.1798  0.0071
   48MPD2    C2  746   0.998   1.340   9.534  0.6615  0.4237  0.5567
   48MPD2    C3  747   1.088   1.310   9.630 -0.1578 -0.8650  0.5257
   48MPD2    C4  748   1.116   1.404   9.729 -0.8540  0.0882 -0.7077
   48MPD2    C5  749   1.057   1.529   9.713 -0.4301 -0.2371  0.4274
   48MPD2     H  750   0.971   1.257   9.470  2.0916  0.5807 -0.2386
   48MPD2    H1  751   1.190   1.390   9.806 -0.1247 -0.0044 -1.4270
   48MPD2    H2  752   0.930   1.657   9.606 -0.1004 -0.4756 -1.7251
   48MPD2    H3  753   1.077   1.608   9.785  1.5958 -0.8631  0.5622
   48MPD2     N  754   1.126   1.176   9.631  0.1192  0.0824 -0.3192
   48MPD2    H5  755   1.072   1.114   9.571 -0.8442  0.4281  0.1895
   48MPD2    N1  756   0.858   1.482   9.402  0.1693  0.5391  0.1061
   48MPD2    H7  757   0.844   1.402   9.341 -1.1761  0.0225  1.0766
   49TMC2    C1  758   4.247   3.213  10.396  0.2601 -0.5246  0.4629
   49TMC2    C2  759   4.346   3.209  10.298 -0.1894 -0.1150  0.1177
   49TMC2    C3  760   4.423   3.096  10.284  0.0721  0.2713  0.5650
   49TMC2    C4  761   4.223   3.094  10.469  0.6090  0.2795  0.4611
   49TMC2    C5  762   4.291   2.982  10.440 -0.6538  0.1432  0.7017
   49TMC2    C6  763   4.401   2.987  10.356 -0.6129  0.0825  0.0647
   49TMC2     C  764   4.139   3.306  10.371 -0.0042 -0.2331 -0.5510
   49TMC2     O  765   4.141   3.364  10.261  0.0210 -0.2346 -0.0789
   49TMC2     H  766   4.360   3.285  10.222 -2.4221  0.0244 -0.1619
   49TMC2    H1  767   4.128   3.077  10.519  0.6160  1.1010  0.7524
   49TMC2    H2  768   4.469   2.903  10.348 -0.1680  0.3265  1.2496
   49TMC2    C7  769   4.237   2.856  10.494 -0.3268  0.0381  0.3372
   49TMC2    C8  770   4.541   3.103  10.196 -0.1961  0.4172  0.6936
   49TMC2    O1  771   4.143   2.868  10.577 -0.1555  0.0878 -0.5614
   49TMC2    O2  772   4.604   2.998  10.180 -0.4097 -0.1971 -0.2734
   49TMC2    O5  773   4.595   3.227  10.206  0.0535 -0.0026 -0.2591
   49TMC2    H5  774   4.537   3.290  10.255 -0.0733 -0.8010  0.6105
   50MPD2     C  775   3.929   3.514  10.417  0.3870 -0.3826 -0.5958
   50MPD2    C1  776   3.953   3.410  10.494 -0.1582  0.4849 -0.8905
   50MPD2    C2  777   3.869   3.404  10.608 -0.3225  0.2283 -0.1209
   50MPD2    C3  778   3.766   3.491  10.635 -0.4083 -1.1473 -0.0005
   50MPD2    C4  779   3.751   3.600  10.551  0.6883  0.0194 -0.3462
   50MPD2    C5  780   3.835   3.610  10.442 -0.5683 -0.6523  0.3098
   50MPD2     H  781   3.870   3.311  10.663  1.6236  1.2521  1.5661
   50MPD2    H1  782   3.668   3.669  10.561  0.9746  0.6298 -2.2896
   50MPD2    H2  783   3.983   3.524  10.324 -0.0870 -1.3831 -0.9817
   50MPD2    H3  784   3.824   3.684  10.364  4.2023  0.3685  0.6264
   50MPD2     N  785   3.666   3.476  10.738 -0.0160 -0.1236 -0.4718
   50MPD2    H5  786   3.591   3.544  10.735  1.1929  1.1005 -3.1733
   50MPD2    N1  787   4.055   3.311  10.478 -0.0057 -0.5242 -0.6774
   50MPD2    H7  788   4.068   3.250  10.558  0.0183  0.0246 -0.2579
   51TMC2    C1  789   4.718   2.003   1.641 -0.2487  0.8931 -0.4298
   51TMC2    C2  790   4.685   2.026   1.771  0.1062  0.6993 -0.3558
   51TMC2    C3  791   4.560   2.086   1.796 -0.0731 -0.3723  0.3318
   51TMC2    C4  792   4.645   2.045   1.539 -1.4076  0.1231 -0.7433
   51TMC2    C5  793   4.522   2.107   1.563 -0.6325  0.1869 -0.4403
   51TMC2    C6  794   4.480   2.121   1.692  0.0722  0.4111  0.6125
   51TMC2     C  795   0.095   1.911   1.624 -0.1699 -0.0127  0.1981
   51TMC2     O  796   0.135   1.908   1.508 -0.1247 -0.7124  0.1845
   51TMC2     H  797   0.025   2.017   1.845  1.5286 -1.6941 -2.1306
   51TMC2    H1  798   4.679   2.040   1.436  2.0546 -1.0420  0.4280
   51TMC2    H2  799   4.386   2.167   1.721  0.0028  0.2853  0.5864
   51TMC2    C7  800   4.462   2.209   1.473  0.3226  0.5158  0.2283
   51TMC2    C8  801   4.515   2.143   1.922 -0.4238 -0.1766  0.1943
   51TMC2    O1  802   4.438   2.323   1.514 -0.6238  0.0952 -0.1756
   51TMC2    O2  803   4.460   2.252   1.922 -0.0028 -0.3623 -0.7061
   51TMC2    O5  804   4.547   2.055   2.020 -0.0498 -0.0763 -0.3756
   51TMC2    H5  805   4.564   1.965   1.984 -0.7714  0.0158 -0.9461
   52MPD2     C  806   0.442   1.557   1.732  0.6644  0.5008  0.2262
   52MPD2    C1  807   0.408   1.624   1.617  0.3829  0.5376 -0.4625
   52MPD2    C2  808   0.310   1.719   1.616 -0.4915 -0.1461  0.0109
   52MPD2    C3  809   0.244   1.752   1.734  0.2587 -0.3932 -1.1282
   52MPD2    C4  810   0.288   1.689   1.850  0.0269  0.4587  0.1486
   52MPD2    C5  811   0.387   1.596   1.845 -0.2132 -0.2477  0.4764
   52MPD2     H  812   0.287   1.760   1.518  3.6746 -1.4616 -1.5540
   52MPD2    H1  813   0.255   1.700   1.952 -0.8139  0.1130 -0.0914
   52MPD2    H2  814   0.532   1.496   1.737 -0.5777 -1.4033 -0.5305
   52MPD2    H3  815   0.412   1.553   1.941  0.3934  2.8421  1.7105
   52MPD2     N  816   0.138   1.842   1.740 -0.5888  0.3181  0.4716
   52MPD2    H5  817   0.085   1.848   1.827 -0.8968 -2.6404  0.5019
   52MPD2    N1  818   0.476   1.601   1.491  0.2809 -0.8760 -0.1571
   52MPD2    H7  819   0.441   1.650   1.409  0.0898  0.6260  0.8212
   53TMC2    C1  820   4.210   0.459  12.121 -0.3914  0.3294  0.0616
   53TMC2    C2  821   4.340   0.422  12.127  0.1383  0.3998 -0.3528
   53TMC2    C3  822   4.409   0.439  12.243 -0.5184  0.1987 -0.7830
   53TMC2    C4  823   4.145   0.518  12.224 -0.7935  0.4717  0.8826
   53TMC2    C5  824   4.216   0.532  12.339  0.3287  1.0784  0.1793
   53TMC2    C6  825   4.349   0.500  12.348  0.3093 -0.2845 -0.6518
   53TMC2     C  826   4.134   0.421  11.998 -0.0951 -0.4722 -0.1474
   53TMC2     O  827   4.192   0.384  11.898  0.0709 -0.5125 -0.3791
   53TMC2     H  828   4.387   0.378  12.039 -1.6201  0.6647 -1.4144
   53TMC2    H1  829   4.048   0.562  12.205 -0.7401 -0.7783 -2.2407
   53TMC2    H2  830   4.395   0.501  12.446  0.5509 -1.0130 -0.7524
   53TMC2    C7  831   4.144   0.575  12.460 -0.9191  0.2084  0.7341
   53TMC2    C8  832   4.552   0.423  12.246 -0.2776  0.0694  0.1443
   53TMC2    O1  833   4.023   0.586  12.441  0.0810 -0.1595  0.0340
   53TMC2    O2  834   4.602   0.313  12.232 -0.4080  0.1373  0.2473
   53TMC2    O5  835   4.591   0.518  12.332 -0.7699 -0.3440  0.0306
   53TMC2    H5  836   4.532   0.596  12.327 -1.4182 -0.8179  0.1754
   54MPD2     C  837   3.921   0.340  11.818 -0.1890  0.4316 -0.5897
   54MPD2    C1  838   3.908   0.344  11.952  0.2376 -0.3147  1.8046
   54MPD2    C2  839   3.795   0.299  12.014 -1.4004  0.1338 -0.4778
   54MPD2    C3  840   3.701   0.228  11.948 -0.8931  0.2473  0.2719
   54MPD2    C4  841   3.724   0.204  11.809  0.3537  1.0343 -0.4862
   54MPD2    C5  842   3.832   0.262  11.744 -0.3411  0.8534 -0.0046
   54MPD2     H  843   3.783   0.321  12.120  2.2212 -0.4265  0.0652
   54MPD2    H1  844   3.650   0.140  11.762  1.0327 -0.0743 -0.0492
   54MPD2    H2  845   4.006   0.381  11.763 -1.1587  0.3677 -2.1341
   54MPD2    H3  846   3.842   0.245  11.638  0.7085  2.3608 -0.1569
   54MPD2     N  847   3.591   0.167  12.013 -0.2567 -0.3468  0.3165
   54MPD2    H5  848   3.517   0.130  11.954 -1.4196  1.3028  0.7347
   54MPD2    N1  849   3.999   0.411  12.033  0.5414 -0.0831 -0.0616
   54MPD2    H7  850   3.966   0.451  12.120 -0.1399  0.7576 -0.6980
   55TMC2    C1  851   0.750   0.088   0.376 -0.3614  0.6772 -0.1980
   55TMC2    C2  852   0.842   0.174   0.318 -0.0362  0.1226 -0.4755
   55TMC2    C3  853   0.972   0.145   0.352 -0.4118  0.3230  0.4675
   55TMC2    C4  854   0.781   4.729   0.465 -0.0722 -0.0398  0.0826
   55TMC2    C5  855   0.913   4.706   0.495  0.0695 -0.1847 -0.1754
   55TMC2    C6  856   1.014   0.054   0.449  0.7657 -0.0335 -0.2983
   55TMC2     C  857   0.614   0.096   0.328 -0.1978  0.0832  0.2250
   55TMC2     O  858   0.528   0.044   0.397  0.3012 -0.1244  0.4506
   55TMC2     H  859   0.823   0.252   0.245 -0.7310  0.6136  0.2323
   55TMC2    H1  860   0.700   4.672   0.510  1.2431  1.3451  4.2184
   55TMC2    H2  861   1.118   0.033   0.468  0.2449 -0.0162  2.5665
   55TMC2    C7  862   0.951   4.569   0.527  0.4324 -0.8684 -0.0637
   55TMC2    C8  863   1.086   0.220   0.292  0.2338  0.0756  0.3894
   55TMC2    O1  864   1.070   4.547   0.525  0.1074 -0.9599  0.1839
   55TMC2    O2  865   1.194   0.237   0.355 -0.8644  0.0468 -0.6767
   55TMC2    O5  866   1.077   0.219   0.155  0.0712 -0.1698  0.0962
   55TMC2    H5  867   0.990   0.195   0.116 -0.3563 -2.6744  2.6317
   56MPD2     C  868   0.496   0.225   0.001 -0.2401  0.4788 -0.2079
   56MPD2    C1  869   0.480   0.175   0.128  0.0824 -0.5394 -0.6543
   56MPD2    C2  870   0.352   0.155   0.177  0.7233 -0.4236  0.1565
   56MPD2    C3  871   0.241   0.180   0.108 -0.2123  0.0590 -0.4880
   56MPD2    C4  872   0.257   0.228  17.727  0.7778  0.1682 -0.5972
   56MPD2    C5  873   0.383   0.246  17.678 -0.1059  0.0702  0.5664
   56MPD2     H  874   0.343   0.110   0.276 -0.3547 -1.6733 -0.5089
   56MPD2    H1  875   0.176   0.257  17.661 -0.0386  1.0072  0.7744
   56MPD2    H2  876   0.591   0.239  17.701  0.1978 -2.4030 -0.1800
   56MPD2    H3  877   0.394   0.288  17.579  0.4932  1.5155  1.2462
   56MPD2     N  878   0.114   0.140   0.158  0.4249  0.9982  0.1042
   56MPD2    H5  879   0.116   0.115   0.256  3.6653 -0.7358 -0.4054
   56MPD2    N1  880   0.600   0.151   0.202 -0.5312  0.2288  0.2707
   56MPD2    H7  881   0.687   0.166   0.152 -0.7170 -0.7764 -0.3501
   57TMC2    C1  882   4.247   3.889  13.652 -0.7011 -0.2386 -0.2293
   57TMC2    C2  883   4.234   3.753  13.641 -0.1304 -0.2447 -0.0827
   57TMC2    C3  884   4.345   3.677  13.627 -0.0049  0.4405 -0.0407
   57TMC2    C4  885   4.373   3.946  13.631  0.2117 -0.3813  0.3185
   57TMC2    C5  886   4.482   3.862  13.609 -0.0346 -0.4075  0.3205
   57TMC2    C6  887   4.469   3.723  13.612  0.1512 -0.1436  0.9951
   57TMC2     C  888   4.141   3.985  13.625 -0.2315 -0.3530 -0.0899
   57TMC2     O  889   4.159   4.101  13.662 -0.2642  0.8480  0.1669
   57TMC2     H  890   4.136   3.708  13.633 -1.3449  2.5194 -0.6442
   57TMC2    H1  891   4.389   4.053  13.619 -3.8213  0.4128  2.1108
   57TMC2    H2  892   4.554   3.656  13.609  0.8598  0.7713  0.6285
   57TMC2    C7  893   4.583   3.926  13.528 -0.3986  0.0136 -0.0301
   57TMC2    C8  894   4.323   3.527  13.623  0.4176  0.0207  0.0362
   57TMC2    O1  895   4.580   4.050  13.516  0.4825  0.3000  0.3552
   57TMC2    O2  896   4.223   3.472  13.663  0.1528 -0.3061  0.6202
   57TMC2    O5  897   4.419   3.469  13.551 -0.2987 -0.3627  0.0886
   57TMC2    H5  898   4.464   3.512  13.476 -1.6687 -1.0677 -1.1236
   58MPD2     C  899   3.644   4.024  13.569  1.0436  0.4712  0.0734
   58MPD2    C1  900   3.727   4.069  13.668  0.0410 -0.5458  0.0458
   58MPD2    C2  901   3.864   4.050  13.658  0.3522 -0.1803  0.6228
   58MPD2    C3  902   3.911   3.972  13.555  0.4050  0.7135 -0.3829
   58MPD2    C4  903   3.826   3.928  13.454  0.1669 -0.1447  0.3489
   58MPD2    C5  904   3.692   3.947  13.467 -0.2939 -0.0691 -0.2928
   58MPD2     H  905   3.931   4.086  13.736 -0.2385 -1.0099  1.5126
   58MPD2    H1  906   3.853   3.860  13.374  2.3725  0.1318  0.8792
   58MPD2    H2  907   3.539   4.004  13.588  0.4408  3.3095 -0.3146
   58MPD2    H3  908   3.629   3.905  13.389  0.5648  1.3762 -1.7529
   58MPD2     N  909   4.041   3.930  13.546  0.4340  0.2628  0.1026
   58MPD2    H5  910   4.055   3.843  13.495 -0.4407  0.4607 -0.4691
   58MPD2    N1  911   3.685   4.140  13.787 -0.5666  0.0671 -0.2380
   58MPD2    H7  912   3.760   4.183  13.840 -2.5225  3.9510 -0.6395
   59TMC2    C1  913   2.192   4.386  12.882  0.4250 -0.1064  0.0780
   59TMC2    C2  914   2.295   4.306  12.930 -1.4578  0.4111  0.1601
   59TMC2    C3  915   2.343   4.210  12.849 -0.1827 -0.1436  0.0679
   59TMC2    C4  916   2.140   4.371  12.753  0.2692 -0.0990  0.3873
   59TMC2    C5  917   2.190   4.260  12.688  0.2690 -0.9705 -0.7283
   59TMC2    C6  918   2.295   4.179  12.728 -0.1069 -0.3568  0.0866
   59TMC2     C  919   2.137   4.486  12.965  0.4524 -0.5288  0.3008
   59TMC2     O  920   2.063   4.569  12.909  0.1470  0.2890 -0.7009
   59TMC2     H  921   2.355   4.338  13.015 -0.9682  2.5877 -1.0203
   59TMC2    H1  922   2.048   4.422  12.729 -0.7966 -1.4116  1.7118
   59TMC2    H2  923   2.337   4.097  12.671  0.4254  1.9664 -2.8815
   59TMC2    C7  924   2.119   4.204  12.581 -0.4172  1.4053  0.5592
   59TMC2    C8  925   2.460   4.147  12.905 -0.3737  0.0134  0.6141
   59TMC2    O1  926   2.135   4.081  12.576  0.6078 -0.0277 -0.3561
   59TMC2    O2  927   2.550   4.215  12.952  0.0256 -0.4513 -0.1379
   59TMC2    O5  928   2.425   4.023  12.931 -0.3033 -0.8385  0.4461
   59TMC2    H5  929   2.329   4.011  12.916  0.1213 -2.0495 -1.3529
   60MPD2     C  930   2.137   4.719  13.158 -0.8211  0.6611 -0.6567
   60MPD2    C1  931   2.182   4.593  13.191  1.0413  0.1414 -0.3469
   60MPD2    C2  932   2.216   4.564  13.320  0.4757  0.1117  0.1714
   60MPD2    C3  933   2.232   4.662  13.416  1.1436 -0.0692  0.3482
   60MPD2    C4  934   2.197   0.050  13.388 -0.4581  0.5397 -0.1781
   60MPD2    C5  935   2.153   0.078  13.256 -0.4593 -0.1084 -0.5919
   60MPD2     H  936   2.256   4.464  13.335 -0.9162 -0.5400 -0.4575
   60MPD2    H1  937   2.196   0.127  13.465 -1.4852 -2.0983  2.4444
   60MPD2    H2  938   2.120   0.021  13.059 -3.4366  1.3231  0.0534
   60MPD2    H3  939   2.113   0.177  13.241 -0.6999 -0.0579  0.3479
   60MPD2     N  940   2.273   4.627  13.552  0.3490 -0.7529 -0.1248
   60MPD2    H5  941   2.309   4.706  13.605  0.3057 -0.0132 -1.1782
   60MPD2    N1  942   2.180   4.482  13.095 -0.3196  0.3605 -0.4303
   60MPD2    H7  943   2.218   4.394  13.129  1.3516  1.2746  0.0318
   61TMC2    C1  944   1.004   1.328  15.369  0.0019 -0.2114 -0.0812
   61TMC2    C2  945   0.900   1.323  15.283  0.1112  0.1516  0.3874
   61TMC2    C3  946   0.855   1.442  15.247 -0.2574  0.1431 -0.4139
   61TMC2    C4  947   1.070   1.437  15.407 -0.1379 -0.2664  0.1071
   61TMC2    C5  948   1.030   1.553  15.351  0.5841  0.4177 -0.5458
   61TMC2    C6  949   0.920   1.560  15.273  0.3304 -0.3965 -0.3884
   61TMC2     C  950   1.014   1.216  15.463 -0.6043  1.0486  0.3795
   61TMC2     O  951   1.062   1.244  15.573  0.0460  0.2896 -0.3463
   61TMC2     H  952   0.848   1.231  15.258 -0.2218  0.5910 -0.5302
   61TMC2    H1  953   1.147   1.425  15.482 -0.1772 -2.6088 -0.2306
   61TMC2    H2  954   0.880   1.654  15.235  1.8477  1.0853  1.6599
   61TMC2    C7  955   1.101   1.677  15.380  0.2424 -0.4682  0.2425
   61TMC2    C8  956   0.739   1.427  15.164 -0.7184  0.9263 -0.0753
   61TMC2    O1  957   1.082   1.770  15.301 -0.1656  0.2410  0.6607
   61TMC2    O2  958   0.663   1.334  15.180 -0.6345 -0.7772  0.0847
   61TMC2    O5  959   0.770   1.481  15.042 -0.5117 -0.6695 -0.6649
   61TMC2    H5  960   0.851   1.535  15.053 -1.1033  1.0242 -4.4706
   62MPD2     C  961   0.989   0.961  15.635 -0.0655  0.2703  0.4994
   62MPD2    C1  962   0.962   0.977  15.497  0.0342 -0.5653  0.4023
   62MPD2    C2  963   0.940   0.853  15.432  0.2726  0.0249 -0.2178
   62MPD2    C3  964   0.943   0.731  15.499  0.1918 -0.2684 -0.0421
   62MPD2    C4  965   0.969   0.730  15.627 -0.1104  0.5525  0.1737
   62MPD2    C5  966   0.987   0.844  15.696 -0.3197 -0.7575  0.0535
   62MPD2     H  967   0.917   0.858  15.326 -1.2329  1.4839  0.1729
   62MPD2    H1  968   0.960   0.630  15.668  0.8006 -0.4370 -2.0268
   62MPD2    H2  969   1.026   1.047  15.690  4.4285 -3.1419  2.8690
   62MPD2    H3  970   1.009   0.846  15.802  1.5020 -1.8561 -0.3062
   62MPD2     N  971   0.921   0.615  15.438  0.0182  0.3972 -0.0537
   62MPD2    H5  972   0.957   0.529  15.477 -0.8413  0.0225 -0.1133
   62MPD2    N1  973   0.965   1.094  15.418 -0.0924  0.4490 -0.2869
   62MPD2    H7  974   0.937   1.087  15.321 -2.6484 -0.6008  0.5464
   63TMC2    C1  975   1.325   0.994  10.879 -0.1980  0.2937 -0.3132
   63TMC2    C2  976   1.457   1.027  10.913  0.2283  0.1408  0.4378
   63TMC2    C3  977   1.542   1.096  10.825 -0.0474 -0.6919  0.1590
   63TMC2    C4  978   1.289   1.033  10.755 -0.1626  0.2342 -0.4970
   63TMC2    C5  979   1.376   1.106  10.675 -0.0360 -0.1807  0.1269
   63TMC2    C6  980   1.504   1.140  10.705 -0.3043  0.0253  0.0174
   63TMC2     C  981   1.242   0.901  10.955  0.4129  0.7696  0.2105
   63TMC2     O  982   1.269   0.900  11.077 -0.2090 -0.7137  1.0994
   63TMC2     H  983   1.503   0.990  11.003  0.0828 -0.9165  0.0774
   63TMC2    H1  984   1.188   1.017  10.719  0.1235  1.3792 -1.7943
   63TMC2    H2  985   1.577   1.188  10.642  0.1673  0.4498  0.8782
   63TMC2    C7  986   1.324   1.110  10.538  0.0210 -0.7281 -0.6230
   63TMC2    C8  987   1.683   1.106  10.864 -0.5798 -0.3637  0.4275
   63TMC2    O1  988   1.233   1.034  10.513  0.0092 -0.6191 -0.2765
   63TMC2    O2  989   1.743   1.027  10.937 -0.4782  0.0525 -0.0506
   63TMC2    O5  990   1.695   1.239  10.866 -0.4120  0.4799  0.5706
   63TMC2    H5  991   1.635   1.286  10.804 -1.1172 -2.7463 -1.2143
   64MPD2     C  992   0.848   0.576  10.992 -0.3979  0.1717 -0.7334
   64MPD2    C1  993   0.889   0.592  10.862 -0.3358  0.1741  0.2709
   64MPD2    C2  994   0.986   0.673  10.825  0.1861  0.8322  0.1730
   64MPD2    C3  995   1.053   0.743  10.919  0.0206 -0.0540  0.5278
   64MPD2    C4  996   1.006   0.740  11.051  0.8426 -0.2408 -0.6240
   64MPD2    C5  997   0.907   0.650  11.086 -0.3193 -0.4632 -0.5555
   64MPD2     H  998   1.000   0.682  10.717  3.4288  0.7936  0.5887
   64MPD2    H1  999   1.042   0.808  11.127  0.3240  1.8935 -2.2785
   64MPD2    H2 1000   0.771   0.510  11.030  0.9683 -1.4277 -0.7325
   64MPD2    H3 1001   0.862   0.638  11.184 -0.3877  2.7630 -0.1964
   64MPD2     N 1002   1.152   0.833  10.874 -0.7657 -0.1460 -0.3467
   64MPD2    H5 1003   1.169   0.834  10.774  1.9314  0.3874  0.1045
   64MPD2    N1 1004   0.839   0.505  10.760 -0.1457  0.8546 -0.7638
   64MPD2    H7 1005   0.904   0.507  10.682 -0.1889 -0.6423 -0.8438
   65TMC2    C1 1006   1.695   0.950  15.549 -0.0462  0.3419  0.7900
   65TMC2    C2 1007   1.608   0.881  15.473  0.4114  0.4578  0.1794
   65TMC2    C3 1008   1.524   0.949  15.389  0.0077 -0.3348  1.0540
   65TMC2    C4 1009   1.700   1.085  15.548  0.3980 -0.5274 -0.5739
   65TMC2    C5 1010   1.639   1.147  15.446  0.2288  0.4319 -0.9670
   65TMC2    C6 1011   1.556   1.079  15.358  0.2320  0.9735 -0.3053
   65TMC2     C 1012   1.775   0.886  15.656 -0.7246  0.3739  0.6194
   65TMC2     O 1013   1.777   0.958  15.761 -0.6823  0.3278 -0.7809
   65TMC2     H 1014   1.608   0.774  15.460 -0.7346  0.1430  2.7124
   65TMC2    H1 1015   1.773   1.133  15.612 -0.2593  0.9671 -0.9345
   65TMC2    H2 1016   1.520   1.123  15.266 -1.3343 -0.8620 -0.5756
   65TMC2    C7 1017   1.654   1.289  15.440  0.5432 -0.2328 -0.2748
   65TMC2    C8 1018   1.463   0.869  15.279  0.2570 -0.5713  0.7120
   65TMC2    O1 1019   1.611   1.341  15.338  0.5818 -0.2149  0.3250
   65TMC2    O2 1020   1.489   0.882  15.161  0.1961  0.1021  0.2428
   65TMC2    O5 1021   1.376   0.781  15.337 -0.6535 -0.4829  0.1708
   65TMC2    H5 1022   1.384   0.773  15.434  0.8552 -0.2701  0.0566
   66MPD2     C 1023   1.921   0.706  15.825  0.6785 -0.3045  0.4338
   66MPD2    C1 1024   1.857   0.668  15.704  1.5999  0.0414  0.0386
   66MPD2    C2 1025   1.848   0.535  15.676 -0.6037  0.1974 -0.1776
   66MPD2    C3 1026   1.902   0.438  15.760 -0.1562 -0.0335  0.7552
   66MPD2    C4 1027   1.965   0.478  15.876  0.0425 -0.5726 -0.4126
   66MPD2    C5 1028   1.977   0.609  15.908 -0.5227  0.4539 -0.5758
   66MPD2     H 1029   1.790   0.507  15.589  0.0715  1.2409 -0.9668
   66MPD2    H1 1030   2.019   0.413  15.943 -0.7117  1.0894  1.8019
   66MPD2    H2 1031   1.935   0.806  15.864 -0.9010  1.2113 -2.8671
   66MPD2    H3 1032   2.027   0.648  15.996 -0.9447 -1.9516  0.7319
   66MPD2     N 1033   1.908   0.305  15.717 -0.5442 -0.1983 -0.0425
   66MPD2    H5 1034   1.927   0.248  15.799 -0.5800 -0.6345 -0.3404
   66MPD2    N1 1035   1.801   0.762  15.618 -0.1761  0.0707  0.1663
   66MPD2    H7 1036   1.768   0.734  15.527  2.4309  2.3702 -1.4815
   67TMC2    C1 1037   2.297   4.422  14.566 -0.1351 -0.0674  0.7729
   67TMC2    C2 1038   2.284   4.533  14.493 -0.0306  0.4604 -0.2917
   67TMC2    C3 1039   2.342   4.641  14.548 -0.4220 -0.1376 -0.5677
   67TMC2    C4 1040   2.369   4.415  14.686  0.2973  0.6959 -0.2852
   67TMC2    C5 1041   2.419   4.531  14.733 -0.7476  0.4004  0.2565
   67TMC2    C6 1042   2.407   4.648  14.669 -0.5223  0.0220 -0.7032
   67TMC2     C 1043   2.219   4.306  14.529  0.4533  0.1411 -0.0655
   67TMC2     O 1044   2.252   4.199  14.577  0.0844  0.4179  0.0097
   67TMC2     H 1045   2.230   4.543  14.400  0.6002  0.0464 -0.7092
   67TMC2    H1 1046   2.386   4.322  14.739 -2.0139  1.1902  1.3030
   67TMC2    H2 1047   2.474   4.730  14.692 -0.1424  0.0231 -1.8371
   67TMC2    C7 1048   2.523   4.527  14.832  0.5545  0.0624  0.4232
   67TMC2    C8 1049   2.320   0.023  14.470  0.1821 -0.0387 -0.1666
   67TMC2    O1 1050   2.597   4.431  14.849 -0.4096  0.1259  0.1901
   67TMC2    O2 1051   2.225   0.030  14.392  0.2257  0.2489 -0.6328
   67TMC2    O5 1052   2.368   0.120  14.555 -0.3712  0.2558 -0.1310
   67TMC2    H5 1053   2.334   0.207  14.525  1.2731  0.6342 -0.8624
   68MPD2     C 1054   2.073   4.119  14.343 -0.2279 -0.6964  0.3855
   68MPD2    C1 1055   2.044   4.253  14.363 -0.0923 -0.0654 -0.1641
   68MPD2    C2 1056   1.941   4.314  14.285  1.1473  0.1454  0.3056
   68MPD2    C3 1057   1.873   4.246  14.186 -0.0744 -0.7837 -0.0343
   68MPD2    C4 1058   1.918   4.121  14.154 -0.3625  0.2618 -0.4013
   68MPD2    C5 1059   2.009   4.059  14.239  0.5189 -0.1042 -0.8159
   68MPD2     H 1060   1.920   4.415  14.319 -0.5369 -0.3940  0.8743
   68MPD2    H1 1061   1.880   4.064  14.070 -0.8210 -1.4155  0.9321
   68MPD2    H2 1062   2.141   4.060  14.403  1.4282  0.2669 -0.5528
   68MPD2    H3 1063   2.024   3.954  14.215  1.4284 -0.4080  1.0617
   68MPD2     N 1064   1.774   4.307  14.111  0.2503  0.0266  0.9917
   68MPD2    H5 1065   1.730   4.251  14.039  0.3715  2.6807 -1.1640
   68MPD2    N1 1066   2.106   4.339  14.461 -0.2576 -0.5724  0.2219
   68MPD2    H7 1067   2.071   4.434  14.456  1.1959 -0.0434  0.0251
   69TMC2    C1 1068   3.601   1.111  12.557  0.2889  0.2013 -0.6752
   69TMC2    C2 1069   3.470   1.081  12.543 -0.1148  0.3267  0.0401
   69TMC2    C3 1070   3.427   1.046  12.420  0.1626 -0.6400  0.2439
   69TMC2    C4 1071   3.688   1.112  12.453 -0.5336  0.0264  0.2246
   69TMC2    C5 1072   3.640   1.070  12.334  0.7370  0.0650 -0.1025
   69TMC2    C6 1073   3.509   1.038  12.319  0.0884  0.2081 -0.6160
   69TMC2     C 1074   3.654   1.119  12.688  0.6640 -0.1430 -0.1234
   69TMC2     O 1075   3.596   1.049  12.771  0.0105  0.3082 -0.5264
   69TMC2     H 1076   3.401   1.085  12.626  2.7934  1.5825  2.4258
   69TMC2    H1 1077   3.795   1.130  12.460 -0.5383  0.4183 -0.7051
   69TMC2    H2 1078   3.461   0.994  12.232 -1.3091 -0.5144  0.5383
   69TMC2    C7 1079   3.727   1.071  12.218  0.4781 -0.0386 -0.3283
   69TMC2    C8 1080   3.285   1.032  12.408 -0.0450  1.1167 -0.0142
   69TMC2    O1 1081   3.849   1.082  12.236  0.1922 -0.2317  0.7657
   69TMC2    O2 1082   3.216   1.002  12.505 -0.0699  0.1523  0.1796
   69TMC2    O5 1083   3.244   1.118  12.318  0.0723 -0.1512  0.1822
   69TMC2    H5 1084   3.316   1.159  12.265  1.4617 -2.6620  0.1498
   70MPD2     C 1085   3.946   1.301  12.820 -0.4238  0.4466 -0.0053
   70MPD2    C1 1086   3.850   1.201  12.816  0.0350  0.5443  0.5512
   70MPD2    C2 1087   3.830   1.110  12.922 -0.7835  0.2219 -0.4254
   70MPD2    C3 1088   3.918   1.115  13.028  0.1994  0.0610  1.0207
   70MPD2    C4 1089   4.016   1.209  13.025 -0.0815 -0.0700 -0.3201
   70MPD2    C5 1090   4.027   1.308  12.927 -0.2154  0.3683 -0.5472
   70MPD2     H 1091   3.755   1.032  12.914 -0.8523 -0.0612  3.0155
   70MPD2    H1 1092   4.067   1.221  13.121 -0.2915 -0.4918 -0.1567
   70MPD2    H2 1093   3.974   1.371  12.742 -1.6490  1.1688  0.1928
   70MPD2    H3 1094   4.106   1.382  12.937  1.7492 -1.8985  0.8659
   70MPD2     N 1095   3.919   1.017  13.129  0.7175 -0.1555  0.3338
   70MPD2    H5 1096   3.986   1.032  13.203  1.9081 -2.7841 -0.2207
   70MPD2    N1 1097   3.768   1.200  12.702  0.6047  0.4002 -0.2222
   70MPD2    H7 1098   3.783   1.270  12.629  0.6176 -1.5811 -2.1282
   71TMC2    C1 1099   1.780   0.633   1.198  0.1774  0.0878 -0.3549
   71TMC2    C2 1100   1.848   0.529   1.256 -0.2151  0.1539  0.2016
   71TMC2    C3 1101   1.780   0.457   1.344 -0.1991  0.4558 -0.1163
   71TMC2    C4 1102   1.649   0.664   1.219  0.5981  0.2472  0.0905
   71TMC2    C5 1103   1.595   0.591   1.318 -0.4968  0.1744 -1.0639
   71TMC2    C6 1104   1.653   0.482   1.377 -0.2917  0.6781  0.1305
   71TMC2     C 1105   1.840   0.710   1.086  0.5773 -0.3262  0.1440
   71TMC2     O 1106   1.776   0.807   1.044  0.5173  0.1416  0.4302
   71TMC2     H 1107   1.942   0.494   1.216 -0.3852 -1.7946  1.4852
   71TMC2    H1 1108   1.595   0.745   1.171  0.3709  0.2576  0.3631
   71TMC2    H2 1109   1.588   0.444   1.456  0.4347  0.7380  0.7596
   71TMC2    C7 1110   1.468   0.633   1.377 -0.7170  0.4055  0.2113
   71TMC2    C8 1111   1.829   0.346   1.407 -0.1998 -0.2487  0.8049
   71TMC2    O1 1112   1.395   0.543   1.421  0.1158 -0.3718 -0.4935
   71TMC2    O2 1113   1.762   0.275   1.480 -0.2518  0.0757 -0.0584
   71TMC2    O5 1114   1.968   0.363   1.423 -0.3197  0.1218  0.2575
   71TMC2    H5 1115   1.998   0.442   1.372  1.5123  0.0592  1.2362
   72MPD2     C 1116   2.193   0.811   0.708 -0.0138 -0.5293  0.0243
   72MPD2    C1 1117   2.075   0.882   0.746  0.6622 -0.2259  0.1095
   72MPD2    C2 1118   1.996   0.834   0.851 -0.7326 -0.1777  0.0280
   72MPD2    C3 1119   2.030   0.724   0.922  0.0782 -0.3877  0.1072
   72MPD2    C4 1120   2.150   0.664   0.884 -0.3896  0.0296 -0.3713
   72MPD2    C5 1121   2.227   0.702   0.784 -0.6506  0.3279 -0.2747
   72MPD2     H 1122   1.904   0.883   0.883 -0.2434 -0.6979  2.2896
   72MPD2    H1 1123   2.185   0.576   0.936 -0.8376 -0.5159 -0.9862
   72MPD2    H2 1124   2.260   0.834   0.625  1.1362  1.5857  1.5590
   72MPD2    H3 1125   2.314   0.641   0.762 -0.4560  0.9069 -1.1203
   72MPD2     N 1126   1.966   0.673   1.042 -0.3441  0.6111  0.6313
   72MPD2    H5 1127   2.011   0.591   1.081 -2.9589 -0.2811  1.7234
   72MPD2    N1 1128   2.025   0.994   0.687 -0.0818  0.1513  0.3350
   72MPD2    H7 1129   1.938   1.030   0.723  0.3919 -1.5034  3.1538
   73TMC2    C1 1130   1.763   3.148  14.093  0.4040 -0.0857  0.4811
   73TMC2    C2 1131   1.722   3.132  14.225 -0.2959  0.3795 -0.5954
   73TMC2    C3 1132   1.810   3.136  14.330  0.1510 -0.2804 -0.5146
   73TMC2    C4 1133   1.891   3.198  14.076 -0.0060  0.3357 -0.4403
   73TMC2    C5 1134   1.966   3.229  14.186 -0.0083  0.0955 -0.2103
   73TMC2    C6 1135   1.935   3.190  14.316 -0.1826  0.4418 -0.3639
   73TMC2     C 1136   1.677   3.226  14.013 -0.0344 -0.4734  0.2070
   73TMC2     O 1137   1.732   3.303  13.934  0.6921  0.7742  0.5160
   73TMC2     H 1138   1.620   3.118  14.258  0.6231  0.5573  2.3350
   73TMC2    H1 1139   1.928   3.210  13.975 -0.5768  1.3689 -0.5225
   73TMC2    H2 1140   2.002   3.207  14.399  0.7420 -2.5542 -0.4818
   73TMC2    C7 1141   2.025   3.365  14.177 -0.4023 -0.0278 -0.1945
   73TMC2    C8 1142   1.761   3.129  14.467 -0.2447 -0.3086 -0.2137
   73TMC2    O1 1143   2.109   3.398  14.261 -0.3524  0.4216  0.5538
   73TMC2    O2 1144   1.653   3.167  14.508  0.4029  0.0161 -0.7043
   73TMC2    O5 1145   1.859   3.073  14.539 -0.0676 -0.2497 -0.1040
   73TMC2    H5 1146   1.932   3.034  14.486  0.9872  0.3010  0.9589
   74MPD2     C 1147   1.226   3.325  13.775  0.3501  0.3602  0.3766
   74MPD2    C1 1148   1.339   3.402  13.781 -0.3401 -0.6869 -0.2491
   74MPD2    C2 1149   1.442   3.356  13.857  0.2625  0.2623  0.0079
   74MPD2    C3 1150   1.438   3.237  13.925  0.0439 -0.3254 -0.1125
   74MPD2    C4 1151   1.327   3.159  13.921  0.7235  0.1854  0.6362
   74MPD2    C5 1152   1.218   3.210  13.846 -0.1758 -0.0672 -0.9033
   74MPD2     H 1153   1.539   3.405  13.864  0.6599 -0.5559  0.2387
   74MPD2    H1 1154   1.318   3.065  13.975 -2.1337  0.1006  0.0235
   74MPD2    H2 1155   1.137   3.361  13.724 -2.1939 -3.1944  2.2859
   74MPD2    H3 1156   1.131   3.146  13.835  0.4337 -0.9972 -0.3569
   74MPD2     N 1157   1.548   3.183  14.008  0.3053  0.2737  0.1032
   74MPD2    H5 1158   1.529   3.100  14.064 -0.2348  1.1540  1.2337
   74MPD2    N1 1159   1.342   3.528  13.710 -0.2482  0.2188 -0.3333
   74MPD2    H7 1160   1.274   3.535  13.635 -0.5425  1.0277  0.0111
   75TMC2    C1 1161   1.594   4.443  14.056  0.0994  0.4855 -0.2554
   75TMC2    C2 1162   1.474   4.479  14.110  0.1265  0.3178 -1.0473
   75TMC2    C3 1163   1.401   4.567  14.045 -0.0635  0.4749  0.1651
   75TMC2    C4 1164   1.622   4.462  13.925  0.0902  0.3413  0.6999
   75TMC2    C5 1165   1.542   4.552  13.854  0.0673  0.1694  0.4393
   75TMC2    C6 1166   1.435   4.609  13.918  0.7213  0.0223 -0.0194
   75TMC2     C 1167   1.716   4.428  14.133 -0.4075  0.4441  0.7728
   75TMC2     O 1168   1.738   4.512  14.221 -0.1938  0.4797  0.4207
   75TMC2     H 1169   1.465   4.468  14.218 -0.9663  1.1337 -1.0526
   75TMC2    H1 1170   1.722   4.451  13.886  0.6632  1.7750  1.7625
   75TMC2    H2 1171   1.368   4.679  13.869 -0.1610  1.1427  2.7607
   75TMC2    C7 1172   1.556   4.560  13.712  0.1390  0.1322 -0.1938
   75TMC2    C8 1173   1.303   4.648  14.122 -0.0323 -0.3867 -0.1634
   75TMC2    O1 1174   1.597   4.453  13.666  0.2081  0.1315  0.2041
   75TMC2    O2 1175   1.271   0.021  14.096 -0.3560 -0.0354 -0.3742
   75TMC2    O5 1176   1.262   4.582  14.234  0.0297  0.3882  0.3134
   75TMC2    H5 1177   1.285   4.487  14.236 -1.2899  0.0510 -1.6937
   76TMC2    C1 1178   0.564   0.453  11.692  0.0256  0.5055  1.0291
   76TMC2    C2 1179   0.586   0.550  11.601  0.4348  0.1542 -0.1091
   76TMC2    C3 1180   0.712   0.592  11.576  0.1416  0.0465  0.9600
   76TMC2    C4 1181   0.672   0.395  11.761  0.9158 -0.0348  0.6958
   76TMC2    C5 1182   0.799   0.444  11.733 -0.5888  0.3898  0.0267
   76TMC2    C6 1183   0.819   0.545  11.649  0.6639 -0.1443  0.5694
   76TMC2     C 1184   0.435   0.388  11.709 -0.0236  0.6291 -0.2909
   76TMC2     O 1185   0.447   0.273  11.743  0.2858 -0.7109  0.3533
   76TMC2     H 1186   0.504   0.597  11.548  0.2709  2.1169  1.8909
   76TMC2    H1 1187   0.659   0.314  11.832 -1.0433 -0.3079  0.0348
   76TMC2    H2 1188   0.923   0.570  11.631  0.7869 -3.3033 -2.9503
   76TMC2    C7 1189   0.904   0.407  11.826  0.2841 -1.2177 -0.1106
   76TMC2    C8 1190   0.733   0.685  11.471 -0.2661  0.1802 -0.2964
   76TMC2    O1 1191   1.018   0.411  11.779 -0.7883 -0.3762 -0.4126
   76TMC2    O2 1192   0.651   0.704  11.380 -0.3215  0.2512 -0.0278
   76TMC2    O5 1193   0.860   0.742  11.472  0.2367  0.1730 -0.1821
   76TMC2    H5 1194   0.904   0.749  11.560 -0.9570  0.7702  0.3686
   77MPD2     C 1195   4.668   0.422  11.835  0.6150  1.0585 -0.2461
   77MPD2    C1 1196   4.718   0.544  11.780 -0.0092  0.6444 -0.4754
   77MPD2    C2 1197   0.114   0.553  11.735 -0.4332 -0.0341 -0.1407
   77MPD2    C3 1198   0.204   0.447  11.744 -0.2234 -0.0635  0.0184
   77MPD2    C4 1199   0.153   0.328  11.798 -0.5773 -0.1116 -0.0192
   77MPD2    C5 1200   0.019   0.318  11.842  0.1729 -0.2766 -0.2467
   77MPD2     H 1201   0.143   0.650  11.697 -0.3534 -0.4175 -1.0445
   77MPD2    H1 1202   0.222   0.245  11.810 -2.4862 -1.6728  0.3041
   77MPD2    H2 1203   4.567   0.410  11.872  1.3009 -1.9051  0.6537
   77MPD2    H3 1204   4.731   0.236  11.908 -0.6671  2.0898  2.3859
   77MPD2     N 1205   0.331   0.476  11.703 -0.1430 -0.1334  0.3495
   77MPD2    H5 1206   0.347   0.570  11.668 -1.9550  0.1836  0.4149
   77MPD2    N1 1207   4.625   0.649  11.761  0.4777 -0.0254 -0.0890
   77MPD2    H7 1208   4.659   0.731  11.710 -2.2119 -0.2992 -2.3368
   78TMC2    C1 1209   1.454   1.612   0.958  0.2971  0.4264  0.4074
   78TMC2    C2 1210   1.408   1.671   0.844  0.1926 -0.7217 -0.6251
   78TMC2    C3 1211   1.480   1.673   0.726 -0.0500 -0.1937  0.4326
   78TMC2    C4 1212   1.578   1.553   0.958  0.2380 -0.9016 -0.0429
   78TMC2    C5 1213   1.650   1.560   0.842  0.3355  0.4757  0.4748
   78TMC2    C6 1214   1.605   1.618   0.725 -0.5439  0.2335 -0.2501
   78TMC2     C 1215   1.374   1.637   1.079  0.2766 -0.4571  0.1390
   78TMC2     O 1216   1.277   1.711   1.067  0.2277  0.2063  0.3454
   78TMC2     H 1217   1.308   1.714   0.841 -0.0382 -1.3640 -2.4278
   78TMC2    H1 1218   1.626   1.530   1.053  1.9557 -0.0083 -0.6827
   78TMC2    H2 1219   1.662   1.615   0.633 -1.8583 -1.9891 -0.9820
   78TMC2    C7 1220   1.787   1.502   0.836 -0.7045  0.0766 -0.0117
   78TMC2    C8 1221   1.441   1.776   0.625  0.0567 -0.3722  0.2080
   78TMC2    O1 1222   1.841   1.504   0.731  0.0344 -0.0101 -0.8448
   78TMC2    O2 1223   1.349   1.858   0.637  0.2616 -0.1321 -0.8602
   78TMC2    O5 1224   1.520   1.761   0.516  0.1537 -0.1990 -0.5079
   78TMC2    H5 1225   1.567   1.676   0.502  2.5590  1.1996 -0.8100
   79MPD1     C 1226   1.374   1.699   1.595  0.2926 -0.9789  0.2968
   79MPD1    C1 1227   1.297   1.760   1.502  1.2229 -0.1253  0.4262
   79MPD1    C2 1228   1.317   1.721   1.370 -0.2302 -0.7278 -0.3900
   79MPD1    C3 1229   1.396   1.612   1.329 -0.1369 -0.1224  0.4709
   79MPD1    C4 1230   1.467   1.544   1.427  0.6643  0.3347 -0.2721
   79MPD1    C5 1231   1.459   1.596   1.556  0.0696 -0.3039  0.2581
   79MPD1     H 1232   1.256   1.775   1.299  1.0497  0.6107 -0.4599
   79MPD1    H1 1233   1.533   1.460   1.409 -0.0005  0.2113 -2.1054
   79MPD1    H2 1234   1.361   1.716   1.702 -1.9666  1.4661 -0.3645
   79MPD1    H3 1235   1.528   1.549   1.625  0.1799 -1.0750 -0.3709
   79MPD1     N 1236   1.422   1.576   1.190 -0.5163 -0.6896 -0.2663
   79MPD1    H5 1237   1.491   1.503   1.178 -0.0359 -0.4135  0.7775
   79MPD1    N1 1238   1.220   1.870   1.537  0.0001  0.9284  0.0079
   79MPD1    H6 1239   1.185   1.877   1.633  0.0496 -2.2135  0.2252
   79MPD1    H7 1240   1.140   1.876   1.475 -0.8982  1.7853  1.2349
   80TMC2    C1 1241   3.995   0.021  12.144  0.3762 -0.4199  0.5498
   80TMC2    C2 1242   3.989   0.021  12.006 -0.3225 -0.0985  0.1925
   80TMC2    C3 1243   3.896   4.671  11.949 -0.5772  0.3807  0.6162
   80TMC2    C4 1244   3.928   4.664  12.217 -0.4705  0.3325 -0.3154
   80TMC2    C5 1245   3.847   4.577  12.147  0.4895 -0.2924 -0.9235
   80TMC2    C6 1246   3.831   4.573  12.012 -0.1734  0.1273 -0.4096
   80TMC2     C 1247   4.099   0.098  12.208  0.1640  0.2696 -0.8351
   80TMC2     O 1248   4.202   0.118  12.148 -0.4742 -0.2038  0.1423
   80TMC2     H 1249   4.036   0.103  11.953  2.1636 -1.1985  0.6934
   80TMC2    H1 1250   3.937   4.665  12.325 -2.2974  0.8083 -0.1766
   80TMC2    H2 1251   3.771   4.502  11.956 -1.4187  1.1656 -0.3910
   80TMC2    C7 1252   3.762   4.491  12.231  0.5901 -0.4457 -0.1156
   80TMC2    C8 1253   3.883   4.667  11.806 -0.3070 -0.1431  0.6320
   80TMC2    O1 1254   3.645   4.474  12.197  0.5839 -0.1154 -0.4357
   80TMC2    O2 1255   3.794   4.606  11.751  0.3428 -0.4368  0.5797
   80TMC2    O5 1256   4.009   4.688  11.752 -0.2420  0.6355 -0.0431
   80TMC2    H5 1257   4.073   4.727  11.815 -1.6350 -1.2391  2.5128
   81MPD2     C 1258   4.275   0.194  12.409 -0.0038  0.4430  0.0676
   81MPD2    C1 1259   4.141   0.199  12.424  0.1255  0.3770 -0.8699
   81MPD2    C2 1260   4.082   0.235  12.545 -0.3381 -1.0835 -0.1970
   81MPD2    C3 1261   4.165   0.248  12.658 -0.0886  0.2221 -0.1464
   81MPD2    C4 1262   4.300   0.246  12.643 -0.3361 -0.1626  0.0953
   81MPD2    C5 1263   4.354   0.210  12.518 -0.5759  0.2398  0.6185
   81MPD2     H 1264   3.975   0.241  12.561  0.1844  0.5678  2.7025
   81MPD2    H1 1265   4.367   0.261  12.727 -0.3770  0.8279 -0.0509
   81MPD2    H2 1266   4.324   0.176  12.314 -0.2957  2.8453 -0.5287
   81MPD2    H3 1267   4.459   0.198  12.498 -0.3859  1.5932  0.8609
   81MPD2     N 1268   4.109   0.270  12.789  0.7043 -0.2533  0.0893
   81MPD2    H5 1269   4.167   0.253  12.871  0.2732 -0.1491  0.4138
   81MPD2    N1 1270   4.051   0.156  12.323  0.2872  0.9784  0.4590
   81MPD2    H7 1271   3.955   0.142  12.353  0.1163  0.5787 -0.2753
   82TMC2    C1 1272   2.227   4.173  11.263 -0.0288  0.4043 -0.0144
   82TMC2    C2 1273   2.233   4.270  11.361  0.7857  0.0019 -0.0405
   82TMC2    C3 1274   2.165   4.251  11.477 -0.5908  0.0730 -0.7938
   82TMC2    C4 1275   2.137   4.070  11.276 -0.0609 -0.7942  0.2351
   82TMC2    C5 1276   2.071   4.058  11.388 -0.1417 -0.0214 -0.0373
   82TMC2    C6 1277   2.093   4.137  11.498  0.0577 -0.5757 -0.1229
   82TMC2     C 1278   2.225   4.227  11.126 -0.0808  0.0964 -0.0709
   82TMC2     O 1279   2.125   4.202  11.060  0.1952 -0.0317  0.2400
   82TMC2     H 1280   2.284   4.359  11.327  0.8118 -0.1366 -0.3653
   82TMC2    H1 1281   2.134   4.001  11.192 -0.2194 -1.0156  0.4215
   82TMC2    H2 1282   2.034   4.120  11.587  1.1961 -1.6376  0.4405
   82TMC2    C7 1283   1.972   3.949  11.407 -0.7087  1.0775 -0.0573
   82TMC2    C8 1284   2.180   4.353  11.581 -0.3148  0.2973  0.1599
   82TMC2    O1 1285   1.895   3.957  11.506 -0.0503  0.1589 -0.0620
   82TMC2    O2 1286   2.228   4.462  11.548  0.8403 -0.0985  0.4406
   82TMC2    O5 1287   2.115   4.327  11.699  0.2061 -0.0643  0.0604
   82TMC2    H5 1288   2.064   4.243  11.705 -0.9024  0.6545  0.6757
   83MPD2     C 1289   2.375   4.624  10.835 -0.1945 -0.0095 -0.5431
   83MPD2    C1 1290   2.251   4.573  10.858 -0.0194  0.5057  0.0290
   83MPD2    C2 1291   2.233   4.472  10.945 -0.0976  0.2795 -0.3154
   83MPD2    C3 1292   2.342   4.416  11.006 -0.0738 -0.0273  0.5821
   83MPD2    C4 1293   2.466   4.469  10.989  0.3439 -0.0421  0.2211
   83MPD2    C5 1294   2.477   4.577  10.909  0.0052 -0.2503 -0.2281
   83MPD2     H 1295   2.135   4.434  10.969 -0.9882  0.7899 -3.1943
   83MPD2    H1 1296   2.559   4.445  11.040 -1.3575 -1.0234  2.8970
   83MPD2    H2 1297   2.399   4.705  10.767  1.5485  0.5877  0.7885
   83MPD2    H3 1298   2.575   4.622  10.900 -0.8207  1.1264 -2.2749
   83MPD2     N 1299   2.328   4.314  11.105 -0.6137  0.2715  0.0707
   83MPD2    H5 1300   2.405   4.299  11.170  0.0003 -0.7428 -0.8961
   83MPD2    N1 1301   2.139   4.627  10.788 -0.0418  0.1273 -0.2904
   83MPD2    H7 1302   2.162   4.710  10.735 -0.4849 -0.5884 -1.6058
   84TMC2    C1 1303   3.336   3.456  10.980 -0.1451  0.0423  0.2254
   84TMC2    C2 1304   3.312   3.349  11.063  0.1517 -0.1355  0.8242
   84TMC2    C3 1305   3.399   3.243  11.051  0.2891 -0.1403  0.4887
   84TMC2    C4 1306   3.449   3.473  10.903  0.1672 -0.1926 -0.2504
   84TMC2    C5 1307   3.540   3.374  10.908  0.5067  0.1709  0.5442
   84TMC2    C6 1308   3.517   3.254  10.980  0.1732 -0.3889  0.3819
   84TMC2     C 1309   3.241   3.568  10.992 -0.9765  0.1044 -0.4697
   84TMC2     O 1310   3.173   3.575  11.094  0.1095  0.0458 -0.3521
   84TMC2     H 1311   3.229   3.353  11.132 -0.6341  1.0121 -0.1748
   84TMC2    H1 1312   3.462   3.570  10.856  1.2356 -0.0950  0.2355
   84TMC2    H2 1313   3.581   3.171  10.953  0.8152 -0.3614  1.8263
   84TMC2    C7 1314   3.657   3.370  10.826 -0.1438  0.7212 -0.2268
   84TMC2    C8 1315   3.407   3.148  11.161  1.2562  0.1300 -0.0406
   84TMC2    O1 1316   3.721   3.268  10.825  0.4899 -0.1983  0.1301
   84TMC2    O2 1317   3.321   3.131  11.248  0.3398 -0.1740 -0.7582
   84TMC2    O5 1318   3.535   3.116  11.176 -0.1443 -0.0873  0.0824
   84TMC2    H5 1319   3.594   3.161  11.113  0.7688  0.5360  1.4074
   85TMC2    C1 1320   4.268   1.782  16.026  0.5487 -0.0398 -0.1201
   85TMC2    C2 1321   4.143   1.773  15.973 -0.4213 -0.0283 -0.0198
   85TMC2    C3 1322   4.120   1.878  15.887  0.6336 -0.0244  0.0073
   85TMC2    C4 1323   4.360   1.878  15.998  0.0305  0.3827 -0.2371
   85TMC2    C5 1324   4.323   1.974  15.901  0.0705 -0.5820  0.3675
   85TMC2    C6 1325   4.203   1.975  15.840 -0.0143  0.5349  0.2867
   85TMC2     C 1326   4.297   1.705  16.149  0.4699 -0.4029  0.0314
   85TMC2     O 1327   4.378   1.753  16.229  0.4610 -0.3818  0.2662
   85TMC2     H 1328   4.064   1.701  15.993 -0.8816  0.2422 -0.8635
   85TMC2    H1 1329   4.450   1.892  16.057 -0.2209 -0.1290  0.2747
   85TMC2    H2 1330   4.173   2.059  15.778 -0.0785 -1.5617 -2.5236
   85TMC2    C7 1331   4.396   2.097  15.912  0.1796 -0.4824  0.1914
   85TMC2    C8 1332   3.983   1.887  15.846 -0.0923 -0.1267  0.0920
   85TMC2    O1 1333   4.500   2.096  15.978 -0.6242  0.1562  0.0916
   85TMC2    O2 1334   3.892   1.842  15.912 -0.4185 -0.6673 -0.6824
   85TMC2    O5 1335   3.973   1.938  15.719 -0.5232  0.0814  0.0630
   85TMC2    H5 1336   4.052   1.940  15.662 -0.4569 -0.8730  0.1280
   86MPD2     C 1337   4.212   1.301  16.435 -0.3745  0.0637 -0.4198
   86MPD2    C1 1338   4.129   1.291  16.325 -0.0123  0.2468 -1.0559
   86MPD2    C2 1339   4.127   1.397  16.241  0.2873  0.6364  0.7864
   86MPD2    C3 1340   4.207   1.507  16.266 -0.0089  0.0297  0.2847
   86MPD2    C4 1341   4.285   1.514  16.379 -0.2134 -0.3520 -0.5062
   86MPD2    C5 1342   4.278   1.411  16.465 -0.0280  0.7722 -0.6635
   86MPD2     H 1343   4.068   1.379  16.152  1.4539  0.7468 -0.0115
   86MPD2    H1 1344   4.350   1.596  16.409 -1.3701  0.6089 -0.6210
   86MPD2    H2 1345   4.227   1.209  16.490 -1.2403 -1.5046 -2.8002
   86MPD2    H3 1346   4.348   1.409  16.547 -1.6548 -0.8787  0.6672
   86MPD2     N 1347   4.212   1.596  16.154 -0.1717 -0.1101 -0.0472
   86MPD2    H5 1348   4.150   1.572  16.077  0.7732 -0.9176 -0.5546
   86MPD2    N1 1349   4.069   1.167  16.288  0.3129 -0.1421  0.1695
   86MPD2    H7 1350   4.013   1.171  16.204 -0.5407 -2.3613  0.6142
   87TMC2    C1 1351   2.425   0.143   0.912  0.8531  0.1323  0.1412
   87TMC2    C2 1352   2.516   0.244   0.885  0.2698 -0.4360 -0.8978
   87TMC2    C3 1353   2.504   0.350   0.981 -0.2261  0.2910 -1.0381
   87TMC2    C4 1354   2.330   0.136   1.013 -0.8734 -0.7252 -0.2090
   87TMC2    C5 1355   2.317   0.246   1.088  0.8253  0.1469 -0.3711
   87TMC2    C6 1356   2.393   0.360   1.067  0.4595 -1.0351 -0.1494
   87TMC2     C 1357   2.431   0.029   0.820 -0.3888  0.5518  0.0256
   87TMC2     O 1358   2.495   0.041   0.715 -0.2017  0.4307 -0.6088
   87TMC2     H 1359   2.580   0.247   0.798 -0.5256  0.7567 -1.4442
   87TMC2    H1 1360   2.251   0.064   0.997 -0.3251 -1.5130  0.6227
   87TMC2    H2 1361   2.386   0.450   1.127 -0.0435 -0.4366 -1.0966
   87TMC2    C7 1362   2.182   0.278   1.117 -0.7391 -0.1116  0.3609
   87TMC2    C8 1363   2.591   0.455   0.978 -0.9557  0.5968 -0.2055
   87TMC2    O1 1364   2.153   0.397   1.112  0.5456  0.4197  0.0375
   87TMC2    O2 1365   2.633   0.512   1.075 -0.1749 -0.7463  0.0368
   87TMC2    O5 1366   2.539   0.516   0.869  0.3696  1.0133 -0.6008
   87TMC2    H5 1367   2.481   0.458   0.816  0.0418  2.5912 -1.9671
   88MPD2     C 1368   1.880   0.084   1.169  1.1567  0.3590 -0.2755
   88MPD2    C1 1369   1.959   0.179   1.121  0.1635  0.6616 -0.4259
   88MPD2    C2 1370   1.918   0.260   1.018 -0.7681  0.7739 -0.1778
   88MPD2    C3 1371   1.783   0.260   0.984  0.2738 -0.3225 -0.0999
   88MPD2    C4 1372   1.696   0.187   1.064 -0.4880 -0.3137 -0.2385
   88MPD2    C5 1373   1.747   0.090   1.141  0.0636  0.1758 -0.0131
   88MPD2     H 1374   1.991   0.322   0.967 -1.0949  0.0060 -1.5753
   88MPD2    H1 1375   1.589   0.196   1.055 -0.5464 -3.1629 -2.5875
   88MPD2    H2 1376   1.916   4.735   1.223  0.9105  1.0620  1.0428
   88MPD2    H3 1377   1.676   0.017   1.180  0.9290 -1.7295 -2.0064
   88MPD2     N 1378   1.734   0.345   0.887  0.2017 -0.4645  0.2862
   88MPD2    H5 1379   1.638   0.375   0.900  0.7236  1.0067  0.6475
   88MPD2    N1 1380   2.096   0.175   1.152 -0.4850 -0.2882 -0.0136
   88MPD2    H7 1381   2.136   0.099   1.206 -1.9021  1.2103  3.1335
   89TMC2    C1 1382   2.673   3.334   1.016 -0.5484 -0.2721 -0.0775
   89TMC2    C2 1383   2.787   3.336   0.936 -0.0444  0.4405  0.3323
   89TMC2    C3 1384   2.817   3.454   0.876  0.5446 -0.1080  0.2742
   89TMC2    C4 1385   2.599   3.450   1.036  0.4454  0.0202 -0.2147
   89TMC2    C5 1386   2.640   3.569   0.974  0.3448 -0.8013  0.0917
   89TMC2    C6 1387   2.746   3.573   0.887 -0.4872  0.1686  0.0560
   89TMC2     C 1388   2.662   3.224   1.099 -1.4066 -0.3089  0.3339
   89TMC2     O 1389   2.769   3.165   1.123 -0.4694  0.1538  1.0648
   89TMC2     H 1390   2.837   3.244   0.906 -2.3694 -0.5360 -0.5641
   89TMC2    H1 1391   2.532   3.458   1.121  0.7221  1.1802 -0.1075
   89TMC2    H2 1392   2.792   3.662   0.846  0.0414  0.0753  0.4334
   89TMC2    C7 1393   2.601   3.699   1.033  0.4799 -0.4477 -0.5142
   89TMC2    C8 1394   2.926   3.455   0.782  0.3886  0.0351  0.1919
   89TMC2    O1 1395   2.553   3.694   1.145 -0.3969  0.0897  0.6058
   89TMC2    O2 1396   2.943   3.546   0.699 -0.5667  0.4241 -0.1610
   89TMC2    O5 1397   3.022   3.362   0.814 -0.7590  0.0007  0.7607
   89TMC2    H5 1398   3.020   3.318   0.902 -0.8286 -2.4741 -0.4873
   90MPD2     C 1399   2.335   2.888   1.295 -0.2343 -0.1987 -1.0060
   90MPD2    C1 1400   2.261   2.989   1.241  0.5369  0.0304  0.9283
   90MPD2    C2 1401   2.334   3.087   1.181  0.5072  0.0651  1.1558
   90MPD2    C3 1402   2.471   3.086   1.176 -0.5233  0.5696 -0.8629
   90MPD2    C4 1403   2.549   2.985   1.218 -0.4060  0.4834  0.1712
   90MPD2    C5 1404   2.474   2.888   1.278  0.6103  0.0316  0.5872
   90MPD2     H 1405   2.285   3.172   1.135 -0.9545 -2.1609 -1.4190
   90MPD2    H1 1406   2.656   2.987   1.234 -0.9434 -1.6729  3.9978
   90MPD2    H2 1407   2.292   2.806   1.351  0.6604 -0.0471 -0.0825
   90MPD2    H3 1408   2.530   2.810   1.327 -0.6824 -0.8262  0.7215
   90MPD2     N 1409   2.527   3.203   1.127  0.0122 -0.5362 -0.0783
   90MPD2    H5 1410   2.462   3.266   1.081  0.0724  0.3076  0.9666
   90MPD2    N1 1411   2.122   3.005   1.257 -0.2618 -0.1134  0.0519
   90MPD2    H7 1412   2.086   3.100   1.247  0.0782 -0.0090 -0.1672
   91TMC2    C1 1413   4.275   2.538  16.404  0.2882  0.6832  0.5854
   91TMC2    C2 1414   4.292   2.591  16.534 -0.0673 -0.0827 -0.2250
   91TMC2    C3 1415   4.206   2.549  16.635  0.3152 -0.1230  0.5126
   91TMC2    C4 1416   4.167   2.464  16.377  0.0734  0.0254  0.2756
   91TMC2    C5 1417   4.087   2.428  16.479  0.7126 -0.8645 -0.0429
   91TMC2    C6 1418   4.106   2.461  16.610  0.5889  0.3447  0.6278
   91TMC2     C 1419   4.350   2.600  16.300  0.5311  0.0541  0.3713
   91TMC2     O 1420   4.287   2.602  16.194  0.1767 -0.3426  0.1702
   91TMC2     H 1421   4.368   2.662  16.562  0.8550  0.0648 -3.1175
   91TMC2    H1 1422   4.165   2.422  16.278 -1.1961  3.6522 -1.2513
   91TMC2    H2 1423   4.027   2.435  16.680  1.2081 -0.8696  0.8737
   91TMC2    C7 1424   3.979   2.332  16.461 -0.2197 -0.3834 -0.1051
   91TMC2    C8 1425   4.234   2.598  16.777  0.7292  0.2140  0.4285
   91TMC2    O1 1426   3.937   2.275  16.560  0.1524 -0.0584  0.4597
   91TMC2    O2 1427   4.306   2.693  16.803 -0.1358  0.3761 -0.3521
   91TMC2    O5 1428   4.179   2.517  16.868  0.2511 -0.2768 -0.2729
   91TMC2    H5 1429   4.144   2.435  16.827  0.8721 -0.2605 -0.8270
   92MPD2     C 1430   4.517   2.804  16.139  0.5477 -0.1863  0.4886
   92MPD2    C1 1431   4.549   2.755  16.263  0.1552 -0.8261 -0.5254
   92MPD2    C2 1432   4.667   2.787  16.321  0.1589  0.1909  0.5819
   92MPD2    C3 1433   0.024   2.864  16.252  0.3461  0.0785 -0.4948
   92MPD2    C4 1434   4.727   2.913  16.128 -0.2465  0.0341  0.0195
   92MPD2    C5 1435   4.610   2.879  16.072 -0.2486  0.0628  0.8036
   92MPD2     H 1436   4.694   2.748  16.418 -2.2164  0.4355  1.3291
   92MPD2    H1 1437   0.049   2.978  16.066  1.5970  0.0567  1.8242
   92MPD2    H2 1438   4.420   2.786  16.095  0.6356 -0.3011  0.3437
   92MPD2    H3 1439   4.587   2.924  15.976 -1.5992 -1.4452  0.4111
   92MPD2     N 1440   0.153   2.884  16.314  0.0940  0.1902 -0.4553
   92MPD2    H5 1441   0.157   2.844  16.407  1.2360  1.8570  0.2117
   92MPD2    N1 1442   4.462   2.668  16.343 -0.2788  1.2609 -0.1754
   92MPD2    H7 1443   4.492   2.657  16.439  0.7252 -1.8577 -0.8710
   93TMC2    C1 1444   1.403   2.339  13.840  0.4243  0.4888  1.0316
   93TMC2    C2 1445   1.379   2.274  13.723 -0.8968  1.2282  0.8645
   93TMC2    C3 1446   1.485   2.276  13.635  0.0567  0.0464 -0.2308
   93TMC2    C4 1447   1.527   2.389  13.874  0.0141 -0.0622 -0.4959
   93TMC2    C5 1448   1.627   2.385  13.785  0.2855  0.1554 -0.6280
   93TMC2    C6 1449   1.613   2.323  13.668 -0.5008 -0.0004  0.6639
   93TMC2     C 1450   1.300   2.328  13.941  0.2902 -0.4397  0.7390
   93TMC2     O 1451   1.338   2.343  14.057 -0.4970  0.0341  0.1436
   93TMC2     H 1452   1.295   2.209  13.705  0.2476  0.1710 -0.6109
   93TMC2    H1 1453   1.538   2.421  13.977  0.9912 -0.0874 -0.5923
   93TMC2    H2 1454   1.705   2.296  13.617 -0.6796  1.5767 -0.5190
   93TMC2    C7 1455   1.758   2.434  13.828  0.4137 -0.1948 -0.5025
   93TMC2    C8 1456   1.461   2.180  13.532  0.3545 -0.3415  0.4579
   93TMC2    O1 1457   1.857   2.396  13.764 -0.3632  0.5667 -0.0891
   93TMC2    O2 1458   1.408   2.071  13.556  0.0439  0.2436 -0.0065
   93TMC2    O5 1459   1.541   2.209  13.426 -0.4978  0.2002 -0.3321
   93TMC2    H5 1460   1.569   2.303  13.432  3.0319 -0.9253  1.0918
   94MPD2     C 1461   1.059   2.242  14.093  0.0702 -0.4337 -0.0997
   94MPD2    C1 1462   1.052   2.312  13.975 -0.3381  0.4841 -0.1369
   94MPD2    C2 1463   0.923   2.339  13.929 -0.3389 -0.1948 -0.1931
   94MPD2    C3 1464   0.805   2.317  14.002  1.1096  0.3878  0.3150
   94MPD2    C4 1465   0.819   2.243  14.116  0.4201  0.2671  0.0423
   94MPD2    C5 1466   0.945   2.220  14.166  0.2872  0.2656 -0.2584
   94MPD2     H 1467   0.916   2.378  13.828 -2.3968 -1.1429 -0.4165
   94MPD2    H1 1468   0.734   2.215  14.177  1.8486 -0.2251  1.7794
   94MPD2    H2 1469   1.154   2.206  14.131  0.8618  1.9697  0.2263
   94MPD2    H3 1470   0.939   2.172  14.263 -1.3596  0.8003 -0.0962
   94MPD2     N 1471   0.680   2.321  13.943  0.9833 -0.1167  0.6756
   94MPD2    H5 1472   0.604   2.284  14.000 -0.5446  0.1766 -1.1662
   94MPD2    N1 1473   1.166   2.338  13.894 -0.0495  0.1864  0.4410
   94MPD2    H7 1474   1.156   2.363  13.796 -0.1220 -1.2000  0.0943
   95TMC2    C1 1475   0.988   4.712  15.804  0.0080  0.1798  0.3112
   95TMC2    C2 1476   0.966   0.108  15.783  0.3706 -0.1020 -0.3190
   95TMC2    C3 1477   0.841   0.146  15.765  0.1257  0.2353  0.0400
   95TMC2    C4 1478   0.886   4.631  15.823  0.6497  0.3289  0.0731
   95TMC2    C5 1479   0.753   4.672  15.794 -0.5321  0.4424 -0.2432
   95TMC2    C6 1480   0.733   0.068  15.766  0.4976  0.7826 -0.1527
   95TMC2     C 1481   1.128   4.664  15.791 -0.6848 -0.3911  0.6595
   95TMC2     O 1482   1.206   0.014  15.753  0.1509 -0.1394 -0.2744
   95TMC2     H 1483   1.052   0.171  15.761  0.4534  0.2828  1.0426
   95TMC2    H1 1484   0.908   4.531  15.859 -0.4802 -0.6596 -1.9529
   95TMC2    H2 1485   0.641   0.102  15.721 -1.1639 -0.1317  2.5171
   95TMC2    C7 1486   0.634   4.595  15.808 -0.3355 -0.0291 -0.6180
   95TMC2    C8 1487   0.817   0.284  15.755 -0.1428 -0.2993  0.3910
   95TMC2    O1 1488   0.532   4.663  15.803  0.9983  0.2204 -0.0760
   95TMC2    O2 1489   0.719   0.331  15.705 -0.5412 -0.2942  0.3762
   95TMC2    O5 1490   0.892   0.350  15.845  1.1423  0.7986 -0.6090
   95TMC2    H5 1491   0.948   0.284  15.891 -0.8073  1.4965  2.7800
   96MPD2     C 1492   1.494   4.298  15.768  0.7800 -0.1499 -0.4089
   96MPD2    C1 1493   1.506   4.432  15.755 -0.0671 -0.4022 -0.1261
   96MPD2    C2 1494   1.388   4.517  15.789  0.4590  0.5565  0.2478
   96MPD2    C3 1495   1.264   4.454  15.821  1.3777  0.3498 -0.0201
   96MPD2    C4 1496   1.264   4.315  15.835  0.4973  0.1397  0.3384
   96MPD2    C5 1497   1.379   4.243  15.817 -0.2284 -0.2997  0.1392
   96MPD2     H 1498   1.399   4.625  15.795 -0.2525  0.6945 -0.9900
   96MPD2    H1 1499   1.171   4.263  15.857  1.9524 -2.6558 -0.0996
   96MPD2    H2 1500   1.581   4.235  15.751 -0.6595 -2.7002  1.7276
   96MPD2    H3 1501   1.381   4.135  15.828 -0.8018 -0.5529 -2.1893
   96MPD2     N 1502   1.140   4.529  15.818 -0.1623 -0.1795 -0.7002
   96MPD2    H5 1503   1.061   4.471  15.845 -0.7011  0.2836 -1.3155
   96MPD2    N1 1504   1.635   4.486  15.707 -0.0226 -0.3724  0.0632
   96MPD2    H7 1505   1.705   4.424  15.667  2.0879  1.4378  0.9408
   97TMC2    C1 1506   3.536   2.815  17.293 -0.3409 -0.1856  0.3453
   97TMC2    C2 1507   3.556   2.751  17.172 -0.6336 -0.0039 -0.2031
   97TMC2    C3 1508   3.625   2.821  17.072 -0.1442  0.0410 -0.5423
   97TMC2    C4 1509   3.594   2.941  17.313 -0.0629 -0.9268  0.1924
   97TMC2    C5 1510   3.662   3.010  17.213 -0.0355  0.4999  0.2577
   97TMC2    C6 1511   3.669   2.948  17.092  0.3606 -0.3860  0.0474
   97TMC2     C 1512   3.459   2.751  17.400  0.9492 -0.1138  0.3805
   97TMC2     O 1513   3.405   2.643  17.373  0.1017 -0.2927 -0.0270
   97TMC2     H 1514   3.527   2.651  17.144 -0.2886 -0.2992  0.4894
   97TMC2    H1 1515   3.593   2.980  17.414 -3.4700 -3.1712  1.0307
   97TMC2    H2 1516   3.727   2.994  17.013 -0.0066  0.7444  0.4356
   97TMC2    C7 1517   3.714   3.138  17.242  0.2835 -0.0202 -0.4238
   97TMC2    C8 1518   3.654   2.759  16.948  0.2631 -0.4126 -0.0408
   97TMC2    O1 1519   3.741   3.150  17.361  0.2809  0.3688 -0.2249
   97TMC2    O2 1520   3.658   2.635  16.936 -0.4539 -0.2101  0.7146
   97TMC2    O5 1521   3.625   2.850  16.853  0.3196 -0.0432 -0.8728
   97TMC2    H5 1522   3.622   2.945  16.876 -0.9582 -1.0730  3.3584
   98MPD2     C 1523   3.272   2.695   0.117 -0.4312  0.0513 -0.4731
   98MPD2    C1 1524   3.326   2.604   0.029  0.1093 -0.2588  0.2510
   98MPD2    C2 1525   3.381   2.645  17.668  0.5858  0.0504 -0.0544
   98MPD2    C3 1526   3.373   2.775  17.627 -0.4485  0.6036 -0.1496
   98MPD2    C4 1527   3.333   2.870  17.719 -0.3469 -0.0193  1.1470
   98MPD2    C5 1528   3.285   2.833   0.086 -0.2897 -0.1937  0.3152
   98MPD2     H 1529   3.433   2.575  17.603 -0.5014  0.2716 -1.1540
   98MPD2    H1 1530   3.349   2.974  17.691 -2.9105  0.3105  0.8932
   98MPD2    H2 1531   3.230   2.653   0.207  1.6302 -2.0600 -0.4992
   98MPD2    H3 1532   3.252   2.906   0.160 -1.4765 -0.9331  0.5188
   98MPD2     N 1533   3.444   2.819  17.517  0.3465  0.0270 -0.1027
   98MPD2    H5 1534   3.471   2.917  17.518 -0.1832  0.1978 -1.8740
   98MPD2    N1 1535   3.299   2.466   0.047  0.6122  0.0429  0.0760
   98MPD2    H7 1536   3.242   2.441   0.127 -0.2243 -0.8170 -0.7975
   99TMC2    C1 1537   2.562   4.669   1.808  0.0814  0.9064  0.0557
   99TMC2    C2 1538   2.683   4.707   1.869 -0.4163 -0.4131 -0.4334
   99TMC2    C3 1539   2.667   0.031   1.991 -0.1090  0.2490 -0.1161
   99TMC2    C4 1540   2.437   4.680   1.861 -0.7336 -0.3725  0.5557
   99TMC2    C5 1541   2.433   4.728   1.987 -0.2289  0.4407 -0.4860
   99TMC2    C6 1542   2.543   0.033   2.054  0.0426  0.2281  0.9466
   99TMC2     C 1543   2.572   4.618   1.677  0.4062  0.4862  0.9998
   99TMC2     O 1544   2.679   4.634   1.620  0.0162 -0.0926 -0.3180
   99TMC2     H 1545   2.779   4.682   1.825 -0.3048  1.3359 -1.2048
   99TMC2    H1 1546   2.346   4.673   1.803 -0.8650 -1.4945  0.9101
   99TMC2    H2 1547   2.531   0.068   2.156  3.7755  0.3229  1.3328
   99TMC2    C7 1548   2.305   0.015   2.050 -0.6346  0.3814  0.5389
   99TMC2    C8 1549   2.789   0.039   2.072 -0.0636  0.1436 -1.0952
   99TMC2    O1 1550   2.307   0.099   2.139  0.1411 -0.0517  0.8694
   99TMC2    O2 1551   2.892   4.727   2.035  0.6592 -0.5930  0.4135
   99TMC2    O5 1552   2.783   0.151   2.148 -0.3214 -0.1802 -0.1639
   99TMC2    H5 1553   2.697   0.183   2.185  0.6796  3.6198 -1.0842
  100MPD2     C 1554   2.518   4.543   1.397 -0.2754  0.3583 -0.0076
  100MPD2    C1 1555   2.452   4.492   1.506 -0.2943  0.1507 -0.1775
  100MPD2    C2 1556   2.361   4.387   1.492 -0.0394  0.4646  0.3381
  100MPD2    C3 1557   2.338   4.336   1.364 -0.1014 -0.0760 -0.0561
  100MPD2    C4 1558   2.405   4.389   1.255  0.2129  0.1134  0.2421
  100MPD2    C5 1559   2.501   4.484   1.275  0.7812 -0.1542  0.7730
  100MPD2     H 1560   2.319   4.347   1.583  1.9638 -0.3304  0.9125
  100MPD2    H1 1561   2.391   4.360   1.151 -0.3738 -1.8731  0.8765
  100MPD2    H2 1562   2.589   4.624   1.389 -2.1967  2.1704  1.2628
  100MPD2    H3 1563   2.561   4.525   1.194 -0.7153 -0.2805 -0.4068
  100MPD2     N 1564   2.255   4.224   1.354 -0.1664  0.3256  0.0740
  100MPD2    H5 1565   2.222   4.182   1.440 -0.2477 -0.4659 -0.3425
  100MPD2    N1 1566   2.467   4.541   1.638 -0.5003 -0.2947 -0.1654
  100MPD2    H7 1567   2.397   4.521   1.708 -1.7219  1.0526 -1.0080
  101TMC2    C1 1568   2.682   0.173  13.284 -0.4414 -0.3201 -0.6681
  101TMC2    C2 1569   2.553   0.194  13.243  0.3341 -0.1567  0.2071
  101TMC2    C3 1570   2.532   0.283  13.145  0.2279  0.1810  0.2442
  101TMC2    C4 1571   2.792   0.233  13.227 -0.4200 -0.1585 -0.1679
  101TMC2    C5 1572   2.767   0.308  13.113 -0.2899  0.5097  0.1445
  101TMC2    C6 1573   2.635   0.336  13.076 -0.1617  0.5255 -0.7204
  101TMC2     C 1574   2.678   0.063  13.386  0.4307  0.3318 -0.1255
  101TMC2     O 1575   2.581   0.052  13.455 -0.1013  0.4346 -0.3143
  101TMC2     H 1576   2.470   0.133  13.276  2.2135 -2.3304  0.9320
  101TMC2    H1 1577   2.889   0.201  13.263 -0.2729 -1.5183 -1.7815
  101TMC2    H2 1578   2.615   0.398  12.989  2.2854  0.1207 -1.5937
  101TMC2    C7 1579   2.866   0.414  13.090  0.6499 -0.1064 -0.2167
  101TMC2    C8 1580   2.398   0.309  13.099  0.8537 -0.4202  0.0109
  101TMC2    O1 1581   2.851   0.487  12.994  0.5049  0.0030  0.1635
  101TMC2    O2 1582   2.370   0.337  12.987 -0.3910 -0.1573  0.2057
  101TMC2    O5 1583   2.330   0.343  13.208 -0.4086  0.4553 -0.2310
  101TMC2    H5 1584   2.373   0.303  13.286  1.1972  3.4035  0.3783
  102MPD2     C 1585   2.937   4.562  13.472 -0.2124  0.3957 -0.4862
  102MPD2    C1 1586   2.815   4.611  13.461  0.1730  1.2117  0.8755
  102MPD2    C2 1587   2.710   4.542  13.521 -0.5239 -0.2357  0.0270
  102MPD2    C3 1588   2.732   4.439  13.607 -0.6898 -0.0709  0.4715
  102MPD2    C4 1589   2.862   4.396  13.633 -0.8439 -0.1220 -0.1975
  102MPD2    C5 1590   2.959   4.461  13.561  0.1851 -0.2884  0.5768
  102MPD2     H 1591   2.607   4.575  13.522 -0.2549  0.6867 -1.2325
  102MPD2    H1 1592   2.884   4.310  13.694  1.0472  0.1158 -0.5448
  102MPD2    H2 1593   3.027   4.604  13.430  0.0783  0.0437 -0.2231
  102MPD2    H3 1594   3.063   4.430  13.562  0.0232 -0.8035  1.6627
  102MPD2     N 1595   2.619   4.379  13.661 -0.0206  0.2232 -0.3960
  102MPD2    H5 1596   2.535   4.423  13.626 -1.3121 -0.3466  2.0320
  102MPD2    N1 1597   2.794   4.728  13.387 -0.7730 -0.4914 -0.6227
  102MPD2    H7 1598   2.878   0.023  13.340 -1.2665 -0.5651 -1.5695
  103TMC2    C1 1599   0.777   0.344  12.601 -0.4120  1.0712  0.2976
  103TMC2    C2 1600   0.839   0.236  12.668 -0.2483  0.1940 -0.2110
  103TMC2    C3 1601   0.846   0.243  12.799  0.2831 -0.3760 -0.1147
  103TMC2    C4 1602   0.701   0.431  12.662 -0.1527  0.0447 -0.6483
  103TMC2    C5 1603   0.692   0.429  12.797  0.5642  0.0446  0.8138
  103TMC2    C6 1604   0.776   0.341  12.859 -0.9168  0.2781 -0.2782
  103TMC2     C 1605   0.793   0.346  12.460 -0.0117  0.3649 -0.1745
  103TMC2     O 1606   0.707   0.405  12.401 -0.1294  0.1910  0.3145
  103TMC2     H 1607   0.905   0.168  12.617 -0.2682 -0.7208  0.9980
  103TMC2    H1 1608   0.668   0.522  12.613 -1.8175  0.3948  1.1557
  103TMC2    H2 1609   0.783   0.349  12.967  0.9649  1.1194 -0.4548
  103TMC2    C7 1610   0.617   0.527  12.875 -0.1959 -1.3499 -0.7511
  103TMC2    C8 1611   0.895   0.118  12.862  1.1039  0.5506 -0.4937
  103TMC2    O1 1612   0.619   0.507  12.995  0.0910 -0.1166  0.7264
  103TMC2    O2 1613   0.989   0.061  12.816  0.0459  0.1240 -0.2788
  103TMC2    O5 1614   0.780   0.056  12.895 -0.3176  0.4140  0.0003
  103TMC2    H5 1615   0.705   0.112  12.924 -1.5964 -1.3186  0.0633
  104MPD2     C 1616   1.096   0.271  12.261  0.3566 -0.1822 -0.6142
  104MPD2    C1 1617   0.961   0.298  12.284 -0.2110  0.5181 -0.3128
  104MPD2    C2 1618   0.877   0.320  12.177 -0.5160  0.1294  0.1201
  104MPD2    C3 1619   0.939   0.319  12.050 -0.5435 -0.2803 -0.3524
  104MPD2    C4 1620   1.071   0.279  12.034 -0.8657 -0.3370  0.0325
  104MPD2    C5 1621   1.147   0.246  12.138  0.1747 -0.1572 -0.6580
  104MPD2     H 1622   0.776   0.354  12.197  0.4322  3.2738 -0.4748
  104MPD2    H1 1623   1.124   0.275  11.940 -0.1490  1.2865  0.3782
  104MPD2    H2 1624   1.155   0.238  12.345  2.6951  1.7018 -1.5319
  104MPD2    H3 1625   1.241   0.194  12.126 -0.5900 -1.9420  1.0464
  104MPD2     N 1626   0.859   0.377  11.956 -0.0237 -0.0736 -0.1456
  104MPD2    H5 1627   0.763   0.402  11.980 -1.1277 -1.3988 -3.0874
  104MPD2    N1 1628   0.918   0.307  12.419  0.3577  0.1794 -0.6914
  104MPD2    H7 1629   0.993   0.309  12.487 -1.7319 -1.5311  1.6877
  105TMC2    C1 1630   2.395   4.267   0.021  0.2879  0.4936  0.8418
  105TMC2    C2 1631   2.346   4.382  17.707  0.4814  0.3258 -0.0499
  105TMC2    C3 1632   2.281   4.471   0.034  0.2202 -0.6316  0.4453
  105TMC2    C4 1633   2.386   4.242   0.156 -0.2297 -0.4703 -0.5281
  105TMC2    C5 1634   2.321   4.343   0.229  0.1948 -0.5448 -0.2922
  105TMC2    C6 1635   2.256   4.452   0.169  0.1429  0.0639 -0.1494
  105TMC2     C 1636   2.485   4.173  17.708 -0.1412  0.6689 -0.0080
  105TMC2     O 1637   2.498   4.058   0.002 -0.3371 -1.0635 -0.0238
  105TMC2     H 1638   2.341   4.409  17.602  2.6321  3.9077  0.7561
  105TMC2    H1 1639   2.425   4.152   0.201  0.0028 -0.4535 -0.6973
  105TMC2    H2 1640   2.210   4.529   0.230  0.4595  0.9294 -1.0114
  105TMC2    C7 1641   2.302   4.311   0.368  0.0175 -0.0681 -0.1961
  105TMC2    C8 1642   2.235   4.597  17.727  0.3486  0.2554 -0.2515
  105TMC2    O1 1643   2.290   4.193   0.395 -0.4742  0.1586  0.1972
  105TMC2    O2 1644   2.152   4.666   0.034  0.8677 -0.1115 -0.4310
  105TMC2    O5 1645   2.335   4.644  17.645 -0.2156 -0.0086  0.2402
  105TMC2    H5 1646   2.404   4.576  17.631 -0.0111  0.3277 -0.3805
  106MPD2     C 1647   2.803   4.103  17.325 -0.2688 -0.0832 -0.5907
  106MPD2    C1 1648   2.752   4.229  17.317 -0.3047  0.6073  0.0957
  106MPD2    C2 1649   2.647   4.258  17.400  0.0115  0.3111 -0.1703
  106MPD2    C3 1650   2.597   4.174  17.498 -0.0961 -0.5074  0.2395
  106MPD2    C4 1651   2.651   4.049  17.504  0.1527  0.3492 -0.3881
  106MPD2    C5 1652   2.749   4.019  17.414  0.4024 -0.0678  0.0097
  106MPD2     H 1653   2.603   4.357  17.405  1.5659  0.8209  3.0890
  106MPD2    H1 1654   2.623   3.973  17.577  3.7865 -0.2726  0.3691
  106MPD2    H2 1655   2.879   4.061  17.259 -1.7507 -0.7467 -1.8699
  106MPD2    H3 1656   2.801   3.926  17.432 -0.0742 -0.2242  0.5643
  106MPD2     N 1657   2.518   4.226  17.594 -0.1146  0.1601  0.2021
  106MPD2    H5 1658   2.485   4.319  17.568 -0.8318 -0.1584 -0.0536
  106MPD2    N1 1659   2.779   4.316  17.210  0.2798  0.5077  0.9169
  106MPD2    H7 1660   2.715   4.394  17.200  1.0354  0.9963 -0.1093
  107TMC2    C1 1661   3.073   4.189  11.477 -0.0168  0.4482 -0.6819
  107TMC2    C2 1662   3.132   4.302  11.521  0.3456 -0.2101 -0.1913
  107TMC2    C3 1663   3.222   4.370  11.442  0.0014  0.0406  0.4574
  107TMC2    C4 1664   3.102   4.146  11.344  0.3013  1.2465  0.3010
  107TMC2    C5 1665   3.195   4.213  11.267 -0.6801  0.1632 -0.2365
  107TMC2    C6 1666   3.257   4.333  11.315 -0.0415 -0.3190 -0.1223
  107TMC2     C 1667   2.953   4.142  11.535 -0.5672  0.0144 -0.4262
  107TMC2     O 1668   2.903   4.212  11.624  1.0742  0.0920  0.5521
  107TMC2     H 1669   3.113   4.343  11.619  2.0249  1.2717 -0.4767
  107TMC2    H1 1670   3.041   4.076  11.288 -1.0208  1.7395  1.1407
  107TMC2    H2 1671   3.333   4.380  11.253  0.0915 -2.1060 -1.3189
  107TMC2    C7 1672   3.195   4.179  11.124  0.1933 -0.9947  0.1005
  107TMC2    C8 1673   3.280   4.498  11.491 -0.5075 -0.1946  0.8800
  107TMC2    O1 1674   3.239   4.261  11.044 -0.1185 -0.5252 -0.0921
  107TMC2    O2 1675   3.292   4.515  11.616 -0.3201  0.8453 -0.0623
  107TMC2    O5 1676   3.341   4.573  11.397  0.2129 -0.2005  0.5755
  107TMC2    H5 1677   3.303   4.555  11.308  0.2786 -2.1334  0.9346
  108MPD2     C 1678   2.765   3.825  11.472 -0.1412  0.0338  0.0988
  108MPD2    C1 1679   2.804   3.937  11.548  0.5910  0.4869  0.0160
  108MPD2    C2 1680   2.753   3.965  11.674  0.2436 -0.1457 -0.6520
  108MPD2    C3 1681   2.664   3.877  11.733  0.9252  0.7095  0.2510
  108MPD2    C4 1682   2.634   3.762  11.660  0.1407 -0.6088  0.0632
  108MPD2    C5 1683   2.675   3.746  11.531  0.0382  0.4567 -0.5449
  108MPD2     H 1684   2.787   4.056  11.721 -1.1103 -0.8168  1.5899
  108MPD2    H1 1685   2.564   3.684  11.688 -0.3177 -0.1507  0.1988
  108MPD2    H2 1686   2.807   3.793  11.377 -1.1861 -1.9864  0.3008
  108MPD2    H3 1687   2.652   3.658  11.473 -2.8262  0.9292 -0.1519
  108MPD2     N 1688   2.594   3.903  11.850 -0.1703  0.4833  0.2422
  108MPD2    H5 1689   2.538   3.824  11.881 -1.2229  0.5280 -1.5505
  108MPD2    N1 1690   2.906   4.021  11.486  0.0562  0.3072 -0.1562
  108MPD2    H7 1691   2.941   3.978  11.401  1.9240 -2.0115  1.7699
  109TMC2    C1 1692   2.897   1.127  17.439 -0.5296 -0.2214  0.0473
  109TMC2    C2 1693   2.919   1.061  17.318 -0.6361 -0.8408  0.2440
  109TMC2    C3 1694   2.991   1.126  17.220  0.3063  0.1173 -0.3900
  109TMC2    C4 1695   2.938   1.256  17.462  0.2716 -0.2748 -0.1725
  109TMC2    C5 1696   3.008   1.313  17.356 -0.2126 -0.4777 -0.1922
  109TMC2    C6 1697   3.040   1.253  17.238 -0.2940  0.5701 -0.1159
  109TMC2     C 1698   2.810   1.049  17.528  0.3192  0.7849 -0.6950
  109TMC2     O 1699   2.745   0.957  17.480 -0.0371 -0.0344  0.4931
  109TMC2     H 1700   2.889   0.958  17.303  0.6501 -1.3936  1.3999
  109TMC2    H1 1701   2.912   1.297  17.559  1.1146 -2.5443  1.0120
  109TMC2    H2 1702   3.075   1.308  17.152 -0.3408 -0.2502 -0.6668
  109TMC2    C7 1703   3.064   1.445  17.388 -0.2120 -0.3278 -0.3071
  109TMC2    C8 1704   3.030   1.056  17.099 -0.2127 -0.4270 -0.4497
  109TMC2    O1 1705   3.050   1.485  17.502 -0.2559 -0.6245  0.0158
  109TMC2    O2 1706   3.120   1.094  17.029  0.2503  0.5432  0.0590
  109TMC2    O5 1707   2.915   0.998  17.054  0.3896 -0.6168  0.0871
  109TMC2    H5 1708   2.832   0.993  17.105  0.8312  1.5647  1.0194
  110MPD2     C 1709   2.587   0.936   0.226 -0.2804 -0.2249  0.4684
  110MPD2    C1 1710   2.631   1.062   0.231  0.2246 -0.6347 -0.4812
  110MPD2    C2 1711   2.709   1.110   0.127 -0.2146  0.4252 -0.3093
  110MPD2    C3 1712   2.711   1.039   0.008 -0.0765  0.3285 -0.3776
  110MPD2    C4 1713   2.659   0.914   0.001  0.2729  0.2112 -0.8459
  110MPD2    C5 1714   2.612   0.861   0.116 -0.5997 -0.2470  0.4474
  110MPD2     H 1715   2.739   1.214   0.133 -0.9921  0.7400 -1.9643
  110MPD2    H1 1716   2.658   0.843  17.669  0.3403  1.0537 -1.5831
  110MPD2    H2 1717   2.547   0.880   0.309 -1.0740 -1.2059 -0.5717
  110MPD2    H3 1718   2.575   0.759   0.110 -1.9937  0.2465  0.7025
  110MPD2     N 1719   2.791   1.099  17.656 -0.0228 -0.0304 -0.7524
  110MPD2    H5 1720   2.847   1.178  17.684 -0.1504 -0.3302  0.3347
  110MPD2    N1 1721   2.599   1.137   0.347  0.4031  0.0128  0.0888
  110MPD2    H7 1722   2.539   1.087   0.412 -0.3174  1.7933  0.8091
  111TMC2    C1 1723   3.301   0.537  11.608  0.3234 -0.1258  0.2808
  111TMC2    C2 1724   3.401   0.483  11.523  0.1385 -0.4325  0.5285
  111TMC2    C3 1725   3.516   0.448  11.589  0.1175 -0.3598 -0.0339
  111TMC2    C4 1726   3.320   0.580  11.737  0.4183  0.0949  0.0721
  111TMC2    C5 1727   3.445   0.549  11.786  0.1803  0.3341  0.2545
  111TMC2    C6 1728   3.539   0.475  11.720 -0.7555 -0.4481 -0.0531
  111TMC2     C 1729   3.200   0.605  11.528 -0.0460  0.0634 -0.2244
  111TMC2     O 1730   3.234   0.646  11.418  0.7562  0.2098 -0.5244
  111TMC2     H 1731   3.376   0.447  11.424  2.2940 -0.2633 -0.0736
  111TMC2    H1 1732   3.248   0.641  11.790 -0.3164  0.1953 -1.0437
  111TMC2    H2 1733   3.636   0.460  11.765 -0.9789  0.9556  0.8701
  111TMC2    C7 1734   3.467   0.591  11.926  0.2556  0.2992  0.7113
  111TMC2    C8 1735   3.628   0.424  11.491 -0.2244 -0.5792 -0.1231
  111TMC2    O1 1736   3.366   0.619  11.995  0.0083  0.0107  1.1530
  111TMC2    O2 1737   3.621   0.380  11.374 -0.0122 -0.1311  0.2381
  111TMC2    O5 1738   3.742   0.482  11.540  0.5418  0.2070 -0.1422
  111TMC2    H5 1739   3.734   0.545  11.615 -0.2208 -0.1332  0.0584
  112MPD2     C 1740   2.735   0.824  11.464 -0.3840  0.2436  0.0557
  112MPD2    C1 1741   2.842   0.816  11.376  0.7935  0.4634  0.5533
  112MPD2    C2 1742   2.956   0.751  11.427  0.8390  0.0360  0.1571
  112MPD2    C3 1743   2.970   0.694  11.556 -0.9954  0.1760 -0.0831
  112MPD2    C4 1744   2.858   0.711  11.635 -0.0925 -0.4445 -1.1404
  112MPD2    C5 1745   2.741   0.762  11.582  0.2735 -0.2783  0.1322
  112MPD2     H 1746   3.036   0.740  11.355  0.7556  0.3591  0.0143
  112MPD2    H1 1747   2.848   0.683  11.740  1.9204 -2.3119 -1.4476
  112MPD2    H2 1748   2.637   0.858  11.434 -0.2037  0.2308 -0.5387
  112MPD2    H3 1749   2.650   0.756  11.640  0.2827 -1.0067  0.0818
  112MPD2     N 1750   3.088   0.626  11.601 -0.3732  0.5127 -0.1911
  112MPD2    H5 1751   3.073   0.589  11.694  1.8733 -0.4339 -0.1928
  112MPD2    N1 1752   2.865   0.883  11.261  1.4852 -0.3176 -0.0322
  112MPD2    H7 1753   2.962   0.880  11.233  0.8840  2.6664 -2.4910
  113TMC2    C1 1754   1.333   4.486   1.307  0.3145 -0.3815  0.5834
  113TMC2    C2 1755   1.215   4.553   1.341 -0.5273  0.0020  0.4908
  113TMC2    C3 1756   1.096   4.504   1.299  0.2426  0.2686  0.0320
  113TMC2    C4 1757   1.326   4.375   1.228  0.4150  0.0110 -1.0831
  113TMC2    C5 1758   1.205   4.336   1.183  0.2300 -0.2458  0.4413
  113TMC2    C6 1759   1.089   4.397   1.220 -0.2600 -0.2228 -0.1760
  113TMC2     C 1760   1.467   4.541   1.344  0.0811 -0.2032  0.1187
  113TMC2     O 1761   1.476   4.658   1.377  0.4473  0.5499  0.6335
  113TMC2     H 1762   1.222   4.632   1.415  3.9771  0.3835 -0.3639
  113TMC2    H1 1763   1.412   4.330   1.182  0.1728 -1.3784 -0.1751
  113TMC2    H2 1764   0.996   4.355   1.185  0.5350 -0.6628 -1.7652
  113TMC2    C7 1765   1.194   4.226   1.087  0.6976  0.6123  0.0628
  113TMC2    C8 1766   0.973   4.550   1.350 -0.1984 -0.8761  0.3360
  113TMC2    O1 1767   1.274   4.225   0.996 -0.2475  0.1998 -0.6857
  113TMC2    O2 1768   0.950   4.671   1.367  0.2064 -0.2125 -0.7339
  113TMC2    O5 1769   0.910   4.450   1.414 -0.4430 -0.4915 -0.0142
  113TMC2    H5 1770   0.958   4.364   1.411 -0.8777 -0.7858  1.2510
  114MPD2     C 1771   1.949   4.466   1.480 -0.5844 -0.1784  0.5825
  114MPD2    C1 1772   1.863   4.574   1.489  0.6656  1.3088 -0.0188
  114MPD2    C2 1773   1.742   4.576   1.435  0.2013  0.8250  0.2158
  114MPD2    C3 1774   1.692   4.461   1.373  0.1125  0.0196  0.0447
  114MPD2    C4 1775   1.778   4.346   1.365  0.3094  0.2355 -0.2596
  114MPD2    C5 1776   1.904   4.353   1.413 -0.2167 -0.2302  0.3732
  114MPD2     H 1777   1.678   4.661   1.457 -1.1531 -0.3755  0.9472
  114MPD2    H1 1778   1.754   4.257   1.309  1.7632 -0.7546  0.7023
  114MPD2    H2 1779   2.054   4.470   1.507 -0.3264  0.0914 -0.4735
  114MPD2    H3 1780   1.971   4.270   1.396  0.7574  0.0263  2.9473
  114MPD2     N 1781   1.563   4.445   1.321 -0.5259  0.2290  0.1447
  114MPD2    H5 1782   1.540   4.349   1.298  2.2838 -0.4071  0.0707
  114MPD2    N1 1783   1.904   4.694   1.554  0.2812 -0.8742 -0.5652
  114MPD2    H7 1784   1.833   0.029   1.552  1.3265  0.1473  0.3257
  115TMC2    C1 1785   1.998   1.696  17.432  0.2294  0.1355  1.2107
  115TMC2    C2 1786   2.136   1.681  17.452 -0.6064  0.0582  0.4064
  115TMC2    C3 1787   2.216   1.789  17.468  0.5064  0.0579  0.7935
  115TMC2    C4 1788   1.941   1.822  17.444 -0.3734 -0.1577  0.4856
  115TMC2    C5 1789   2.025   1.930  17.468 -0.2127  0.1508 -0.4658
  115TMC2    C6 1790   2.160   1.911  17.473 -0.3666  0.2365  0.4945
  115TMC2     C 1791   1.908   1.580  17.421 -0.1084  0.1103  0.3719
  115TMC2     O 1792   1.958   1.471  17.433 -0.2861  0.0476  0.5648
  115TMC2     H 1793   2.190   1.588  17.440  0.8324  0.7623  1.4388
  115TMC2    H1 1794   1.835   1.844  17.437 -0.3100  0.1870  0.5948
  115TMC2    H2 1795   2.225   1.995  17.494  0.4661 -0.7832  2.0207
  115TMC2    C7 1796   1.968   2.050  17.523  0.1862 -0.4316 -0.5886
  115TMC2    C8 1797   2.346   1.772  17.525  0.0742 -0.0200 -0.2640
  115TMC2    O1 1798   1.856   2.042  17.571 -0.4561 -0.3672  0.2287
  115TMC2    O2 1799   2.443   1.844  17.498  0.6146  0.4929  0.7381
  115TMC2    O5 1800   2.326   1.716  17.647 -0.0374 -0.8230  0.4848
  115TMC2    H5 1801   2.238   1.676  17.666 -0.7033 -0.0548 -1.0079
  116MPD2     C 1802   1.467   1.325  17.402  0.4536  0.1464 -0.0062
  116MPD2    C1 1803   1.588   1.296  17.341 -0.6700  0.4294 -0.5707
  116MPD2    C2 1804   1.687   1.392  17.357 -0.0938  0.6934 -0.4168
  116MPD2    C3 1805   1.672   1.506  17.442  0.8234  0.3456 -0.2242
  116MPD2    C4 1806   1.549   1.533  17.496  0.2428  0.0144  0.1176
  116MPD2    C5 1807   1.446   1.445  17.476  0.3460 -0.0748 -0.1560
  116MPD2     H 1808   1.787   1.368  17.323 -0.8570 -2.4925 -0.3922
  116MPD2    H1 1809   1.534   1.616  17.564  1.1040  0.9580 -0.8462
  116MPD2    H2 1810   1.390   1.250  17.390 -0.0550  0.7706 -0.6123
  116MPD2    H3 1811   1.348   1.461  17.518 -0.2560 -1.1253 -1.1462
  116MPD2     N 1812   1.771   1.606  17.455 -0.8659 -0.6532  0.2910
  116MPD2    H5 1813   1.737   1.692  17.497 -1.0946  0.8081 -2.8744
  116MPD2    N1 1814   1.607   1.171  17.276  0.3123 -0.2516  0.5544
  116MPD2    H7 1815   1.522   1.116  17.265 -0.0965  0.4449  0.2256
  117TMC2    C1 1816   1.207   2.762  14.439 -0.4627  0.2177 -0.2512
  117TMC2    C2 1817   1.340   2.729  14.443  0.2421 -0.0919 -0.9975
  117TMC2    C3 1818   1.435   2.824  14.405 -0.1355  0.4451 -0.2077
  117TMC2    C4 1819   1.168   2.882  14.378  0.2121  0.5916 -0.1890
  117TMC2    C5 1820   1.268   2.968  14.341 -0.0969  0.6208  0.0938
  117TMC2    C6 1821   1.401   2.946  14.361  0.7583  0.6000  0.1198
  117TMC2     C 1822   1.111   2.654  14.436 -0.7015  0.5768  0.2412
  117TMC2     O 1823   1.141   2.559  14.503  0.3714 -0.1244  0.6028
  117TMC2     H 1824   1.369   2.630  14.477  0.2850 -0.7284 -2.9215
  117TMC2    H1 1825   1.063   2.908  14.374  0.6279  2.3627  0.2019
  117TMC2    H2 1826   1.478   3.021  14.348  0.7309  0.3644 -1.3406
  117TMC2    C7 1827   1.239   3.102  14.292  0.4808  0.2646  0.5749
  117TMC2    C8 1828   1.560   2.775  14.357 -0.4151 -0.0905 -0.1595
  117TMC2    O1 1829   1.320   3.193  14.318  0.1090 -0.1869  0.0667
  117TMC2    O2 1830   1.653   2.852  14.337  0.6334 -0.6975 -0.1237
  117TMC2    O5 1831   1.517   2.692  14.254 -0.7405 -0.1768 -0.5334
  117TMC2    H5 1832   1.433   2.649  14.279 -1.0308 -0.4592 -2.0197
  118MPD2     C 1833   0.927   3.163  14.110  0.1096  0.0324  0.4628
  118MPD2    C1 1834   1.046   3.202  14.154 -0.2720  0.6925 -0.0661
  118MPD2    C2 1835   1.083   3.332  14.135  0.3978  0.4364 -0.1859
  118MPD2    C3 1836   1.005   3.421  14.056  0.0584  0.1261  0.5320
  118MPD2    C4 1837   0.883   3.377  14.017  0.0503 -0.1085  0.1263
  118MPD2    C5 1838   0.840   3.248  14.046  0.1313  0.4250 -0.1466
  118MPD2     H 1839   1.181   3.359  14.174 -0.2021  2.0025  0.2261
  118MPD2    H1 1840   0.811   3.434  13.959  1.1605 -0.5310 -1.6707
  118MPD2    H2 1841   0.895   3.060  14.125  0.2519  0.0835  1.1287
  118MPD2    H3 1842   0.748   3.206  14.007  0.6963 -1.7089  0.8143
  118MPD2     N 1843   1.062   3.550  14.019  0.1392 -0.4447 -0.1734
  118MPD2    H5 1844   1.147   3.579  14.066  0.1048 -0.6000 -0.0150
  118MPD2    N1 1845   1.111   3.102  14.232  0.3300  0.0183 -0.0647
  118MPD2    H7 1846   1.069   3.010  14.217 -0.8565  0.3491  1.2817
  119TMC2    C1 1847   3.567   4.336  13.478  0.0503  0.1491  0.4171
  119TMC2    C2 1848   3.598   4.343  13.346  0.5537  0.2651  0.1186
  119TMC2    C3 1849   3.528   4.277  13.255  0.3169 -0.3985 -0.0485
  119TMC2    C4 1850   3.460   4.266  13.517  0.0724  0.6814  0.6914
  119TMC2    C5 1851   3.384   4.204  13.420  0.0889 -0.3797  0.0627
  119TMC2    C6 1852   3.416   4.200  13.286 -0.1750 -0.4698  0.6009
  119TMC2     C 1853   3.631   4.412  13.585  0.4293  0.0015  0.6267
  119TMC2     O 1854   3.570   4.455  13.683 -0.5213  0.0827  0.0327
  119TMC2     H 1855   3.680   4.411  13.323 -0.2902  1.6002  1.0526
  119TMC2    H1 1856   3.423   4.279  13.618  0.3347 -2.1816  1.1407
  119TMC2    H2 1857   3.346   4.155  13.217  0.4570  0.1510 -0.4594
  119TMC2    C7 1858   3.253   4.154  13.460  0.2108 -0.1899 -0.0837
  119TMC2    C8 1859   3.617   4.222  13.145 -0.1018  0.3626 -0.4090
  119TMC2    O1 1860   3.172   4.133  13.370  0.0267  0.3588 -0.1229
  119TMC2    O2 1861   3.603   4.107  13.107  0.3929 -0.3845 -0.2550
  119TMC2    O5 1862   3.655   4.329  13.072 -0.0110  0.1388 -0.2153
  119TMC2    H5 1863   3.660   4.419  13.111 -3.0787  0.7206 -1.1923
  120MPD2     C 1864   4.042   4.437  13.888  0.3476 -0.0707 -0.3165
  120MPD2    C1 1865   3.917   4.468  13.918 -0.1441  0.2629 -0.6178
  120MPD2    C2 1866   3.830   4.483  13.812 -0.1820 -0.3376 -0.5551
  120MPD2    C3 1867   3.865   4.428  13.686 -0.0523 -0.4134 -0.1477
  120MPD2    C4 1868   3.993   4.391  13.667  0.5991 -0.2154 -0.1114
  120MPD2    C5 1869   4.087   4.402  13.764  0.1575  0.1137 -0.9084
  120MPD2     H 1870   3.732   4.527  13.828 -0.5913 -0.7616 -1.8686
  120MPD2    H1 1871   4.039   4.350  13.578 -1.1207 -2.6520  0.1381
  120MPD2    H2 1872   4.112   4.417  13.969  1.3991  0.3803 -1.1071
  120MPD2    H3 1873   4.192   4.379  13.750 -0.1770 -1.0466 -1.5883
  120MPD2     N 1874   3.770   4.406  13.578 -0.4882 -0.1002 -0.3492
  120MPD2    H5 1875   3.816   4.365  13.497 -0.0474 -2.0744  0.9143
  120MPD2    N1 1876   3.889   4.488  14.056  0.2224  0.0375 -0.5187
  120MPD2    H7 1877   3.967   4.494  14.121 -0.9015  0.7710  0.7593
  121TMC2    C1 1878   0.570   1.598  14.489 -0.1900 -0.7880  0.7102
  121TMC2    C2 1879   0.511   1.632  14.604 -0.5010 -0.3381 -0.1387
  121TMC2    C3 1880   0.410   1.545  14.643 -0.4071  0.4334  0.4917
  121TMC2    C4 1881   0.541   1.495  14.407 -0.1609  0.8722 -0.2371
  121TMC2    C5 1882   0.445   1.412  14.455  0.3098  0.3480 -0.2506
  121TMC2    C6 1883   0.376   1.436  14.573 -0.4364  0.4001  0.8545
  121TMC2     C 1884   0.678   1.685  14.446 -0.5195 -0.1335  1.2835
  121TMC2     O 1885   0.776   1.685  14.525  0.3512 -0.1274 -0.6000
  121TMC2     H 1886   0.541   1.717  14.663  0.2915 -0.7404  0.0413
  121TMC2    H1 1887   0.593   1.473  14.315 -0.3368  0.8219 -0.3230
  121TMC2    H2 1888   0.286   1.383  14.601 -0.3883 -1.2835 -2.2159
  121TMC2    C7 1889   0.386   1.323  14.362 -0.5664 -0.2762 -0.5931
  121TMC2    C8 1890   0.356   1.571  14.774 -0.0519 -0.5321  0.4731
  121TMC2    O1 1891   0.451   1.293  14.265 -0.3305 -0.3021 -0.4508
  121TMC2    O2 1892   0.420   1.633  14.856  0.3717  0.1215  0.5138
  121TMC2    O5 1893   0.220   1.547  14.782  0.1806  0.5190  0.4856
  121TMC2    H5 1894   0.182   1.508  14.700  1.0864 -0.1271  0.3700
  122MPD2     C 1895   0.893   1.815  14.280  0.3896  0.2840  0.1689
  122MPD2    C1 1896   0.767   1.787  14.234  0.3048 -0.0499 -0.3956
  122MPD2    C2 1897   0.723   1.830  14.112 -0.8688  0.0324 -0.0369
  122MPD2    C3 1898   0.814   1.891  14.026 -0.1160 -0.2482  0.4516
  122MPD2    C4 1899   0.939   1.928  14.071 -0.0704  0.8636 -0.2690
  122MPD2    C5 1900   0.976   1.882  14.195  0.0626 -0.0203  0.5824
  122MPD2     H 1901   0.622   1.809  14.080  0.0083 -1.2344 -2.0596
  122MPD2    H1 1902   1.009   1.974  14.002 -1.0620  3.3037  0.3305
  122MPD2    H2 1903   0.937   1.783  14.374  1.4086  0.1219 -0.3624
  122MPD2    H3 1904   1.074   1.904  14.238  0.6722 -0.0781 -0.7660
  122MPD2     N 1905   0.779   1.933  13.889 -0.1700  0.9524  0.1368
  122MPD2    H5 1906   0.858   1.974  13.840 -0.6385  0.3046 -1.1567
  122MPD2    N1 1907   0.669   1.724  14.313  0.4662  0.1838 -0.1651
  122MPD2    H7 1908   0.579   1.703  14.272  0.6765  0.7978 -0.9297
  123TMC2    C1 1909   3.806   4.198  10.578  0.6142 -1.0199 -0.6879
  123TMC2    C2 1910   3.928   4.182  10.637  0.2217  0.6111  0.1117
  123TMC2    C3 1911   4.026   4.283  10.630  0.5479 -0.0307 -0.2235
  123TMC2    C4 1912   3.787   4.302  10.489  0.3387  0.2628 -0.0643
  123TMC2    C5 1913   3.889   4.388  10.465  0.0636  0.0227 -0.4391
  123TMC2    C6 1914   4.011   4.380  10.535 -0.4672 -0.2440  0.0177
  123TMC2     C 1915   3.722   4.081  10.565 -0.9509  0.0202 -0.8739
  123TMC2     O 1916   3.782   3.976  10.584 -0.3322  0.1292 -0.1031
  123TMC2     H 1917   3.936   4.110  10.718  1.5834  1.4881  0.7536
  123TMC2    H1 1918   3.700   4.316  10.425  0.6045 -3.4572 -1.2171
  123TMC2    H2 1919   4.088   4.454  10.514 -1.0293  0.7674  1.5046
  123TMC2    C7 1920   3.877   4.468  10.343 -0.0878 -0.1060 -0.2120
  123TMC2    C8 1921   4.162   4.234  10.634 -0.3522  0.2036  0.2337
  123TMC2    O1 1922   3.762   4.478  10.299 -0.0463 -0.1188  0.0454
  123TMC2    O2 1923   4.170   4.111  10.649 -0.3924  0.5024 -0.3190
  123TMC2    O5 1924   4.222   4.323  10.714  0.5603 -0.0851  0.4297
  123TMC2    H5 1925   4.188   4.415  10.707  1.6371  0.2246 -0.6969
  124MPD2     C 1926   3.297   3.829  10.387  0.2233 -0.2409 -0.0510
  124MPD2    C1 1927   3.279   3.965  10.378  0.5446  0.3594 -0.4789
  124MPD2    C2 1928   3.384   4.050  10.415  0.1745  0.2824  0.2670
  124MPD2    C3 1929   3.505   4.003  10.464 -0.1149 -0.0793  0.2061
  124MPD2    C4 1930   3.517   3.866  10.474 -0.1567 -0.2520  0.6446
  124MPD2    C5 1931   3.413   3.779  10.436 -0.1879  0.1341  0.3916
  124MPD2     H 1932   3.363   4.156  10.415  2.8224  0.8054 -2.4980
  124MPD2    H1 1933   3.616   3.842  10.513  0.5212 -2.4611 -2.4326
  124MPD2    H2 1934   3.229   3.755  10.344  0.1213  0.4533 -1.0874
  124MPD2    H3 1935   3.422   3.672  10.444  1.2293  0.1063 -1.6797
  124MPD2     N 1936   3.597   4.095  10.511  0.7937 -0.0368 -0.1703
  124MPD2    H5 1937   3.571   4.193  10.513  1.8914  0.2142  1.6003
  124MPD2    N1 1938   3.154   4.014  10.324  0.0565 -0.2530 -0.3893
  124MPD2    H7 1939   3.091   3.945  10.285 -1.0263 -0.6571  2.0894
  125TMC2    C1 1940   4.339   1.715   9.890 -0.4512  0.9937 -0.5036
  125TMC2    C2 1941   4.302   1.600   9.825 -0.1965 -0.0840 -0.1774
  125TMC2    C3 1942   4.381   1.558   9.718  0.4254 -0.6766 -0.3596
  125TMC2    C4 1943   4.438   1.796   9.836 -0.6687  0.7167  0.4738
  125TMC2    C5 1944   4.517   1.754   9.733  1.3263  0.8307  0.6110
  125TMC2    C6 1945   4.489   1.632   9.674  0.1309  0.1016  0.3185
  125TMC2     C 1946   4.264   1.758  10.009 -0.2882 -0.3691  0.5413
  125TMC2     O 1947   4.152   1.709  10.022 -0.3893 -0.5779 -0.5613
  125TMC2     H 1948   4.215   1.543   9.855  0.6161 -1.4986 -0.5395
  125TMC2    H1 1949   4.446   1.896   9.876 -0.4169  0.6051  0.6984
  125TMC2    H2 1950   4.552   1.583   9.601 -0.1231  0.2951 -0.0301
  125TMC2    C7 1951   4.603   1.847   9.661 -0.2221  0.0608 -0.5883
  125TMC2    C8 1952   4.352   1.427   9.658  0.7881 -0.1612 -0.5478
  125TMC2    O1 1953   4.571   1.966   9.674 -0.0178 -0.1817 -0.5988
  125TMC2    O2 1954   4.424   1.369   9.578 -0.1356  0.4413  0.0424
  125TMC2    O5 1955   4.218   1.401   9.663  0.4413  0.2259 -0.5258
  125TMC2    H5 1956   4.170   1.478   9.701  1.4705  0.0223  1.1811
  126MPD1     C 1957   4.226   2.029  10.440 -0.3939  0.4285 -0.3442
  126MPD1    C1 1958   4.353   2.043  10.397 -0.1840  0.1539  0.1720
  126MPD1    C2 1959   4.392   1.964  10.286  0.0866  0.3087 -0.6382
  126MPD1    C3 1960   4.303   1.889  10.215  0.2355 -0.5422  0.1667
  126MPD1    C4 1961   4.175   1.878  10.268  0.7011 -0.1603 -0.0867
  126MPD1    C5 1962   4.136   1.951  10.379 -0.5627  0.3681 -0.2011
  126MPD1     H 1963   4.495   1.960  10.252  1.3901 -0.1749  3.4104
  126MPD1    H1 1964   4.091   1.821  10.230  1.3686  0.6509 -2.7895
  126MPD1    H2 1965   4.196   2.090  10.525 -0.1473  1.1556 -0.7691
  126MPD1    H3 1966   4.036   1.939  10.419  0.1704 -1.3695  1.0671
  126MPD1     N 1967   4.340   1.833  10.093 -0.2328 -0.5466  0.2231
  126MPD1    H5 1968   4.438   1.850  10.072 -0.0456 -1.0410  0.6688
  126MPD1    N1 1969   4.437   2.130  10.460  0.5126 -0.3831  0.1717
  126MPD1    H6 1970   4.393   2.198  10.521  0.6126 -0.1240 -0.0484
  126MPD1    H7 1971   4.480   2.192  10.393  1.0588  2.2307  2.9100
  127TMC2    C1 1972   0.824   0.013   9.683 -0.0648  0.5548  0.4487
  127TMC2    C2 1973   0.832   4.704   9.811 -0.4415 -0.1899 -0.7453
  127TMC2    C3 1974   0.737   4.621   9.855 -0.7457 -0.8097 -0.0634
  127TMC2    C4 1975   0.729   4.708   9.600 -0.4027  0.0160 -0.1410
  127TMC2    C5 1976   0.638   4.617   9.650 -0.4166 -0.6378  0.0451
  127TMC2    C6 1977   0.645   4.564   9.772  0.7358  0.2237 -0.3036
  127TMC2     C 1978   0.886   0.138   9.662  0.3031  0.0609 -0.4985
  127TMC2     O 1979   0.930   0.202   9.758  0.2839 -0.0499  0.3248
  127TMC2     H 1980   0.899   0.015   9.881 -0.6034  1.0246 -1.4295
  127TMC2    H1 1981   0.705   0.008   9.501 -3.2329 -1.5601 -0.0670
  127TMC2    H2 1982   0.591   4.477   9.810  0.8422 -0.4858 -1.8044
  127TMC2    C7 1983   0.530   4.588   9.556  0.0637  0.1439  0.2738
  127TMC2    C8 1984   0.757   4.552   9.981  0.0489 -0.0239 -0.3858
  127TMC2    O1 1985   0.539   4.614   9.438  0.4327  0.4979  0.7763
  127TMC2    O2 1986   0.703   4.441  10.002  0.3764  0.8726 -0.1528
  127TMC2    O5 1987   0.821   4.614  10.082  0.2761  0.5552 -0.5254
  127TMC2    H5 1988   0.873   4.695  10.062  2.9211 -1.1242 -0.3719
  128MPD2     C 1989   0.934   0.291   9.325  0.2576 -0.4842 -0.6340
  128MPD2    C1 1990   0.942   0.283   9.462 -0.0624  0.2585 -0.3594
  128MPD2    C2 1991   1.004   0.378   9.538 -0.6097  0.3667  0.4893
  128MPD2    C3 1992   1.050   0.488   9.467 -0.2224 -0.7321  0.2711
  128MPD2    C4 1993   1.029   0.506   9.329  0.3320  0.2898  0.1938
  128MPD2    C5 1994   0.967   0.408   9.264  0.2472  1.2029  0.3634
  128MPD2     H 1995   1.011   0.371   9.646 -0.5617  2.9849  0.6377
  128MPD2    H1 1996   1.057   0.596   9.275  0.0052 -0.1778 -0.7447
  128MPD2    H2 1997   0.895   0.209   9.266  0.2286 -0.9115 -0.0140
  128MPD2    H3 1998   0.958   0.423   9.157  2.1966 -2.6617 -0.3288
  128MPD2     N 1999   1.128   0.576   9.548 -0.3413  0.5034 -0.0882
  128MPD2    H5 2000   1.144   0.553   9.646 -1.7006 -0.5076 -0.1063
  128MPD2    N1 2001   0.890   0.171   9.524 -0.0914 -0.1836 -0.1163
  128MPD2    H7 2002   0.849   0.105   9.460 -1.7774 -0.1297  0.9077
  129TMC2    C1 2003   0.258   0.602   1.246  0.0795 -0.0153 -0.2458
  129TMC2    C2 2004   0.292   0.474   1.257 -0.3692 -0.0096  1.0139
  129TMC2    C3 2005   0.251   0.402   1.366 -0.7085 -0.9048  0.1133
  129TMC2    C4 2006   0.174   0.656   1.340 -0.1375 -0.2134  0.0869
  129TMC2    C5 2007   0.143   0.586   1.453 -0.7776 -0.3066  0.3452
  129TMC2    C6 2008   0.186   0.459   1.473 -0.3541  0.6962 -0.5180
  129TMC2     C 2009   0.292   0.659   1.113 -0.1650  0.4240  0.3099
  129TMC2     O 2010   0.301   0.591   1.014 -0.3417 -0.1355 -0.5461
  129TMC2     H 2011   0.361   0.436   1.182 -1.0286  1.2037 -0.2015
  129TMC2    H1 2012   0.144   0.760   1.345  1.1219  0.1909 -0.7537
  129TMC2    H2 2013   0.170   0.403   1.564  4.2665 -0.1430 -0.2390
  129TMC2    C7 2014   0.073   0.646   1.567  0.6319 -0.3740  0.0943
  129TMC2    C8 2015   0.289   0.260   1.386  0.1395  0.0833 -0.0894
  129TMC2    O1 2016   0.078   0.594   1.677  0.7800 -0.3141  0.3412
  129TMC2    O2 2017   0.295   0.215   1.501  0.0645  0.1517 -0.7951
  129TMC2    O5 2018   0.261   0.190   1.272  0.2548  0.1965  0.5542
  129TMC2    H5 2019   0.260   0.258   1.201 -0.1078 -1.5756 -1.1296
  130MPD2     C 2020   0.434   0.836   0.904  0.3308  0.0991  0.6020
  130MPD2    C1 2021   0.392   0.875   1.034  0.0161 -0.5828 -0.4171
  130MPD2    C2 2022   0.430   1.002   1.081 -0.2314 -0.2708  0.6925
  130MPD2    C3 2023   0.494   1.092   1.004 -0.2065  0.0404 -0.9365
  130MPD2    C4 2024   0.523   1.056   0.873 -0.5166  0.4296  0.2466
  130MPD2    C5 2025   0.505   0.929   0.831 -0.0941  0.9080  0.7662
  130MPD2     H 2026   0.410   1.031   1.183 -1.2741 -0.0662  0.4283
  130MPD2    H1 2027   0.569   1.129   0.807  0.1450 -1.2984 -1.1924
  130MPD2    H2 2028   0.409   0.739   0.864  0.6264  0.7004 -1.0201
  130MPD2    H3 2029   0.532   0.901   0.730 -0.4353  1.4528  0.5217
  130MPD2     N 2030   0.532   1.215   1.062 -0.0396 -0.1334 -0.1426
  130MPD2    H5 2031   0.522   1.219   1.163  0.2995  1.7350 -0.1874
  130MPD2    N1 2032   0.327   0.793   1.130 -0.6485  1.3347  0.2516
  130MPD2    H7 2033   0.314   0.844   1.217 -0.5555  2.9169 -0.6623
  131TMC2    C1 2034   3.248   0.287   9.936  0.1216  0.4462 -0.4103
  131TMC2    C2 2035   3.161   0.388   9.964  0.0240  0.2107  0.2237
  131TMC2    C3 2036   3.210   0.484  10.053 -0.0757 -0.0976 -0.0884
  131TMC2    C4 2037   3.379   0.289   9.980 -0.1618  0.6520  0.1357
  131TMC2    C5 2038   3.425   0.387  10.055 -0.4763  0.3023 -0.1403
  131TMC2    C6 2039   3.342   0.490  10.093  0.0317  0.1178  0.4120
  131TMC2     C 2040   3.185   0.157   9.944 -0.2147 -0.2296 -0.2916
  131TMC2     O 2041   3.245   0.074  10.013 -0.0163  0.1970 -0.1761
  131TMC2     H 2042   3.055   0.383   9.941  0.3538  1.0251 -1.5095
  131TMC2    H1 2043   3.452   0.217   9.946  0.2808  0.9960  0.3432
  131TMC2    H2 2044   3.370   0.552  10.178 -1.5088 -0.4278  1.3171
  131TMC2    C7 2045   3.569   0.390  10.080 -0.0321  0.9681 -0.3539
  131TMC2    C8 2046   3.113   0.571  10.124  0.4727 -0.4431 -0.4621
  131TMC2    O1 2047   3.630   0.285  10.073 -0.3829 -0.5182  0.2112
  131TMC2    O2 2048   2.993   0.552  10.108 -0.2530 -0.0482 -0.7412
  131TMC2    O5 2049   3.170   0.694  10.132  0.5926  0.7757  0.2918
  131TMC2    H5 2050   3.266   0.705  10.119  0.8898 -0.2816  1.5866
  132MPD2     C 2051   2.886   0.041   9.760 -0.4930  0.0596 -0.7305
  132MPD2    C1 2052   2.989   0.036   9.854  0.2373  0.0568  0.2498
  132MPD2    C2 2053   3.003   4.659   9.920 -0.3071 -0.2052 -0.5876
  132MPD2    C3 2054   2.899   4.562   9.914  0.2808 -0.1152  0.5739
  132MPD2    C4 2055   2.786   4.576   9.834  0.3722  0.2042 -0.0636
  132MPD2    C5 2056   2.793   4.683   9.744  0.0190  0.5438  0.0388
  132MPD2     H 2057   3.077   4.643   9.998  2.1258  2.6046 -2.2901
  132MPD2    H1 2058   2.720   4.493   9.811 -0.0018  0.7490 -0.9421
  132MPD2    H2 2059   2.872   0.133   9.704 -1.1830  0.1279 -0.4455
  132MPD2    H3 2060   2.714   4.691   9.670  0.5523  1.5811 -0.4132
  132MPD2     N 2061   2.918   4.439   9.987 -0.5834 -0.0834  0.2754
  132MPD2    H5 2062   3.011   4.426  10.026  0.3447  1.6386 -1.3142
  132MPD2    N1 2063   3.075   0.151   9.861 -0.4376 -0.2172  0.5762
  132MPD2    H7 2064   3.046   0.233   9.808  1.1573 -0.6459 -0.9607
  133TMC2    C1 2065   2.682   1.832   9.602 -1.0690  0.2011  0.1533
  133TMC2    C2 2066   2.769   1.933   9.642  0.4518  0.4475  0.0681
  133TMC2    C3 2067   2.707   2.048   9.687  0.2416  0.1339 -0.6415
  133TMC2    C4 2068   2.542   1.856   9.596  0.2653  0.5839 -0.2487
  133TMC2    C5 2069   2.494   1.974   9.633 -0.0814 -0.1237  0.2822
  133TMC2    C6 2070   2.576   2.075   9.672 -0.2293 -0.1612 -0.2101
  133TMC2     C 2071   2.726   1.694   9.592 -0.0077  0.5110  0.4167
  133TMC2     O 2072   2.635   1.619   9.564  0.3202 -0.8961  0.5979
  133TMC2     H 2073   2.873   1.927   9.614  1.4677 -0.2977  4.1257
  133TMC2    H1 2074   2.468   1.781   9.570  0.9929 -0.6950  1.4124
  133TMC2    H2 2075   2.535   2.176   9.671  0.9515  0.3438  1.8524
  133TMC2    C7 2076   2.352   2.000   9.632  0.6307  0.2142 -0.2502
  133TMC2    C8 2077   2.792   2.162   9.693  0.2097 -0.4493  0.0804
  133TMC2    O1 2078   2.278   1.913   9.590 -0.0992  0.3728 -0.1178
  133TMC2    O2 2079   2.760   2.277   9.669  0.1049  0.3800  0.1018
  133TMC2    O5 2080   2.888   2.122   9.783 -0.6065 -1.0077  0.1821
  133TMC2    H5 2081   2.893   2.029   9.813 -1.2367 -1.4948 -1.2243
  134MPD2     C 2082   3.061   1.538   9.626  0.5552  1.3646 -0.2970
  134MPD2    C1 2083   2.923   1.547   9.621  0.3708  0.3793  0.0994
  134MPD2    C2 2084   2.845   1.428   9.610  0.1973  0.2505  0.5852
  134MPD2    C3 2085   2.902   1.308   9.598 -0.6598  0.7467  0.0072
  134MPD2    C4 2086   3.040   1.295   9.605 -0.6731 -0.5971  0.5616
  134MPD2    C5 2087   3.116   1.411   9.611  0.2090 -0.0061 -0.2449
  134MPD2     H 2088   2.738   1.434   9.623  0.2482  0.7292  0.8064
  134MPD2    H1 2089   3.085   1.200   9.579  0.3221 -0.0794  0.3903
  134MPD2    H2 2090   3.136   1.617   9.621  0.9461  1.0279  0.3119
  134MPD2    H3 2091   3.224   1.399   9.608  0.2043 -0.4776  1.4646
  134MPD2     N 2092   2.830   1.179   9.600 -0.1969  0.1125  0.0175
  134MPD2    H5 2093   2.888   1.097   9.583 -0.0249 -0.0769  1.5799
  134MPD2    N1 2094   2.861   1.676   9.617  0.0806 -0.1389 -0.4294
  134MPD2    H7 2095   2.916   1.759   9.634 -0.1082  0.4759 -2.7707
  135TMC2    C1 2096   0.343   1.944   9.732  0.2009 -0.5637  0.1147
  135TMC2    C2 2097   0.227   2.004   9.775 -0.0268 -0.7308  0.7417
  135TMC2    C3 2098   0.145   1.922   9.860  0.6887  0.5410  0.4506
  135TMC2    C4 2099   0.383   1.821   9.781  0.8709 -0.2565  0.1656
  135TMC2    C5 2100   0.299   1.748   9.853 -0.2442 -0.1779  0.4534
  135TMC2    C6 2101   0.177   1.794   9.898  0.3952 -0.5240  0.0888
  135TMC2     C 2102   0.439   2.026   9.660  0.4628 -0.1328  0.0234
  135TMC2     O 2103   0.546   1.976   9.636 -0.6187  0.1837 -0.0119
  135TMC2     H 2104   0.184   2.096   9.738 -0.1725 -0.0834  2.5315
  135TMC2    H1 2105   0.476   1.783   9.740  0.4898 -0.2854 -0.6945
  135TMC2    H2 2106   0.103   1.737   9.953  0.7484 -1.9462 -0.9029
  135TMC2    C7 2107   0.336   1.608   9.879 -0.5994  0.2986  0.6063
  135TMC2    C8 2108   0.036   1.987   9.927  0.4117  0.3585 -0.6912
  135TMC2    O1 2109   0.417   1.567   9.796 -0.4399  0.3642 -0.4336
  135TMC2    O2 2110   4.681   1.923   9.979 -0.3898 -0.2470 -0.4398
  135TMC2    O5 2111   0.069   2.117   9.950 -0.3323 -0.2039 -0.1811
  135TMC2    H5 2112   0.130   2.158   9.884 -0.5358 -1.5282 -1.2071
  136MPD2     C 2113   0.413   2.373   9.558 -0.5747  0.0178  0.3303
  136MPD2    C1 2114   0.437   2.243   9.539  0.6727  0.2797 -0.0271
  136MPD2    C2 2115   0.522   2.198   9.442 -0.1012  0.1356  0.7570
  136MPD2    C3 2116   0.564   2.293   9.345  0.2622 -0.0218  0.4158
  136MPD2    C4 2117   0.543   2.425   9.366  0.6330  0.1589  0.1438
  136MPD2    C5 2118   0.461   2.461   9.467 -0.5773 -0.1203 -0.2027
  136MPD2     H 2119   0.541   2.092   9.434 -2.0012 -0.3084  2.1902
  136MPD2    H1 2120   0.577   2.512   9.310  2.3665 -0.1229  0.7737
  136MPD2    H2 2121   0.367   2.411   9.648  1.5529  0.8801  1.0588
  136MPD2    H3 2122   0.436   2.564   9.490 -0.7902  0.1089 -1.5022
  136MPD2     N 2123   0.640   2.246   9.231  0.0977  0.3735 -1.1881
  136MPD2    H5 2124   0.651   2.146   9.223 -0.0790  0.3691 -1.3660
  136MPD2    N1 2125   0.384   2.146   9.631  0.1625  1.1025 -0.9244
  136MPD2    H7 2126   0.306   2.173   9.689 -0.5999  0.5406 -1.7020
  137TMC2    C1 2127   0.147   1.074   9.642  0.1676 -0.2925  0.2071
  137TMC2    C2 2128   0.254   1.124   9.572 -0.4024 -0.1507  0.3238
  137TMC2    C3 2129   0.264   1.259   9.561 -0.5408  0.1501  0.0142
  137TMC2    C4 2130   0.067   1.160   9.714 -0.6464  0.8126 -0.5442
  137TMC2    C5 2131   0.067   1.293   9.687  0.6009 -0.5712 -0.3448
  137TMC2    C6 2132   0.167   1.350   9.608  0.2277 -0.1378 -0.3747
  137TMC2     C 2133   0.161   0.934   9.681  0.9551  0.2297  0.3135
  137TMC2     O 2134   0.119   0.908   9.792 -0.6344 -0.2065 -0.0166
  137TMC2     H 2135   0.336   1.067   9.531  0.6621  0.6811  1.2671
  137TMC2    H1 2136   4.736   1.113   9.784  0.8792 -1.7022 -0.7130
  137TMC2    H2 2137   0.174   1.458   9.601  2.2293 -0.2532  0.0038
  137TMC2    C7 2138   4.736   1.389   9.776 -0.1442 -0.2000 -0.2651
  137TMC2    C8 2139   0.341   1.311   9.450  0.8496 -0.4801  0.1739
  137TMC2    O1 2140   0.011   1.510   9.747 -0.4756  0.0330 -0.5496
  137TMC2    O2 2141   0.395   1.238   9.368  0.0409  0.3182 -0.1492
  137TMC2    O5 2142   0.396   1.427   9.504  0.0740 -0.0397  0.2932
  137TMC2    H5 2143   0.357   1.461   9.588 -0.9999 -0.2736 -0.1046
  138MPD2     C 2144   0.242   0.648   9.458 -0.0404 -1.1007  0.0953
  138MPD2    C1 2145   0.215   0.712   9.577  0.0925  0.5016  0.2891
  138MPD2    C2 2146   0.200   0.634   9.692 -0.5248 -0.3357  0.2655
  138MPD2    C3 2147   0.213   0.502   9.684 -0.0323 -1.0533  0.3057
  138MPD2    C4 2148   0.245   0.434   9.574 -0.2266 -0.1659  0.0567
  138MPD2    C5 2149   0.250   0.512   9.459  0.3231 -0.4969 -0.2659
  138MPD2     H 2150   0.193   0.693   9.782 -0.1426 -0.4267  0.3533
  138MPD2    H1 2151   0.259   0.327   9.563 -0.6855 -0.4755  2.3783
  138MPD2    H2 2152   0.262   0.693   9.361  2.6796  1.3401  1.7844
  138MPD2    H3 2153   0.282   0.470   9.364 -0.5818  0.5559 -1.0326
  138MPD2     N 2154   0.191   0.437   9.807  0.2912  0.5563  1.0259
  138MPD2    H5 2155   0.188   0.491   9.893 -2.9928 -1.0966  1.9222
  138MPD2    N1 2156   0.217   0.857   9.578  0.2072  0.5771  0.1916
  138MPD2    H7 2157   0.246   0.902   9.491  1.0292 -0.5277 -0.1080
  139TMC2    C1 2158   0.671   3.970  13.349  0.8126  0.1548 -0.5547
  139TMC2    C2 2159   0.796   4.026  13.352  0.1075  0.8785  0.1020
  139TMC2    C3 2160   0.818   4.151  13.383 -0.7816 -0.4605 -0.5179
  139TMC2    C4 2161   0.558   4.043  13.384 -0.5824  0.2828  0.6133
  139TMC2    C5 2162   0.590   4.176  13.419 -0.5696 -0.1667 -0.6267
  139TMC2    C6 2163   0.715   4.234  13.415  0.3848 -0.0540  0.4420
  139TMC2     C 2164   0.661   3.825  13.330 -0.3284 -0.3801 -0.0287
  139TMC2     O 2165   0.752   3.769  13.263  0.1585  0.2713 -0.0427
  139TMC2     H 2166   0.875   3.952  13.338 -0.5833  0.2333 -0.4418
  139TMC2    H1 2167   0.457   4.004  13.382 -0.8721  1.0803 -0.0645
  139TMC2    H2 2168   0.726   4.337  13.445  1.2686  0.0965 -0.3970
  139TMC2    C7 2169   0.487   4.246  13.493 -1.0456  0.4187 -0.3061
  139TMC2    C8 2170   0.954   4.183  13.421 -0.1714 -0.2352  0.4089
  139TMC2    O1 2171   0.485   4.367  13.478 -0.1528 -0.3534 -0.5535
  139TMC2    O2 2172   1.044   4.199  13.344 -0.2710 -0.1651  0.2107
  139TMC2    O5 2173   0.945   4.241  13.539  0.3120  0.1237  0.2883
  139TMC2    H5 2174   0.858   4.229  13.584  0.8211 -0.3777  1.1544
  140MPD2     C 2175   0.399   3.605  13.474 -0.4908 -0.1025 -0.7706
  140MPD2    C1 2176   0.507   3.638  13.394  0.0072 -0.5510  0.0336
  140MPD2    C2 2177   0.567   3.544  13.309  0.2204  0.4455 -0.1020
  140MPD2    C3 2178   0.509   3.423  13.286 -0.2208 -0.5743  0.0185
  140MPD2    C4 2179   0.401   3.393  13.369  0.1552 -0.1753  0.5336
  140MPD2    C5 2180   0.354   3.477  13.462  0.4211 -0.4586  0.4780
  140MPD2     H 2181   0.651   3.572  13.247  1.0087 -4.3941 -1.2463
  140MPD2    H1 2182   0.352   3.296  13.370 -1.1591  0.4912  0.6655
  140MPD2    H2 2183   0.363   3.679  13.545 -0.2494 -0.3262 -0.4136
  140MPD2    H3 2184   0.271   3.445  13.524 -0.7331  0.4426 -0.6026
  140MPD2     N 2185   0.566   3.329  13.194  0.5403 -0.1455  0.1926
  140MPD2    H5 2186   0.660   3.339  13.156  1.8685 -1.6737  3.0485
  140MPD2    N1 2187   0.549   3.776  13.400  1.0815  0.2082  0.2918
  140MPD2    H7 2188   0.498   3.836  13.462  2.3283 -0.7206  2.2222
  141TMC2    C1 2189   0.986   0.474  14.006 -0.0286  0.4874  0.3611
  141TMC2    C2 2190   1.114   0.467  14.042  0.9563  0.2310 -0.8221
  141TMC2    C3 2191   1.161   0.369  14.128 -0.4184  0.2028 -0.0341
  141TMC2    C4 2192   0.898   0.380  14.053  0.1496  0.8681 -0.5930
  141TMC2    C5 2193   0.944   0.279  14.131  0.2740  0.4573  0.9979
  141TMC2    C6 2194   1.073   0.273  14.176  0.2879 -0.1735  0.1149
  141TMC2     C 2195   0.937   0.571  13.917  0.0062  0.6722  0.0513
  141TMC2     O 2196   0.815   0.572  13.902 -0.0306  0.4561  0.1675
  141TMC2     H 2197   1.190   0.541  14.020  0.6382  1.1911  1.3136
  141TMC2    H1 2198   0.792   0.386  14.032  0.2962 -1.2238 -1.9006
  141TMC2    H2 2199   1.102   0.200  14.250  1.8382  0.5596  0.2375
  141TMC2    C7 2200   0.839   0.222  14.213 -0.1108  0.5155 -0.3457
  141TMC2    C8 2201   1.310   0.375  14.167  0.1438 -0.5560  0.4304
  141TMC2    O1 2202   0.728   0.210  14.167  0.0811  0.6351  0.3696
  141TMC2    O2 2203   1.366   0.485  14.159 -0.0589 -0.5782  0.4194
  141TMC2    O5 2204   1.347   0.263  14.232 -0.0691 -0.2020  0.1137
  141TMC2    H5 2205   1.297   0.188  14.195 -0.3192 -1.0441  2.1299
  142TMC2    C1 2206   3.382   4.668   9.695 -0.5723 -0.5489  0.2473
  142TMC2    C2 2207   3.429   4.700   9.570  0.5613 -0.8345  0.5841
  142TMC2    C3 2208   3.559   4.731   9.554 -0.1923  1.1324 -0.2079
  142TMC2    C4 2209   3.458   4.696   9.801 -0.6076  0.4020 -0.2480
  142TMC2    C5 2210   3.586   4.737   9.787  0.2668 -0.4392  0.0309
  142TMC2    C6 2211   3.644   0.007   9.660  0.0658  0.0107  0.1946
  142TMC2     C 2212   3.287   4.561   9.730 -0.6726 -0.0895 -0.4643
  142TMC2     O 2213   3.308   4.478   9.818 -0.8634  0.0567  0.4710
  142TMC2     H 2214   3.370   4.660   9.489 -1.0673  2.3190  0.2188
  142TMC2    H1 2215   3.414   4.677   9.898  0.9293 -1.6321  0.0555
  142TMC2    H2 2216   3.748   0.037   9.648  0.1431 -0.1983  0.3376
  142TMC2    C7 2217   3.669   4.698   9.898 -0.7840  0.2761  0.4472
  142TMC2    C8 2218   3.571   0.078   9.439 -0.2941  0.2723 -0.1721
  142TMC2    O1 2219   3.619   4.629   9.986  0.2269  0.3566 -0.0305
  142TMC2    O2 2220   3.476   0.142   9.387 -0.0695 -0.5030 -0.3885
  142TMC2    O5 2221   3.681   0.047   9.371  0.1851 -0.2832  0.0337
  142TMC2    H5 2222   3.737   4.718   9.417  2.6376  1.0059 -1.0812
  143MPD2     C 2223   2.872   4.282   9.605 -0.3829 -0.3106 -0.3966
  143MPD2    C1 2224   2.975   4.251   9.690  0.5572  0.1277 -0.2684
  143MPD2    C2 2225   3.086   4.332   9.705 -0.4565 -0.2932  0.6899
  143MPD2    C3 2226   3.084   4.454   9.640 -0.5703  0.1635  0.3177
  143MPD2    C4 2227   2.978   4.483   9.554 -0.3010 -0.5102  0.1277
  143MPD2    C5 2228   2.876   4.394   9.529  0.3096 -0.2035  0.2617
  143MPD2     H 2229   3.153   4.310   9.787 -0.0006 -1.7831 -0.0881
  143MPD2    H1 2230   2.989   4.583   9.513  3.4911 -1.3217 -0.7712
  143MPD2    H2 2231   2.781   4.222   9.603 -0.6463  0.1041 -1.1165
  143MPD2    H3 2232   2.797   4.421   9.461  0.4081  0.5016  0.4304
  143MPD2     N 2233   3.182   4.555   9.640 -0.4116 -0.5910 -0.3725
  143MPD2    H5 2234   3.168   4.633   9.577 -2.5659 -1.1750 -0.6208
  143MPD2    N1 2235   2.955   4.131   9.759 -0.7325 -0.1252 -0.2664
  143MPD2    H7 2236   2.868   4.084   9.738 -0.7503 -0.4503  0.5528
  144TMC2    C1 2237   1.651   4.041   0.731 -0.1734 -0.2330 -0.7913
  144TMC2    C2 2238   1.757   4.042   0.641  0.2015  0.2754 -0.2440
  144TMC2    C3 2239   1.871   3.968   0.669  0.1200  0.5605  0.2840
  144TMC2    C4 2240   1.665   3.983   0.853  0.2489 -0.2392  0.0393
  144TMC2    C5 2241   1.782   3.911   0.876  0.2920  0.3927 -0.0719
  144TMC2    C6 2242   1.883   3.897   0.784  0.5159 -0.0032 -0.5632
  144TMC2     C 2243   1.523   4.013   0.669  0.4420 -0.7393  0.2430
  144TMC2     O 2244   1.464   3.925   0.733  0.1982 -0.0511 -0.3500
  144TMC2     H 2245   1.749   4.085   0.542  3.1860  0.3075 -0.4836
  144TMC2    H1 2246   1.586   3.972   0.926 -1.3616  0.2582 -1.6199
  144TMC2    H2 2247   1.980   3.867   0.819  0.4728 -0.2574 -0.6614
  144TMC2    C7 2248   1.819   3.867   1.011 -0.0798 -0.1175 -0.1089
  144TMC2    C8 2249   1.990   3.994   0.596  0.1922 -0.0369  0.1753
  144TMC2    O1 2250   1.925   3.804   1.030 -0.2567 -0.5875  0.3596
  144TMC2    O2 2251   2.100   4.006   0.640  0.0687  0.0330  1.0338
  144TMC2    O5 2252   1.963   3.963   0.466  0.3342 -0.6508  0.3794
  144TMC2    H5 2253   1.882   3.906   0.460  0.2412 -0.0606 -3.6958
  145MPD2     C 2254   1.164   4.024   0.299 -0.3575 -0.5735 -0.2969
  145MPD2    C1 2255   1.187   3.934   0.408  0.4274 -0.0938  0.2769
  145MPD2    C2 2256   1.296   3.948   0.494  0.3412  0.9765  0.2745
  145MPD2    C3 2257   1.386   4.054   0.474 -0.4299 -0.3407 -0.1147
  145MPD2    C4 2258   1.362   4.145   0.374  0.6533  0.4134 -0.0573
  145MPD2    C5 2259   1.257   4.126   0.284 -0.7642  1.0928 -0.2438
  145MPD2     H 2260   1.294   3.886   0.583  2.8436  1.4784  0.6679
  145MPD2    H1 2261   1.438   4.221   0.359  0.8063 -0.2200 -2.5128
  145MPD2    H2 2262   1.077   4.019   0.234  0.4432 -2.6407 -1.2287
  145MPD2    H3 2263   1.248   4.203   0.208  2.0145  1.5452 -0.1108
  145MPD2     N 2264   1.501   4.077   0.555  0.0895 -0.5237 -0.1470
  145MPD2    H5 2265   1.569   4.138   0.510 -0.9195 -0.5041 -1.6346
  145MPD2    N1 2266   1.091   3.830   0.435 -0.1228 -0.4772 -0.2117
  145MPD2    H7 2267   1.118   3.763   0.506  1.7856 -1.8814 -2.2559
  146TMC2    C1 2268   2.208   1.278  12.587  0.7509  0.0103 -0.1196
  146TMC2    C2 2269   2.083   1.280  12.529 -0.3955 -0.3063  0.4125
  146TMC2    C3 2270   2.061   1.196  12.423 -0.2002  1.2309 -0.5514
  146TMC2    C4 2271   2.311   1.209  12.532 -0.0884  0.0821  0.6354
  146TMC2    C5 2272   2.283   1.136  12.423 -0.5547  0.0143 -0.8151
  146TMC2    C6 2273   2.165   1.137  12.356  0.1212 -0.5663  0.3088
  146TMC2     C 2274   2.227   1.402  12.657  0.6048 -0.3096  0.0894
  146TMC2     O 2275   2.160   1.503  12.631 -0.2699 -0.2171  0.1103
  146TMC2     H 2276   2.002   1.342  12.566 -0.2752  1.1669 -1.8192
  146TMC2    H1 2277   2.411   1.214  12.574  0.3110  1.7764 -0.5035
  146TMC2    H2 2278   2.152   1.071  12.271 -0.2659 -0.0869 -0.0022
  146TMC2    C7 2279   2.398   1.089  12.351 -0.0985  0.2207 -0.0506
  146TMC2    C8 2280   1.931   1.208  12.352  0.2858 -0.3535 -0.7580
  146TMC2    O1 2281   2.387   1.066  12.231 -0.4125 -0.3919 -0.4515
  146TMC2    O2 2282   1.859   1.308  12.350  0.6934  0.0928  0.0527
  146TMC2    O5 2283   1.899   1.085  12.308  0.0648 -0.6296 -0.0243
  146TMC2    H5 2284   1.975   1.023  12.308  1.3321  0.9061  0.1566
  147MPD2     C 2285   2.913   1.019  12.354 -0.0931 -0.0999  0.1226
  147MPD2    C1 2286   2.857   0.999  12.479  0.2762 -0.0550  0.6428
  147MPD2    C2 2287   2.722   1.003  12.495 -0.0974 -0.7844 -0.0049
  147MPD2    C3 2288   2.641   1.049  12.394 -0.4564 -0.0118  0.3229
  147MPD2    C4 2289   2.697   1.078  12.274 -0.4995  1.1219  0.0669
  147MPD2    C5 2290   2.830   1.066  12.253 -0.4957 -1.3737 -0.5067
  147MPD2     H 2291   2.672   0.976  12.588  1.3493  0.0579  1.0133
  147MPD2    H1 2292   2.636   1.128  12.200 -0.6696 -0.2890 -0.7432
  147MPD2    H2 2293   3.020   1.021  12.338 -0.1793  0.1610 -0.4388
  147MPD2    H3 2294   2.879   1.099  12.162 -1.0165  2.0155  0.4322
  147MPD2     N 2295   2.503   1.067  12.427 -0.3785  0.2922 -0.2618
  147MPD2    H5 2296   2.485   1.071  12.527 -3.4831  1.5481 -0.8874
  147MPD2    N1 2297   2.946   0.969  12.585  0.2593  0.1822 -0.7200
  147MPD2    H7 2298   3.044   0.970  12.557  0.9918 -0.9657  1.7697
  148TMC2    C1 2299   3.077   0.832  10.393 -0.7482 -0.3772  0.0884
  148TMC2    C2 2300   3.176   0.920  10.374  0.7561  0.1290  0.2338
  148TMC2    C3 2301   3.299   0.873  10.423 -0.7945 -0.3851 -0.3097
  148TMC2    C4 2302   3.090   0.726  10.475 -0.7624 -0.0281  0.1070
  148TMC2    C5 2303   3.211   0.686  10.524  0.0817  0.3839 -0.3401
  148TMC2    C6 2304   3.325   0.765  10.501  0.0148 -0.1864  0.5503
  148TMC2     C 2305   2.947   0.861  10.329  0.5936  0.4019 -0.7939
  148TMC2     O 2306   2.940   0.974  10.278 -0.2425 -0.0299 -0.0521
  148TMC2     H 2307   3.169   1.005  10.307 -0.5587  0.3903  0.7046
  148TMC2    H1 2308   3.016   0.653  10.509  1.7669 -2.9070 -0.5609
  148TMC2    H2 2309   3.421   0.723  10.532 -0.2356 -0.8806  0.4009
  148TMC2    C7 2310   3.225   0.543  10.505 -0.4090 -0.5237 -0.4896
  148TMC2    C8 2311   3.415   0.950  10.367 -0.1794  0.4884 -0.3618
  148TMC2    O1 2312   3.148   0.493  10.421  0.3837  0.6067  0.3573
  148TMC2    O2 2313   3.393   1.033  10.281  0.0629  0.0203 -0.3588
  148TMC2    O5 2314   3.531   0.910  10.426  0.6916  0.4299 -0.0775
  148TMC2    H5 2315   3.612   0.919  10.371 -0.5926 -0.9368 -2.1970
  149MPD2     C 2316   2.657   0.899  10.274 -0.1665 -0.0527  0.7734
  149MPD2    C1 2317   2.721   0.774  10.288 -0.0935 -0.2318  0.5608
  149MPD2    C2 2318   2.655   0.654  10.264  0.1820  0.0577 -0.1001
  149MPD2    C3 2319   2.528   0.666  10.208 -0.4180  0.1961 -0.0172
  149MPD2    C4 2320   2.474   0.789  10.169 -0.4352  0.0449  0.6350
  149MPD2    C5 2321   2.540   0.903  10.200 -0.7051 -0.5889  0.3200
  149MPD2     H 2322   2.703   0.558  10.282 -1.2101 -0.0327  3.1325
  149MPD2    H1 2323   2.373   0.797  10.133 -0.4500  1.3148  0.9540
  149MPD2    H2 2324   2.701   0.996  10.294 -0.4576  0.5773 -1.6417
  149MPD2    H3 2325   2.505   1.002  10.173 -1.2025 -0.7944  0.2109
  149MPD2     N 2326   2.450   0.545  10.183  0.6035  0.2601 -0.4339
  149MPD2    H5 2327   2.380   0.558  10.112 -0.1432 -0.8628  0.1041
  149MPD2    N1 2328   2.857   0.761  10.328  0.4662  0.6884  0.1185
  149MPD2    H7 2329   2.893   0.667  10.340 -0.2719  0.2113 -1.3651
  150TMC2    C1 2330   0.465   4.482  12.171  0.3160  0.4956  0.0478
  150TMC2    C2 2331   0.444   4.595  12.096 -0.6084  0.6446  0.1768
  150TMC2    C3 2332   0.526   4.702  12.124 -0.0448  0.4060 -0.1964
  150TMC2    C4 2333   0.553   4.479  12.274 -0.1124  0.0252 -0.2298
  150TMC2    C5 2334   0.625   4.588  12.302  0.5710 -0.6267 -0.1246
  150TMC2    C6 2335   0.621   4.703  12.222  0.4003  0.8177 -0.1627
  150TMC2     C 2336   0.377   4.367  12.163 -0.3502  0.0737  0.5529
  150TMC2     O 2337   0.410   4.260  12.210  0.2609 -0.1265 -0.4282
  150TMC2     H 2338   0.398   4.592  11.998 -3.2436  0.7038  1.4184
  150TMC2    H1 2339   0.539   4.398  12.345 -2.2053  1.9387  1.5701
  150TMC2    H2 2340   0.677   0.056  12.242  2.5249  0.2157 -3.3408
  150TMC2    C7 2341   0.723   4.594  12.412  1.1362  0.1648 -0.5887
  150TMC2    C8 2342   0.497   0.085  12.054 -0.6133 -0.0726  0.6650
  150TMC2    O1 2343   0.781   4.699  12.433  0.3537 -0.3770  0.8505
  150TMC2    O2 2344   0.587   0.169  12.058 -0.6140 -0.0747  0.4238
  150TMC2    O5 2345   0.366   0.109  12.071 -0.2146 -0.3174 -0.3593
  150TMC2    H5 2346   0.303   0.033  12.063 -0.8651  0.3717 -1.8595
  151MPD2     C 2347   4.692   4.150  11.968 -0.7303  0.4198 -0.4727
  151MPD2    C1 2348   4.680   4.289  11.950 -0.2579  0.2964  0.7488
  151MPD2    C2 2349   0.042   4.372  11.997  0.1206  0.0844  0.4355
  151MPD2    C3 2350   0.155   4.317  12.060 -0.5592 -0.4305 -0.1760
  151MPD2    C4 2351   0.175   4.181  12.056 -0.0387  0.0187 -0.1297
  151MPD2    C5 2352   0.071   4.098  12.014  0.6169 -0.4412 -0.4080
  151MPD2     H 2353   0.031   4.480  12.003 -0.5662 -0.0642  1.9795
  151MPD2    H1 2354   0.269   4.130  12.073 -0.3761 -0.4152  0.4639
  151MPD2    H2 2355   4.619   4.081  11.928 -0.6832  0.5428 -0.7752
  151MPD2    H3 2356   0.080   3.990  12.007 -0.0301 -0.7105  2.5410
  151MPD2     N 2357   0.255   4.407  12.111 -0.4882  0.1677 -0.1324
  151MPD2    H5 2358   0.242   4.502  12.079  1.7397  0.8946  1.0876
  151MPD2    N1 2359   4.562   4.330  11.882  0.1593  0.4696 -0.0943
  151MPD2    H7 2360   4.493   4.260  11.856  0.2388 -0.1374  1.3321
  152TMC2    C1 2361   0.255   4.226  12.810 -0.9890 -0.2423 -0.1321
  152TMC2    C2 2362   0.278   4.334  12.733 -0.3443  0.3031  0.0493
  152TMC2    C3 2363   0.412   4.360  12.707 -0.1668  0.9315 -0.6322
  152TMC2    C4 2364   0.352   4.168  12.889  0.4060 -0.0432 -0.9624
  152TMC2    C5 2365   0.480   4.207  12.865 -0.5144  0.1024 -0.6754
  152TMC2    C6 2366   0.517   4.303  12.774  0.2178 -0.4250  0.2732
  152TMC2     C 2367   0.123   4.166  12.807  0.2471  0.4731  0.6659
  152TMC2     O 2368   0.035   4.251  12.783 -0.1192 -0.1267 -0.2235
  152TMC2     H 2369   0.197   4.379  12.677  0.0876  1.9435  0.7577
  152TMC2    H1 2370   0.331   4.097  12.968 -1.1906 -2.5946 -3.6912
  152TMC2    H2 2371   0.620   4.319  12.744 -0.3178  1.5641 -0.4675
  152TMC2    C7 2372   0.581   4.136  12.939 -0.0457  0.2573 -0.7383
  152TMC2    C8 2373   0.441   4.476  12.622  0.5109  1.1040 -0.6748
  152TMC2    O1 2374   0.556   4.016  12.957 -0.0077  0.1647  0.6316
  152TMC2    O2 2375   0.347   4.525  12.558  0.1680 -0.4427  0.2220
  152TMC2    O5 2376   0.549   4.540  12.664  0.7541  0.6033 -0.0691
  152TMC2    H5 2377   0.600   4.500  12.738 -0.4355  1.1959  1.0672
  153MPD2     C 2378   0.017   3.850  12.946 -0.4057  0.0584  0.8580
  153MPD2    C1 2379   4.734   3.977  12.899 -0.5061 -0.4002  0.5303
  153MPD2    C2 2380   4.608   4.025  12.895  0.1814  0.2536 -0.1098
  153MPD2    C3 2381   4.499   3.961  12.952  0.2751  0.1563  0.3025
  153MPD2    C4 2382   4.520   3.837  13.006  0.1416 -0.5146 -0.4948
  153MPD2    C5 2383   4.647   3.780  13.007 -0.3665  0.7236 -0.0443
  153MPD2     H 2384   4.597   4.111  12.830 -1.3617 -0.6714 -1.0486
  153MPD2    H1 2385   4.439   3.776  13.043  0.6190 -1.6416 -1.2794
  153MPD2    H2 2386   0.119   3.811  12.948 -0.5705 -0.4076 -0.4343
  153MPD2    H3 2387   4.660   3.680  13.046 -0.1683  0.5946 -0.4429
  153MPD2     N 2388   4.369   4.016  12.954  0.5127 -0.5514  0.3656
  153MPD2    H5 2389   4.356   4.109  12.917  0.2528  0.4359  2.9815
  153MPD2    N1 2390   0.107   4.032  12.838 -0.0973 -0.2638 -0.4965
  153MPD2    H7 2391   0.197   3.986  12.843 -0.1312 -0.1217  1.3704
  154TMC2    C1 2392   1.601   4.473   0.877 -0.2401 -0.4430  0.4970
  154TMC2    C2 2393   1.707   4.427   0.947 -0.1221 -0.1411 -0.0385
  154TMC2    C3 2394   1.811   4.374   0.868  0.5533  0.4072  0.3452
  154TMC2    C4 2395   1.585   4.467   0.740  0.1704 -0.6241 -0.0215
  154TMC2    C5 2396   1.688   4.415   0.670 -0.4199 -0.5877  0.3509
  154TMC2    C6 2397   1.795   4.355   0.731  0.0439  0.4300 -0.0927
  154TMC2     C 2398   1.494   4.545   0.942 -0.0970 -0.6285 -0.2495
  154TMC2     O 2399   1.517   4.626   1.029 -0.3819 -0.0584  0.5819
  154TMC2     H 2400   1.707   4.429   1.055 -2.8530 -2.1244 -0.0385
  154TMC2    H1 2401   1.509   4.530   0.694  0.8047  0.1252 -0.0347
  154TMC2    H2 2402   1.874   4.302   0.680  2.4391  1.2739  2.7387
  154TMC2    C7 2403   1.681   4.397   0.525  0.2716 -0.3155  0.3447
  154TMC2    C8 2404   1.902   4.286   0.942 -0.5315 -0.8273  0.6278
  154TMC2    O1 2405   1.743   4.300   0.480 -0.9186  0.3724  0.0165
  154TMC2    O2 2406   1.969   4.205   0.886 -0.3272  0.1216 -0.5407
  154TMC2    O5 2407   1.930   4.349   1.052 -0.2180  0.3741 -0.5850
  154TMC2    H5 2408   1.879   4.428   1.077  1.4569  1.9949 -2.2838
  155MPD2     C 2409   1.140   4.517   0.885 -0.3473  1.3311  0.0228
  155MPD2    C1 2410   1.251   4.571   0.933 -0.3473 -0.3709 -0.3211
  155MPD2    C2 2411   1.238   4.678   1.024 -0.4623  0.3762  0.3057
  155MPD2    C3 2412   1.114   4.732   1.053 -0.0689 -0.7541  0.0748
  155MPD2    C4 2413   1.001   4.668   0.999 -0.1493  0.2361 -0.1843
  155MPD2    C5 2414   1.016   4.569   0.913  0.0371  0.2556 -0.0645
  155MPD2     H 2415   1.328   4.724   1.061  1.1002  0.2617 -3.3235
  155MPD2    H1 2416   0.901   4.703   1.023 -0.6263 -1.6160  0.4686
  155MPD2    H2 2417   1.151   4.427   0.826  1.0180  2.1466 -0.9607
  155MPD2    H3 2418   0.921   4.535   0.872  0.7388 -1.2640 -0.4264
  155MPD2     N 2419   1.107   0.106   1.144 -0.5433 -0.1264 -0.6331
  155MPD2    H5 2420   1.193   0.123   1.196  0.0632 -1.4891 -1.1991
  155MPD2    N1 2421   1.372   4.512   0.896 -0.0347 -0.3147  0.3882
  155MPD2    H7 2422   1.372   4.435   0.830 -2.4876  1.1343 -1.2793
  156TMC2    C1 2423   4.706   1.397  11.391 -0.1774  0.2135 -0.5109
  156TMC2    C2 2424   0.037   1.329  11.290  0.0231 -0.0695 -0.5513
  156TMC2    C3 2425   0.021   1.379  11.158 -0.0846 -0.0836  0.0975
  156TMC2    C4 2426   4.626   1.502  11.366  0.8898 -0.2383  0.4778
  156TMC2    C5 2427   4.591   1.525  11.238  0.3855  0.2760 -0.9948
  156TMC2    C6 2428   4.652   1.455  11.133  0.1087  0.3676 -0.1401
  156TMC2     C 2429   4.732   1.383  11.530 -0.2391  0.1591 -0.1385
  156TMC2     O 2430   4.655   1.423  11.609 -0.2916 -0.2584  0.3728
  156TMC2     H 2431   0.106   1.247  11.305 -0.8104 -0.7511 -0.4422
  156TMC2    H1 2432   4.575   1.549  11.449 -1.0896  0.5472 -1.1738
  156TMC2    H2 2433   4.612   1.469  11.033  2.6275  1.3407 -1.0065
  156TMC2    C7 2434   4.465   1.600  11.214 -0.1305  0.2640  0.1854
  156TMC2    C8 2435   0.108   1.334  11.044 -0.2371 -0.8316 -0.1634
  156TMC2    O1 2436   4.405   1.574  11.108  0.6192 -0.2263  0.7801
  156TMC2    O2 2437   0.082   1.381  10.934  0.8051  0.3277  0.3130
  156TMC2    O5 2438   0.235   1.315  11.089  0.0661  0.3165 -0.3057
  156TMC2    H5 2439   0.256   1.295  11.183 -0.4917  3.8940  0.5943
  157MPD2     C 2440   0.254   1.207  11.701 -0.4355 -0.2418 -0.3666
  157MPD2    C1 2441   0.170   1.305  11.668  0.0079 -0.0233 -0.4825
  157MPD2    C2 2442   0.166   1.422  11.740 -0.0766  0.0984  0.4669
  157MPD2    C3 2443   0.240   1.430  11.860  0.1246 -0.3366  0.4786
  157MPD2    C4 2444   0.328   1.330  11.893 -0.1544 -0.1169  0.6071
  157MPD2    C5 2445   0.343   1.224  11.809  0.1785  0.0752 -0.2837
  157MPD2     H 2446   0.118   1.511  11.701 -0.3701  0.3017  1.2887
  157MPD2    H1 2447   0.395   1.338  11.978  0.6296 -1.1582  0.0810
  157MPD2    H2 2448   0.263   1.117  11.641  1.9066  0.2947 -0.8102
  157MPD2    H3 2449   0.406   1.138  11.829 -0.1872 -0.2606 -0.5665
  157MPD2     N 2450   0.235   1.556  11.934  0.4030  0.4514  0.2074
  157MPD2    H5 2451   0.170   1.619  11.888  1.9967  0.7062 -1.7247
  157MPD2    N1 2452   0.098   1.298  11.550  0.2620  0.0101  0.0747
  157MPD2    H7 2453   0.148   1.247  11.478  1.7539 -1.4629  2.1668
  158TMC2    C1 2454   0.984   0.561  13.457 -0.2414  0.7284  0.6072
  158TMC2    C2 2455   1.056   0.678  13.442  0.4779  0.3447  0.0912
  158TMC2    C3 2456   1.009   0.781  13.368  0.8893  0.3611 -1.4175
  158TMC2    C4 2457   0.855   0.558  13.411 -0.2740 -0.2170 -0.3034
  158TMC2    C5 2458   0.805   0.669  13.348  0.3203 -1.1142 -0.8515
  158TMC2    C6 2459   0.878   0.784  13.329  0.4872 -0.4136  0.3453
  158TMC2     C 2460   1.041   0.466  13.550 -0.7882  0.4430  0.7450
  158TMC2     O 2461   1.157   0.475  13.585  0.4865  0.2144 -0.2448
  158TMC2     H 2462   1.162   0.686  13.465  1.0488 -0.8076 -2.1378
  158TMC2    H1 2463   0.799   0.466  13.406 -0.3115 -0.2083 -0.0559
  158TMC2    H2 2464   0.846   0.864  13.263  0.4389 -0.3871  0.4012
  158TMC2    C7 2465   0.659   0.674  13.349  0.2705  0.0215 -0.1828
  158TMC2    C8 2466   1.102   0.872  13.298  0.5723 -0.0437  0.0715
  158TMC2    O1 2467   0.621   0.770  13.284  0.1540 -0.3359  0.0796
  158TMC2    O2 2468   1.224   0.856  13.306 -0.0714 -0.0775  0.4539
  158TMC2    O5 2469   1.044   0.995  13.289 -0.0756 -0.5792  0.3833
  158TMC2    H5 2470   0.956   0.984  13.330  0.9131  0.1116  2.6931
  159MPD2     C 2471   1.016   0.072  13.883 -0.4914  0.0479 -0.2579
  159MPD2    C1 2472   0.885   0.097  13.847 -0.4691  0.5328 -0.2725
  159MPD2    C2 2473   0.860   0.191  13.740 -0.0862  0.9168  0.9595
  159MPD2    C3 2474   0.964   0.267  13.692  0.2941  0.9024 -0.7116
  159MPD2    C4 2475   1.099   0.230  13.720  0.0403 -0.1091  0.1228
  159MPD2    C5 2476   1.122   0.132  13.814 -0.2091 -0.3267 -0.3322
  159MPD2     H 2477   0.761   0.219  13.705 -1.3299 -2.5500  1.6134
  159MPD2    H1 2478   1.178   0.281  13.667 -1.3854  1.6324 -0.3151
  159MPD2    H2 2479   1.041   0.003  13.962 -0.7553 -0.0501 -0.2591
  159MPD2    H3 2480   1.224   0.100  13.834 -0.3365 -0.3279  0.3050
  159MPD2     N 2481   0.937   0.376  13.600 -0.0409  0.2902  0.0736
  159MPD2    H5 2482   0.846   0.414  13.580  0.1095 -1.0105 -3.0060
  159MPD2    N1 2483   0.786   0.030  13.919 -0.3661 -0.3181  0.3032
  159MPD2    H7 2484   0.815   4.703  13.991  1.5476 -0.4386 -0.5955
  160TMC2    C1 2485   0.313   3.788   1.311  0.3300 -0.1380  0.3335
  160TMC2    C2 2486   0.325   3.704   1.419  0.4374  0.3175 -0.2204
  160TMC2    C3 2487   0.404   3.749   1.514  0.0350 -0.5854  0.0770
  160TMC2    C4 2488   0.386   3.897   1.287  0.1927 -0.4200  0.1057
  160TMC2    C5 2489   0.469   3.938   1.391  0.6153 -0.5684  0.2769
  160TMC2    C6 2490   0.473   3.864   1.508  0.4937  0.0074  0.2467
  160TMC2     C 2491   0.190   3.773   1.234  0.1715 -0.4902 -0.2788
  160TMC2     O 2492   0.128   3.670   1.248  0.0174 -0.0131 -1.1157
  160TMC2     H 2493   0.261   3.617   1.429  1.0660 -0.3447 -1.9831
  160TMC2    H1 2494   0.375   3.954   1.195 -2.3624 -0.7390  0.2234
  160TMC2    H2 2495   0.535   3.901   1.589  1.1364 -1.3498  0.3677
  160TMC2    C7 2496   0.533   4.070   1.377  0.4219 -0.0099  0.3030
  160TMC2    C8 2497   0.380   3.692   1.647  0.6793 -0.2818 -0.3430
  160TMC2    O1 2498   0.516   4.145   1.470  0.2939 -0.0620  0.2187
  160TMC2    O2 2499   0.278   3.631   1.675  0.4491 -0.2308 -0.1825
  160TMC2    O5 2500   0.504   3.648   1.673 -0.0643 -0.3751 -0.4689
  160TMC2    H5 2501   0.575   3.712   1.650  0.6057 -1.1310 -0.4771
  161MPD2     C 2502   4.729   3.770   1.028 -0.6241  0.5033  0.5113
  161MPD2    C1 2503   0.034   3.888   1.081  0.0680 -0.1460  0.4844
  161MPD2    C2 2504   4.724   4.011   1.043  0.0593 -0.2249  0.1273
  161MPD2    C3 2505   4.610   4.007   0.958  0.0542 -0.2970 -0.6293
  161MPD2    C4 2506   4.553   3.884   0.922  0.0331 -0.3431 -0.2083
  161MPD2    C5 2507   4.610   3.768   0.962 -0.4271 -0.0726  0.3214
  161MPD2     H 2508   0.038   4.100   1.076 -0.6767  0.8083 -1.5057
  161MPD2    H1 2509   4.469   3.871   0.855  0.4906  2.3553 -1.2916
  161MPD2    H2 2510   0.030   3.671   1.052 -0.5456  0.4958  0.3544
  161MPD2    H3 2511   4.557   3.682   0.922  2.8560 -1.7208 -0.5078
  161MPD2     N 2512   4.535   4.132   0.939  0.4194  0.5707 -0.0328
  161MPD2    H5 2513   4.450   4.129   0.884 -0.1479 -0.4960  0.8800
  161MPD2    N1 2514   0.141   3.886   1.176 -0.3738  0.0508 -0.0438
  161MPD2    H7 2515   0.167   3.975   1.217 -0.1081 -0.2601  0.4686
  162TMC2    C1 2516   3.064   1.382   0.941  0.3418  0.5454  0.4404
  162TMC2    C2 2517   2.945   1.441   0.982 -0.0902 -0.3101  0.4286
  162TMC2    C3 2518   2.960   1.514   1.103  0.3070 -0.1483 -0.4021
  162TMC2    C4 2519   3.186   1.418   0.997  0.0697  0.4370  0.3253
  162TMC2    C5 2520   3.196   1.503   1.104 -0.3560 -0.0511 -0.1056
  162TMC2    C6 2521   3.081   1.548   1.166 -0.0949 -0.1658 -1.4667
  162TMC2     C 2522   3.069   1.287   0.832  1.0660 -0.7335  0.3692
  162TMC2     O 2523   2.963   1.286   0.770  0.0487 -0.3342  0.2074
  162TMC2     H 2524   2.847   1.421   0.939  0.0244 -0.1607  0.0980
  162TMC2    H1 2525   3.278   1.402   0.942  0.6212  1.2554  1.0160
  162TMC2    H2 2526   3.092   1.611   1.254 -0.3390  0.2426 -1.7267
  162TMC2    C7 2527   3.318   1.554   1.156  0.2566 -0.2992  0.4166
  162TMC2    C8 2528   2.848   1.587   1.156  0.9088  0.2058  0.2203
  162TMC2    O1 2529   3.311   1.652   1.229  0.0071 -0.1596  0.8484
  162TMC2    O2 2530   2.743   1.612   1.099  0.0010  0.5751 -0.1371
  162TMC2    O5 2531   2.858   1.560   1.288  0.6407 -0.4727 -0.5660
  162TMC2    H5 2532   2.936   1.513   1.324 -0.4916 -1.3717  0.7216
  163MPD2     C 2533   3.167   0.821   0.694 -1.0232 -0.1182  0.7168
  163MPD2    C1 2534   3.102   0.921   0.616  0.1482 -0.4839 -1.4032
  163MPD2    C2 2535   3.093   1.044   0.671 -0.0534  0.1045 -0.2254
  163MPD2    C3 2536   3.162   1.069   0.793 -0.4622  0.5516 -0.7924
  163MPD2    C4 2537   3.237   0.980   0.863 -0.2531 -0.2223 -0.3265
  163MPD2    C5 2538   3.237   0.849   0.811  0.2505 -0.1538 -0.0972
  163MPD2     H 2539   3.022   1.113   0.627  1.2499  2.1838  0.9325
  163MPD2    H1 2540   3.290   1.002   0.954 -0.5329  0.2296 -0.2739
  163MPD2    H2 2541   3.170   0.723   0.648 -0.0957  0.2163  0.0740
  163MPD2    H3 2542   3.291   0.767   0.855  0.9034 -0.1339 -0.8580
  163MPD2     N 2543   3.159   1.192   0.857 -0.0989 -0.2552  0.1235
  163MPD2    H5 2544   3.225   1.205   0.933 -0.6180  0.3248  0.4780
  163MPD2    N1 2545   3.045   0.887   0.486 -0.2907 -0.4668 -0.2500
  163MPD2    H7 2546   3.045   0.789   0.460 -0.2191 -0.5552  0.0871
  164TMC2    C1 2547   3.632   4.656  11.077 -0.2501  0.1876  0.5068
  164TMC2    C2 2548   3.726   4.723  10.997 -0.3481  0.1043  0.1685
  164TMC2    C3 2549   3.713   0.123  10.994 -0.5200  0.1108 -0.2492
  164TMC2    C4 2550   3.534   4.720  11.152  0.9320  0.4522 -0.2900
  164TMC2    C5 2551   3.535   0.116  11.148 -0.4320  0.2829 -0.2654
  164TMC2    C6 2552   3.621   0.189  11.068 -0.2079 -0.2871 -0.5469
  164TMC2     C 2553   3.627   4.512  11.069  0.4663  0.1861  0.6087
  164TMC2     O 2554   3.544   4.462  11.140  0.2655 -0.2469  0.3897
  164TMC2     H 2555   3.802   4.682  10.931 -1.0684  1.4350 -1.4886
  164TMC2    H1 2556   3.450   4.681  11.209  1.4704 -2.9605 -1.8284
  164TMC2    H2 2557   3.601   0.294  11.055 -0.5941 -0.4284 -1.0740
  164TMC2    C7 2558   3.425   0.199  11.202 -0.0882 -0.8380 -0.4879
  164TMC2    C8 2559   3.789   0.191  10.895  0.1325  0.4462  0.7457
  164TMC2    O1 2560   3.402   0.303  11.146 -0.3258 -0.4166  0.1645
  164TMC2    O2 2561   3.804   0.144  10.785 -0.7383 -0.3141  0.0377
  164TMC2    O5 2562   3.799   0.321  10.917 -0.0835 -0.0405 -0.2740
  164TMC2    H5 2563   3.801   0.354  11.009 -0.3704 -2.1118  0.4731
  165TMC2    C1 2564   4.434   2.777   1.076 -0.3923 -0.0942 -0.7902
  165TMC2    C2 2565   4.367   2.799   0.959  0.4312  0.3927  0.0224
  165TMC2    C3 2566   4.357   2.928   0.905 -0.0369 -0.1514 -0.0838
  165TMC2    C4 2567   4.488   2.883   1.141 -0.6639 -0.6746 -0.0386
  165TMC2    C5 2568   4.473   3.008   1.079 -0.4099  0.0299 -0.5699
  165TMC2    C6 2569   4.407   3.033   0.967  1.5320  0.0651 -0.2512
  165TMC2     C 2570   4.408   2.654   1.148 -0.3805 -0.9026 -0.5959
  165TMC2     O 2571   4.451   2.639   1.264 -0.3835  0.0147 -0.2353
  165TMC2     H 2572   4.309   2.720   0.912 -1.4278  0.9348  1.4418
  165TMC2    H1 2573   4.562   2.867   1.219 -1.9485  0.6544  1.4508
  165TMC2    H2 2574   4.407   3.128   0.915 -0.5491 -0.5234 -1.3093
  165TMC2    C7 2575   4.578   3.113   1.102  0.2693  0.5098  0.5152
  165TMC2    C8 2576   4.296   2.945   0.775  0.0636 -0.0226  0.3663
  165TMC2    O1 2577   4.578   3.216   1.038 -0.2608 -0.7187 -0.4559
  165TMC2    O2 2578   4.296   2.850   0.693 -0.0769 -0.4544  0.1462
  165TMC2    O5 2579   4.231   3.063   0.779  0.0000 -0.7442  0.2975
  165TMC2    H5 2580   4.218   3.126   0.854 -0.0536 -0.1586 -0.1992
  166MPD2     C 2581   4.395   2.142   1.119  0.1494  0.3687 -0.1691
  166MPD2    C1 2582   4.414   2.221   1.231 -0.3711  0.2370 -0.1230
  166MPD2    C2 2583   4.400   2.360   1.213  0.5188 -0.7235  1.0659
  166MPD2    C3 2584   4.353   2.421   1.098 -0.0273  0.1375 -0.0246
  166MPD2    C4 2585   4.324   2.338   0.998 -0.3302 -0.5987  0.0117
  166MPD2    C5 2586   4.343   2.204   1.009  0.0447  0.3392  0.8733
  166MPD2     H 2587   4.390   2.412   1.308  1.4760  1.0953  0.1567
  166MPD2    H1 2588   4.280   2.371   0.905 -0.2196 -1.1781 -0.2513
  166MPD2    H2 2589   4.408   2.035   1.111  0.6851  0.4949 -1.1133
  166MPD2    H3 2590   4.317   2.152   0.918 -1.1417  0.3043  1.2343
  166MPD2     N 2591   4.354   2.559   1.070 -0.2371 -0.5363 -0.6841
  166MPD2    H5 2592   4.327   2.591   0.977 -0.3762  1.3968  0.0278
  166MPD2    N1 2593   4.448   2.153   1.349 -0.7580 -0.4819 -0.0769
  166MPD2    H7 2594   4.458   2.052   1.350  0.2741 -0.3840 -1.3899
  167TMC2    C1 2595   2.715   4.286  13.246  0.0518 -0.0123 -0.1147
  167TMC2    C2 2596   2.657   4.194  13.321 -0.9364 -0.2639  0.0218
  167TMC2    C3 2597   2.707   4.067  13.319 -0.1336  0.4869 -0.0722
  167TMC2    C4 2598   2.828   4.261  13.171 -0.4680 -0.8885  0.1207
  167TMC2    C5 2599   2.867   4.129  13.163  0.7501 -0.0068 -0.0574
  167TMC2    C6 2600   2.814   4.030  13.237  0.3205 -0.6415  0.0492
  167TMC2     C 2601   2.642   4.405  13.214 -0.7945  0.2023  0.0100
  167TMC2     O 2602   2.522   4.401  13.238 -0.5338  0.0190 -0.8068
  167TMC2     H 2603   2.573   4.226  13.381 -0.8428 -0.6740  0.3716
  167TMC2    H1 2604   2.877   4.336  13.110  0.4825 -0.6709  1.1532
  167TMC2    H2 2605   2.845   3.927  13.225  1.0120 -0.4041 -0.2119
  167TMC2    C7 2606   2.987   4.089  13.087 -0.0685  0.2242  0.1321
  167TMC2    C8 2607   2.607   3.974  13.358 -0.5911 -0.8319  0.0502
  167TMC2    O1 2608   3.055   3.993  13.119 -0.7735  0.5321 -0.3566
  167TMC2    O2 2609   2.490   4.007  13.385 -0.6657 -0.3497 -0.3386
  167TMC2    O5 2610   2.667   3.855  13.377  0.4239  0.3470 -0.2037
  167TMC2    H5 2611   2.765   3.856  13.374  0.4518  0.8567  0.8302
  168MPD2     C 2612   2.506   4.602  13.037 -0.0121 -0.2254 -0.4124
  168MPD2    C1 2613   2.644   4.581  13.045  0.1777  0.1880 -0.0351
  168MPD2    C2 2614   2.734   4.662  12.969 -0.1503  0.0072  0.3430
  168MPD2    C3 2615   2.678   0.020  12.883 -0.4055  0.2632  1.0275
  168MPD2    C4 2616   2.541   0.036  12.873 -0.1182 -0.3516  0.3762
  168MPD2    C5 2617   2.459   4.701  12.958 -0.1323 -0.3446  0.0217
  168MPD2     H 2618   2.839   4.638  12.967  0.2994  1.9589  0.3737
  168MPD2    H1 2619   2.502   0.111  12.805  0.1282 -0.6742 -0.1196
  168MPD2    H2 2620   2.437   4.543  13.097  0.2052 -0.1219 -0.0590
  168MPD2    H3 2621   2.353   4.720  12.957 -0.2986 -1.3964 -3.4887
  168MPD2     N 2622   2.763   0.097  12.799  0.1588  0.1219  0.1434
  168MPD2    H5 2623   2.711   0.160  12.738  0.3695 -2.9241 -3.2328
  168MPD2    N1 2624   2.706   4.497  13.135  0.6914 -0.1970  0.1497
  168MPD2    H7 2625   2.806   4.481  13.123  0.9071  1.1653  0.1946
  169MPD1     C 2626   4.259   4.420   8.938 -0.0216 -0.2090 -0.0063
  169MPD1    C1 2627   4.237   4.353   9.058 -0.2894 -0.5091  0.0658
  169MPD1    C2 2628   4.348   4.314   9.130  0.0019  1.3313  0.1333
  169MPD1    C3 2629   4.478   4.342   9.087 -0.2929  0.5735 -0.8009
  169MPD1    C4 2630   4.493   4.396   8.967  0.5809 -0.0534  0.2224
  169MPD1    C5 2631   4.387   4.435   8.889 -0.4118 -0.8274 -0.3519
  169MPD1     H 2632   4.328   4.268   9.226  1.1995  1.8614  0.6310
  169MPD1    H1 2633   4.587   4.426   8.922  0.6135  0.4413  0.6182
  169MPD1    H2 2634   4.176   4.461   8.882  0.3770  1.2268  0.4670
  169MPD1    H3 2635   4.412   4.495   8.802 -1.0064 -1.2461 -0.8117
  169MPD1     N 2636   4.585   4.299   9.168 -0.6694  0.0942  0.3964
  169MPD1    H5 2637   4.556   4.238   9.243 -2.5121 -0.1527 -0.5157
  169MPD1    N1 2638   4.098   4.347   9.107  0.4753 -0.5258  0.1013
  169MPD1    H6 2639   4.081   4.263   9.163 -0.5299 -1.5642 -1.7756
  169MPD1    H7 2640   4.030   4.347   9.031  2.5123 -0.8100 -1.7093
  170MPD1     C 2641   3.093   2.676  13.157 -0.0738  0.9806  0.3047
  170MPD1    C1 2642   3.147   2.783  13.223 -0.2476 -0.5519 -0.4400
  170MPD1    C2 2643   3.250   2.768  13.314  1.5262  0.6767 -0.0855
  170MPD1    C3 2644   3.301   2.643  13.336 -0.0557  0.0108  0.5532
  170MPD1    C4 2645   3.244   2.534  13.280 -0.1241 -0.3928 -0.5606
  170MPD1    C5 2646   3.139   2.550  13.195  0.1074  0.4832 -0.8904
  170MPD1     H 2647   3.281   2.859  13.365  0.5904  0.8060  0.2597
  170MPD1    H1 2648   3.274   2.431  13.298 -1.8190 -1.1660 -2.1348
  170MPD1    H2 2649   3.007   2.677  13.091  1.1861 -0.1123 -1.3539
  170MPD1    H3 2650   3.080   2.466  13.158  0.3154 -0.8406  1.7859
  170MPD1     N 2651   3.411   2.630  13.418  0.0340  0.1163  0.8054
  170MPD1    H5 2652   3.459   2.714  13.447 -1.0147  0.7107  0.8401
  170MPD1    N1 2653   3.090   2.912  13.202  1.0151  0.5466  0.6107
  170MPD1    H6 2654   3.068   2.939  13.106 -1.6957  0.1506  1.1307
  170MPD1    H7 2655   3.131   2.991  13.251  0.7774 -0.4822  2.4750
  171MPD1     C 2656   2.370   3.554  15.143 -0.8190  0.0013  0.5482
  171MPD1    C1 2657   2.346   3.421  15.149 -0.9035 -0.1453  0.0830
  171MPD1    C2 2658   2.439   3.336  15.202  0.5171 -0.0262  0.1018
  171MPD1    C3 2659   2.562   3.389  15.258  0.2193  0.7636 -0.2165
  171MPD1    C4 2660   2.586   3.525  15.241 -0.1613 -0.2123 -0.3233
  171MPD1    C5 2661   2.490   3.603  15.186  0.5231  0.0897  0.0053
  171MPD1     H 2662   2.415   3.230  15.202  0.8468 -0.1034 -1.5476
  171MPD1    H1 2663   2.676   3.577  15.273  0.9186 -1.7068 -0.8814
  171MPD1    H2 2664   2.297   3.621  15.099  0.4887  2.0287  1.4805
  171MPD1    H3 2665   2.497   3.711  15.180  1.2666  0.0701  0.4891
  171MPD1     N 2666   2.663   3.313  15.322 -0.0389 -1.4661  0.2900
  171MPD1    H5 2667   2.748   3.363  15.347  0.0833 -1.0821 -0.8938
  171MPD1    N1 2668   2.226   3.374  15.098  0.8589  0.4078  0.6323
  171MPD1    H6 2669   2.201   3.285  15.140  0.5382  0.4439  0.5234
  171MPD1    H7 2670   2.147   3.438  15.097 -1.5675 -2.5821 -0.1116
  172MPD1     C 2671   0.879   3.385   0.976  0.3919  0.2744  0.1762
  172MPD1    C1 2672   0.981   3.411   1.062 -0.4829  0.3079 -0.1290
  172MPD1    C2 2673   1.107   3.440   1.013  1.0714  0.2596  0.8008
  172MPD1    C3 2674   1.128   3.455   0.879  0.3520  0.1233 -0.6076
  172MPD1    C4 2675   1.024   3.442   0.791 -0.1724 -0.1139  0.0195
  172MPD1    C5 2676   0.900   3.415   0.843 -0.7557  0.7510  0.8585
  172MPD1     H 2677   1.198   3.449   1.072  1.0070  1.6569  0.6794
  172MPD1    H1 2678   1.027   3.452   0.683 -2.2557  1.0884  0.0900
  172MPD1    H2 2679   0.783   3.342   0.998 -0.8726  2.6870 -0.6002
  172MPD1    H3 2680   0.820   3.387   0.776  0.9792 -0.5579 -0.6752
  172MPD1     N 2681   1.259   3.494   0.840  0.1103  0.4830  0.2684
  172MPD1    H5 2682   1.327   3.486   0.915  0.7826 -1.2236 -0.5213
  172MPD1    N1 2683   0.961   3.374   1.198 -0.6692 -0.2062  0.3018
  172MPD1    H6 2684   0.877   3.417   1.238  0.0026 -0.4465  1.9712
  172MPD1    H7 2685   1.039   3.399   1.258  0.3203 -1.5127 -0.4650
  173MPD1     C 2686   2.676   2.528  14.832  0.3140  0.6596 -0.1700
  173MPD1    C1 2687   2.663   2.439  14.933  0.7395  0.2157  0.5903
  173MPD1    C2 2688   2.569   2.344  14.920 -0.2598  0.3241  0.0478
  173MPD1    C3 2689   2.489   2.335  14.807 -0.5799 -0.2010 -0.0764
  173MPD1    C4 2690   2.506   2.440  14.710 -0.4238 -1.2265  0.0769
  173MPD1    C5 2691   2.604   2.532  14.724 -1.1079  0.5893 -0.3185
  173MPD1     H 2692   2.541   2.274  14.998  1.1766 -2.5795 -2.0469
  173MPD1    H1 2693   2.444   2.444  14.621  1.8664 -2.5077 -1.5811
  173MPD1    H2 2694   2.746   2.611  14.840  1.0161 -0.1885  2.6644
  173MPD1    H3 2695   2.617   2.619  14.661  1.5677 -0.6796 -1.5193
  173MPD1     N 2696   2.394   2.230  14.799 -0.5687  0.5542 -0.0325
  173MPD1    H5 2697   2.400   2.165  14.877  3.2308  0.9705 -0.0049
  173MPD1    N1 2698   2.738   2.445  15.046 -0.1555 -0.1607  0.0455
  173MPD1    H6 2699   2.825   2.486  15.012 -1.1726  2.0041  0.0273
  173MPD1    H7 2700   2.753   2.351  15.082  2.3569  0.0321 -0.4560
  174MPD1     C 2701   2.051   1.384  14.204  0.5501 -0.4699  1.2128
  174MPD1    C1 2702   2.027   1.519  14.170  0.3397  0.9390 -0.3254
  174MPD1    C2 2703   2.079   1.618  14.242  1.2348  0.1352  1.1255
  174MPD1    C3 2704   2.152   1.588  14.361  0.2070  0.0380  1.0377
  174MPD1    C4 2705   2.165   1.458  14.392  0.0338 -0.5874 -0.1433
  174MPD1    C5 2706   2.116   1.356  14.317  0.2528  0.6603  0.0889
  174MPD1     H 2707   2.072   1.724  14.218  3.0207 -0.1628 -0.6426
  174MPD1    H1 2708   2.207   1.430  14.488 -0.7167  2.4037  1.0476
  174MPD1    H2 2709   2.029   1.309  14.129  2.6364  0.2422 -0.1088
  174MPD1    H3 2710   2.129   1.253  14.347  2.0240  0.1650 -2.3153
  174MPD1     N 2711   2.201   1.686  14.454  0.3086 -0.1601  0.0854
  174MPD1    H5 2712   2.237   1.655  14.544 -1.7006  0.6263  1.1774
  174MPD1    N1 2713   1.964   1.538  14.047  0.0970 -0.1296  0.2602
  174MPD1    H6 2714   1.924   1.632  14.054  2.4104  0.9140 -0.5572
  174MPD1    H7 2715   1.891   1.474  14.016  0.5255 -0.9267  0.9140
  175MPD1     C 2716   1.677   4.050  14.941 -0.3052  0.2767  0.8065
  175MPD1    C1 2717   1.554   4.020  14.985 -0.1230 -0.3279 -0.2140
  175MPD1    C2 2718   1.542   3.967  15.112  0.0488 -0.0766 -0.1501
  175MPD1    C3 2719   1.653   3.958  15.199  0.1952  0.0044  1.0506
  175MPD1    C4 2720   1.778   3.975  15.141  0.5668 -0.4427 -0.1278
  175MPD1    C5 2721   1.792   4.030  15.016  0.1459  0.2141  0.0103
  175MPD1     H 2722   1.441   3.953  15.149  1.6793 -1.3168  3.7486
  175MPD1    H1 2723   1.868   3.962  15.201 -0.0165 -2.5919  0.2859
  175MPD1    H2 2724   1.700   4.084  14.840 -4.1903 -3.1602 -1.2314
  175MPD1    H3 2725   1.888   4.061  14.974 -1.2165  0.4011 -2.9955
  175MPD1     N 2726   1.640   3.909  15.330  1.0019 -0.7854 -0.2961
  175MPD1    H5 2727   1.729   3.912  15.377  0.5283  0.8278  0.4955
  175MPD1    N1 2728   1.444   4.062  14.911 -0.2642  0.3800 -0.5236
  175MPD1    H6 2729   1.362   4.008  14.935 -0.9780  1.6604 -0.1307
  175MPD1    H7 2730   1.460   4.059  14.810 -0.0151 -0.6403 -0.4580
  176MPD1     C 2731   2.258   1.223  17.740  0.0983  0.9085 -0.1464
  176MPD1    C1 2732   2.361   1.236   0.077  0.0284  0.0069 -0.0174
  176MPD1    C2 2733   2.460   1.321   0.047  0.6824 -0.3117 -0.0271
  176MPD1    C3 2734   2.477   1.376  17.669  0.3187  0.4496 -0.3541
  176MPD1    C4 2735   2.382   1.347  17.574  0.3422 -0.4693  0.5045
  176MPD1    C5 2736   2.276   1.281  17.620  0.1348 -0.4088 -0.0289
  176MPD1     H 2737   2.538   1.348   0.118  0.4534 -1.0427  0.4959
  176MPD1    H1 2738   2.393   1.372  17.469  0.4039  0.7804  0.8017
  176MPD1    H2 2739   2.175   1.160   0.020  1.9064  0.0638  3.2028
  176MPD1    H3 2740   2.201   1.264  17.543 -0.0902 -1.3835  0.3974
  176MPD1     N 2741   2.591   1.451  17.649 -0.3201 -0.7037  0.2272
  176MPD1    H5 2742   2.649   1.475  17.729 -0.7316 -0.9772  0.6062
  176MPD1    N1 2743   2.340   1.183   0.210  0.1357 -0.7713  0.7457
  176MPD1    H6 2744   2.288   1.097   0.195  0.0910 -0.9553  1.9316
  176MPD1    H7 2745   2.435   1.156   0.238  1.4704  2.1167 -1.0555
  177MPD1     C 2746   1.679   0.353  10.181  0.3326  0.0168  0.0786
  177MPD1    C1 2747   1.603   0.298  10.080  0.7177 -0.4103  0.1245
  177MPD1    C2 2748   1.527   0.386  10.005 -0.0659 -0.2186 -0.0919
  177MPD1    C3 2749   1.526   0.524  10.014  0.3427 -0.3486 -0.3239
  177MPD1    C4 2750   1.599   0.576  10.122 -0.2019 -0.0559 -0.1779
  177MPD1    C5 2751   1.674   0.491  10.204  0.8016  0.1852 -0.6724
  177MPD1     H 2752   1.482   0.338   9.919 -0.3895 -0.1850  0.0578
  177MPD1    H1 2753   1.596   0.680  10.153  1.5181 -0.0255 -0.1092
  177MPD1    H2 2754   1.746   0.297  10.245  0.3677 -2.2028 -1.9118
  177MPD1    H3 2755   1.726   0.525  10.293  1.1516  0.7411 -1.0897
  177MPD1     N 2756   1.447   0.607   9.917 -0.0829  1.1625  0.1491
  177MPD1    H5 2757   1.389   0.562   9.847 -4.5600  1.9110  3.3558
  177MPD1    N1 2758   1.590   0.158  10.065 -0.2035 -0.3642  0.0378
  177MPD1    H6 2759   1.577   0.118   9.972 -1.5352  1.5259 -0.5900
  177MPD1    H7 2760   1.671   0.112  10.106 -0.3370  1.3738  2.2931
  178MPD1     C 2761   3.418   1.671  17.684  0.8594  0.9299 -1.1170
  178MPD1    C1 2762   3.515   1.770  17.687  0.8047  0.1502  0.3858
  178MPD1    C2 2763   3.607   1.783  17.582 -0.1261  0.5868 -0.6204
  178MPD1    C3 2764   3.602   1.701  17.471 -0.0356  0.6411  0.0504
  178MPD1    C4 2765   3.512   1.589  17.477 -0.8785 -0.7609 -0.4657
  178MPD1    C5 2766   3.432   1.579  17.587  0.8235  0.4960  0.5052
  178MPD1     H 2767   3.675   1.867  17.579 -1.2443  1.5794  1.1712
  178MPD1    H1 2768   3.505   1.516  17.398 -1.4580  0.3151 -1.4148
  178MPD1    H2 2769   3.336   1.671   0.005  1.4006  0.4605 -0.4905
  178MPD1    H3 2770   3.359   1.500  17.592  3.8926 -2.1577  3.0283
  178MPD1     N 2771   3.690   1.717  17.356  0.1672  0.2108  0.8293
  178MPD1    H5 2772   3.690   1.647  17.283 -1.2137  2.2979 -1.1834
  178MPD1    N1 2773   3.504   1.873   0.033 -0.6432 -0.1653 -0.5536
  178MPD1    H6 2774   3.597   1.906   0.061 -0.7140 -0.2832 -0.1812
  178MPD1    H7 2775   3.464   1.836   0.119 -0.8885 -3.7729 -2.2208
  179MPD1     C 2776   2.864   0.117  16.016 -0.1875 -0.3256  0.8251
  179MPD1    C1 2777   2.927   0.051  16.118 -0.6167  0.3752 -0.0353
  179MPD1    C2 2778   3.001   4.676  16.083  0.0170 -0.8348 -0.3652
  179MPD1    C3 2779   3.019   4.641  15.950 -0.4356 -0.1756 -0.0034
  179MPD1    C4 2780   2.941   4.706  15.853  0.0566 -0.2124  0.2242
  179MPD1    C5 2781   2.862   0.068  15.889 -0.2408 -0.3932 -0.2910
  179MPD1     H 2782   3.046   4.620  16.165  0.8641  0.6853  0.2114
  179MPD1    H1 2783   2.950   4.675  15.749 -1.1658  1.0424 -0.2632
  179MPD1    H2 2784   2.803   0.203  16.040  0.5137  0.6083 -0.7459
  179MPD1    H3 2785   2.803   0.115  15.811 -0.8356  1.2092  1.1448
  179MPD1     N 2786   3.104   4.528  15.908  0.5072  0.1139  0.8007
  179MPD1    H5 2787   3.096   4.485  15.816  1.3179 -1.2261  1.3568
  179MPD1    N1 2788   2.903   0.076  16.250 -0.1581  0.3701  0.5938
  179MPD1    H6 2789   2.987   0.044  16.299 -0.5301 -1.8686 -0.2554
  179MPD1    H7 2790   2.880   0.171  16.278 -0.5328  1.2002 -2.5697
  180MPD1     C 2791   3.625   1.376  15.356  0.7465 -0.0340  0.5015
  180MPD1    C1 2792   3.686   1.281  15.277  0.1888  0.1344 -0.0536
  180MPD1    C2 2793   3.605   1.192  15.199 -0.1451  0.4590  0.1944
  180MPD1    C3 2794   3.465   1.194  15.218  0.3178 -0.3347 -0.4532
  180MPD1    C4 2795   3.410   1.271  15.321  0.3639  0.2279  0.3818
  180MPD1    C5 2796   3.497   1.355  15.392 -0.3151  0.3252 -0.2685
  180MPD1     H 2797   3.644   1.138  15.113 -0.2011  1.8291 -0.7017
  180MPD1    H1 2798   3.305   1.265  15.349  0.2308  3.3136  0.5043
  180MPD1    H2 2799   3.681   1.451  15.411 -0.8481  0.7221  1.0847
  180MPD1    H3 2800   3.458   1.423  15.467 -1.9023 -0.5148 -0.3345
  180MPD1     N 2801   3.377   1.113  15.137 -0.0335 -0.4933 -0.7334
  180MPD1    H5 2802   3.412   1.044  15.073 -1.0088 -0.9129 -0.8087
  180MPD1    N1 2803   3.824   1.297  15.247 -0.3693  0.0254 -0.1584
  180MPD1    H6 2804   3.881   1.343  15.317 -2.2266 -0.5929  1.7792
  180MPD1    H7 2805   3.864   1.211  15.210 -0.2304  0.3141 -0.6726
  181MPD1     C 2806   0.307   2.855   9.494  0.2379 -0.3315 -0.1294
  181MPD1    C1 2807   0.395   2.920   9.578 -0.2396  0.5364  0.1996
  181MPD1    C2 2808   0.426   2.862   9.700 -0.2133 -0.3109  0.9677
  181MPD1    C3 2809   0.354   2.756   9.756  0.2788  0.4718 -0.2175
  181MPD1    C4 2810   0.253   2.703   9.680 -0.7825  0.2236  0.1123
  181MPD1    C5 2811   0.233   2.753   9.556 -0.0241  0.3144 -0.0076
  181MPD1     H 2812   0.521   2.892   9.743  0.2541 -1.7137  0.9229
  181MPD1    H1 2813   0.211   2.613   9.723 -0.7248  0.1296 -0.0294
  181MPD1    H2 2814   0.289   2.897   9.396 -1.1072 -2.0170 -0.6053
  181MPD1    H3 2815   0.160   2.700   9.495  1.9942 -0.0445 -2.1151
  181MPD1     N 2816   0.393   2.721   9.886 -0.5276  0.4031  0.7831
  181MPD1    H5 2817   0.473   2.767   9.928  1.1505 -2.7279  0.9539
  181MPD1    N1 2818   0.481   3.010   9.522 -0.3670 -0.1293  1.0472
  181MPD1    H6 2819   0.514   3.070   9.597  0.6958  0.2916  0.2480
  181MPD1    H7 2820   0.459   3.058   9.435  0.9283  2.5197  2.1771
  182MPD1     C 2821   1.478   2.029   1.118 -0.0077 -0.1558  0.1573
  182MPD1    C1 2822   1.425   2.094   1.223  0.0242 -0.8268  0.7349
  182MPD1    C2 2823   1.308   2.176   1.202  0.3643  0.2772 -0.0230
  182MPD1    C3 2824   1.238   2.163   1.083 -1.5669 -0.1048  0.3613
  182MPD1    C4 2825   1.284   2.076   0.982 -0.0312 -0.2158 -0.0400
  182MPD1    C5 2826   1.409   2.019   1.001  0.5683  1.0321 -0.7134
  182MPD1     H 2827   1.269   2.241   1.279  1.6864  1.5735 -0.4580
  182MPD1    H1 2828   1.242   2.075   0.882  1.4480  1.6788 -0.6801
  182MPD1    H2 2829   1.572   1.976   1.113  0.6592  1.1691 -1.2310
  182MPD1    H3 2830   1.448   1.963   0.917 -0.2266  0.4746 -0.7213
  182MPD1     N 2831   1.128   2.243   1.046  0.0126 -0.3202  0.0167
  182MPD1    H5 2832   1.089   2.229   0.953 -0.1945  0.2987  0.0087
  182MPD1    N1 2833   1.494   2.101   1.348 -0.1739 -0.2032  0.2247
  182MPD1    H6 2834   1.532   2.009   1.371 -0.3406 -0.2247  0.4109
  182MPD1    H7 2835   1.435   2.140   1.420 -1.7071 -3.9943  1.0220
  183MPD1     C 2836   2.424   3.310   9.731  0.4944 -0.4107 -0.4660
  183MPD1    C1 2837   2.293   3.330   9.691 -0.4557  0.4041  0.2841
  183MPD1    C2 2838   2.195   3.263   9.752  0.8210 -0.2944  0.9559
  183MPD1    C3 2839   2.214   3.174   9.854  0.4511 -0.6095  0.3399
  183MPD1    C4 2840   2.344   3.155   9.900  0.9421  0.0874  0.7514
  183MPD1    C5 2841   2.449   3.223   9.836  0.0328 -0.3011  0.0289
  183MPD1     H 2842   2.095   3.282   9.715  1.6922  0.2707 -1.0932
  183MPD1    H1 2843   2.368   3.094   9.987  1.4071 -0.5997  0.1452
  183MPD1    H2 2844   2.506   3.364   9.684 -0.4771  0.7510 -0.8506
  183MPD1    H3 2845   2.551   3.209   9.869  0.2490  0.7146 -0.2039
  183MPD1     N 2846   2.098   3.120   9.913 -0.3559 -0.0547 -0.0874
  183MPD1    H5 2847   2.009   3.156   9.879 -0.1687 -0.9930 -1.5474
  183MPD1    N1 2848   2.268   3.425   9.592  0.8457 -0.1976  0.0866
  183MPD1    H6 2849   2.345   3.449   9.530 -0.1803 -1.2431 -1.6083
  183MPD1    H7 2850   2.176   3.429   9.547  0.7467  2.4320  0.5830
  184MPD1     C 2851   0.514   0.027  10.082 -0.0729 -0.3404 -0.3694
  184MPD1    C1 2852   0.435   0.028   9.969  0.2312 -0.6313 -0.2794
  184MPD1    C2 2853   0.467   0.127   9.878 -0.0339 -0.5580  0.1929
  184MPD1    C3 2854   0.562   0.223   9.900 -0.2579 -0.9831 -0.0847
  184MPD1    C4 2855   0.626   0.222  10.023 -0.3032  0.1140 -0.4272
  184MPD1    C5 2856   0.615   0.118  10.111  0.2783  0.1427 -0.1084
  184MPD1     H 2857   0.417   0.125   9.782 -1.3802  0.8701  0.8413
  184MPD1    H1 2858   0.708   0.292  10.039 -1.0885  0.9443 -0.0758
  184MPD1    H2 2859   0.506   4.688  10.158  1.9806  1.5390  1.7727
  184MPD1    H3 2860   0.667   0.120  10.206 -0.8903 -1.0009  0.5677
  184MPD1     N 2861   0.600   0.315   9.801 -0.3400  0.9964 -0.1148
  184MPD1    H5 2862   0.647   0.401   9.827  0.9534  0.1996  0.1507
  184MPD1    N1 2863   0.352   4.655   9.934 -0.1730 -0.2053 -0.0914
  184MPD1    H6 2864   0.307   4.608  10.012  0.3553  0.9258  0.9086
  184MPD1    H7 2865   0.273   4.693   9.883 -1.1503  0.7873  2.1398
  185MPD1     C 2866   0.632   0.301   8.802  0.4354  0.3311 -0.0315
  185MPD1    C1 2867   0.665   0.435   8.831 -0.4083  0.2978  0.3941
  185MPD1    C2 2868   0.666   0.462   8.964  0.8117  0.1523  0.6352
  185MPD1    C3 2869   0.606   0.383   9.060 -0.2324  0.4684 -0.0554
  185MPD1    C4 2870   0.563   0.263   9.023 -0.3110  0.3958 -0.7955
  185MPD1    C5 2871   0.577   0.219   8.892  0.1074  0.1081  0.7189
  185MPD1     H 2872   0.715   0.551   9.003  0.4827  1.4369 -1.8646
  185MPD1    H1 2873   0.527   0.203   9.107  1.1570  1.5753  0.6716
  185MPD1    H2 2874   0.643   0.266   8.700  2.2479  0.6092  0.0540
  185MPD1    H3 2875   0.560   0.117   8.860  1.2922  0.8457 -2.2520
  185MPD1     N 2876   0.603   0.418   9.197  0.2899 -0.4405  0.4903
  185MPD1    H5 2877   0.568   0.357   9.271  1.0240 -3.4228 -1.6607
  185MPD1    N1 2878   0.741   0.509   8.738 -0.0905  0.0135  0.5634
  185MPD1    H6 2879   0.744   0.605   8.772 -1.2840  0.8801 -1.7643
  185MPD1    H7 2880   0.721   0.504   8.638 -3.1240  0.1076  1.1620
  186MPD1     C 2881   3.308   4.474  15.498  0.3126  0.2169 -0.2614
  186MPD1    C1 2882   3.431   4.428  15.532  0.2169 -0.0012  0.1041
  186MPD1    C2 2883   3.487   4.490  15.641 -1.0555 -0.2488  0.4814
  186MPD1    C3 2884   3.433   4.605  15.700  0.6605  0.5304 -0.2439
  186MPD1    C4 2885   3.312   4.652  15.650  0.0862  0.2358  0.1707
  186MPD1    C5 2886   3.247   4.585  15.555 -0.1119 -0.1234 -0.2023
  186MPD1     H 2887   3.585   4.454  15.670 -0.6428 -0.6014 -1.3386
  186MPD1    H1 2888   3.261   0.004  15.680 -2.0543 -1.1918  0.8334
  186MPD1    H2 2889   3.257   4.426  15.415  3.1090 -1.7393 -0.8408
  186MPD1    H3 2890   3.172   4.636  15.496  0.1269 -0.2657 -0.6285
  186MPD1     N 2891   3.486   4.683  15.804  0.4608 -0.1891  0.1635
  186MPD1    H5 2892   3.435   0.023  15.845 -0.0300 -0.2471 -0.3478
  186MPD1    N1 2893   3.481   4.305  15.490 -0.0171  0.0595  0.4188
  186MPD1    H6 2894   3.458   4.284  15.393  2.2519 -0.4880  0.0103
  186MPD1    H7 2895   3.583   4.308  15.491  0.0922 -2.2183 -3.1641
  187MPD1     C 2896   2.231   2.486   0.116 -0.1707 -0.4126 -0.1145
  187MPD1    C1 2897   2.320   2.579   0.084  0.1235 -0.1441  0.6042
  187MPD1    C2 2898   2.409   2.570  17.721  0.3980 -0.3928  0.4320
  187MPD1    C3 2899   2.402   2.463  17.641 -0.5377  0.7826  0.4174
  187MPD1    C4 2900   2.326   2.359  17.679 -0.3269  0.2956 -0.4553
  187MPD1    C5 2901   2.237   2.373   0.034  0.5328 -0.1254 -0.1866
  187MPD1     H 2902   2.471   2.653  17.688  1.5091 -1.4170 -0.0558
  187MPD1    H1 2903   2.329   2.265  17.623 -2.3193  1.2640 -2.2013
  187MPD1    H2 2904   2.147   2.488   0.185  0.7413  2.4226  0.9094
  187MPD1    H3 2905   2.166   2.292   0.049 -1.8459  1.5622 -2.4438
  187MPD1     N 2906   2.499   2.439  17.539  0.1490 -0.6375 -0.0692
  187MPD1    H5 2907   2.495   2.349  17.492  1.9543 -0.1967 -1.0626
  187MPD1    N1 2908   2.312   2.696   0.157 -0.3458  0.2571 -0.6360
  187MPD1    H6 2909   2.386   2.764   0.141 -0.3011  0.6080  1.0358
  187MPD1    H7 2910   2.301   2.673   0.256  0.0062  1.1299 -0.3942
  188MPD1     C 2911   3.797   2.333   9.786 -0.3997 -0.0788 -0.0650
  188MPD1    C1 2912   3.702   2.346   9.882 -0.0103 -0.4510 -0.2989
  188MPD1    C2 2913   3.596   2.253   9.891  0.1020 -0.0356  0.2381
  188MPD1    C3 2914   3.600   2.143   9.800 -0.4803  0.2360  0.5455
  188MPD1    C4 2915   3.700   2.124   9.713 -0.6868  0.1888 -0.1217
  188MPD1    C5 2916   3.798   2.215   9.713 -0.2440 -0.4632  0.0339
  188MPD1     H 2917   3.510   2.267   9.955 -0.3557 -2.4253  0.1616
  188MPD1    H1 2918   3.707   2.040   9.645 -0.8071  1.5833 -1.8726
  188MPD1    H2 2919   3.878   2.405   9.781  0.9213 -1.5033  0.6521
  188MPD1    H3 2920   3.883   2.201   9.647  1.6255  0.2517  2.3122
  188MPD1     N 2921   3.497   2.043   9.796 -0.1740 -0.1749  0.0559
  188MPD1    H5 2922   3.507   1.971   9.725  2.1872 -0.5448  0.7804
  188MPD1    N1 2923   3.677   2.478   9.930 -0.2202  0.5632 -0.4231
  188MPD1    H6 2924   3.752   2.546   9.935  0.4013 -0.1311 -0.2312
  188MPD1    H7 2925   3.615   2.477  10.011  2.1950  0.3752  1.4233
  189MPD1     C 2926   4.096   3.359   0.618  0.2249  0.0120 -0.0279
  189MPD1    C1 2927   4.095   3.281   0.504  1.0073 -0.1348  0.2786
  189MPD1    C2 2928   4.095   3.345   0.384  0.3304 -0.0811 -0.1102
  189MPD1    C3 2929   4.103   3.482   0.373  0.0406  0.2289 -0.2785
  189MPD1    C4 2930   4.116   3.560   0.484  0.1184  0.2549  0.7109
  189MPD1    C5 2931   4.112   3.500   0.604 -0.1444  0.2708  0.3588
  189MPD1     H 2932   4.093   3.288   0.291 -1.0978 -2.3854  1.3196
  189MPD1    H1 2933   4.127   3.667   0.488 -1.4252  0.4559 -0.3529
  189MPD1    H2 2934   4.099   3.318   0.718  1.1871 -0.6867 -0.3487
  189MPD1    H3 2935   4.131   3.552   0.697  0.4096 -1.3966  1.1637
  189MPD1     N 2936   4.120   3.533   0.241  0.0907 -0.2994  0.4028
  189MPD1    H5 2937   4.121   3.468   0.163  0.5216  1.6048 -1.1797
  189MPD1    N1 2938   4.082   3.146   0.525 -0.2929  0.4569  0.3467
  189MPD1    H6 2939   4.126   3.099   0.604  0.1777  0.7060  0.2322
  189MPD1    H7 2940   4.122   3.099   0.443  2.2592  1.1955  1.1780
  190MPD1     C 2941   2.974   1.118  15.616 -0.3595  0.3387 -0.4787
  190MPD1    C1 2942   2.998   1.149  15.750  0.3036  0.2524  0.0148
  190MPD1    C2 2943   3.125   1.169  15.791 -1.0454 -0.4370  0.1230
  190MPD1    C3 2944   3.231   1.153  15.699  0.1165  0.0908  0.7003
  190MPD1    C4 2945   3.208   1.122  15.569  0.2958 -0.4658 -0.0381
  190MPD1    C5 2946   3.079   1.100  15.526  0.2728 -0.0379 -0.1055
  190MPD1     H 2947   3.139   1.206  15.893 -1.6495 -0.1040  0.0873
  190MPD1    H1 2948   3.294   1.115  15.503 -0.0385 -0.9832 -0.4189
  190MPD1    H2 2949   2.873   1.095  15.584  0.7349 -1.6383 -2.4765
  190MPD1    H3 2950   3.065   1.074  15.422  0.3613  3.0008 -0.8533
  190MPD1     N 2951   3.358   1.180  15.752  0.1996 -0.3284  0.2386
  190MPD1    H5 2952   3.360   1.226  15.843  0.5421  0.3054 -0.0841
  190MPD1    N1 2953   2.897   1.129  15.837  0.4454  0.7760  0.0749
  190MPD1    H6 2954   2.914   1.186  15.919  0.7988  0.0431  0.5084
  190MPD1    H7 2955   2.803   1.146  15.801  1.1699  2.6796 -0.9125
  191MPD1     C 2956   2.223   2.714  12.852  0.4090 -0.3896  0.4454
  191MPD1    C1 2957   2.297   2.613  12.796 -0.5171  0.2564 -0.0176
  191MPD1    C2 2958   2.390   2.657  12.698 -0.1371  0.3493  0.1336
  191MPD1    C3 2959   2.421   2.793  12.675 -0.2363  0.4165 -0.2861
  191MPD1    C4 2960   2.338   2.886  12.729  0.3077  0.6594 -0.5351
  191MPD1    C5 2961   2.243   2.844  12.816 -0.3180 -0.4567  0.3448
  191MPD1     H 2962   2.448   2.580  12.649 -2.2012 -0.2156 -1.4091
  191MPD1    H1 2963   2.358   2.992  12.714  1.5998  0.4482 -0.2591
  191MPD1    H2 2964   2.152   2.695  12.932  0.5022  3.1515  1.3738
  191MPD1    H3 2965   2.193   2.914  12.883  1.3421  0.8255  0.2343
  191MPD1     N 2966   2.525   2.826  12.584 -0.0880 -0.5266  0.2752
  191MPD1    H5 2967   2.553   2.751  12.521 -1.6893 -0.1119 -0.9284
  191MPD1    N1 2968   2.285   2.476  12.825  0.3009  0.2923  0.6141
  191MPD1    H6 2969   2.298   2.411  12.748  0.7414  0.6481  0.3919
  191MPD1    H7 2970   2.215   2.450  12.895  0.2572 -1.6861 -0.1589
  192MPD1     C 2971   2.304   2.855  11.764  0.1814 -0.0865 -0.0256
  192MPD1    C1 2972   2.281   2.779  11.876 -0.0062  0.5828  0.0166
  192MPD1    C2 2973   2.373   2.776  11.981  0.3973  0.5459 -0.4907
  192MPD1    C3 2974   2.470   2.874  11.989 -0.1767  0.3894 -0.1273
  192MPD1    C4 2975   2.496   2.963  11.881  0.0722 -0.2570  0.0186
  192MPD1    C5 2976   2.410   2.946  11.771  0.0613 -0.5646 -0.0599
  192MPD1     H 2977   2.370   2.693  12.051 -1.8103  0.3839 -0.7709
  192MPD1    H1 2978   2.560   3.051  11.883 -1.2387  0.7202 -1.2023
  192MPD1    H2 2979   2.237   2.837  11.680 -1.4775  2.3728  0.7512
  192MPD1    H3 2980   2.421   3.014  11.687 -0.5300  1.5426  1.5636
  192MPD1     N 2981   2.546   2.878  12.109  1.0444  0.0615  0.0779
  192MPD1    H5 2982   2.512   2.822  12.187  3.1432  0.6086  1.3897
  192MPD1    N1 2983   2.190   2.673  11.862 -0.0924 -0.4021 -0.3355
  192MPD1    H6 2984   2.148   2.634  11.946 -2.4571  1.1603 -0.7620
  192MPD1    H7 2985   2.109   2.702  11.807  0.1030  0.5200 -0.1411
  193MPD1     C 2986   2.308   3.124  16.353  0.0279 -0.3138 -0.1417
  193MPD1    C1 2987   2.304   3.175  16.484  0.6504  0.3303  0.4216
  193MPD1    C2 2988   2.418   3.156  16.556 -0.9808 -0.1342  0.6024
  193MPD1    C3 2989   2.539   3.106  16.501  0.4659 -0.4297 -0.3163
  193MPD1    C4 2990   2.540   3.067  16.367 -0.5796 -0.2134  0.1286
  193MPD1    C5 2991   2.423   3.071  16.292 -0.7142  0.3246 -0.2168
  193MPD1     H 2992   2.413   3.203  16.654 -1.6909  1.4390 -0.1920
  193MPD1    H1 2993   2.622   3.015  16.318 -2.4738 -0.2308 -3.0121
  193MPD1    H2 2994   2.216   3.125  16.295  0.3797 -0.2628 -0.6955
  193MPD1    H3 2995   2.408   3.028  16.193 -0.0145 -1.0582  0.2848
  193MPD1     N 2996   2.653   3.082  16.581  0.2351  0.6956 -0.4663
  193MPD1    H5 2997   2.730   3.039  16.531  1.4540  2.1676  0.1602
  193MPD1    N1 2998   2.179   3.209  16.537  0.2257 -0.4809 -0.2050
  193MPD1    H6 2999   2.176   3.264  16.623 -2.7459 -0.3271 -0.4085
  193MPD1    H7 3000   2.119   3.262  16.474  0.4297  0.7441  0.6330
  194MPD1     C 3001   0.005   0.914  17.246 -0.1113 -0.3254 -0.3048
  194MPD1    C1 3002   0.006   0.876  17.116 -0.0496 -0.3141  0.6104
  194MPD1    C2 3003   0.084   0.774  17.073  0.5764 -0.5036 -0.5868
  194MPD1    C3 3004   0.163   0.702  17.161  0.3641  0.2664 -0.1714
  194MPD1    C4 3005   0.159   0.744  17.296  0.4273  0.5716  0.7476
  194MPD1    C5 3006   0.082   0.856  17.335 -0.2456  0.5515  0.8923
  194MPD1     H 3007   0.077   0.751  16.967 -2.5135 -0.8501 -0.3157
  194MPD1    H1 3008   0.222   0.686  17.363  0.8401 -1.3518 -1.2798
  194MPD1    H2 3009   4.670   0.986  17.280  0.3890 -0.2767  0.6846
  194MPD1    H3 3010   0.072   0.888  17.438 -2.2165 -0.9511  1.1674
  194MPD1     N 3011   0.254   0.599  17.130 -0.0468 -0.0035  0.3585
  194MPD1    H5 3012   0.299   0.548  17.205  1.8184 -0.4331 -1.0707
  194MPD1    N1 3013   4.658   0.935  17.028  0.0973  0.1081  0.8073
  194MPD1    H6 3014   4.701   0.936  16.936  1.2695  2.7119  1.3855
  194MPD1    H7 3015   4.609   1.018  17.063  1.3597  1.3593 -0.3889
  195MPD1     C 3016   1.119   2.421   0.124 -0.5294  0.1895 -1.0525
  195MPD1    C1 3017   1.227   2.467   0.056  0.0540  0.2201  0.6559
  195MPD1    C2 3018   1.349   2.392   0.071 -0.1631 -0.7122 -0.6217
  195MPD1    C3 3019   1.360   2.283   0.155  0.8323  0.3406 -0.2868
  195MPD1    C4 3020   1.241   2.237   0.203 -0.2978  0.4899 -0.2901
  195MPD1    C5 3021   1.122   2.295   0.180 -0.9642  0.3547 -1.1180
  195MPD1     H 3022   1.443   2.425   0.030 -1.0698  1.4183 -1.0019
  195MPD1    H1 3023   1.237   2.149   0.266  0.1274 -0.8908 -2.2043
  195MPD1    H2 3024   1.020   2.464   0.127 -1.3604 -1.8345 -0.0374
  195MPD1    H3 3025   1.036   2.247   0.225 -0.8244  2.0624  1.0035
  195MPD1     N 3026   1.469   2.207   0.187 -0.2278  0.5861 -0.0591
  195MPD1    H5 3027   1.451   2.124   0.242  1.0055  0.2353 -0.1715
  195MPD1    N1 3028   1.234   2.588  17.747  0.5575  0.4103  0.0011
  195MPD1    H6 3029   1.299   2.594  17.669  0.3242  0.1746 -0.2113
  195MPD1    H7 3030   1.144   2.615  17.708  0.0312 -1.9563 -0.3950
  196MPD1     C 3031   1.268   1.236   0.793  0.2801  0.0536 -0.0344
  196MPD1    C1 3032   1.259   1.222   0.658  0.2051  0.0995 -0.4941
  196MPD1    C2 3033   1.376   1.225   0.590  0.3179  0.1071 -0.6642
  196MPD1    C3 3034   1.502   1.242   0.659  0.5282 -0.3974 -0.2466
  196MPD1    C4 3035   1.502   1.267   0.793  1.0694 -0.4122  1.3697
  196MPD1    C5 3036   1.384   1.257   0.858 -0.2600  0.4022 -0.2299
  196MPD1     H 3037   1.371   1.214   0.482  2.8065  0.8444 -0.8542
  196MPD1    H1 3038   1.599   1.275   0.842  1.6363 -1.3255  0.3978
  196MPD1    H2 3039   1.181   1.209   0.851 -0.4192  1.5781 -0.3932
  196MPD1    H3 3040   1.381   1.251   0.966  1.3317 -0.5606 -0.2392
  196MPD1     N 3041   1.631   1.222   0.589  0.0857  0.2043 -0.3925
  196MPD1    H5 3042   1.712   1.209   0.648  0.3334 -0.8674 -0.9602
  196MPD1    N1 3043   1.144   1.248   0.588 -0.2404 -0.3220 -0.3673
  196MPD1    H6 3044   1.134   1.209   0.494  0.4203 -1.1627 -0.0939
  196MPD1    H7 3045   1.067   1.213   0.643 -1.0614  1.0298 -0.6657
  197MPD1     C 3046   1.290   3.441  17.589 -0.8299 -0.1355  0.2178
  197MPD1    C1 3047   1.389   3.504  17.662  1.0118 -0.9297  0.8170
  197MPD1    C2 3048   1.477   3.587  17.596  0.5444  0.2738 -0.1428
  197MPD1    C3 3049   1.483   3.597  17.459  0.4396 -0.4829 -0.4827
  197MPD1    C4 3050   1.385   3.531  17.389 -0.5045  0.0434 -0.2473
  197MPD1    C5 3051   1.290   3.459  17.453  0.2988  0.2915 -0.0237
  197MPD1     H 3052   1.550   3.635  17.660  0.8531  0.8808 -0.9469
  197MPD1    H1 3053   1.384   3.519  17.281  1.1301 -0.6881 -0.1918
  197MPD1    H2 3054   1.210   3.389  17.640 -1.0523  3.6379  3.7416
  197MPD1    H3 3055   1.208   3.412  17.400  1.3408 -1.0425 -0.4718
  197MPD1     N 3056   1.592   3.660  17.390  0.4738 -0.6836  0.4786
  197MPD1    H5 3057   1.585   3.663  17.289 -0.6047 -3.3866  0.4680
  197MPD1    N1 3058   1.392   3.492   0.053  0.1701 -0.9954  0.3359
  197MPD1    H6 3059   1.478   3.524   0.095  0.7392 -0.6974 -1.0674
  197MPD1    H7 3060   1.382   3.393   0.077  0.5995 -1.4649 -1.4145
  198MPD1     C 3061   3.190   1.550  15.382  0.3863 -0.1006  0.1333
  198MPD1    C1 3062   3.216   1.561  15.520 -0.3488 -0.6405 -0.1478
  198MPD1    C2 3063   3.241   1.683  15.584 -0.4562  0.3778 -0.2485
  198MPD1    C3 3064   3.253   1.790  15.500  0.8566 -0.2397  0.0883
  198MPD1    C4 3065   3.229   1.782  15.361  0.1281  0.3272  0.5872
  198MPD1    C5 3066   3.196   1.664  15.304  0.0120 -0.3530  0.2307
  198MPD1     H 3067   3.263   1.684  15.690  0.6388  1.6747 -0.4930
  198MPD1    H1 3068   3.229   1.869  15.296  1.7013 -1.0117 -1.1979
  198MPD1    H2 3069   3.177   1.456  15.329 -0.1646  0.3006 -0.4443
  198MPD1    H3 3070   3.192   1.665  15.196 -2.5839  2.6190  0.3544
  198MPD1     N 3071   3.292   1.909  15.560 -0.0126 -0.5432 -0.0914
  198MPD1    H5 3072   3.314   1.897  15.659 -0.7854 -0.3964  0.1022
  198MPD1    N1 3073   3.200   1.454  15.604 -0.3813  0.2731 -0.1641
  198MPD1    H6 3074   3.239   1.472  15.697  0.4747  1.4004 -0.7417
  198MPD1    H7 3075   3.237   1.368  15.565 -1.2470  0.1498 -0.7116
  199MPD1     C 3076   0.587   3.113  10.302  0.4045 -0.6011 -0.3052
  199MPD1    C1 3077   0.529   3.229  10.343 -0.1796 -0.0149 -0.0195
  199MPD1    C2 3078   0.423   3.284  10.278 -0.4983 -0.1877 -0.2104
  199MPD1    C3 3079   0.369   3.217  10.166  0.8651 -0.3941  0.2361
  199MPD1    C4 3080   0.423   3.094  10.130 -0.7303  0.0537  0.1837
  199MPD1    C5 3081   0.523   3.041  10.206  0.0150 -0.0890 -0.5038
  199MPD1     H 3082   0.378   3.376  10.313 -0.7680 -0.2134 -0.4829
  199MPD1    H1 3083   0.358   3.033  10.068 -3.4557  3.0298  0.1034
  199MPD1    H2 3084   0.669   3.071  10.359 -0.6101 -0.5534  1.1963
  199MPD1    H3 3085   0.552   2.940  10.177 -1.2796  0.4643 -3.6928
  199MPD1     N 3086   0.255   3.261  10.097  0.4117  0.6510 -0.0740
  199MPD1    H5 3087   0.230   3.204  10.017  1.6832 -0.4322  0.2944
  199MPD1    N1 3088   0.588   3.314  10.438 -0.0416 -0.5180  0.4961
  199MPD1    H6 3089   0.620   3.266  10.521  1.3344 -0.5399 -0.0549
  199MPD1    H7 3090   0.525   3.379  10.486 -0.8826  0.0138 -1.3253
  200MPD1     C 3091   4.568   3.873  14.696  0.2865  0.1288 -0.2793
  200MPD1    C1 3092   4.668   3.892  14.604  0.2168  0.2143  0.0008
  200MPD1    C2 3093   4.694   3.782  14.522  0.4528 -0.1366 -0.1965
  200MPD1    C3 3094   4.620   3.664  14.526  0.5161  0.3146 -0.0225
  200MPD1    C4 3095   4.526   3.646  14.619  0.3643  0.0387  0.3820
  200MPD1    C5 3096   4.502   3.752  14.698  0.1779  0.7652  0.5944
  200MPD1     H 3097   0.032   3.792  14.445  0.1411 -0.7675 -0.5880
  200MPD1    H1 3098   4.460   3.560  14.620 -0.2851  0.5567  1.4311
  200MPD1    H2 3099   4.539   3.950  14.766 -0.5915 -0.4960  0.0386
  200MPD1    H3 3100   4.418   3.748  14.766 -1.0870  2.9483 -0.8222
  200MPD1     N 3101   4.644   3.573  14.425  0.3098  0.0581 -0.0728
  200MPD1    H5 3102   4.717   3.594  14.357 -0.9028 -0.2436 -1.4771
  200MPD1    N1 3103   4.725   4.018  14.581 -0.4218 -0.0536  0.0581
  200MPD1    H6 3104   0.079   4.001  14.542 -0.6596  0.0979 -0.5581
  200MPD1    H7 3105   4.733   4.065  14.671  0.2227 -1.3017  0.6586
  201MPD1     C 3106   1.320   1.975  14.013  0.6018  0.3063 -0.1631
  201MPD1    C1 3107   1.318   1.897  13.900 -0.1237 -0.1402 -0.3662
  201MPD1    C2 3108   1.430   1.891  13.821 -0.6463 -0.2912  0.6520
  201MPD1    C3 3109   1.548   1.956  13.858  0.2186  0.4103  0.6746
  201MPD1    C4 3110   1.551   2.027  13.983  0.2973 -0.0734  0.6671
  201MPD1    C5 3111   1.434   2.035  14.059 -0.2500 -0.3109 -0.0009
  201MPD1     H 3112   1.428   1.853  13.719  2.7336 -0.2099  0.5354
  201MPD1    H1 3113   1.637   2.091  13.999 -0.2293  0.7855  0.0615
  201MPD1    H2 3114   1.236   2.007  14.074  0.9678  0.9526  0.0009
  201MPD1    H3 3115   1.426   2.102  14.144  1.0772  0.3224 -0.3754
  201MPD1     N 3116   1.650   1.965  13.761  0.0092 -0.0539  1.0240
  201MPD1    H5 3117   1.632   1.914  13.675 -0.1755 -0.9412  1.5840
  201MPD1    N1 3118   1.198   1.851  13.851  0.0033  0.5064 -0.0444
  201MPD1    H6 3119   1.133   1.804  13.914 -0.0904  2.9917  1.6876
  201MPD1    H7 3120   1.206   1.789  13.770 -3.5255  1.4486 -1.1183
  202MPD1     C 3121   2.963   2.569  11.352 -0.0044 -0.4862 -0.2483
  202MPD1    C1 3122   3.036   2.573  11.231  0.0461 -0.3434  0.2992
  202MPD1    C2 3123   2.968   2.529  11.120  0.6341 -0.3877  0.1336
  202MPD1    C3 3124   2.850   2.453  11.134 -0.2811  0.4508 -0.0019
  202MPD1    C4 3125   2.789   2.440  11.255 -0.2723  0.5024  0.3705
  202MPD1    C5 3126   2.845   2.500  11.362 -0.2834  0.2706 -0.0639
  202MPD1     H 3127   3.004   2.561  11.023  1.7148 -0.7381  0.4169
  202MPD1    H1 3128   2.699   2.381  11.261  0.5625 -0.5095  2.8763
  202MPD1    H2 3129   2.997   2.630  11.434 -2.4213 -1.0751  1.2006
  202MPD1    H3 3130   2.783   2.503  11.451  2.3878  2.5135  1.7398
  202MPD1     N 3131   2.778   2.407  11.022 -0.3328  0.1663  0.0681
  202MPD1    H5 3132   2.682   2.383  11.044 -0.7344  0.6501 -1.1362
  202MPD1    N1 3133   3.136   2.670  11.210 -0.0188 -0.2711 -0.2530
  202MPD1    H6 3134   3.194   2.689  11.291  0.0757  1.2050 -0.6580
  202MPD1    H7 3135   3.198   2.653  11.131 -1.4956  0.7352 -1.6307
  203MPD1     C 3136   0.384   2.821  12.195 -0.4744 -0.3302 -0.5481
  203MPD1    C1 3137   0.406   2.697  12.144 -0.0859  0.4210 -0.1571
  203MPD1    C2 3138   0.486   2.619  12.218 -0.3122 -0.0610  0.4274
  203MPD1    C3 3139   0.571   2.666  12.317  0.2481  0.1823  0.0377
  203MPD1    C4 3140   0.557   2.798  12.346  0.0566 -0.1616  0.3337
  203MPD1    C5 3141   0.465   2.875  12.288  0.0130  0.0345  0.3547
  203MPD1     H 3142   0.482   2.516  12.186 -1.7408  0.0944  0.0933
  203MPD1    H1 3143   0.610   2.844  12.429 -2.1495  1.0467  1.0888
  203MPD1    H2 3144   0.307   2.888  12.159  0.5380  0.0647 -2.0084
  203MPD1    H3 3145   0.441   2.976  12.320 -3.1268 -0.3974 -0.6742
  203MPD1     N 3146   0.650   2.577  12.391 -0.4052 -1.1335 -0.3468
  203MPD1    H5 3147   0.621   2.480  12.380  0.4082 -1.4084 -0.0931
  203MPD1    N1 3148   0.312   2.644  12.056  0.0396  0.7352  0.4523
  203MPD1    H6 3149   0.345   2.559  12.011  0.7679  1.2991 -0.0702
  203MPD1    H7 3150   0.285   2.708  11.982 -1.9493 -0.5670  0.0608
  204MPD1     C 3151   1.232   4.276  17.191 -0.1287  0.3211  0.3248
  204MPD1    C1 3152   1.135   4.263  17.096  0.0432  0.4718 -0.3538
  204MPD1    C2 3153   1.014   4.230  17.151  0.0281 -0.3310 -0.0551
  204MPD1    C3 3154   0.989   4.207  17.281 -0.1596 -0.3546  0.1655
  204MPD1    C4 3155   1.094   4.199  17.370  0.1906 -0.0134  0.2927
  204MPD1    C5 3156   1.210   4.258  17.328 -0.3690 -0.0367  0.1176
  204MPD1     H 3157   0.929   4.231  17.083 -0.8171  0.5236  1.0151
  204MPD1    H1 3158   1.096   4.172  17.475 -0.5639 -0.7083  0.1253
  204MPD1    H2 3159   1.332   4.306  17.163 -0.0908 -0.1941 -0.0919
  204MPD1    H3 3160   1.287   4.272  17.403  1.1670 -3.4229 -0.8501
  204MPD1     N 3161   0.857   4.178  17.317  0.3389 -0.2753 -0.1750
  204MPD1    H5 3162   0.789   4.170  17.241  0.5877 -1.0751 -0.3139
  204MPD1    N1 3163   1.139   4.323  16.972 -0.0797 -0.0907  0.0273
  204MPD1    H6 3164   1.062   4.287  16.915 -0.5992 -0.4847  0.9710
  204MPD1    H7 3165   1.231   4.310  16.931 -0.7708 -1.5159 -1.1361
  205MPD1     C 3166   0.404   2.869   0.942  0.2868  0.3063 -0.2004
  205MPD1    C1 3167   0.344   2.984   0.976 -0.9017 -0.1601 -0.1473
  205MPD1    C2 3168   0.298   3.064   0.874 -0.5273  0.4944 -0.2639
  205MPD1    C3 3169   0.305   3.032   0.740  0.2256  0.3281  0.4407
  205MPD1    C4 3170   0.355   2.910   0.717 -0.1841  0.3982 -0.3721
  205MPD1    C5 3171   0.402   2.830   0.816  0.1139 -0.7391 -0.3803
  205MPD1     H 3172   0.244   3.155   0.899 -2.7382 -1.6085  2.5489
  205MPD1    H1 3173   0.354   2.868   0.617 -2.0828 -0.4771  0.0031
  205MPD1    H2 3174   0.449   2.807   1.019 -4.1965 -0.9737  1.4030
  205MPD1    H3 3175   0.437   2.731   0.789  0.1728 -1.3375  1.9256
  205MPD1     N 3176   0.250   3.110   0.634  0.1706  0.6215 -0.0516
  205MPD1    H5 3177   0.236   3.051   0.552 -0.5711  0.5367  0.1374
  205MPD1    N1 3178   0.359   3.043   1.104 -0.3049  0.6725 -0.1871
  205MPD1    H6 3179   0.386   2.980   1.179 -1.6543 -1.5848 -1.5916
  205MPD1    H7 3180   0.284   3.104   1.135  0.2236 -0.3512  3.0824
  206MPD1     C 3181   0.507   0.912  17.299 -0.3732 -0.0347 -0.1810
  206MPD1    C1 3182   0.577   0.841  17.206 -0.5859 -0.1081 -0.2275
  206MPD1    C2 3183   0.547   0.857  17.070 -0.3174 -0.0044  0.3578
  206MPD1    C3 3184   0.430   0.925  17.028  0.3646  0.0601  0.1766
  206MPD1    C4 3185   0.352   0.986  17.126  0.7538  0.3138 -0.0792
  206MPD1    C5 3186   0.397   0.982  17.262  0.4194  0.0477 -0.4982
  206MPD1     H 3187   0.607   0.806  16.996 -0.3529  2.9875 -1.7497
  206MPD1    H1 3188   0.262   1.043  17.106  2.8512  3.2839 -1.1256
  206MPD1    H2 3189   0.539   0.929  17.401  2.2684  0.1683 -1.0467
  206MPD1    H3 3190   0.337   1.038  17.333  2.9363  1.2328  0.7167
  206MPD1     N 3191   0.383   0.927  16.892 -0.3328  0.7894  0.5422
  206MPD1    H5 3192   0.292   0.968  16.876 -1.3783 -1.7832 -0.1321
  206MPD1    N1 3193   0.700   0.793  17.249  0.3705  0.0707 -0.0638
  206MPD1    H6 3194   0.713   0.775  17.349 -0.9454 -0.9944 -0.0783
  206MPD1    H7 3195   0.742   0.714  17.201  2.1853  0.8816  0.1734
  207MPD1     C 3196   2.642   3.257   9.457 -0.0244  0.7840 -0.6740
  207MPD1    C1 3197   2.613   3.394   9.445  0.1388 -0.3494 -0.8254
  207MPD1    C2 3198   2.669   3.487   9.531 -0.1841  0.3672  0.2185
  207MPD1    C3 3199   2.757   3.446   9.629 -0.4444  0.2135 -0.3315
  207MPD1    C4 3200   2.787   3.313   9.641  0.4656 -0.0867  0.0309
  207MPD1    C5 3201   2.730   3.220   9.557 -0.2751 -0.1434 -0.1854
  207MPD1     H 3202   2.636   3.590   9.523 -0.1905  0.4838  1.7370
  207MPD1    H1 3203   2.851   3.280   9.722  0.0785 -1.1278 -0.0890
  207MPD1    H2 3204   2.588   3.179   9.406 -1.8195 -0.1002  2.5410
  207MPD1    H3 3205   2.746   3.114   9.575  0.8104 -0.3666 -2.4383
  207MPD1     N 3206   2.822   3.541   9.713 -0.2654  0.0839 -0.2407
  207MPD1    H5 3207   2.872   3.503   9.793  0.6741  0.3885 -0.6928
  207MPD1    N1 3208   2.507   3.438   9.369 -0.6794 -0.1199 -0.3300
  207MPD1    H6 3209   2.497   3.397   9.276  1.0191  1.3512 -1.1436
  207MPD1    H7 3210   2.513   3.538   9.348  0.3050  0.0759  0.8874
  208MPD1     C 3211   0.166   1.822  17.218  0.4973  0.5399 -0.6379
  208MPD1    C1 3212   0.063   1.881  17.279 -0.4003 -0.1197  0.2920
  208MPD1    C2 3213   0.077   1.946  17.402 -0.3843 -0.4596 -0.5649
  208MPD1    C3 3214   0.195   1.953  17.466  0.2070 -0.5568 -0.0198
  208MPD1    C4 3215   0.299   1.877  17.409 -0.5924 -0.0321  0.5570
  208MPD1    C5 3216   0.282   1.814  17.287  0.0372  0.5217  0.4091
  208MPD1     H 3217   4.732   2.004  17.440 -0.2569  0.7160 -2.0940
  208MPD1    H1 3218   0.403   1.887  17.436 -0.8597  0.8273  1.2608
  208MPD1    H2 3219   0.165   1.782  17.117  0.9796  1.3434 -0.9650
  208MPD1    H3 3220   0.370   1.761  17.250 -0.4747  3.6967 -5.4736
  208MPD1     N 3221   0.196   2.032  17.579 -0.2313  0.1478 -0.3477
  208MPD1    H5 3222   0.112   2.086  17.598 -0.5736 -1.0677  1.6408
  208MPD1    N1 3223   4.687   1.909  17.198 -0.2451 -0.5389 -0.2813
  208MPD1    H6 3224   4.601   1.915  17.252  0.3495  1.8470  0.3912
  208MPD1    H7 3225   4.671   1.828  17.138 -0.7975 -0.1460 -0.6605
  209MPD1     C 3226   2.595   3.178  11.416  0.1358 -0.1234 -0.5399
  209MPD1    C1 3227   2.712   3.243  11.431  0.0654 -0.3484  0.1917
  209MPD1    C2 3228   2.721   3.354  11.355  0.7520  0.0695 -0.0836
  209MPD1    C3 3229   2.639   3.391  11.246 -0.1995 -0.4081  0.2473
  209MPD1    C4 3230   2.534   3.311  11.224  0.5412 -0.3055  0.7947
  209MPD1    C5 3231   2.511   3.210  11.314  0.1137 -0.3596  0.0737
  209MPD1     H 3232   2.804   3.423  11.365  0.7868  0.1598 -0.9500
  209MPD1    H1 3233   2.464   3.313  11.141  0.7863  0.7964  0.6088
  209MPD1    H2 3234   2.569   3.096  11.481  3.1844 -0.7823 -0.1496
  209MPD1    H3 3235   2.416   3.159  11.302 -0.0093 -0.3232  0.8774
  209MPD1     N 3236   2.678   3.489  11.159 -0.7029  0.3028  0.0836
  209MPD1    H5 3237   2.763   3.538  11.187 -3.0137  2.3179  3.4771
  209MPD1    N1 3238   2.795   3.219  11.542  0.2756  0.3617 -0.0975
  209MPD1    H6 3239   2.782   3.121  11.565 -0.2468  0.3226 -0.5633
  209MPD1    H7 3240   2.894   3.230  11.520  0.5898 -0.2243  1.0690
  210MPD1     C 3241   2.829   4.477  11.098 -0.4239 -0.5931  0.7397
  210MPD1    C1 3242   2.841   4.389  11.204 -0.3676  0.3622 -0.5249
  210MPD1    C2 3243   2.844   4.249  11.179 -0.3810 -0.6727 -0.5114
  210MPD1    C3 3244   2.854   4.207  11.044 -0.4098 -0.3953 -0.1426
  210MPD1    C4 3245   2.861   4.300  10.939  0.2284 -0.2732 -0.4348
  210MPD1    C5 3246   2.848   4.434  10.968 -0.6748  0.1097 -0.3217
  210MPD1     H 3247   2.856   4.175  11.257  1.7629  0.5696  0.3728
  210MPD1    H1 3248   2.867   4.271  10.835 -0.3324  3.1597 -1.4411
  210MPD1    H2 3249   2.825   4.585  11.111  0.3385 -0.4013 -0.6595
  210MPD1    H3 3250   2.859   4.503  10.885  2.4647 -0.1826 -0.1457
  210MPD1     N 3251   2.850   4.073  11.003  0.8301  0.1842  1.0144
  210MPD1    H5 3252   2.832   4.059  10.904 -0.8637  0.2795  1.3194
  210MPD1    N1 3253   2.830   4.434  11.339  0.3935 -0.0893 -0.1415
  210MPD1    H6 3254   2.842   4.535  11.352 -0.9916  0.2723 -1.7736
  210MPD1    H7 3255   2.879   4.386  11.414 -0.8340  0.5717  1.0965
  211MPD1     C 3256   1.054   3.183  15.929 -0.3596 -0.0327 -0.1863
  211MPD1    C1 3257   0.954   3.106  15.872  0.5507  0.3583 -0.1910
  211MPD1    C2 3258   0.843   3.071  15.948  0.0171 -0.0718  0.6813
  211MPD1    C3 3259   0.841   3.100  16.079  0.4418 -0.1138 -0.4825
  211MPD1    C4 3260   0.947   3.174  16.136 -0.2845 -0.2571  1.4275
  211MPD1    C5 3261   1.052   3.221  16.058 -0.5803  0.0119 -0.2845
  211MPD1     H 3262   0.759   3.027  15.896 -0.3913  0.8115  0.5857
  211MPD1    H1 3263   0.957   3.210  16.237  0.9219 -1.7946  1.8503
  211MPD1    H2 3264   1.140   3.217  15.873 -0.5331 -1.1102 -1.0994
  211MPD1    H3 3265   1.137   3.269  16.105 -1.2428  1.2149 -0.3223
  211MPD1     N 3266   0.726   3.070  16.157 -0.3743  0.3122  0.0654
  211MPD1    H5 3267   0.656   3.009  16.116  0.2931 -0.4353  0.0258
  211MPD1    N1 3268   0.960   3.084  15.735  0.1901 -0.3176 -0.3713
  211MPD1    H6 3269   1.055   3.048  15.731 -0.5955 -2.6445  1.8320
  211MPD1    H7 3270   0.895   3.009  15.710 -0.2150 -0.5949  1.5362
  212MPD1     C 3271   0.029   0.427  16.237 -0.1578  0.0474 -0.1366
  212MPD1    C1 3272   4.726   0.536  16.315  0.5859 -0.3404  0.2056
  212MPD1    C2 3273   4.624   0.509  16.402 -0.3952  0.8528  0.0232
  212MPD1    C3 3274   4.581   0.377  16.437  0.3786 -0.5721  0.2577
  212MPD1    C4 3275   4.647   0.274  16.373 -0.0204 -1.0523  0.3034
  212MPD1    C5 3276   4.722   0.302  16.264 -0.8846  0.0155 -0.0722
  212MPD1     H 3277   4.586   0.596  16.455 -1.3209  1.9122 -2.3828
  212MPD1    H1 3278   4.609   0.172  16.380 -0.5421 -0.7570  1.7828
  212MPD1    H2 3279   0.091   0.443  16.150  1.6673  1.3181  1.3947
  212MPD1    H3 3280   0.019   0.218  16.206 -0.3769 -1.4744  2.3696
  212MPD1     N 3281   4.488   0.351  16.540  0.2582 -0.1101 -0.0154
  212MPD1    H5 3282   4.462   0.255  16.562  3.0931 -0.0777  3.4834
  212MPD1    N1 3283   0.019   0.670  16.278  0.1896 -0.2478  0.1375
  212MPD1    H6 3284   0.108   0.670  16.228  0.4501  1.9870  0.6135
  212MPD1    H7 3285   0.030   0.713  16.369  0.1672  0.4732 -0.2032
  213MPD1     C 3286   2.446   1.545  15.725  0.8347  0.3004  0.0391
  213MPD1    C1 3287   2.380   1.430  15.673  0.6717 -0.5534  0.2232
  213MPD1    C2 3288   2.375   1.422  15.539 -0.1085  0.1767  0.9520
  213MPD1    C3 3289   2.390   1.527  15.456  0.1520 -0.1124  0.0922
  213MPD1    C4 3290   2.435   1.646  15.508  0.4328 -0.7727  0.1124
  213MPD1    C5 3291   2.461   1.657  15.642  1.0758 -0.0835  1.1251
  213MPD1     H 3292   2.350   1.330  15.489  3.3431 -0.5503  0.5337
  213MPD1    H1 3293   2.457   1.733  15.447  0.5577 -0.9345 -0.0725
  213MPD1    H2 3294   2.466   1.557  15.831  1.1974 -0.7137  0.0879
  213MPD1    H3 3295   2.506   1.748  15.681  1.5523 -0.5545  1.6844
  213MPD1     N 3296   2.364   1.503  15.314 -0.1877 -0.7705 -0.0721
  213MPD1    H5 3297   2.332   1.411  15.286 -2.3230  0.0757 -0.4168
  213MPD1    N1 3298   2.388   1.300  15.746  0.5491 -0.4468 -0.2018
  213MPD1    H6 3299   2.316   1.243  15.703 -1.3354  1.9343 -0.2241
  213MPD1    H7 3300   2.357   1.321  15.841 -1.3340 -2.1092 -0.4566
  214MPD1     C 3301   2.148   0.782  15.082  0.0615 -0.6377 -0.6119
  214MPD1    C1 3302   2.130   0.835  14.961 -0.4948  0.5633  0.1686
  214MPD1    C2 3303   2.152   0.969  14.951 -0.1432 -0.9206  0.6436
  214MPD1    C3 3304   2.200   1.049  15.058 -0.1350  0.1776 -0.3113
  214MPD1    C4 3305   2.230   0.985  15.176  0.2194  0.8186 -0.0345
  214MPD1    C5 3306   2.205   0.853  15.187 -0.1489 -0.5167 -0.4409
  214MPD1     H 3307   2.123   1.022  14.861 -1.6423 -1.8937  0.5573
  214MPD1    H1 3308   2.281   1.034  15.258  2.7388 -0.6406 -0.7551
  214MPD1    H2 3309   2.130   0.679  15.113 -1.5052 -0.7852 -2.0576
  214MPD1    H3 3310   2.219   0.810  15.286 -0.0335  2.1602  0.7131
  214MPD1     N 3311   2.229   1.187  15.053 -0.0626  0.1221 -0.0619
  214MPD1    H5 3312   2.249   1.234  15.141  0.5213 -0.0679 -0.0943
  214MPD1    N1 3313   2.066   0.766  14.855 -0.0415 -0.0751 -0.0925
  214MPD1    H6 3314   2.073   0.819  14.769  1.2646 -0.4516 -0.2197
  214MPD1    H7 3315   2.101   0.671  14.845  1.5200  0.3714  1.1617
  215MPD1     C 3316   3.391   3.350  10.597  0.2595  0.8634 -0.4906
  215MPD1    C1 3317   3.269   3.401  10.633 -0.7068  0.1976 -0.5522
  215MPD1    C2 3318   3.188   3.327  10.717 -0.5255 -0.0084  0.2970
  215MPD1    C3 3319   3.208   3.197  10.745 -0.4530 -0.4306  0.3011
  215MPD1    C4 3320   3.328   3.139  10.692 -0.6909  0.2527 -0.0455
  215MPD1    C5 3321   3.420   3.220  10.628  0.2485 -1.1607 -0.5952
  215MPD1     H 3322   3.099   3.369  10.764 -0.2435  1.5962 -0.6406
  215MPD1    H1 3323   3.347   3.033  10.702  1.5168  0.6449 -0.1916
  215MPD1    H2 3324   3.473   3.409  10.557  0.7025 -0.5322 -1.6348
  215MPD1    H3 3325   3.515   3.183  10.591  2.1285  1.7733  1.2199
  215MPD1     N 3326   3.112   3.126  10.817 -0.1568  0.2546  0.1977
  215MPD1    H5 3327   3.020   3.167  10.823  0.1069  0.9613 -0.6681
  215MPD1    N1 3328   3.246   3.533  10.604 -0.3920 -0.3948  0.7219
  215MPD1    H6 3329   3.150   3.561  10.590 -0.5690 -1.9581 -1.1677
  215MPD1    H7 3330   3.302   3.569  10.526 -1.0018 -0.1504  0.4015
  216MPD1     C 3331   4.277   1.332  17.022 -0.1740  0.7002 -0.1707
  216MPD1    C1 3332   4.342   1.255  16.928  1.0719  0.1586 -0.0396
  216MPD1    C2 3333   4.376   1.124  16.968  0.0840  0.0337 -0.1950
  216MPD1    C3 3334   4.338   1.077  17.093 -0.3326 -0.3031  0.2875
  216MPD1    C4 3335   4.270   1.164  17.188  0.0637 -0.0347 -0.4379
  216MPD1    C5 3336   4.238   1.284  17.147 -0.1694  0.0897  0.4859
  216MPD1     H 3337   4.428   1.055  16.903  0.3614 -0.1641  0.2357
  216MPD1    H1 3338   4.231   1.137  17.286  1.3794  0.6748  0.2771
  216MPD1    H2 3339   4.252   1.437  17.005 -0.9591  0.5569  0.0774
  216MPD1    H3 3340   4.172   1.339  17.212  0.1110 -0.7269  1.4646
  216MPD1     N 3341   4.385   0.945  17.126  0.2254 -0.0020  0.1829
  216MPD1    H5 3342   4.450   0.903  17.061  0.3327 -0.6954  0.7409
  216MPD1    N1 3343   4.336   1.295  16.793  1.0932  0.5416  0.6439
  216MPD1    H6 3344   4.413   1.255  16.739 -0.6694 -0.9576 -0.7730
  216MPD1    H7 3345   4.333   1.396  16.780  0.4063  0.2762 -1.2255
  217MPD1     C 3346   0.730   2.537   8.282  0.7796  0.5561  0.1391
  217MPD1    C1 3347   0.839   2.454   8.291  0.2308  0.2860  0.1186
  217MPD1    C2 3348   0.854   2.375   8.407 -0.0323 -0.4907 -0.2180
  217MPD1    C3 3349   0.754   2.384   8.506 -0.3539 -0.7399 -0.6655
  217MPD1    C4 3350   0.638   2.449   8.480  0.3129  0.2529 -0.4697
  217MPD1    C5 3351   0.634   2.526   8.374 -0.2345 -0.0474  0.0602
  217MPD1     H 3352   0.932   2.300   8.421 -0.6429 -0.9213  0.9261
  217MPD1    H1 3353   0.559   2.468   8.552 -0.5864 -1.1961 -1.0744
  217MPD1    H2 3354   0.725   2.602   8.196 -1.7220  0.0647 -0.0776
  217MPD1    H3 3355   0.552   2.595   8.362  0.5159  0.8972  0.3454
  217MPD1     N 3356   0.752   2.312   8.627  0.3355  0.0894 -0.2054
  217MPD1    H5 3357   0.671   2.325   8.687  2.0924  0.2847  2.1439
  217MPD1    N1 3358   0.939   2.471   8.198  0.2540 -0.0626  0.2457
  217MPD1    H6 3359   0.995   2.387   8.186  0.2585 -0.3224  2.0781
  217MPD1    H7 3360   0.896   2.476   8.106  1.2454 -1.7222 -0.3049
  218MPD1     C 3361   2.550   2.974  13.348  0.3386 -0.3768  0.1636
  218MPD1    C1 3362   2.543   2.837  13.346 -0.5541 -0.2623 -0.3927
  218MPD1    C2 3363   2.603   2.776  13.240 -0.2160 -0.6575 -0.0036
  218MPD1    C3 3364   2.669   2.854  13.143 -0.3838  0.0259 -0.4179
  218MPD1    C4 3365   2.680   2.992  13.156 -1.0593  0.1184 -0.6578
  218MPD1    C5 3366   2.619   3.048  13.261 -0.2008 -0.2324 -0.5596
  218MPD1     H 3367   2.606   2.669  13.226  1.5149 -0.3195 -2.2589
  218MPD1    H1 3368   2.726   3.061  13.087  0.0073  0.3125  0.2481
  218MPD1    H2 3369   2.518   3.023  13.439  0.9326  1.2895 -0.5295
  218MPD1    H3 3370   2.616   3.156  13.273  2.1330 -0.0773 -1.4258
  218MPD1     N 3371   2.715   2.783  13.030 -0.9027  0.2686 -0.8527
  218MPD1    H5 3372   2.701   2.683  13.042 -0.7154  0.0420 -2.5116
  218MPD1    N1 3373   2.495   2.771  13.457  0.3046  0.0413 -0.1873
  218MPD1    H6 3374   2.433   2.826  13.516 -0.3438 -1.1623  0.2639
  218MPD1    H7 3375   2.447   2.682  13.441  3.0467 -1.3755 -0.5465
  219MPD1     C 3376   3.264   3.049  12.292  0.6032 -0.1863  0.4909
  219MPD1    C1 3377   3.217   2.937  12.225  0.6337  0.4451  0.1613
  219MPD1    C2 3378   3.147   2.851  12.316  0.1308  0.2790 -0.0768
  219MPD1    C3 3379   3.138   2.876  12.453 -0.0391 -0.4795 -0.3152
  219MPD1    C4 3380   3.206   2.984  12.512 -0.3081  0.0052 -0.7240
  219MPD1    C5 3381   3.260   3.074  12.424  0.4504  0.4674 -0.3804
  219MPD1     H 3382   3.086   2.776  12.268  1.0322 -0.6035  0.1536
  219MPD1    H1 3383   3.207   3.011  12.617  0.6015 -0.5289 -0.5941
  219MPD1    H2 3384   3.308   3.130  12.234 -1.6396  0.2063 -0.6517
  219MPD1    H3 3385   3.297   3.173  12.449  1.1356 -0.0009  0.4623
  219MPD1     N 3386   3.060   2.802  12.538 -0.3982 -0.3353  0.3322
  219MPD1    H5 3387   3.091   2.798  12.635 -2.1742 -1.2397  0.8483
  219MPD1    N1 3388   3.215   2.924  12.089 -0.5341  0.2615 -0.2831
  219MPD1    H6 3389   3.300   2.960  12.045 -0.6808 -0.1648 -0.9248
  219MPD1    H7 3390   3.200   2.829  12.056  1.5997  0.6107 -2.2818
  220MPD1     C 3391   2.490   2.097  10.925  0.2515  0.1866  0.6174
  220MPD1    C1 3392   2.493   2.143  11.055 -0.1337  0.0233  0.1348
  220MPD1    C2 3393   2.384   2.222  11.097  0.5904 -0.2468  0.1917
  220MPD1    C3 3394   2.279   2.246  11.016 -0.0219 -0.1108  0.7533
  220MPD1    C4 3395   2.271   2.174  10.898  0.6910  0.6611  0.2932
  220MPD1    C5 3396   2.377   2.110  10.846 -0.2307 -0.1097  0.0318
  220MPD1     H 3397   2.377   2.269  11.195 -0.9989 -0.3221  0.1086
  220MPD1    H1 3398   2.187   2.174  10.828  0.8831  0.7962  0.0648
  220MPD1    H2 3399   2.563   2.029  10.882  0.3000  0.1068  0.8260
  220MPD1    H3 3400   2.371   2.051  10.755 -0.4167 -0.7735  0.4719
  220MPD1     N 3401   2.174   2.321  11.075 -0.6414 -0.8745  0.0075
  220MPD1    H5 3402   2.186   2.357  11.169  0.3023  0.5245 -0.6639
  220MPD1    N1 3403   2.619   2.146  11.115  0.7437  1.0486  0.0004
  220MPD1    H6 3404   2.679   2.071  11.082 -0.8963  0.1639 -0.9009
  220MPD1    H7 3405   2.618   2.140  11.216 -0.4870  2.1993  0.0579
  221MPD1     C 3406   0.910   0.966  16.032 -0.0919 -0.9971 -0.4503
  221MPD1    C1 3407   0.969   1.060  16.098 -0.1879  0.2149 -0.4081
  221MPD1    C2 3408   0.916   1.188  16.108  0.1926 -0.1485  0.5037
  221MPD1    C3 3409   0.815   1.231  16.021 -0.6196  0.0179 -0.0328
  221MPD1    C4 3410   0.752   1.134  15.945  0.4733 -0.7202  0.6497
  221MPD1    C5 3411   0.799   1.005  15.956 -0.0080  0.6448 -0.0957
  221MPD1     H 3412   0.967   1.266  16.164  1.3708 -1.9687  1.9866
  221MPD1    H1 3413   0.686   1.161  15.864 -0.0885  0.2188  1.4172
  221MPD1    H2 3414   0.940   0.862  16.027 -1.3576 -1.4881  2.1147
  221MPD1    H3 3415   0.744   0.937  15.892 -0.4525 -1.0673  2.1177
  221MPD1     N 3416   0.773   1.366  16.014  0.4045 -0.4051 -0.4422
  221MPD1    H5 3417   0.709   1.386  15.938 -0.3719  0.6185  0.4748
  221MPD1    N1 3418   1.062   1.019  16.196 -1.1041 -0.6752 -0.1796
  221MPD1    H6 3419   1.129   0.947  16.171  0.1437  0.5729 -0.3839
  221MPD1    H7 3420   1.120   1.097  16.222  0.6822 -2.9199  2.4905
  222MPD1     C 3421   0.803   2.020  17.302 -0.0432  0.3273 -0.3562
  222MPD1    C1 3422   0.835   1.881  17.318 -0.1377  0.2151  0.8535
  222MPD1    C2 3423   0.756   1.804  17.402 -0.1059  0.2763  0.1999
  222MPD1    C3 3424   0.672   1.869  17.497 -0.6728 -0.1562 -0.5204
  222MPD1    C4 3425   0.674   2.009  17.500  0.1566  0.3280  0.0208
  222MPD1    C5 3426   0.719   2.077  17.394 -0.0576 -0.2430 -0.8494
  222MPD1     H 3427   0.761   1.696  17.398  0.2261  0.3822 -1.9729
  222MPD1    H1 3428   0.627   2.069  17.577 -0.7241 -1.0623  0.5564
  222MPD1    H2 3429   0.861   2.084  17.236 -0.3275  1.2057  0.2417
  222MPD1    H3 3430   0.714   2.185  17.401  2.3254 -0.2845  1.6227
  222MPD1     N 3431   0.604   1.803  17.605  0.3109 -0.1010 -0.1715
  222MPD1    H5 3432   0.564   1.867  17.673  1.7174 -0.7496  1.2542
  222MPD1    N1 3433   0.905   1.814  17.215  0.8880 -0.4943 -0.4451
  222MPD1    H6 3434   0.955   1.731  17.244 -2.6771 -1.5928  2.5500
  222MPD1    H7 3435   0.975   1.873  17.170  1.3494 -0.1403  0.7590
  223MPD1     C 3436   0.224   0.862   0.300 -0.2814 -0.5170 -0.7389
  223MPD1    C1 3437   0.224   0.956   0.395 -0.4396 -0.2210 -0.5303
  223MPD1    C2 3438   0.254   1.086   0.363 -0.0198 -0.6528  0.1370
  223MPD1    C3 3439   0.274   1.121   0.229  0.1983 -0.0471  0.2643
  223MPD1    C4 3440   0.258   1.031   0.131 -0.1358 -0.0138 -0.4095
  223MPD1    C5 3441   0.230   0.902   0.173 -0.1275  0.1155 -1.2321
  223MPD1     H 3442   0.256   1.169   0.432 -2.6233 -0.8493  0.4438
  223MPD1    H1 3443   0.249   1.060   0.027  0.1692 -0.8617 -0.6741
  223MPD1    H2 3444   0.220   0.758   0.331 -3.3402 -0.5811 -1.3334
  223MPD1    H3 3445   0.221   0.826   0.096  0.6007  0.0297 -1.2318
  223MPD1     N 3446   0.305   1.258   0.212 -0.5080  0.1687 -0.3556
  223MPD1    H5 3447   0.311   1.322   0.291 -1.8483  0.9946 -0.9236
  223MPD1    N1 3448   0.224   0.913   0.531 -0.0304 -0.4240  0.2528
  223MPD1    H6 3449   0.173   0.826   0.535 -1.3829  0.3240 -1.0221
  223MPD1    H7 3450   0.192   0.980   0.601  0.3764 -0.8955  0.8867
  224MPD1     C 3451   1.954   3.072   9.588  0.2489 -0.2079 -0.3831
  224MPD1    C1 3452   1.989   2.950   9.641  0.3021  0.4852  0.3720
  224MPD1    C2 3453   1.891   2.853   9.677  0.0466 -0.2009  0.5140
  224MPD1    C3 3454   1.756   2.885   9.683 -0.6113 -0.2011 -0.0043
  224MPD1    C4 3455   1.736   3.013   9.644 -0.7199 -0.2426 -0.5280
  224MPD1    C5 3456   1.823   3.106   9.600 -0.7883 -0.5885 -0.3509
  224MPD1     H 3457   1.934   2.754   9.692  0.2692 -0.2221 -0.2257
  224MPD1    H1 3458   1.632   3.042   9.636 -0.6828  0.0290 -0.0131
  224MPD1    H2 3459   2.028   3.137   9.541  0.0716  0.6961  0.5878
  224MPD1    H3 3460   1.786   3.198   9.556  0.7554  1.1818  2.0655
  224MPD1     N 3461   1.653   2.797   9.721  0.1216  0.2400 -0.2974
  224MPD1    H5 3462   1.561   2.836   9.737  0.0747 -0.5971  1.5173
  224MPD1    N1 3463   2.119   2.900   9.619  0.0532 -0.1996 -0.7357
  224MPD1    H6 3464   2.184   2.977   9.602  1.9792 -1.5595  0.4914
  224MPD1    H7 3465   2.156   2.847   9.697  0.6651  0.7589 -0.3731
  225MPD1     C 3466   2.698   3.668  12.271  0.1713 -0.0136 -0.1803
  225MPD1    C1 3467   2.598   3.633  12.183 -0.2450  0.3844 -0.0958
  225MPD1    C2 3468   2.476   3.592  12.241 -0.1624  0.0705 -0.1277
  225MPD1    C3 3469   2.453   3.597  12.378  0.0543  0.2989 -0.1771
  225MPD1    C4 3470   2.554   3.646  12.458 -0.6967  0.7259 -0.5197
  225MPD1    C5 3471   2.679   3.662  12.407 -0.5963 -0.5823  0.2199
  225MPD1     H 3472   2.397   3.563  12.172  0.4828 -1.0621 -0.3893
  225MPD1    H1 3473   2.542   3.654  12.566  0.4045 -0.7788 -0.2704
  225MPD1    H2 3474   2.797   3.700  12.240  0.1547 -0.0240 -0.2441
  225MPD1    H3 3475   2.761   3.698  12.468  0.6231 -1.3092 -0.9803
  225MPD1     N 3476   2.331   3.563  12.436  0.0822 -0.3435 -0.5059
  225MPD1    H5 3477   2.334   3.559  12.538 -0.2436 -2.1456 -0.5660
  225MPD1    N1 3478   2.606   3.659  12.045 -0.3350  0.4700  0.0786
  225MPD1    H6 3479   2.559   3.589  11.988 -2.7085  0.8426  1.5643
  225MPD1    H7 3480   2.701   3.668  12.011 -0.6358  1.6381 -0.4573
  226MPD1     C 3481   0.948   2.421   9.692  0.0370 -0.3980 -0.2145
  226MPD1    C1 3482   1.055   2.506   9.679  0.1190 -0.0511  0.7608
  226MPD1    C2 3483   1.028   2.633   9.728  0.6276 -0.2918  0.4404
  226MPD1    C3 3484   0.904   2.676   9.772  0.1525 -0.0888 -0.1678
  226MPD1    C4 3485   0.799   2.586   9.775  0.5114  0.1292 -0.4367
  226MPD1    C5 3486   0.822   2.465   9.723 -0.1075  0.0301 -0.6041
  226MPD1     H 3487   1.101   2.713   9.727 -1.4364  1.6458  3.8355
  226MPD1    H1 3488   0.701   2.611   9.813  1.0349  1.5557 -0.0130
  226MPD1    H2 3489   0.948   2.319   9.654 -0.4622 -0.7208  0.6356
  226MPD1    H3 3490   0.746   2.388   9.727 -0.6950  0.6484  0.1592
  226MPD1     N 3491   0.892   2.814   9.811 -0.9581  0.5876  0.2491
  226MPD1    H5 3492   0.979   2.865   9.812  0.8937 -2.5316 -1.2603
  226MPD1    N1 3493   1.180   2.462   9.647 -0.6072  0.5883  0.7595
  226MPD1    H6 3494   1.243   2.533   9.612  0.3031  0.1268  1.4665
  226MPD1    H7 3495   1.170   2.378   9.589  3.0705 -0.5948  1.8435
  227MPD1     C 3496   0.221   3.665   9.744  0.9671 -0.3778 -0.0518
  227MPD1    C1 3497   0.320   3.697   9.840 -0.8805 -0.0477 -0.2237
  227MPD1    C2 3498   0.422   3.607   9.870 -0.5527  0.0022  0.0162
  227MPD1    C3 3499   0.421   3.476   9.811  0.0658 -0.4842  0.2194
  227MPD1    C4 3500   0.314   3.444   9.726 -0.4507  0.2852 -0.2006
  227MPD1    C5 3501   0.231   3.547   9.684  1.0393  0.3817 -0.0605
  227MPD1     H 3502   0.505   3.642   9.930 -0.5424  2.6894 -1.5587
  227MPD1    H1 3503   0.305   3.345   9.682  1.7188 -0.4423  0.9827
  227MPD1    H2 3504   0.154   3.741   9.704  0.7596 -0.7273 -0.3626
  227MPD1    H3 3505   0.159   3.517   9.609  1.7437 -1.6443  0.0730
  227MPD1     N 3506   0.528   3.394   9.852  0.0185  0.2732 -0.4638
  227MPD1    H5 3507   0.589   3.428   9.926  1.0809 -1.4751 -0.5524
  227MPD1    N1 3508   0.338   3.836   9.873 -0.4198  0.4473 -0.1057
  227MPD1    H6 3509   0.257   3.895   9.855 -0.8394 -0.2906 -0.6371
  227MPD1    H7 3510   0.363   3.851   9.970  0.5227 -2.8981  0.1793
  228MPD1     C 3511   3.642   1.375  13.222  0.0030  0.0898  0.3872
  228MPD1    C1 3512   3.526   1.379  13.297 -0.6682  0.4419 -0.1748
  228MPD1    C2 3513   3.411   1.339  13.236  0.2316 -0.7343 -0.6575
  228MPD1    C3 3514   3.415   1.290  13.105 -0.2050 -0.4369  0.4712
  228MPD1    C4 3515   3.532   1.289  13.028  0.1311  0.6137  0.5032
  228MPD1    C5 3516   3.642   1.335  13.089 -0.2864  0.4372 -0.2696
  228MPD1     H 3517   3.317   1.350  13.288  0.5158 -0.8676 -0.1048
  228MPD1    H1 3518   3.536   1.261  12.924 -0.0802  0.7117  0.4685
  228MPD1    H2 3519   3.740   1.381  13.268  0.6828 -0.6963 -0.9663
  228MPD1    H3 3520   3.736   1.338  13.035  0.4488  0.5030  1.0330
  228MPD1     N 3521   3.295   1.239  13.061  0.1567 -0.1878  0.1075
  228MPD1    H5 3522   3.216   1.242  13.124  0.5020  0.1511  0.5221
  228MPD1    N1 3523   3.535   1.397  13.440 -0.4915  0.2087 -0.2131
  228MPD1    H6 3524   3.613   1.461  13.456  1.0256 -1.6926  0.0025
  228MPD1    H7 3525   3.456   1.453  13.471 -0.5607  0.6532 -1.2127
  229MPD1     C 3526   2.983   0.192  14.300 -0.7328 -0.7883 -0.0994
  229MPD1    C1 3527   2.996   0.261  14.417 -0.1100  0.1435  0.2455
  229MPD1    C2 3528   3.081   0.204  14.509 -0.7406  0.7336  0.1897
  229MPD1    C3 3529   3.158   0.085  14.485 -0.1829 -0.4471 -0.5907
  229MPD1    C4 3530   3.141   0.026  14.364 -1.1752 -0.3674  0.3644
  229MPD1    C5 3531   3.050   0.075  14.273 -0.2823 -0.2880 -0.1536
  229MPD1     H 3532   3.080   0.254  14.606  0.0069 -1.5322  1.3530
  229MPD1    H1 3533   3.196   4.679  14.326  0.3669  0.3366  1.0316
  229MPD1    H2 3534   2.906   0.221  14.230  0.8323 -2.0866 -2.3645
  229MPD1    H3 3535   3.033   0.029  14.177 -1.5477  0.6953 -0.3992
  229MPD1     N 3536   3.263   0.040  14.569  0.2161  0.6353 -0.3062
  229MPD1    H5 3537   3.319   4.698  14.541 -3.3799 -1.7559 -0.6025
  229MPD1    N1 3538   2.909   0.369  14.450  0.5295 -0.1412  0.0275
  229MPD1    H6 3539   2.943   0.431  14.523  0.4199  1.0310 -0.9047
  229MPD1    H7 3540   2.882   0.421  14.367 -2.9867 -0.9446  0.6792
  230MPD1     C 3541   3.821   0.059  15.537  0.1263 -0.4909 -0.4183
  230MPD1    C1 3542   3.783   4.671  15.493 -0.4867  0.3437 -0.0309
  230MPD1    C2 3543   3.735   4.655  15.360 -0.4453 -0.3994  0.4245
  230MPD1    C3 3544   3.715   0.026  15.282  0.3621  0.1177  0.1178
  230MPD1    C4 3545   3.750   0.150  15.321 -0.6792  0.4218  0.1326
  230MPD1    C5 3546   3.795   0.161  15.449  0.3891 -0.0074 -1.0024
  230MPD1     H 3547   3.716   4.555  15.322 -0.5080 -0.3246  0.2617
  230MPD1    H1 3548   3.723   0.242  15.270  0.2258  1.4536  1.4852
  230MPD1    H2 3549   3.851   0.073  15.641 -0.8607  0.6588 -0.2905
  230MPD1    H3 3550   3.808   0.261  15.489  0.6642 -0.4444  0.0073
  230MPD1     N 3551   3.662   4.737  15.155 -0.0302 -0.3407 -0.1034
  230MPD1    H5 3552   3.667   4.641  15.122 -0.4140 -0.4941  0.2826
  230MPD1    N1 3553   3.815   4.554  15.567  0.2210  0.1866 -0.0346
  230MPD1    H6 3554   3.786   4.565  15.665 -2.2225 -0.2688 -0.7056
  230MPD1    H7 3555   3.763   4.478  15.525  1.2023 -0.3873 -0.1847
  231MPD1     C 3556   1.505   0.762  14.344  0.1020 -0.2274  0.4318
  231MPD1    C1 3557   1.490   0.668  14.442  0.3914 -0.2420  0.2216
  231MPD1    C2 3558   1.543   0.700  14.571 -0.7273 -0.0181 -0.4039
  231MPD1    C3 3559   1.610   0.819  14.596 -0.0600 -0.5215 -0.3757
  231MPD1    C4 3560   1.635   0.903  14.487 -0.6133 -0.2804  0.7129
  231MPD1    C5 3561   1.588   0.867  14.367 -0.1792  0.0340  0.1294
  231MPD1     H 3562   1.518   0.633  14.652 -1.5268 -0.3894 -0.9480
  231MPD1    H1 3563   1.686   0.997  14.502 -2.0527  0.8383 -1.4381
  231MPD1    H2 3564   1.452   0.751  14.250  1.0293  0.7310 -0.2074
  231MPD1    H3 3565   1.602   0.932  14.282  3.7312 -0.9774 -0.0110
  231MPD1     N 3566   1.645   0.837  14.730 -0.1388  0.5857  0.1787
  231MPD1    H5 3567   1.609   0.764  14.791  0.2172 -0.3195 -0.7031
  231MPD1    N1 3568   1.406   0.557  14.430  0.0565 -0.5492  0.2478
  231MPD1    H6 3569   1.441   0.482  14.489 -1.8170 -1.3643  0.3394
  231MPD1    H7 3570   1.409   0.525  14.333  2.8068  0.9107 -0.1395
  232MPD1     C 3571   3.733   0.247  17.712  0.8141  0.0160 -0.4472
  232MPD1    C1 3572   3.650   0.202   0.063 -0.4848 -0.4002  0.3576
  232MPD1    C2 3573   3.528   0.158   0.028 -0.5788  0.5757  0.4328
  232MPD1    C3 3574   3.485   0.155  17.645  0.5456 -0.0631 -0.3783
  232MPD1    C4 3575   3.575   0.200  17.548 -0.1176 -0.5952 -0.5357
  232MPD1    C5 3576   3.694   0.247  17.577  0.6830 -0.0714  0.5751
  232MPD1     H 3577   3.469   0.114   0.107  0.9963 -1.8853  0.2591
  232MPD1    H1 3578   3.550   0.207  17.443 -0.5776  0.5365 -0.3578
  232MPD1    H2 3579   3.834   0.284  17.731  0.9597 -0.6383  0.0652
  232MPD1    H3 3580   3.763   0.281  17.502 -1.8685  2.0433 -0.8038
  232MPD1     N 3581   3.358   0.084  17.620 -0.7227  0.2398 -0.0738
  232MPD1    H5 3582   3.306   0.044  17.697 -0.0908  0.5165  0.4953
  232MPD1    N1 3583   3.692   0.186   0.195  0.1839 -0.0582 -0.9462
  232MPD1    H6 3584   3.608   0.193   0.253  0.5149  2.0435 -0.7281
  232MPD1    H7 3585   3.767   0.250   0.222 -0.1442 -0.7673  1.5920
  233MPD1     C 3586   0.015   2.077   0.944  0.4978  0.5000  0.8839
  233MPD1    C1 3587   4.725   2.192   1.012 -0.5220 -0.1044 -0.1230
  233MPD1    C2 3588   0.044   2.209   1.142  0.4670  0.4753 -0.5695
  233MPD1    C3 3589   0.107   2.103   1.202  0.6645  0.0392 -0.1495
  233MPD1    C4 3590   0.117   1.980   1.136 -0.7755  0.0768  0.1966
  233MPD1    C5 3591   0.065   1.967   1.009  0.2121 -0.2717 -0.4133
  233MPD1     H 3592   0.032   2.301   1.198 -1.2802 -1.0449  1.5195
  233MPD1    H1 3593   0.168   1.897   1.184 -0.2532  0.8896  1.0574
  233MPD1    H2 3594   4.725   2.064   0.840  3.1916 -0.6640  0.2907
  233MPD1    H3 3595   0.083   1.871   0.960  1.2080  0.0123 -0.6014
  233MPD1     N 3596   0.177   2.114   1.320  0.5976  0.1626  0.0378
  233MPD1    H5 3597   0.206   2.030   1.370 -0.7180 -1.2982 -1.6450
  233MPD1    N1 3598   4.684   2.305   0.942  0.5537 -0.2494  0.5930
  233MPD1    H6 3599   4.626   2.363   1.002  1.1650  0.3490  0.5970
  233MPD1    H7 3600   4.633   2.291   0.855  0.6369  1.9022  0.2135
  234MPD1     C 3601   1.668   0.742   9.591  0.1424  0.1019  0.0512
  234MPD1    C1 3602   1.719   0.838   9.679 -0.8657 -0.2835  0.3939
  234MPD1    C2 3603   1.696   0.973   9.655 -0.1257 -0.4935  0.2160
  234MPD1    C3 3604   1.607   1.011   9.558 -0.3926 -0.0427 -0.3206
  234MPD1    C4 3605   1.547   0.912   9.483  0.1942  0.0622 -0.0267
  234MPD1    C5 3606   1.574   0.776   9.499 -0.1814 -0.7166 -0.9322
  234MPD1     H 3607   1.745   1.052   9.712  0.9350 -1.4179  0.5960
  234MPD1    H1 3608   1.467   0.929   9.412  1.3210 -0.6293 -1.4447
  234MPD1    H2 3609   1.701   0.639   9.599 -0.5283 -0.1399 -0.3216
  234MPD1    H3 3610   1.528   0.696   9.443 -0.4190 -2.1655  1.2971
  234MPD1     N 3611   1.566   1.145   9.542  0.2904  0.2820 -0.0425
  234MPD1    H5 3612   1.619   1.212   9.598  1.7089 -2.8464  2.3940
  234MPD1    N1 3613   1.829   0.804   9.771 -0.3256  0.4656  0.4789
  234MPD1    H6 3614   1.827   0.710   9.811 -1.1263  0.2398 -0.0936
  234MPD1    H7 3615   1.823   0.869   9.849 -2.2622 -0.8831  1.4493
  235MPD1     C 3616   2.451   3.567   9.950  0.1760  0.5137 -0.1143
  235MPD1    C1 3617   2.442   3.677   9.866  0.0815  0.3223  0.6542
  235MPD1    C2 3618   2.499   3.790   9.919 -0.0644 -0.3986  0.2533
  235MPD1    C3 3619   2.567   3.793  10.045 -1.0517  0.7048 -0.0002
  235MPD1    C4 3620   2.584   3.677  10.114 -0.1207  0.4400 -0.1994
  235MPD1    C5 3621   2.534   3.562  10.059  0.5393  0.6500 -1.0926
  235MPD1     H 3622   2.499   3.885   9.867  0.4213  0.0883  1.1371
  235MPD1    H1 3623   2.634   3.672  10.210 -0.0186 -0.4311 -0.2995
  235MPD1    H2 3624   2.391   3.478   9.933  0.9392 -0.3592  1.7465
  235MPD1    H3 3625   2.528   3.474  10.122 -0.0855  0.2152 -1.7449
  235MPD1     N 3626   2.638   3.906  10.088  0.2038  0.3201 -0.5325
  235MPD1    H5 3627   2.619   3.989  10.033  0.3182  0.3919 -0.4646
  235MPD1    N1 3628   2.342   3.680   9.775 -0.9177 -0.1266 -0.9325
  235MPD1    H6 3629   2.313   3.586   9.746  3.7258 -1.0441 -2.6509
  235MPD1    H7 3630   2.349   3.742   9.695  0.6265  1.5994  0.5546
  236MPD1     C 3631   1.888   0.454   9.548 -0.5295  0.4595 -0.9101
  236MPD1    C1 3632   1.838   0.361   9.639 -0.6404 -0.1460 -0.0604
  236MPD1    C2 3633   1.922   0.319   9.738  0.4810 -0.5678 -0.3805
  236MPD1    C3 3634   2.052   0.356   9.747  0.4522  0.1338  0.2956
  236MPD1    C4 3635   2.101   0.446   9.656 -0.1857 -0.1664 -0.0022
  236MPD1    C5 3636   2.018   0.490   9.556 -1.1986  0.4355  0.5658
  236MPD1     H 3637   1.881   0.243   9.804 -0.2928  0.5219  0.3804
  236MPD1    H1 3638   2.207   0.470   9.650  0.2418 -2.0943 -0.2483
  236MPD1    H2 3639   1.835   0.485   9.459 -1.2766 -0.6684 -0.8495
  236MPD1    H3 3640   2.065   0.553   9.482 -2.1404  0.7781  0.2635
  236MPD1     N 3641   2.137   0.327   9.857  0.8454  0.1650  0.0383
  236MPD1    H5 3642   2.227   0.375   9.860  0.3280  1.2007 -0.8332
  236MPD1    N1 3643   1.712   0.297   9.618  0.5944  0.5583  0.1903
  236MPD1    H6 3644   1.671   0.255   9.702 -0.2738  1.5200  0.2538
  236MPD1    H7 3645   1.647   0.366   9.580  0.6437  0.5708  0.1299
  237MPD1     C 3646   2.325   3.075  15.749  0.1535 -0.4842  0.2382
  237MPD1    C1 3647   2.288   3.067  15.617  0.4777 -0.4830  0.3111
  237MPD1    C2 3648   2.154   3.057  15.593 -0.4303 -0.8332  0.3548
  237MPD1    C3 3649   2.056   3.073  15.691  0.3122  0.1933 -0.1772
  237MPD1    C4 3650   2.098   3.077  15.826  0.0692  0.5098 -0.2739
  237MPD1    C5 3651   2.232   3.078  15.853  0.1728  0.1356 -0.5380
  237MPD1     H 3652   2.131   3.039  15.489 -1.1928  2.0017  0.0265
  237MPD1    H1 3653   2.034   3.067  15.914  2.3247  0.6813  1.3777
  237MPD1    H2 3654   2.431   3.081  15.771  0.1550 -1.2649  0.4516
  237MPD1    H3 3655   2.273   3.073  15.953  1.5483 -1.5276 -1.1818
  237MPD1     N 3656   1.920   3.083  15.663  0.4190  0.0576 -1.0244
  237MPD1    H5 3657   1.858   3.086  15.744  0.4430  1.2341 -1.0434
  237MPD1    N1 3658   2.384   3.038  15.511  0.0483  0.0810  0.1977
  237MPD1    H6 3659   2.367   3.082  15.420 -0.4844  0.5699  0.5286
  237MPD1    H7 3660   2.474   3.077  15.541 -0.5766  1.9198 -0.2899
  238MPD1     C 3661   3.777   2.194  15.515  0.3601  0.4549  0.0834
  238MPD1    C1 3662   3.779   2.243  15.388 -0.6783 -0.0540 -0.1258
  238MPD1    C2 3663   3.726   2.174  15.282  0.3494 -0.2699  0.0368
  238MPD1    C3 3664   3.676   2.045  15.295  0.4200 -0.5228 -0.0931
  238MPD1    C4 3665   3.680   1.996  15.423 -0.4969  0.6519 -0.3250
  238MPD1    C5 3666   3.736   2.063  15.527 -0.1781  0.1006 -0.1270
  238MPD1     H 3667   3.735   2.223  15.186  2.5631 -0.1276  0.3010
  238MPD1    H1 3668   3.647   1.894  15.438  1.8678  0.1232  1.1600
  238MPD1    H2 3669   3.813   2.258  15.594 -0.8778 -0.0056  1.0221
  238MPD1    H3 3670   3.722   2.020  15.626  0.9364 -0.4419 -0.2081
  238MPD1     N 3671   3.628   1.963  15.191 -0.7972  0.3946  0.2093
  238MPD1    H5 3672   3.582   1.875  15.211  3.6802 -1.7840  0.9486
  238MPD1    N1 3673   3.836   2.371  15.369 -0.5842 -0.0043 -0.1279
  238MPD1    H6 3674   3.817   2.437  15.443  1.0372  1.7846 -1.2783
  238MPD1    H7 3675   3.802   2.413  15.282  0.8385  0.2270 -0.5824
  239MPD1     C 3676   4.035   2.470  15.083  0.7489  0.3422 -0.9319
  239MPD1    C1 3677   4.113   2.577  15.038  0.4156 -0.2277  1.0013
  239MPD1    C2 3678   4.097   2.628  14.912  0.8874  0.6093  0.4263
  239MPD1    C3 3679   4.000   2.565  14.830 -0.3802  0.6393 -0.1911
  239MPD1    C4 3680   3.904   2.475  14.882  0.1753  0.5740  0.2060
  239MPD1    C5 3681   3.934   2.422  15.006 -0.0106  0.5806 -0.4249
  239MPD1     H 3682   4.152   2.713  14.874  2.1861 -0.8585 -0.9623
  239MPD1    H1 3683   3.831   2.424  14.820  0.7357  0.3736 -0.2858
  239MPD1    H2 3684   4.053   2.417  15.176  0.7657  0.9646 -0.5740
  239MPD1    H3 3685   3.873   2.344  15.050  1.3686  1.0823  2.4227
  239MPD1     N 3686   3.984   2.607  14.693  0.3565  0.4262  0.1628
  239MPD1    H5 3687   3.897   2.579  14.648 -0.9437  1.0196  2.3003
  239MPD1    N1 3688   4.214   2.630  15.123 -0.5627 -0.9445  0.0345
  239MPD1    H6 3689   4.264   2.702  15.070 -0.6809 -0.9083 -0.0290
  239MPD1    H7 3690   4.287   2.560  15.129  0.2436 -0.1766 -0.8658
  240MPD1     C 3691   3.238   2.537  13.848 -0.0963 -0.8953 -0.5954
  240MPD1    C1 3692   3.120   2.483  13.886 -0.0713 -0.4101  0.3269
  240MPD1    C2 3693   3.117   2.399  14.005 -0.3704 -0.1732  0.3174
  240MPD1    C3 3694   3.232   2.371  14.068 -0.4987  0.1343 -0.1969
  240MPD1    C4 3695   3.349   2.427  14.023 -0.1326 -0.1712 -0.6173
  240MPD1    C5 3696   3.356   2.503  13.911 -0.0578  0.4338  0.2318
  240MPD1     H 3697   3.019   2.369  14.038  0.1007  2.0475  3.7383
  240MPD1    H1 3698   3.444   2.412  14.072  0.0381 -2.3463 -1.6052
  240MPD1    H2 3699   3.237   2.599  13.759  1.2047 -1.5096 -1.0507
  240MPD1    H3 3700   3.449   2.552  13.885  0.2371 -1.2940 -1.9783
  240MPD1     N 3701   3.215   2.295  14.185 -0.3129  0.2609 -0.6565
  240MPD1    H5 3702   3.124   2.256  14.208  0.3023 -0.3201  0.7800
  240MPD1    N1 3703   3.006   2.522  13.825 -0.7161 -0.4056 -0.1952
  240MPD1    H6 3704   3.027   2.519  13.726 -0.6458  4.1343 -0.3285
  240MPD1    H7 3705   2.927   2.460  13.844 -0.1983 -0.9254  0.2735
  241MPD1     C 3706   3.398   2.274  15.100  0.2434  0.1132  0.0833
  241MPD1    C1 3707   3.307   2.170  15.066  0.2730  0.4238 -0.5836
  241MPD1    C2 3708   3.320   2.129  14.937 -0.0493  0.3356  0.8898
  241MPD1    C3 3709   3.422   2.183  14.847  0.7900 -0.2145 -0.0618
  241MPD1    C4 3710   3.501   2.283  14.890  0.9880  0.1154  0.1339
  241MPD1    C5 3711   3.492   2.331  15.015  0.4502 -0.5201 -0.5838
  241MPD1     H 3712   3.245   2.058  14.904  0.2091  0.1192  0.7579
  241MPD1    H1 3713   3.564   2.330  14.815 -0.2978 -0.3297 -1.1978
  241MPD1    H2 3714   3.386   2.313  15.200 -0.4581  1.5437 -0.5561
  241MPD1    H3 3715   3.554   2.414  15.047 -0.2561 -0.5808  0.9346
  241MPD1     N 3716   3.425   2.141  14.716 -0.3178  0.3605 -0.1599
  241MPD1    H5 3717   3.488   2.198  14.660  2.7596 -0.4761  2.4942
  241MPD1    N1 3718   3.193   2.140  15.140  0.3591 -0.3877  0.3370
  241MPD1    H6 3719   3.148   2.053  15.110 -2.3125  0.5169  1.7361
  241MPD1    H7 3720   3.214   2.141  15.240  0.2988 -0.3863  0.3501
  242MPD1     C 3721   3.501   0.816  16.153  0.4593 -0.6300  0.1455
  242MPD1    C1 3722   3.383   0.747  16.124  0.6712  0.4027  0.7177
  242MPD1    C2 3723   3.347   0.737  15.991  0.2357  0.5361  0.9342
  242MPD1    C3 3724   3.416   0.812  15.900 -0.1517 -0.2441 -0.3743
  242MPD1    C4 3725   3.527   0.879  15.932  0.0008  0.0330  0.4714
  242MPD1    C5 3726   3.580   0.870  16.060  0.0072 -0.4570  0.0831
  242MPD1     H 3727   3.266   0.672  15.959 -0.4084  1.3852  0.8484
  242MPD1    H1 3728   3.590   0.925  15.857 -0.3492 -0.9309 -0.4103
  242MPD1    H2 3729   3.534   0.815  16.256 -1.7073 -1.6303  0.8200
  242MPD1    H3 3730   3.667   0.931  16.082 -1.9847  2.1883  0.6310
  242MPD1     N 3731   3.380   0.823  15.767  0.1788 -0.0155 -0.2853
  242MPD1    H5 3732   3.442   0.876  15.707  1.1401  0.6547  1.3005
  242MPD1    N1 3733   3.328   0.664  16.216 -0.0594  0.1857  0.2650
  242MPD1    H6 3734   3.326   0.695  16.313 -0.0912 -0.0982  0.3555
  242MPD1    H7 3735   3.235   0.645  16.179  1.3578 -2.2028 -2.0471
  243MPD1     C 3736   0.276   4.587  16.689  0.3316 -0.3627 -0.2599
  243MPD1    C1 3737   0.368   4.501  16.761  0.4212  0.6560 -0.5914
  243MPD1    C2 3738   0.417   4.383  16.703  0.5099  0.2171 -0.7662
  243MPD1    C3 3739   0.372   4.349  16.579  0.5881  0.0740 -0.3412
  243MPD1    C4 3740   0.277   4.432  16.518 -0.1655  0.6617 -0.4723
  243MPD1    C5 3741   0.219   4.541  16.577 -0.0190 -0.3040  0.5675
  243MPD1     H 3742   0.490   4.323  16.756  0.5988 -0.1695 -1.3276
  243MPD1    H1 3743   0.239   4.411  16.419  1.3662  0.4165 -1.0058
  243MPD1    H2 3744   0.236   4.674  16.740 -1.6439 -1.5496  0.2052
  243MPD1    H3 3745   0.147   4.608  16.531  1.4255  0.9230  0.0532
  243MPD1     N 3746   0.424   4.235  16.518  0.8320  0.2549 -0.3681
  243MPD1    H5 3747   0.486   4.180  16.577  1.6972  1.1292 -0.4661
  243MPD1    N1 3748   0.400   4.525  16.893  0.0064 -0.4224 -0.2276
  243MPD1    H6 3749   0.382   4.620  16.925 -1.6978 -0.3146 -1.4658
  243MPD1    H7 3750   0.498   4.502  16.906 -0.1867 -1.0830  0.0461
  244MPD1     C 3751   0.995   3.801  16.891  0.6949  0.3105  0.2703
  244MPD1    C1 3752   0.861   3.817  16.915  0.1876  0.5665  0.1468
  244MPD1    C2 3753   0.776   3.834  16.809 -0.6002 -0.1000 -0.0204
  244MPD1    C3 3754   0.828   3.846  16.683 -0.4607  0.1125  0.5474
  244MPD1    C4 3755   0.966   3.828  16.663 -1.0080  0.3118  0.2718
  244MPD1    C5 3756   1.045   3.801  16.762  0.2577 -0.1370 -0.0665
  244MPD1     H 3757   0.670   3.852  16.822 -0.5553  1.0186 -1.2725
  244MPD1    H1 3758   1.003   3.854  16.564 -1.4794 -1.6267 -0.4280
  244MPD1    H2 3759   1.060   3.764  16.970  0.2610 -1.2062 -0.0775
  244MPD1    H3 3760   1.151   3.786  16.746  0.2187  0.6343 -1.0805
  244MPD1     N 3761   0.730   3.878  16.580 -0.1035 -0.6130  0.4781
  244MPD1    H5 3762   0.638   3.913  16.606  0.5964  0.2840  1.7773
  244MPD1    N1 3763   0.810   3.791  17.047 -0.7355 -0.3646 -0.0561
  244MPD1    H6 3764   0.725   3.842  17.068 -0.4166 -0.0222  0.4213
  244MPD1    H7 3765   0.882   3.806  17.118  0.2705 -2.3061 -0.6743
  245MPD1     C 3766   1.946   4.046  12.841  0.4871 -0.3286  0.2660
  245MPD1    C1 3767   2.027   4.022  12.953 -0.6003 -0.1967  0.1789
  245MPD1    C2 3768   2.003   4.112  13.062 -0.7076 -0.6028 -0.4814
  245MPD1    C3 3769   1.907   4.212  13.065  0.2038  0.5681 -0.4955
  245MPD1    C4 3770   1.828   4.221  12.955 -0.1170  0.2396  0.4401
  245MPD1    C5 3771   1.849   4.137  12.843 -0.4908  0.0277 -0.3102
  245MPD1     H 3772   2.067   4.101  13.148 -1.3259 -2.1002 -0.1959
  245MPD1    H1 3773   1.764   4.306  12.936 -1.6546 -0.4570  2.5051
  245MPD1    H2 3774   1.959   3.995  12.746  0.1069 -0.8559  0.4983
  245MPD1    H3 3775   1.799   4.162  12.750  1.1154  2.0874 -0.6089
  245MPD1     N 3776   1.897   4.302  13.175 -0.2737 -0.1388 -0.0894
  245MPD1    H5 3777   1.947   4.288  13.262  3.0388  0.4552 -1.9247
  245MPD1    N1 3778   2.142   3.944  12.936 -0.3037 -0.2296  0.3522
  245MPD1    H6 3779   2.175   3.908  13.026 -0.0177  0.2462  0.4379
  245MPD1    H7 3780   2.128   3.857  12.885  1.2320  0.6725 -1.6064
  246MPD1     C 3781   1.954   2.335   9.581 -1.1861 -0.4440 -0.1619
  246MPD1    C1 3782   2.053   2.397   9.658 -0.1051 -0.1385  0.0759
  246MPD1    C2 3783   2.179   2.328   9.672  0.1522 -0.0359  0.3911
  246MPD1    C3 3784   2.187   2.196   9.642 -0.7134 -0.3213  0.4670
  246MPD1    C4 3785   2.082   2.130   9.573  0.2130  0.4378  0.2903
  246MPD1    C5 3786   1.969   2.202   9.551 -0.3284 -0.5554  0.4765
  246MPD1     H 3787   2.268   2.374   9.715  0.0212  0.2869  0.3134
  246MPD1    H1 3788   2.098   2.040   9.516  0.6176  0.9673 -0.4267
  246MPD1    H2 3789   1.873   2.390   9.536  0.9394  2.7159 -0.0952
  246MPD1    H3 3790   1.908   2.163   9.471  0.6548  1.8206 -1.4368
  246MPD1     N 3791   2.311   2.126   9.670  0.1341 -0.3628  0.7982
  246MPD1    H5 3792   2.382   2.182   9.715 -1.3448 -0.6754  3.5165
  246MPD1    N1 3793   2.042   2.534   9.682  0.6715 -0.6122 -0.6211
  246MPD1    H6 3794   1.944   2.544   9.709  0.5418 -0.8018 -1.0278
  246MPD1    H7 3795   2.107   2.564   9.755 -2.7383 -1.2057  2.6752
  247MPD1     C 3796   0.330   4.184  15.801  0.3687 -0.1627  0.0775
  247MPD1    C1 3797   0.307   4.314  15.772 -0.1784 -0.2952  0.4393
  247MPD1    C2 3798   0.408   4.407  15.773 -0.4863  0.0835  1.0333
  247MPD1    C3 3799   0.538   4.368  15.808 -0.3817 -0.9024 -0.0450
  247MPD1    C4 3800   0.558   4.241  15.840  0.4281  0.2216 -1.4292
  247MPD1    C5 3801   0.456   4.152  15.839 -0.0445  0.1457  0.8788
  247MPD1     H 3802   0.379   4.508  15.745  2.0321  0.6029  0.2769
  247MPD1    H1 3803   0.653   4.192  15.861 -0.2711 -0.6344 -0.2503
  247MPD1    H2 3804   0.250   4.111  15.806 -0.2380  0.4517 -0.6113
  247MPD1    H3 3805   0.489   4.051  15.861 -2.0314 -1.0776 -1.7872
  247MPD1     N 3806   0.645   4.458  15.813 -0.4254 -0.2926 -0.2515
  247MPD1    H5 3807   0.740   4.421  15.810 -1.0401 -1.5083 -4.0954
  247MPD1    N1 3808   0.174   4.366  15.758  0.1337 -0.6514 -0.2836
  247MPD1    H6 3809   0.159   4.433  15.684  2.2940  0.6756  0.4680
  247MPD1    H7 3810   0.106   4.291  15.762 -1.3732  0.7758  0.6119
  248MPD1     C 3811   1.427   4.517   0.082 -0.8736 -0.6487 -0.0145
  248MPD1    C1 3812   1.400   4.614   0.180 -0.5131  1.0198 -0.8724
  248MPD1    C2 3813   1.453   4.596   0.308  0.3115 -0.0477 -0.3670
  248MPD1    C3 3814   1.545   4.496   0.334 -0.3020 -0.6714  0.3509
  248MPD1    C4 3815   1.581   4.412   0.236 -0.3723  0.2858  0.1835
  248MPD1    C5 3816   1.523   4.422   0.110  0.1156 -0.0257 -0.1716
  248MPD1     H 3817   1.438   4.681   0.373 -0.7111 -0.2074 -0.3940
  248MPD1    H1 3818   1.656   4.338   0.260 -0.6982  0.0098  0.3531
  248MPD1    H2 3819   1.371   4.512  17.740  0.0746  0.5908 -0.6484
  248MPD1    H3 3820   1.560   4.353   0.036  2.6032  0.8351  0.2617
  248MPD1     N 3821   1.597   4.490   0.470 -0.0737 -0.1610  0.1310
  248MPD1    H5 3822   1.559   4.562   0.531 -1.0761 -0.5236 -0.0796
  248MPD1    N1 3823   1.301   4.709   0.151  0.0035 -0.3818 -0.2360
  248MPD1    H6 3824   1.294   4.728   0.051 -0.7511 -0.9392 -0.2885
  248MPD1    H7 3825   1.313   0.058   0.202 -1.0363 -1.5974  2.0871
  249MPD1     C 3826   4.121   2.362  10.452 -1.1034 -0.1844  0.1114
  249MPD1    C1 3827   4.193   2.397  10.341  0.4378  0.9099 -0.1067
  249MPD1    C2 3828   4.241   2.524  10.335 -0.3199 -0.1590  0.3628
  249MPD1    C3 3829   4.222   2.616  10.441 -0.1759 -0.4833 -1.2327
  249MPD1    C4 3830   4.137   2.581  10.546  0.1785  0.4085  0.0929
  249MPD1    C5 3831   4.090   2.447  10.548 -0.2242 -0.1278  0.4634
  249MPD1     H 3832   4.322   2.546  10.267 -0.8984  1.0045  0.0545
  249MPD1    H1 3833   4.098   2.651  10.618 -0.3012 -0.0158  0.2505
  249MPD1    H2 3834   4.063   2.271  10.443 -3.2897  1.4001 -1.8316
  249MPD1    H3 3835   4.024   2.414  10.628  0.7625 -2.0975  0.4657
  249MPD1     N 3836   4.274   2.745  10.425  0.3056  0.6758 -0.1729
  249MPD1    H5 3837   4.338   2.759  10.347  2.1300  1.8815  1.5291
  249MPD1    N1 3838   4.226   2.309  10.232 -0.1115  0.1060  0.4822
  249MPD1    H6 3839   4.214   2.215  10.270  1.6832 -0.9096 -1.5138
  249MPD1    H7 3840   4.323   2.324  10.207 -0.1562 -1.0211 -0.3490
  250MPD2     C 3841   0.395   2.944  12.691  0.0609  0.2251 -0.3756
  250MPD2    C1 3842   0.275   2.997  12.703 -0.4559  0.3230  0.7395
  250MPD2    C2 3843   0.159   2.924  12.679  0.1906 -0.7343  0.4444
  250MPD2    C3 3844   0.164   2.791  12.630 -0.1696 -0.2122 -0.4375
  250MPD2    C4 3845   0.292   2.737  12.618  0.0161 -0.2004 -0.3109
  250MPD2    C5 3846   0.399   2.811  12.649  0.1822  0.6461 -0.2040
  250MPD2     H 3847   0.062   2.968  12.699  0.0092 -0.4876 -0.9360
  250MPD2    H1 3848   0.315   2.635  12.590 -1.7331 -0.2921 -1.4326
  250MPD2    H2 3849   0.483   3.001  12.719 -0.6724  1.0101  0.3493
  250MPD2    H3 3850   0.498   2.765  12.645 -0.2095 -0.2541  0.4031
  250MPD2     N 3851   0.051   2.705  12.589  0.2664  0.7352  0.0446
  250MPD2    H5 3852   0.077   2.616  12.548  1.9369  0.3655  1.8975
  250MPD2    N1 3853   0.282   3.124  12.757  0.1437  0.3061  0.1683
  250MPD2    H7 3854   0.379   3.148  12.779 -0.7837  2.0568  2.2737
  251TMC3    C1 3855   0.242   3.327  12.834 -0.1007  1.0401  0.2216
  251TMC3    C2 3856   0.181   3.394  12.932 -0.0352 -0.2741  0.3262
  251TMC3    C3 3857   0.255   3.488  12.989 -0.0045 -0.8454 -0.8113
  251TMC3    C4 3858   0.361   3.362  12.775  0.2830 -0.5842  0.7202
  251TMC3    C5 3859   0.433   3.455  12.843  1.0130  0.1191 -0.5294
  251TMC3    C6 3860   0.382   3.519  12.961  0.0858  0.0158 -0.2212
  251TMC3     C 3861   0.183   3.201  12.800  0.6109 -0.1138 -0.2084
  251TMC3     O 3862   0.066   3.174  12.819  0.3016  0.2028  0.1479
  251TMC3     H 3863   0.076   3.378  12.955 -1.0196  4.1205 -1.0433
  251TMC3    H1 3864   0.406   3.322  12.685 -0.7443  1.4022 -0.6600
  251TMC3    H2 3865   0.440   3.585  13.024 -0.9601  0.8828 -0.1723
  251TMC3    C7 3866   0.565   3.407  12.859 -0.0373  0.4633  0.5549
  251TMC3    C8 3867   0.196   3.543  13.108  0.3777  0.5877 -0.3050
  251TMC3    O1 3868   0.583   3.286  12.832  1.1136 -0.2716 -0.6062
  251TMC3    O2 3869   0.118   3.477  13.169  0.5085 -0.5328 -0.1882
  252TMC3    C1 3870   0.060   4.258   9.245 -0.1372 -0.7222 -0.7300
  252TMC3    C2 3871   0.192   4.285   9.226  0.2018  0.2840  0.3031
  252TMC3    C3 3872   0.276   4.257   9.336  0.0551  0.5431 -0.0571
  252TMC3    C4 3873   0.011   4.222   9.369  1.1312 -0.2672  0.6830
  252TMC3    C5 3874   0.097   4.199   9.470 -0.1386 -0.0176 -0.1230
  252TMC3    C6 3875   0.236   4.211   9.456  0.1103 -1.0087 -0.5344
  252TMC3     C 3876   4.713   4.327   9.150 -0.1103 -0.0776  0.2272
  252TMC3     O 3877   0.023   4.398   9.061  0.6448  0.1623 -0.3858
  252TMC3     H 3878   0.230   4.297   9.125 -4.7732  0.5361 -1.5852
  252TMC3    H1 3879   4.643   4.203   9.381  0.1807  4.7224  0.0219
  252TMC3    H2 3880   0.300   4.175   9.536  0.7057 -1.1145 -1.0514
  252TMC3    C7 3881   0.049   4.119   9.582 -0.4895 -0.8361  0.3841
  252TMC3    C8 3882   0.421   4.260   9.315 -0.5752 -0.7679 -0.7276
  252TMC3    O1 3883   4.705   4.029   9.558  0.3059 -0.5736  0.2034
  252TMC3    O2 3884   0.463   4.296   9.204  0.8854 -0.0574 -0.8555
  253MPD2     C 3885   1.717   3.542  15.286  0.3297 -0.1752 -0.2282
  253MPD2    C1 3886   1.584   3.534  15.328 -0.0548  0.7869 -0.1800
  253MPD2    C2 3887   1.556   3.510  15.465  0.7748  0.6974  0.3011
  253MPD2    C3 3888   1.655   3.480  15.560 -0.0372  0.1072  0.0837
  253MPD2    C4 3889   1.783   3.474  15.514  0.5613  0.1560 -0.5492
  253MPD2    C5 3890   1.814   3.516  15.387  0.4174 -0.9176 -0.1903
  253MPD2     H 3891   1.452   3.499  15.494  0.6174 -0.9224 -0.9050
  253MPD2    H1 3892   1.866   3.451  15.579  0.1865 -1.7544 -0.7325
  253MPD2    H2 3893   1.748   3.576  15.188  0.8587  0.3190  0.1070
  253MPD2    H3 3894   1.920   3.524  15.367  0.4594 -1.7276 -0.3144
  253MPD2     N 3895   1.631   3.448  15.698 -0.1608 -0.3031 -0.2052
  253MPD2    H5 3896   1.712   3.421  15.753  0.8397 -2.5160 -2.7613
  253MPD2    N1 3897   1.469   3.555  15.243 -0.2980  0.2772  0.1502
  253MPD2    H7 3898   1.377   3.549  15.284 -0.7747 -2.0020 -1.2576
  254TMC3    C1 3899   1.509   3.476  15.907  0.1292  0.3631  0.2546
  254TMC3    C2 3900   1.380   3.511  15.953 -0.5648  0.5276  0.9961
  254TMC3    C3 3901   1.371   3.585  16.059  0.4541 -0.1223 -0.1038
  254TMC3    C4 3902   1.618   3.493  15.977 -0.0474 -0.2242 -0.7271
  254TMC3    C5 3903   1.605   3.554  16.093 -1.1373  0.3182 -0.7597
  254TMC3    C6 3904   1.485   3.596  16.140  0.2194 -0.8045 -0.4799
  254TMC3     C 3905   1.506   3.447  15.760  0.6475 -0.0049 -0.2480
  254TMC3     O 3906   1.399   3.454  15.709 -0.0734  0.0380 -0.5099
  254TMC3     H 3907   1.287   3.471  15.915 -0.3997  1.0036  0.0853
  254TMC3    H1 3908   1.716   3.451  15.960  0.9804  1.5658  0.8209
  254TMC3    H2 3909   1.472   3.631  16.242 -0.0338  2.8835 -1.7848
  254TMC3    C7 3910   1.700   3.509  16.195  0.1930  0.0254 -0.5221
  254TMC3    C8 3911   1.245   3.591  16.133  0.8146 -0.4794  0.4420
  254TMC3    O1 3912   1.820   3.516  16.168 -0.3807 -0.1352 -0.1613
  254TMC3    O2 3913   1.241   3.583  16.255  0.0584 -0.5687  0.2028
  255MPD2     C 3914   4.381   0.485  10.360  0.3918  0.6640 -0.1100
  255MPD2    C1 3915   4.512   0.522  10.386  0.8477 -0.1458 -0.4614
  255MPD2    C2 3916   4.606   0.430  10.361 -0.1640 -0.2416  0.8108
  255MPD2    C3 3917   4.578   0.313  10.296 -0.3239 -0.8524  0.1162
  255MPD2    C4 3918   4.455   0.279  10.257 -0.2890 -0.1067  0.2115
  255MPD2    C5 3919   4.352   0.368  10.293 -0.8989 -0.2763  0.1155
  255MPD2     H 3920   4.708   0.453  10.392  1.8366 -2.5564 -4.0931
  255MPD2    H1 3921   4.428   0.194  10.196  1.4956 -1.3802  1.1842
  255MPD2    H2 3922   4.301   0.548  10.397  0.2896 -0.9747  2.4823
  255MPD2    H3 3923   4.253   0.353  10.250 -0.4914  0.2267 -0.9958
  255MPD2     N 3924   4.684   0.227  10.263  0.1531 -0.0229 -0.1350
  255MPD2    H5 3925   0.033   0.252  10.310  0.3729 -0.5380 -0.2672
  255MPD2    N1 3926   4.559   0.647  10.431  0.3188  0.9720  0.5118
  255MPD2    H7 3927   4.654   0.655  10.466  0.8553  0.3744 -0.7831
  256TMC3    C1 3928   4.560   0.877  10.482 -0.1562 -0.0156  0.3636
  256TMC3    C2 3929   4.659   0.901  10.396  0.2307 -0.7319  0.6623
  256TMC3    C3 3930   4.690   1.029  10.355  0.6774  0.0732 -0.2328
  256TMC3    C4 3931   4.480   0.987  10.502  0.4284 -0.1312  0.2518
  256TMC3    C5 3932   4.507   1.106  10.450 -0.1229 -0.1161 -0.0952
  256TMC3    C6 3933   4.614   1.144  10.373  0.1177  0.6811  0.3151
  256TMC3     C 3934   4.485   0.758  10.439 -0.9098  0.2175 -0.0010
  256TMC3     O 3935   4.373   0.772  10.390  0.1600 -0.8980 -0.5742
  256TMC3     H 3936   4.715   0.813  10.364 -2.4846 -1.5190 -1.9567
  256TMC3    H1 3937   4.388   0.975  10.558 -1.0274  1.5538 -1.7659
  256TMC3    H2 3938   4.615   1.234  10.313 -2.2625 -0.5175 -1.5377
  256TMC3    C7 3939   4.393   1.190  10.437 -0.9386 -0.1494 -0.3251
  256TMC3    C8 3940   0.061   1.044  10.258  0.6106  0.2445  0.5018
  256TMC3    O1 3941   4.282   1.135  10.432 -0.0849  0.0629  0.2680
  256TMC3    O2 3942   0.089   0.943  10.199  0.4167 -0.5422  0.4997
  257MPD2     C 3943   3.961   3.237  13.325  0.1668  0.5230 -0.2663
  257MPD2    C1 3944   3.820   3.213  13.315 -0.4769 -0.5244 -0.3907
  257MPD2    C2 3945   3.762   3.098  13.367 -0.2756  0.5515  0.7895
  257MPD2    C3 3946   3.844   3.006  13.429 -0.3624  1.1737 -0.1141
  257MPD2    C4 3947   3.983   3.024  13.430 -0.1177 -0.6298 -0.0285
  257MPD2    C5 3948   4.037   3.144  13.388 -0.4276  0.8282  0.3689
  257MPD2     H 3949   3.660   3.064  13.360 -0.6570  2.0435 -0.6614
  257MPD2    H1 3950   4.054   2.948  13.460  0.1887 -0.1065  0.5891
  257MPD2    H2 3951   4.008   3.322  13.277  0.2145  0.6331 -0.0262
  257MPD2    H3 3952   4.144   3.162  13.399 -0.0538 -0.4553 -1.0886
  257MPD2     N 3953   3.783   2.891  13.486 -0.6428 -0.5469  0.1105
  257MPD2    H5 3954   3.682   2.893  13.491 -0.7186 -1.0721 -1.0579
  257MPD2    N1 3955   3.753   3.313  13.246  0.6786  0.6084  0.4064
  257MPD2    H7 3956   3.811   3.392  13.222 -0.1868  0.9890 -0.3931
  258TMC3    C1 3957   3.762   2.681  13.588 -0.7803  0.6629 -0.3331
  258TMC3    C2 3958   3.656   2.655  13.503 -0.5037  0.1515  0.1081
  258TMC3    C3 3959   3.591   2.541  13.534  1.0488 -0.0314 -0.0223
  258TMC3    C4 3960   3.809   2.602  13.685 -0.7011  0.3087  0.4116
  258TMC3    C5 3961   3.746   2.485  13.710  0.6998 -0.2238  0.6872
  258TMC3    C6 3962   3.629   2.462  13.640  0.2557  0.3220  0.2184
  258TMC3     C 3963   3.847   2.789  13.547  0.2721  0.0691 -0.3983
  258TMC3     O 3964   3.965   2.780  13.567  0.2072 -0.3708 -0.5052
  258TMC3     H 3965   3.637   2.707  13.410  4.5187 -1.5099 -1.8631
  258TMC3    H1 3966   3.894   2.631  13.746 -0.9248 -1.4617  1.5743
  258TMC3    H2 3967   3.558   2.385  13.669  0.7941 -0.1390  0.3168
  258TMC3    C7 3968   3.748   2.435  13.850 -0.4339 -0.4992  0.4522
  258TMC3    C8 3969   3.470   2.510  13.463  0.2818  0.1246  0.1294
  258TMC3    O1 3970   3.655   2.366  13.886 -0.7165  0.2044  0.1346
  258TMC3    O2 3971   3.437   2.393  13.445 -0.2198  0.2734  0.2583
  259MPD2     C 3972   2.898   0.588   0.775  0.3850 -0.6204  0.3445
  259MPD2    C1 3973   2.889   0.453   0.794 -0.1852  0.0880 -0.5803
  259MPD2    C2 3974   2.834   0.372   0.694 -0.5195 -0.4639 -0.5686
  259MPD2    C3 3975   2.788   0.426   0.581 -0.0325 -0.0211 -0.1836
  259MPD2    C4 3976   2.808   0.559   0.561 -0.2213  0.2732 -0.0330
  259MPD2    C5 3977   2.869   0.637   0.655 -0.5598 -0.2447  0.4496
  259MPD2     H 3978   2.835   0.265   0.707  0.1630 -0.7154 -2.6600
  259MPD2    H1 3979   2.795   0.603   0.463 -2.5887 -0.0204  0.1375
  259MPD2    H2 3980   2.936   0.648   0.858 -0.6245 -1.5720  1.4939
  259MPD2    H3 3981   2.882   0.745   0.648  1.5429 -0.4360  1.5779
  259MPD2     N 3982   2.718   0.345   0.483  0.8131 -0.8024 -0.3108
  259MPD2    H5 3983   2.737   0.245   0.476  1.3049 -0.7145 -0.2084
  259MPD2    N1 3984   2.926   0.402   0.921 -0.0161 -0.0539  0.5578
  259MPD2    H7 3985   2.960   0.464   0.994 -0.4622  0.7534  0.0807
  260TMC3    C1 3986   2.582   0.299   0.306  0.3810  0.1889  0.0589
  260TMC3    C2 3987   2.543   0.348   0.184  0.1188  0.5408  0.0408
  260TMC3    C3 3988   2.493   0.256   0.099 -0.0082 -0.1118 -0.3257
  260TMC3    C4 3989   2.592   0.165   0.335  0.1650 -0.4146 -0.4609
  260TMC3    C5 3990   2.545   0.081   0.242 -0.7096  0.2961 -0.2650
  260TMC3    C6 3991   2.490   0.123   0.123 -0.1875  0.2346  0.6104
  260TMC3     C 3992   2.628   0.397   0.398  0.4262  0.2137 -0.4237
  260TMC3     O 3993   2.589   0.516   0.384  0.0190  0.4073 -0.3053
  260TMC3     H 3994   2.545   0.453   0.155 -1.8313  1.0286  1.6641
  260TMC3    H1 3995   2.627   0.135   0.433  0.9569  0.3489 -0.5116
  260TMC3    H2 3996   2.433   0.052   0.063 -0.7575  0.3340  1.0342
  260TMC3    C7 3997   2.580   4.679   0.253 -0.5222 -0.0725 -0.0727
  260TMC3    C8 3998   2.501   0.294  17.706 -0.1971 -0.0506  0.3982
  260TMC3    O1 3999   2.591   4.628   0.140 -0.3669 -0.1575 -0.2487
  260TMC3    O2 4000   2.469   0.407  17.672 -0.1365 -0.3138 -0.7046
  261MPD2     C 4001   4.132   2.794  12.133  0.5795  0.1856  0.0595
  261MPD2    C1 4002   4.262   2.829  12.134  0.0282 -0.4842 -0.6757
  261MPD2    C2 4003   4.297   2.940  12.061  0.4570 -0.3564 -0.0247
  261MPD2    C3 4004   4.205   2.992  11.970  0.1529 -1.0506  0.4171
  261MPD2    C4 4005   4.074   2.943  11.961  0.5043  0.4882 -0.6218
  261MPD2    C5 4006   4.035   2.848  12.052 -0.1681  0.7729 -0.8280
  261MPD2     H 4007   4.395   2.985  12.070  0.4448  0.1740 -2.4976
  261MPD2    H1 4008   3.995   2.986  11.900  0.6877 -0.1867 -1.3266
  261MPD2    H2 4009   4.079   2.723  12.195 -0.1681 -0.2869 -1.1181
  261MPD2    H3 4010   3.934   2.808  12.054 -0.7153  2.1608 -0.6464
  261MPD2     N 4011   4.255   3.086  11.883 -0.8544  0.2642 -0.3706
  261MPD2    H5 4012   4.349   3.121  11.903 -0.9762  1.0284 -1.1350
  261MPD2    N1 4013   4.353   2.776  12.231 -0.1200  0.0474  0.1390
  261MPD2    H7 4014   4.442   2.817  12.256  0.4309 -1.9384  1.4168
  262TMC3    C1 4015   4.281   3.269  11.731 -1.1432  0.9100 -0.1980
  262TMC3    C2 4016   4.230   3.394  11.708 -0.1024  0.2297 -0.1355
  262TMC3    C3 4017   4.315   3.490  11.681 -0.4827 -0.3417  0.9355
  262TMC3    C4 4018   4.409   3.238  11.712 -0.6129 -0.3838 -0.5528
  262TMC3    C5 4019   4.494   3.336  11.677  0.7597 -0.3655 -0.2499
  262TMC3    C6 4020   4.453   3.466  11.665 -0.6346  0.3039 -0.1321
  262TMC3     C 4021   4.189   3.164  11.786  0.1457 -0.3630 -0.0031
  262TMC3     O 4022   4.069   3.187  11.774 -0.2554  0.4092 -0.7539
  262TMC3     H 4023   4.126   3.414  11.732  0.7635 -1.1516  4.7421
  262TMC3    H1 4024   4.449   3.139  11.730 -0.4572 -0.4862 -1.5029
  262TMC3    H2 4025   4.517   3.545  11.628  1.9075 -1.4464  0.5442
  262TMC3    C7 4026   4.630   3.296  11.707 -0.0228  0.2437  0.2151
  262TMC3    C8 4027   4.284   3.628  11.702 -0.7020 -0.5317  0.6846
  262TMC3    O1 4028   4.674   3.186  11.677 -0.2583 -0.0235  0.1528
  262TMC3    O2 4029   4.377   3.699  11.734  0.4316  0.0265 -0.1935
  263MPD2     C 4030   0.304   2.052  11.716  0.3973 -0.1936 -0.5833
  263MPD2    C1 4031   0.425   2.065  11.643 -0.3347 -0.6339  0.0755
  263MPD2    C2 4032   0.427   2.149  11.531 -1.1058  1.1254  0.8493
  263MPD2    C3 4033   0.316   2.211  11.486 -0.1500  0.1510 -0.3927
  263MPD2    C4 4034   0.199   2.197  11.565 -0.4697  0.7586  0.0329
  263MPD2    C5 4035   0.192   2.117  11.674 -0.0881  0.0575  0.5050
  263MPD2     H 4036   0.521   2.174  11.483 -0.9662 -0.3399  0.3586
  263MPD2    H1 4037   0.104   2.243  11.540 -0.3458  0.1658 -1.5041
  263MPD2    H2 4038   0.286   1.988  11.802 -0.7871  0.2970 -0.4695
  263MPD2    H3 4039   0.095   2.092  11.716  0.6406  0.1792  2.2568
  263MPD2     N 4040   0.322   2.301  11.374 -0.5035  0.5013  0.2859
  263MPD2    H5 4041   0.414   2.301  11.330 -0.5003  0.7737  0.2891
  263MPD2    N1 4042   0.539   1.993  11.695 -0.2704  0.5458  0.5598
  263MPD2    H7 4043   0.523   1.927  11.770 -1.8975  0.4148  0.1067
  264TMC3    C1 4044   0.258   2.444  11.200  0.0775  0.7558 -0.1441
  264TMC3    C2 4045   0.268   2.583  11.216 -0.4243  0.0140  0.7342
  264TMC3    C3 4046   0.357   2.654  11.133  0.1277  0.3090 -0.5881
  264TMC3    C4 4047   0.351   2.376  11.126  0.2335 -0.4240 -0.1967
  264TMC3    C5 4048   0.422   2.455  11.035  1.0703  0.3815  0.0606
  264TMC3    C6 4049   0.421   2.588  11.032 -0.1423 -0.4821  0.1683
  264TMC3     C 4050   0.219   2.372  11.314  0.2421  0.7105  0.4164
  264TMC3     O 4051   0.126   2.424  11.368  0.1556  0.1690  0.0415
  264TMC3     H 4052   0.208   2.625  11.297  1.5515 -1.7110  3.1047
  264TMC3    H1 4053   0.373   2.270  11.132 -1.2345 -0.6591  1.1783
  264TMC3    H2 4054   0.489   2.645  10.970  0.3331 -0.8465  0.3540
  264TMC3    C7 4055   0.543   2.396  10.970 -0.2912 -0.0861  0.7489
  264TMC3    C8 4056   0.403   2.793  11.169  0.5600  0.0277  0.4459
  264TMC3    O1 4057   0.636   2.471  10.957  0.2363 -0.2000 -0.1955
  264TMC3    O2 4058   0.498   2.829  11.098  0.1604  0.0155 -0.8869
  265MPD2     C 4059   2.995   2.563  15.493 -0.4464  0.6448 -0.0607
  265MPD2    C1 4060   2.997   2.652  15.390  0.4007  0.1203 -0.0626
  265MPD2    C2 4061   3.029   2.611  15.262 -0.7158 -0.6065  0.1707
  265MPD2    C3 4062   3.052   2.470  15.241  0.0068  0.4569  0.1880
  265MPD2    C4 4063   3.063   2.387  15.352  0.0414  0.0637 -0.4609
  265MPD2    C5 4064   3.026   2.429  15.476 -0.0367  0.5456 -1.1841
  265MPD2     H 4065   3.019   2.678  15.177 -1.7157  1.2675  1.7647
  265MPD2    H1 4066   3.093   2.283  15.351  0.6292  0.2349 -2.3858
  265MPD2    H2 4067   2.973   2.594  15.595 -1.6785  1.1132 -0.4625
  265MPD2    H3 4068   3.026   2.354  15.554 -0.3836  1.0125 -0.7363
  265MPD2     N 4069   3.076   2.405  15.119 -0.2092 -0.1506 -1.2508
  265MPD2    H5 4070   3.115   2.311  15.120 -0.2340 -0.1330  0.2595
  265MPD2    N1 4071   2.966   2.782  15.418 -0.1112  0.4484  0.5914
  265MPD2    H7 4072   2.958   2.842  15.337 -0.4274 -1.0980 -0.5037
  266TMC3    C1 4073   2.902   2.981  15.524  0.1147 -0.2538  0.7082
  266TMC3    C2 4074   2.958   3.070  15.615  0.6219  0.5037  0.0693
  266TMC3    C3 4075   2.909   3.200  15.601  0.3661  0.0416 -0.2604
  266TMC3    C4 4076   2.806   3.006  15.428 -0.5123  0.3469  0.1150
  266TMC3    C5 4077   2.763   3.140  15.424 -0.1070 -0.4318 -0.2334
  266TMC3    C6 4078   2.808   3.227  15.515  0.7086  0.9720 -0.3034
  266TMC3     C 4079   2.940   2.843  15.540 -0.3426 -0.8141  1.0185
  266TMC3     O 4080   2.974   2.810  15.653 -0.0172  0.1656  0.2495
  266TMC3     H 4081   3.028   3.050  15.695 -0.5434  2.8173  1.6831
  266TMC3    H1 4082   2.769   2.941  15.349 -0.8797  1.3152 -0.5111
  266TMC3    H2 4083   2.764   3.324  15.534  0.7368  0.6756  1.3375
  266TMC3    C7 4084   2.652   3.181  15.349 -0.8047 -0.2355 -0.4464
  266TMC3    C8 4085   2.969   3.300  15.677  0.6846 -0.3774 -0.0892
  266TMC3    O1 4086   2.576   3.095  15.308  0.3765 -0.4699  0.4132
  266TMC3    O2 4087   3.090   3.313  15.667  0.6350  0.4812 -0.2205
  267MPD2     C 4088   4.628   0.481   0.244 -0.9597  0.6147  0.2303
  267MPD2    C1 4089   0.001   0.510   0.162  0.0780  0.5003  0.2447
  267MPD2    C2 4090   4.714   0.545   0.030  0.0989  0.0902  0.1909
  267MPD2    C3 4091   4.585   0.557  17.735 -0.5238 -0.5810  0.5220
  267MPD2    C4 4092   4.478   0.549   0.077  0.8487 -0.7801  0.9004
  267MPD2    C5 4093   4.501   0.509   0.202  0.4447 -0.6603 -0.4655
  267MPD2     H 4094   0.053   0.540  17.704 -1.3270  1.9569 -1.3569
  267MPD2    H1 4095   4.373   0.549   0.051  0.6845 -1.0087  1.5815
  267MPD2    H2 4096   4.638   0.438   0.344 -0.0393 -0.1703 -0.1933
  267MPD2    H3 4097   4.412   0.503   0.264  0.9336 -1.8241  0.1376
  267MPD2     N 4098   4.548   0.583  17.605  0.2032 -0.2547 -0.2147
  267MPD2    H5 4099   4.451   0.606  17.585  0.2618  2.3074  2.3723
  267MPD2    N1 4100   0.131   0.492   0.208 -0.8709 -0.1263  0.1272
  267MPD2    H7 4101   0.144   0.430   0.288  0.7057  0.6822  0.4928
  268TMC3    C1 4102   0.370   0.497   0.209 -0.3648  0.9082 -0.3061
  268TMC3    C2 4103   0.482   0.517   0.134 -0.0060  0.3342  0.1112
  268TMC3    C3 4104   0.597   0.529   0.209  0.8273  0.2158 -1.0883
  268TMC3    C4 4105   0.367   0.473   0.343 -0.3751 -0.8255 -0.2507
  268TMC3    C5 4106   0.484   0.488   0.408 -0.9309 -0.1503  0.7065
  268TMC3    C6 4107   0.597   0.516   0.345 -0.5185 -0.2420 -0.5484
  268TMC3     C 4108   0.243   0.530   0.141 -0.1880 -1.4928 -0.4757
  268TMC3     O 4109   0.255   0.587   0.034  0.3497  0.0075 -0.4403
  268TMC3     H 4110   0.474   0.538   0.028  0.2618 -1.7633 -0.3352
  268TMC3    H1 4111   0.283   0.452   0.409 -0.0712 -1.3365 -0.0220
  268TMC3    H2 4112   0.697   0.518   0.386 -1.6525 -2.5354  2.3417
  268TMC3    C7 4113   0.494   0.484   0.555  0.9823  0.5029  0.1054
  268TMC3    C8 4114   0.723   0.520   0.135 -0.8419 -0.2674 -0.1419
  268TMC3    O1 4115   0.401   0.427   0.616  0.7622  0.1291 -0.0830
  268TMC3    O2 4116   0.822   0.466   0.178 -0.2519  0.2453  0.3557
  269MPD2     C 4117   0.689   3.493  15.628 -0.7087  0.1789 -0.1939
  269MPD2    C1 4118   0.555   3.500  15.582  0.8462  1.2462  0.6639
  269MPD2    C2 4119   0.499   3.617  15.539 -0.1707  0.1690 -0.8848
  269MPD2    C3 4120   0.575   3.726  15.541  0.1083 -0.1986  0.2874
  269MPD2    C4 4121   0.711   3.715  15.565 -0.1079 -0.1797  0.2980
  269MPD2    C5 4122   0.770   3.595  15.603  0.1467 -0.7949  0.9964
  269MPD2     H 4123   0.395   3.622  15.508 -0.7629  0.9390  1.1922
  269MPD2    H1 4124   0.787   3.791  15.558 -0.6273  0.3542  0.4345
  269MPD2    H2 4125   0.740   3.403  15.660  0.6174  0.7671 -0.6834
  269MPD2    H3 4126   0.878   3.587  15.603  0.2832  1.0582  0.1044
  269MPD2     N 4127   0.521   3.856  15.504  0.8715  1.1597  0.1233
  269MPD2    H5 4128   0.424   3.849  15.474  0.6449  1.1823  0.8505
  269MPD2    N1 4129   0.481   3.383  15.576 -0.1251  0.3464 -0.2213
  269MPD2    H7 4130   0.529   3.296  15.595  2.3114  1.6408 -0.3615
  270TMC3    C1 4131   0.294   3.248  15.532  0.0491 -0.7040 -0.1784
  270TMC3    C2 4132   0.169   3.214  15.573 -0.1601 -0.6224  0.8920
  270TMC3    C3 4133   0.143   3.081  15.567 -0.1288  0.1059 -0.1277
  270TMC3    C4 4134   0.387   3.169  15.474 -0.8316 -0.0024 -0.2516
  270TMC3    C5 4135   0.343   3.040  15.454  0.4764 -0.1054  0.3508
  270TMC3    C6 4136   0.228   2.995  15.509 -0.2764  0.2812 -0.0106
  270TMC3     C 4137   0.343   3.378  15.559  0.2666  0.8968  0.2251
  270TMC3     O 4138   0.262   3.463  15.588 -0.6132 -0.5252 -0.0738
  270TMC3     H 4139   0.099   3.284  15.616  1.0414  0.6094  0.8317
  270TMC3    H1 4140   0.469   3.206  15.414 -0.7633 -0.0302 -0.1760
  270TMC3    H2 4141   0.201   2.891  15.494  2.3014 -0.5139  0.8573
  270TMC3    C7 4142   0.439   2.946  15.421 -0.0999  0.7459 -0.0379
  270TMC3    C8 4143   0.016   3.035  15.620  0.0186  0.8887  0.2365
  270TMC3    O1 4144   0.543   2.957  15.484  0.5129 -0.2502 -0.5918
  270TMC3    O2 4145   0.025   2.975  15.731 -0.0728 -0.2613 -0.3845
  271MPD2     C 4146   4.479   2.946  13.748 -0.6213 -0.3174 -0.2208
  271MPD2    C1 4147   4.410   2.939  13.865  0.2129  0.8406  0.6409
  271MPD2    C2 4148   4.287   2.986  13.873  0.3132 -0.6975 -0.4418
  271MPD2    C3 4149   4.221   3.035  13.759  0.8301 -1.0272  0.2302
  271MPD2    C4 4150   4.288   3.045  13.642  1.1199  0.6436  0.0203
  271MPD2    C5 4151   4.419   2.995  13.638 -0.1637 -0.3774  0.1553
  271MPD2     H 4152   4.234   2.986  13.968  1.2515 -2.2982  0.0766
  271MPD2    H1 4153   4.244   3.082  13.549 -2.0214 -0.3381  1.1307
  271MPD2    H2 4154   4.581   2.912  13.735 -0.2187  0.0229  2.0344
  271MPD2    H3 4155   4.480   3.000  13.549 -1.0913 -0.6366 -0.4974
  271MPD2     N 4156   4.085   3.072  13.759  0.3577  0.1192  0.2576
  271MPD2    H5 4157   4.042   3.111  13.676  1.8937  1.4359  0.0809
  271MPD2    N1 4158   4.468   2.897  13.982 -0.2218 -0.3184 -0.0994
  271MPD2    H7 4159   4.405   2.912  14.060 -0.3491 -1.6980  0.0572
  272TMC3    C1 4160   4.625   2.834  14.148  0.4992 -0.0385  0.3700
  272TMC3    C2 4161   0.016   2.798  14.172 -0.1139 -0.0803  0.3181
  272TMC3    C3 4162   0.057   2.789  14.301  0.1468 -0.0686  0.1881
  272TMC3    C4 4163   4.529   2.859  14.246  0.0722 -0.0730 -0.0668
  272TMC3    C5 4164   4.580   2.871  14.373  0.0429  0.1647 -0.1233
  272TMC3    C6 4165   4.712   2.829  14.405 -0.1882  0.0261 -0.1289
  272TMC3     C 4166   4.602   2.854  14.004 -0.4946 -0.6908  0.3663
  272TMC3     O 4167   4.686   2.833  13.917  0.3043  0.2503  0.3180
  272TMC3     H 4168   0.092   2.785  14.096 -0.4025 -1.6151  0.2954
  272TMC3    H1 4169   4.426   2.890  14.229 -0.2698 -1.1897 -0.0317
  272TMC3    H2 4170   0.003   2.816  14.509 -0.5606  1.1907  0.1253
  272TMC3    C7 4171   4.495   2.921  14.475 -0.0492  0.1035 -0.0971
  272TMC3    C8 4172   0.200   2.794  14.336  0.1004 -0.5984  0.1654
  272TMC3    O1 4173   4.374   2.898  14.458 -0.0012 -0.2797 -0.4113
  272TMC3    O2 4174   0.272   2.820  14.239 -0.0482 -0.1652  0.0313
  273MPD2     C 4175   1.234   0.662  11.581  0.7401 -0.4856 -0.3400
  273MPD2    C1 4176   1.299   0.772  11.642 -0.7938 -0.0977  1.1702
  273MPD2    C2 4177   1.342   0.880  11.562 -0.1210  0.0795 -0.3455
  273MPD2    C3 4178   1.312   0.886  11.425  0.8823 -0.1930  0.1194
  273MPD2    C4 4179   1.240   0.779  11.370  0.8355 -1.2773  0.5828
  273MPD2    C5 4180   1.206   0.666  11.451 -0.7020  0.8126 -0.3735
  273MPD2     H 4181   1.383   0.968  11.610  1.1291 -0.9199  0.4041
  273MPD2    H1 4182   1.205   0.782  11.267  0.8268  1.8211  0.6772
  273MPD2    H2 4183   1.201   0.574  11.636 -1.6925 -0.1899 -1.3097
  273MPD2    H3 4184   1.153   0.579  11.414 -0.6580  0.0570  1.3510
  273MPD2     N 4185   1.344   0.997  11.338 -0.4515  0.1501  0.1219
  273MPD2    H5 4186   1.308   0.991  11.243 -2.1768 -0.3348  0.7949
  273MPD2    N1 4187   1.324   0.772  11.785  0.2681  0.0417 -0.0111
  273MPD2    H7 4188   1.280   0.694  11.834 -0.8959  1.4834  1.2189
  274TMC3    C1 4189   1.433   1.216  11.267  0.3823  0.2253 -0.1028
  274TMC3    C2 4190   1.357   1.212  11.156 -0.5798 -0.1888 -0.5403
  274TMC3    C3 4191   1.379   1.300  11.052 -0.6230  0.5793  0.4734
  274TMC3    C4 4192   1.519   1.316  11.288  0.5483  0.2366  0.0622
  274TMC3    C5 4193   1.540   1.404  11.189  0.2152 -0.5029 -0.2339
  274TMC3    C6 4194   1.471   1.396  11.069  0.0961 -0.0537 -0.1342
  274TMC3     C 4195   1.411   1.121  11.379  0.6023  0.4923  0.1370
  274TMC3     O 4196   1.436   1.146  11.495 -0.5736  0.0539  0.2033
  274TMC3     H 4197   1.278   1.139  11.152  0.7816 -1.7166  0.1720
  274TMC3    H1 4198   1.570   1.322  11.383 -0.3795  0.6970  0.5333
  274TMC3    H2 4199   1.451   1.482  11.006 -2.2292  1.3001  2.4669
  274TMC3    C7 4200   1.556   1.540  11.235  0.0127  0.0154  0.8483
  274TMC3    C8 4201   1.271   1.315  10.960  0.6573 -0.2725 -0.4157
  274TMC3    O1 4202   1.599   1.615  11.149 -0.0166 -0.0755  0.2161
  274TMC3    O2 4203   1.171   1.257  10.999 -0.7019 -0.6378  0.0077
  275MPD2     C 4204   1.412   3.810  14.536  0.1646  0.1675 -0.4192
  275MPD2    C1 4205   1.313   3.905  14.513  0.5422  0.2973  0.0514
  275MPD2    C2 4206   1.199   3.855  14.461 -0.2743 -0.3751  0.0740
  275MPD2    C3 4207   1.177   3.720  14.432  0.8033  0.2563  0.0748
  275MPD2    C4 4208   1.269   3.623  14.470  0.2781  0.6427 -0.3197
  275MPD2    C5 4209   1.387   3.674  14.520 -0.9554 -0.1099  0.2418
  275MPD2     H 4210   1.120   3.928  14.447  0.1485  0.0459 -0.1140
  275MPD2    H1 4211   1.255   3.516  14.460  0.6336  0.5661 -0.0370
  275MPD2    H2 4212   1.507   3.840  14.580  0.5382 -0.5136 -0.7584
  275MPD2    H3 4213   1.455   3.602  14.563 -1.6891 -0.2581  1.1759
  275MPD2     N 4214   1.052   3.672  14.385  0.5743 -0.3134  0.7280
  275MPD2    H5 4215   1.029   3.574  14.401  0.9823 -0.5839 -0.3726
  275MPD2    N1 4216   1.320   4.044  14.529  0.3907 -0.0297 -0.3958
  275MPD2    H7 4217   1.239   4.091  14.490 -0.0003 -0.6752 -0.3503
  276TMC3    C1 4218   1.400   4.249  14.610  0.0944 -0.1462  0.1992
  276TMC3    C2 4219   1.272   4.293  14.572 -0.1689 -0.0426  1.1990
  276TMC3    C3 4220   1.217   4.389  14.653 -0.5681  0.5187 -0.4277
  276TMC3    C4 4221   1.480   4.320  14.693 -0.4261  1.1278 -0.1530
  276TMC3    C5 4222   1.422   4.427  14.759 -0.3266 -0.1168  0.0095
  276TMC3    C6 4223   1.288   4.464  14.744  0.2474 -0.2843 -0.9329
  276TMC3     C 4224   1.420   4.107  14.593 -0.3574 -0.0150  0.2509
  276TMC3     O 4225   1.521   4.054  14.644  0.6907 -0.2137 -0.1574
  276TMC3     H 4226   1.218   4.247  14.490  0.7725 -1.5010  1.3785
  276TMC3    H1 4227   1.577   4.280  14.717 -0.1630  0.2600 -2.6228
  276TMC3    H2 4228   1.241   4.530  14.815 -0.0573 -2.3261  0.7566
  276TMC3    C7 4229   1.499   4.500  14.854 -0.1426  0.3116  0.2504
  276TMC3    C8 4230   1.109   4.320  14.724 -0.2376  0.4417 -0.5734
  276TMC3    O1 4231   1.587   4.436  14.913 -0.2687 -0.3851  0.3273
  276TMC3    O2 4232   1.121   4.310  14.842  0.0011 -0.1841  0.7809
  277MPD2     C 4233   2.939   3.312  13.475 -0.4915 -0.1394  0.2611
  277MPD2    C1 4234   2.799   3.320  13.472 -0.4936  0.0828  0.4224
  277MPD2    C2 4235   2.730   3.226  13.545  0.2820 -0.6065 -0.2721
  277MPD2    C3 4236   2.786   3.122  13.622  0.4955  0.5473  0.3889
  277MPD2    C4 4237   2.929   3.116  13.619 -0.4785 -0.1064 -0.0638
  277MPD2    C5 4238   3.001   3.219  13.553  0.0193 -0.1968  0.4986
  277MPD2     H 4239   2.622   3.226  13.538  0.2526 -1.1446  0.1834
  277MPD2    H1 4240   2.976   3.035  13.673  0.9930  0.1274 -1.0022
  277MPD2    H2 4241   3.004   3.380  13.422 -2.3791  1.6075  0.1808
  277MPD2    H3 4242   3.108   3.228  13.572  0.2354 -1.5145 -0.1568
  277MPD2     N 4243   2.702   3.019  13.678  0.4225 -0.2227  0.5433
  277MPD2    H5 4244   2.601   3.026  13.673  0.4636 -0.9105 -1.0929
  277MPD2    N1 4245   2.746   3.420  13.384 -0.2321  0.0126  0.3867
  277MPD2    H7 4246   2.808   3.486  13.340 -1.6291 -0.4577 -2.2634
  278TMC3    C1 4247   2.650   2.810  13.783 -0.0521 -0.2463 -1.0534
  278TMC3    C2 4248   2.681   2.675  13.793 -0.2222 -0.4155  0.0912
  278TMC3    C3 4249   2.583   2.579  13.820  0.3565  0.0721  0.9023
  278TMC3    C4 4250   2.522   2.853  13.814 -0.5306  0.7053  0.2156
  278TMC3    C5 4251   2.430   2.752  13.852 -0.9726  0.0220  0.5204
  278TMC3    C6 4252   2.456   2.616  13.855  0.5635  0.3428  0.4673
  278TMC3     C 4253   2.747   2.892  13.707  0.1215  0.0025  1.7218
  278TMC3     O 4254   2.860   2.848  13.694 -0.0378  0.3627 -0.9207
  278TMC3     H 4255   2.782   2.644  13.770  0.1626 -0.1761  1.4804
  278TMC3    H1 4256   2.481   2.952  13.801 -1.4070  0.4470  1.0538
  278TMC3    H2 4257   2.386   2.549  13.904 -0.6820  0.6707 -0.8737
  278TMC3    C7 4258   2.308   2.795  13.911 -0.2188 -0.3818  0.0880
  278TMC3    C8 4259   2.627   2.446  13.811 -0.3862 -0.9391 -0.1775
  278TMC3    O1 4260   2.313   2.913  13.936 -0.6340  0.1978 -0.6391
  278TMC3    O2 4261   2.741   2.426  13.787 -0.3797 -0.0518 -0.1688
  279MPD2     C 4262   1.599   3.044   0.595 -0.6231  0.3454  0.0852
  279MPD2    C1 4263   1.691   3.138   0.593 -0.8848  0.7079  0.1383
  279MPD2    C2 4264   1.786   3.141   0.491 -0.6551  0.1561 -0.6644
  279MPD2    C3 4265   1.795   3.039   0.396 -0.4682  0.1832  0.3200
  279MPD2    C4 4266   1.708   2.929   0.406  0.3015  0.1437 -0.1583
  279MPD2    C5 4267   1.616   2.932   0.508 -0.0448  0.4044 -1.1905
  279MPD2     H 4268   1.850   3.228   0.488  0.4728 -0.7460 -2.4543
  279MPD2    H1 4269   1.711   2.842   0.343  1.6915 -0.1057  0.2454
  279MPD2    H2 4270   1.512   3.030   0.658  0.2686  0.1064  1.2782
  279MPD2    H3 4271   1.539   2.855   0.512 -0.0611  0.3177 -3.1341
  279MPD2     N 4272   1.876   3.046   0.276  0.4550  0.2300  0.0780
  279MPD2    H5 4273   1.857   2.967   0.216  0.2745  1.1705 -1.1062
  279MPD2    N1 4274   1.662   3.253   0.673  0.1372 -0.4880 -0.6489
  279MPD2    H7 4275   1.572   3.254   0.720  0.1705 -3.7292 -0.5218
  280TMC3    C1 4276   1.666   3.474   0.715  0.1850 -0.1718  0.2465
  280TMC3    C2 4277   1.536   3.463   0.758 -0.6030 -0.3340  0.2643
  280TMC3    C3 4278   1.444   3.559   0.707 -0.5603 -0.3576  0.5451
  280TMC3    C4 4279   1.704   3.577   0.636  0.1632  0.2647  0.0588
  280TMC3    C5 4280   1.609   3.657   0.570 -0.3456  0.7004 -0.0159
  280TMC3    C6 4281   1.477   3.640   0.600  0.6038 -0.2598  0.3078
  280TMC3     C 4282   1.752   3.358   0.696  0.4177  0.3274 -0.4661
  280TMC3     O 4283   1.865   3.381   0.652 -0.2913  0.4430  0.3240
  280TMC3     H 4284   1.495   3.381   0.816 -0.3363 -0.1187  0.7523
  280TMC3    H1 4285   1.801   3.594   0.591 -0.0224  2.0040  0.3232
  280TMC3    H2 4286   1.395   3.692   0.551  0.2877 -1.0969 -0.0523
  280TMC3    C7 4287   1.654   3.748   0.472 -0.3442  0.4604 -0.3227
  280TMC3    C8 4288   1.297   3.537   0.722 -0.5003 -0.9558 -0.2532
  280TMC3    O1 4289   1.768   3.789   0.471 -0.0614 -0.4604  0.2652
  280TMC3    O2 4290   1.220   3.567   0.630 -0.1878 -0.1330  0.2156
  281TMC3    C1 4291   0.610   3.115  13.113 -0.3445  0.2357  0.2262
  281TMC3    C2 4292   0.744   3.143  13.103  0.5793  0.0210 -0.6061
  281TMC3    C3 4293   0.824   3.068  13.024 -0.0913  0.2744 -0.3935
  281TMC3    C4 4294   0.557   3.009  13.049 -0.3102 -0.4447  0.7726
  281TMC3    C5 4295   0.643   2.935  12.970  0.2880  0.8638  0.0693
  281TMC3    C6 4296   0.773   2.974  12.948  0.2430  0.1512  0.4073
  281TMC3     C 4297   0.513   3.199  13.178  0.1860 -0.3940  0.6746
  281TMC3     O 4298   0.406   3.150  13.213  0.1859  0.6129 -0.0907
  281TMC3     H 4299   0.789   3.224  13.159 -2.1382  2.1545 -1.5111
  281TMC3    H1 4300   0.450   2.994  13.041 -0.3030 -1.1428  2.0535
  281TMC3    H2 4301   0.832   2.912  12.882 -0.8435 -0.4897  0.0431
  281TMC3    C7 4302   0.612   2.800  12.932  0.4758  0.0748  0.1648
  281TMC3    C8 4303   0.970   3.095  13.006 -0.2071  0.0721 -0.3139
  281TMC3    O1 4304   0.676   2.750  12.840  0.4586 -0.0980 -0.2284
  281TMC3    O2 4305   1.037   2.993  12.996  0.0908  0.2154 -0.2070
  282MPD2     C 4306   2.751   0.019  15.241  0.1786 -0.0402 -0.1364
  282MPD2    C1 4307   2.624   0.058  15.233 -0.5917  0.0999  0.1846
  282MPD2    C2 4308   2.553   0.025  15.122 -0.1776 -0.6462  0.9130
  282MPD2    C3 4309   2.594   4.675  15.022  0.6629 -0.4779 -0.3715
  282MPD2    C4 4310   2.721   4.629  15.039 -0.1850 -0.9688  0.8220
  282MPD2    C5 4311   2.794   4.674  15.143 -0.0641 -0.3632 -1.0292
  282MPD2     H 4312   2.450   0.057  15.111  0.6605  1.8636  0.4090
  282MPD2    H1 4313   2.773   4.564  14.971 -1.6253 -0.9126 -0.3303
  282MPD2    H2 4314   2.805   0.040  15.332 -1.0880  0.4204  0.5072
  282MPD2    H3 4315   2.895   4.635  15.153  0.3087  1.4015  2.2192
  282MPD2     N 4316   2.509   4.638  14.909 -0.3018 -0.0923  0.0767
  282MPD2    H5 4317   2.423   4.690  14.901 -0.0474  0.2909 -0.2017
  282MPD2    N1 4318   2.559   0.135  15.330 -0.1277 -0.4590 -0.2343
  282MPD2    H7 4319   2.459   0.151  15.323  0.1076  1.6610  1.2439
  283TMC3    C1 4320   2.512   0.249  15.527  0.3885  0.5117 -0.3725
  283TMC3    C2 4321   2.508   0.380  15.554 -0.0686 -0.3199  0.4217
  283TMC3    C3 4322   2.408   0.428  15.631  0.3785 -0.6890 -0.9422
  283TMC3    C4 4323   2.417   0.155  15.571 -0.7297 -0.8681  0.0053
  283TMC3    C5 4324   2.329   0.212  15.657  0.4569  0.2943 -0.3416
  283TMC3    C6 4325   2.314   0.350  15.687  0.2130 -0.1898  0.1854
  283TMC3     C 4326   2.621   0.197  15.439 -0.5917  0.1051 -0.1843
  283TMC3     O 4327   2.740   0.214  15.472  0.1143 -0.0835  0.5318
  283TMC3     H 4328   2.592   0.437  15.516 -1.9770  1.7415 -0.7097
  283TMC3    H1 4329   2.427   0.048  15.555 -2.4566 -0.7452 -1.8575
  283TMC3    H2 4330   2.246   0.396  15.758 -1.5516  0.1001 -1.6930
  283TMC3    C7 4331   2.250   0.121  15.742 -0.7114 -0.2872  0.1745
  283TMC3    C8 4332   2.407   0.570  15.650  0.5423  0.2326  0.1704
  283TMC3    O1 4333   2.239   0.145  15.859 -0.5984  0.0041 -0.0159
  283TMC3    O2 4334   2.377   0.607  15.763  0.2108 -0.1211 -0.1399
  284MPD2     C 4335   0.946   3.362  12.244 -0.2184  0.5260 -0.1137
  284MPD2    C1 4336   0.885   3.417  12.128  0.4664  0.3596  0.3729
  284MPD2    C2 4337   0.809   3.333  12.047 -0.1996 -0.2245 -0.8202
  284MPD2    C3 4338   0.793   3.200  12.080 -0.6008  0.3733 -0.5738
  284MPD2    C4 4339   0.841   3.150  12.199 -0.3170  0.3110 -0.2276
  284MPD2    C5 4340   0.923   3.230  12.274 -0.0197 -0.2462  0.0649
  284MPD2     H 4341   0.747   3.373  11.967 -1.2203  2.5305  1.3276
  284MPD2    H1 4342   0.817   3.049  12.228 -2.0510  0.7896  0.0100
  284MPD2    H2 4343   1.001   3.411  12.324  1.5655 -2.2633  0.3565
  284MPD2    H3 4344   0.977   3.195  12.361  1.5041  0.8159 -0.4541
  284MPD2     N 4345   0.731   3.106  11.997 -0.0576  0.0027 -0.2542
  284MPD2    H5 4346   0.732   3.010  12.030 -0.2250  0.8169  2.1019
  284MPD2    N1 4347   0.895   3.554  12.105 -0.1072 -0.0190  0.1598
  284MPD2    H7 4348   0.843   3.598  12.030 -2.5528 -0.9574  1.2987
  285TMC3    C1 4349   0.995   3.759  12.090 -0.2573  0.5199  0.2274
  285TMC3    C2 4350   0.985   3.748  11.954 -0.0735 -0.3479  0.6668
  285TMC3    C3 4351   1.003   3.858  11.880  0.1811 -0.2243 -0.3953
  285TMC3    C4 4352   0.999   3.884  12.155 -0.7226 -0.8238 -0.7588
  285TMC3    C5 4353   0.997   3.994  12.069 -0.4834  0.2477  0.0711
  285TMC3    C6 4354   1.002   3.987  11.934  0.3566 -0.4966  0.1384
  285TMC3     C 4355   0.977   3.641  12.173  1.5020  0.4847  0.8882
  285TMC3     O 4356   1.034   3.639  12.284 -0.5342  0.4652 -0.3844
  285TMC3     H 4357   0.990   3.654  11.899 -0.3488  0.0473 -0.0415
  285TMC3    H1 4358   0.999   3.882  12.264 -0.6193  0.8461 -0.7355
  285TMC3    H2 4359   1.022   4.072  11.869 -2.1230 -0.1557 -0.1662
  285TMC3    C7 4360   1.029   4.121  12.138 -0.2341  0.4397  0.4669
  285TMC3    C8 4361   0.992   3.843  11.734 -0.6834 -0.4142 -0.4805
  285TMC3    O1 4362   1.105   4.116  12.232 -0.0368 -0.4124  0.2950
  285TMC3    O2 4363   0.929   3.743  11.703  0.2107  0.5699  0.0152
  286MPD2     C 4364   0.563   3.278   0.518  0.4737  0.1457  0.3751
  286MPD2    C1 4365   0.586   3.252   0.649  0.2503 -0.5656  0.2388
  286MPD2    C2 4366   0.646   3.137   0.691  0.4259 -0.4293  1.0666
  286MPD2    C3 4367   0.679   3.040   0.603  0.5159 -0.0143  0.5183
  286MPD2    C4 4368   0.666   3.069   0.470  0.2643  0.5772 -0.5715
  286MPD2    C5 4369   0.607   3.189   0.426 -0.4127 -0.0763 -0.6658
  286MPD2     H 4370   0.667   3.140   0.797  1.8399 -2.2285  0.8362
  286MPD2    H1 4371   0.684   2.990   0.398 -1.4541 -1.0911  0.8140
  286MPD2    H2 4372   0.506   3.365   0.486  2.0294  0.9927 -0.0812
  286MPD2    H3 4373   0.595   3.207   0.320 -3.0425 -0.6441 -0.4707
  286MPD2     N 4374   0.757   2.927   0.633 -0.0390  0.2905  0.5504
  286MPD2    H5 4375   0.761   2.864   0.554  0.8335  0.9022  0.1046
  286MPD2    N1 4376   0.558   3.342   0.750 -0.0927 -0.4818  0.3436
  286MPD2    H7 4377   0.567   3.301   0.842  1.1321  0.1974  0.5271
  287TMC3    C1 4378   0.872   2.766   0.766 -0.3375  0.1194 -0.2967
  287TMC3    C2 4379   0.857   2.686   0.654 -0.1476 -0.5483 -0.3944
  287TMC3    C3 4380   0.959   2.595   0.638 -0.1394 -0.4876  0.5905
  287TMC3    C4 4381   0.974   2.769   0.855 -0.3103 -0.0919  0.5683
  287TMC3    C5 4382   1.059   2.663   0.842  0.1890  0.0327  0.1522
  287TMC3    C6 4383   1.053   2.579   0.737 -0.1266 -0.5737 -0.0447
  287TMC3     C 4384   0.801   2.899   0.760 -0.3106  0.2693  0.1780
  287TMC3     O 4385   0.820   2.981   0.849 -0.3837  0.0426 -0.0642
  287TMC3     H 4386   0.767   2.686   0.593 -1.1620 -0.0443  1.0943
  287TMC3    H1 4387   0.989   2.846   0.929 -1.3562  0.2300  0.4533
  287TMC3    H2 4388   1.139   2.523   0.705  0.9762 -0.4129  2.6565
  287TMC3    C7 4389   1.173   2.661   0.924  0.9513 -0.3511 -0.3991
  287TMC3    C8 4390   0.952   2.489   0.537  0.2250  0.0853 -0.0814
  287TMC3    O1 4391   1.194   2.757   1.000 -0.3670 -0.2413  0.4874
  287TMC3    O2 4392   1.036   2.400   0.533  0.0844  0.5401 -0.0299
  288TMC3    C1 4393   2.216   1.880  14.571  0.7416  0.0323 -0.5069
  288TMC3    C2 4394   2.157   1.826  14.683 -0.2886  0.6221 -0.0720
  288TMC3    C3 4395   2.161   1.898  14.800  0.7184  0.4772 -0.2133
  288TMC3    C4 4396   2.250   2.011  14.574 -0.3974  0.0040  0.3032
  288TMC3    C5 4397   2.254   2.078  14.687  0.1733  0.0436 -0.2663
  288TMC3    C6 4398   2.221   2.022  14.803  0.3840  0.2735  0.3010
  288TMC3     C 4399   2.188   1.817  14.439  0.0315  0.4319  0.0028
  288TMC3     O 4400   2.185   1.885  14.337  0.0360 -0.1708  0.1052
  288TMC3     H 4401   2.110   1.729  14.684 -1.8305  1.3684  0.3436
  288TMC3    H1 4402   2.303   2.044  14.485  0.2339  0.6596  0.9216
  288TMC3    H2 4403   2.214   2.084  14.892  1.3363  0.5559  0.1754
  288TMC3    C7 4404   2.321   2.199  14.686 -0.3488  0.1187 -0.4709
  288TMC3    C8 4405   2.136   1.833  14.928  0.0492  1.0975 -0.1322
  288TMC3    O1 4406   2.333   2.248  14.569  0.2236  0.0097 -0.0182
  288TMC3    O2 4407   2.184   1.895  15.022 -0.0542 -0.7116 -0.0231
  289MPD2     C 4408   3.019   1.483  14.450 -0.1115 -0.0223  0.7707
  289MPD2    C1 4409   3.007   1.604  14.385  0.2465 -0.4779  0.0201
  289MPD2    C2 4410   2.895   1.616  14.301 -0.3394  0.4624  0.4747
  289MPD2    C3 4411   2.812   1.515  14.273 -0.3282  0.2892  0.5236
  289MPD2    C4 4412   2.841   1.392  14.322  0.3223 -0.6049 -0.6578
  289MPD2    C5 4413   2.941   1.374  14.416  0.4417 -0.9723 -0.1258
  289MPD2     H 4414   2.886   1.708  14.243 -1.5663  0.2608  0.3331
  289MPD2    H1 4415   2.777   1.308  14.297  1.4468 -1.5066 -0.4895
  289MPD2    H2 4416   3.100   1.467  14.521  0.3690 -0.9637  0.0125
  289MPD2    H3 4417   2.963   1.278  14.462 -0.7977 -1.6741 -0.9934
  289MPD2     N 4418   2.693   1.518  14.197  0.1559  0.1594  0.4492
  289MPD2    H5 4419   2.649   1.431  14.172  1.2583 -1.2587  3.4431
  289MPD2    N1 4420   3.103   1.713  14.406  0.0482 -0.3804  0.2246
  289MPD2    H7 4421   3.177   1.686  14.470  1.0677  0.4963 -0.5847
  290TMC3    C1 4422   2.490   1.613  14.121  0.1094 -0.7173 -0.3798
  290TMC3    C2 4423   2.417   1.728  14.109  0.2536  0.8616 -0.9004
  290TMC3    C3 4424   2.323   1.736  14.009  0.2706 -0.2464  0.0393
  290TMC3    C4 4425   2.461   1.498  14.051  0.1919 -0.0567  0.7476
  290TMC3    C5 4426   2.356   1.506  13.967 -0.3873 -0.0041  0.3159
  290TMC3    C6 4427   2.283   1.619  13.946  0.4123  0.3142  0.0600
  290TMC3     C 4428   2.630   1.635  14.158 -0.5977 -0.4575  0.0889
  290TMC3     O 4429   2.669   1.749  14.176  0.3247 -0.2607  0.1735
  290TMC3     H 4430   2.442   1.807  14.179 -1.6731  0.4195  0.2816
  290TMC3    H1 4431   2.522   1.410  14.064  2.4496  1.5442  1.1174
  290TMC3    H2 4432   2.185   1.608  13.902  0.4232 -3.2723  0.9340
  290TMC3    C7 4433   2.309   1.385  13.900  0.4895 -0.0334 -0.0916
  290TMC3    C8 4434   2.233   1.850  14.008 -0.0689  0.1716  0.6985
  290TMC3    O1 4435   2.253   1.395  13.794  0.2640 -0.1809 -0.2132
  290TMC3    O2 4436   2.118   1.839  13.957  0.3290  0.3619 -0.1362
  291MPD2     C 4437   1.388   1.390   0.056 -0.0566 -0.1517  0.4315
  291MPD2    C1 4438   1.522   1.395   0.030 -0.4874  0.0784  0.1585
  291MPD2    C2 4439   1.591   1.515   0.050 -0.8154  0.7793  0.1566
  291MPD2    C3 4440   1.526   1.628   0.086 -0.5470 -0.0133 -0.0389
  291MPD2    C4 4441   1.392   1.625   0.118  0.2494 -0.4753 -0.4320
  291MPD2    C5 4442   1.327   1.501   0.105 -0.8565 -0.0415 -0.2414
  291MPD2     H 4443   1.697   1.509   0.026 -0.5945  0.9360  1.0772
  291MPD2    H1 4444   1.330   1.712   0.139 -0.0807 -0.5271 -1.1723
  291MPD2    H2 4445   1.326   1.303   0.039 -1.3289  0.9121 -0.4006
  291MPD2    H3 4446   1.227   1.487   0.144 -0.6991  1.3770  0.7071
  291MPD2     N 4447   1.591   1.757   0.098 -0.5558 -0.5806 -0.1442
  291MPD2    H5 4448   1.531   1.824   0.146  1.1234  1.8692 -1.5126
  291MPD2    N1 4449   1.588   1.287  17.719 -0.2130 -0.4895 -0.2075
  291MPD2    H7 4450   1.683   1.300  17.686 -0.0960  0.4433  0.4893
  292TMC3    C1 4451   1.631   1.069  17.635  0.1130 -0.1284  0.5962
  292TMC3    C2 4452   1.764   1.092  17.643  0.5364 -0.2636 -1.0582
  292TMC3    C3 4453   1.849   1.022  17.564 -0.0259 -0.4708 -0.0608
  292TMC3    C4 4454   1.584   0.963  17.567 -0.2488 -0.2027 -0.7531
  292TMC3    C5 4455   1.672   0.886  17.494  0.0712 -0.4349  0.1498
  292TMC3    C6 4456   1.806   0.909  17.489  0.2870  0.4588 -0.7279
  292TMC3     C 4457   1.541   1.158  17.702  0.3699 -0.2446  0.1956
  292TMC3     O 4458   1.434   1.100  17.737  0.1770  0.1056 -0.9671
  292TMC3     H 4459   1.808   1.154  17.721 -0.0604  0.2452 -1.1240
  292TMC3    H1 4460   1.483   0.964  17.529 -0.3061 -1.5660 -0.6415
  292TMC3    H2 4461   1.872   0.829  17.457 -0.7682 -0.2356 -1.1469
  292TMC3    C7 4462   1.640   0.750  17.472 -0.0766 -0.6287  0.0353
  292TMC3    C8 4463   1.964   0.974  17.638  0.3425  0.0047  0.0802
  292TMC3    O1 4464   1.702   0.684  17.391 -0.0314 -0.0355  0.1787
  292TMC3    O2 4465   2.063   0.955  17.572  0.1184  0.0567  0.0764
  293MPD2     C 4466   3.845   3.082  12.864  0.2887 -0.1112 -0.4645
  293MPD2    C1 4467   3.832   2.946  12.866  0.1859  0.2660  0.4784
  293MPD2    C2 4468   3.901   2.869  12.963  0.1919  0.0610  0.0152
  293MPD2    C3 4469   3.995   2.927  13.045  0.4403  0.1612  0.2610
  293MPD2    C4 4470   3.999   3.063  13.044 -0.1700 -0.0338 -0.1732
  293MPD2    C5 4471   3.919   3.141  12.961 -0.0712  0.0169  0.5843
  293MPD2     H 4472   3.877   2.764  12.950  0.2380  0.0520  0.0030
  293MPD2    H1 4473   4.061   3.114  13.116  0.9116 -1.8545  0.1904
  293MPD2    H2 4474   3.808   3.143  12.782 -0.3072  0.8048  0.4799
  293MPD2    H3 4475   3.934   3.248  12.955  2.2604 -0.4095 -1.4625
  293MPD2     N 4476   4.076   2.839  13.119  0.6737 -0.3646  0.1611
  293MPD2    H5 4477   4.059   2.740  13.111  1.4064 -0.6008  1.5289
  293MPD2    N1 4478   3.740   2.897  12.770  0.1299  0.4425  0.3705
  293MPD2    H7 4479   3.695   2.965  12.710 -0.3847  0.1566  0.4320
  294TMC3    C1 4480   3.602   2.752  12.646  0.0474 -1.0543 -0.2454
  294TMC3    C2 4481   3.494   2.666  12.655 -0.0663 -0.2203  0.1843
  294TMC3    C3 4482   3.424   2.641  12.540  0.5228  0.0414  0.4535
  294TMC3    C4 4483   3.639   2.803  12.525 -0.1745 -0.2620 -0.3744
  294TMC3    C5 4484   3.568   2.780  12.416 -0.5043  0.0521 -0.1863
  294TMC3    C6 4485   3.456   2.701  12.423 -0.8706 -0.1124  0.2756
  294TMC3     C 4486   3.685   2.771  12.765  0.3562  0.0948 -1.1025
  294TMC3     O 4487   3.704   2.678  12.845 -0.2453 -0.1460 -0.3174
  294TMC3     H 4488   3.484   2.611  12.748  1.4450 -2.8037 -1.1653
  294TMC3    H1 4489   3.713   2.882  12.512 -0.5227  0.5697  2.7074
  294TMC3    H2 4490   3.386   2.700  12.341 -0.4805  0.8510 -0.0738
  294TMC3    C7 4491   3.579   2.887  12.308  0.3575  0.2212  0.3256
  294TMC3    C8 4492   3.320   2.545  12.544  0.2137  0.2804  0.3071
  294TMC3    O1 4493   3.634   2.989  12.345 -0.2670 -0.0582 -0.6073
  294TMC3    O2 4494   3.308   2.487  12.651 -0.1803 -0.2380  0.2633
  295MPD2     C 4495   0.515   2.305   1.122 -0.6727  0.5510  0.1984
  295MPD2    C1 4496   0.467   2.209   1.030  0.4663  0.4746  0.5228
  295MPD2    C2 4497   0.485   2.074   1.042  0.3502 -0.1154 -0.0439
  295MPD2    C3 4498   0.566   2.029   1.149 -0.3251 -0.0547  0.6952
  295MPD2    C4 4499   0.616   2.125   1.237  0.1586  0.2636 -0.7268
  295MPD2    C5 4500   0.589   2.254   1.222  0.1704  0.2944 -0.1207
  295MPD2     H 4501   0.442   2.004   0.971 -0.0934 -0.1161  0.2299
  295MPD2    H1 4502   0.688   2.095   1.312 -1.9953 -0.6124  0.9881
  295MPD2    H2 4503   0.493   2.411   1.114 -1.2483  0.3342 -1.0272
  295MPD2    H3 4504   0.628   2.334   1.284  0.1720  0.0635  0.1742
  295MPD2     N 4505   0.604   1.899   1.174  0.2079 -0.0863  0.0817
  295MPD2    H5 4506   0.663   1.897   1.257 -1.6362  4.2705  1.4957
  295MPD2    N1 4507   0.388   2.244   0.915 -0.3884 -0.1869 -0.5110
  295MPD2    H7 4508   0.352   2.160   0.871 -0.5979  0.3330 -1.3250
  296TMC3    C1 4509   0.608   1.666   1.144  0.4061 -0.1797  0.4315
  296TMC3    C2 4510   0.594   1.639   1.281  0.0681 -0.6194 -0.8033
  296TMC3    C3 4511   0.611   1.515   1.328 -0.4087 -0.2177  0.2814
  296TMC3    C4 4512   0.620   1.557   1.059  0.6590  0.0199  0.2076
  296TMC3    C5 4513   0.611   1.434   1.110 -0.2242  0.0849 -0.0094
  296TMC3    C6 4514   0.621   1.408   1.244  0.1836  0.3107 -0.2687
  296TMC3     C 4515   0.571   1.797   1.092 -0.5532 -0.5516  0.4852
  296TMC3     O 4516   0.509   1.779   0.989 -0.3438  0.5096  0.3049
  296TMC3     H 4517   0.615   1.721   1.349 -0.3028  1.2070 -2.8897
  296TMC3    H1 4518   0.641   1.562   0.953 -1.0301  0.7605 -0.0920
  296TMC3    H2 4519   0.617   1.307   1.285  0.1593  0.0739 -0.8538
  296TMC3    C7 4520   0.573   1.331   1.013  0.1880  1.4306  0.7906
  296TMC3    C8 4521   0.560   1.497   1.466  0.1887 -0.5015 -1.0385
  296TMC3    O1 4522   0.560   1.369   0.898 -0.5931 -0.0030  0.0968
  296TMC3    O2 4523   0.584   1.398   1.531  0.8023 -0.0682 -0.5671
  297MPD2     C 4524   2.007   3.638  15.917  1.0777 -0.4657 -0.1879
  297MPD2    C1 4525   1.936   3.745  15.964 -0.3703 -0.3302 -0.2282
  297MPD2    C2 4526   1.982   3.825  16.068 -0.3358  1.0961 -0.1415
  297MPD2    C3 4527   2.106   3.803  16.119 -0.4030  0.9699 -0.7617
  297MPD2    C4 4528   2.183   3.703  16.067  0.3373  0.2896  0.6338
  297MPD2    C5 4529   2.132   3.623  15.967 -0.8445 -0.8145  0.0062
  297MPD2     H 4530   1.928   3.916  16.092  1.3669  2.3032 -0.8529
  297MPD2    H1 4531   2.273   3.673  16.120 -0.0705 -0.9878  0.6025
  297MPD2    H2 4532   1.966   3.579  15.836  1.8509  0.7561 -1.4690
  297MPD2    H3 4533   2.194   3.549  15.918  1.2476  1.3853 -0.6754
  297MPD2     N 4534   2.162   3.891  16.221  0.6099 -0.1049 -0.4640
  297MPD2    H5 4535   2.106   3.962  16.266  1.2782  0.1406 -0.0139
  297MPD2    N1 4536   1.820   3.791  15.898  0.4071  0.0166 -0.3363
  297MPD2    H7 4537   1.763   3.859  15.946  0.3533 -1.1733  1.3132
  298TMC3    C1 4538   1.673   3.835  15.719  0.3102  0.0255 -0.1440
  298TMC3    C2 4539   1.654   3.830  15.586  0.0867 -0.0987 -0.3851
  298TMC3    C3 4540   1.528   3.864  15.540 -0.0173  0.3242  0.5311
  298TMC3    C4 4541   1.563   3.844  15.808  0.2786  0.1509  0.6184
  298TMC3    C5 4542   1.439   3.875  15.762  0.7602 -0.1735 -0.3680
  298TMC3    C6 4543   1.420   3.883  15.625  0.0488  0.3556  0.2489
  298TMC3     C 4544   1.796   3.768  15.766 -0.0631  0.2831  0.3215
  298TMC3     O 4545   1.872   3.724  15.678  0.2471 -0.3258  0.3276
  298TMC3     H 4546   1.732   3.802  15.515 -0.6951 -0.1579 -1.2155
  298TMC3    H1 4547   1.581   3.843  15.915 -1.0076 -0.7825  0.8233
  298TMC3    H2 4548   1.326   3.903  15.573 -0.3860 -4.7469 -0.9241
  298TMC3    C7 4549   1.332   3.889  15.853  0.4827 -0.4431 -0.0155
  298TMC3    C8 4550   1.513   3.875  15.399 -0.4224 -0.3511 -0.4662
  298TMC3    O1 4551   1.357   3.908  15.972  0.6521  0.1498 -0.6484
  298TMC3    O2 4552   1.401   3.866  15.350  0.3534  0.3220 -0.1051
  299MPD2     C 4553   2.216   3.108  10.623  0.5189 -0.1115  1.0817
  299MPD2    C1 4554   2.207   3.203  10.525 -0.0784  0.5019  0.2384
  299MPD2    C2 4555   2.092   3.212  10.446  0.5407  0.0808  0.8097
  299MPD2    C3 4556   1.984   3.131  10.467 -0.1816  0.5772  0.1704
  299MPD2    C4 4557   1.998   3.030  10.563 -0.8778 -0.6616 -0.1699
  299MPD2    C5 4558   2.111   3.023  10.635  0.2127 -0.5655  0.1779
  299MPD2     H 4559   2.078   3.300  10.384 -1.9906 -0.7706  0.1533
  299MPD2    H1 4560   1.922   2.956  10.586  0.1292 -2.2173 -1.7855
  299MPD2    H2 4561   2.303   3.088  10.683 -0.8335  1.4372  3.5591
  299MPD2    H3 4562   2.134   2.938  10.698 -0.8528 -0.1011  1.1984
  299MPD2     N 4563   1.857   3.152  10.403  0.0773  0.2685 -0.1831
  299MPD2    H5 4564   1.784   3.089  10.435  0.9203 -1.3154 -1.3852
  299MPD2    N1 4565   2.304   3.309  10.523 -0.9315 -0.3318  0.1920
  299MPD2    H7 4566   2.375   3.316  10.595 -0.2140 -1.9992 -0.3535
  300TMC3    C1 4567   1.688   3.263  10.279 -0.1260  0.3719 -0.5476
  300TMC3    C2 4568   1.658   3.384  10.218  0.6073  0.4708 -0.4127
  300TMC3    C3 4569   1.522   3.420  10.233  0.2063 -0.7443 -0.6680
  300TMC3    C4 4570   1.595   3.177  10.329  0.8962 -0.6653  0.0619
  300TMC3    C5 4571   1.466   3.220  10.333 -0.1358  0.2350  0.7073
  300TMC3    C6 4572   1.427   3.341  10.292 -0.1555  0.4531  0.5777
  300TMC3     C 4573   1.831   3.239  10.296 -0.5609 -0.4456  0.5533
  300TMC3     O 4574   1.912   3.317  10.242  0.4609 -0.0962  0.4999
  300TMC3     H 4575   1.738   3.449  10.185 -0.2423  2.9724  2.4865
  300TMC3    H1 4576   1.617   3.071  10.339 -1.0558 -0.9977  0.7765
  300TMC3    H2 4577   1.326   3.372  10.317  0.1407  0.9570  1.1523
  300TMC3    C7 4578   1.379   3.131  10.406 -0.1055  0.6233  0.3914
  300TMC3    C8 4579   1.493   3.566  10.242 -0.1355  0.0102  1.1022
  300TMC3    O1 4580   1.388   3.009  10.386  0.5474  0.3197 -0.9608
  300TMC3    O2 4581   1.584   3.641  10.269 -0.1548 -0.7178 -0.6407
  301MPD2     C 4582   4.502   0.399   1.236 -0.2988 -0.0472 -0.0730
  301MPD2    C1 4583   4.413   0.367   1.138 -0.0400  0.5667  0.1171
  301MPD2    C2 4584   4.420   0.247   1.078  0.2680  0.5726  0.6935
  301MPD2    C3 4585   4.498   0.143   1.131  0.2749 -0.1430 -0.0909
  301MPD2    C4 4586   4.582   0.174   1.239  0.2602  0.3298 -0.8645
  301MPD2    C5 4587   4.586   0.309   1.283  0.7282  0.5487  0.2720
  301MPD2     H 4588   4.359   0.237   0.990 -0.1000  1.2184  0.8759
  301MPD2    H1 4589   4.649   0.099   1.279 -0.7275 -0.2836 -0.3325
  301MPD2    H2 4590   4.489   0.493   1.288  1.4896 -0.0585  0.4065
  301MPD2    H3 4591   4.662   0.341   1.353  0.8271 -1.3932  1.0507
  301MPD2     N 4592   4.505   0.014   1.079  1.1449 -0.6994 -0.0951
  301MPD2    H5 4593   4.568   4.683   1.119 -0.7353 -1.5677  1.4304
  301MPD2    N1 4594   4.307   0.453   1.083 -0.5761  0.2119  0.3023
  301MPD2    H7 4595   4.254   0.423   1.002  0.5330 -0.2525 -0.2503
  302TMC3    C1 4596   4.450   4.597   0.914 -0.0583  0.6088  0.0270
  302TMC3    C2 4597   4.503   4.490   0.984  0.6463  0.1773  0.3892
  302TMC3    C3 4598   4.481   4.363   0.931 -0.0855 -0.3637 -0.2404
  302TMC3    C4 4599   4.381   4.574   0.795  0.1484  1.0144  0.2707
  302TMC3    C5 4600   4.353   4.447   0.759  0.5153  0.7983 -0.0866
  302TMC3    C6 4601   4.411   4.339   0.816  0.2587 -0.5260 -0.7145
  302TMC3     C 4602   4.407   4.707   0.990 -0.1262 -0.7173 -0.3968
  302TMC3     O 4603   4.305   0.018   0.949 -0.1088 -0.2771 -0.5315
  302TMC3     H 4604   4.541   4.506   1.085 -2.6610 -1.7381  1.9138
  302TMC3    H1 4605   4.363   4.662   0.734 -0.2754  0.9593  0.3154
  302TMC3    H2 4606   4.397   4.242   0.769  0.4125 -1.3893  1.0512
  302TMC3    C7 4607   4.303   4.432   0.625 -0.0282 -0.5435 -0.3767
  302TMC3    C8 4608   4.570   4.262   0.982  0.7610  0.2425 -0.5078
  302TMC3    O1 4609   4.334   4.330   0.560 -0.2360 -0.2418 -0.6104
  302TMC3    O2 4610   4.659   4.291   1.062  0.0014  0.0287  0.1252
  303MPD2     C 4611   4.598   2.730  10.553  0.7202 -0.4447  0.0119
  303MPD2    C1 4612   4.552   2.598  10.555 -0.6517 -0.2296  0.6990
  303MPD2    C2 4613   4.577   2.518  10.441  0.5435 -0.4662  0.3896
  303MPD2    C3 4614   4.624   2.578  10.324 -0.0669 -0.4020  0.0444
  303MPD2    C4 4615   4.663   2.710  10.329 -0.3698 -0.5824 -0.0965
  303MPD2    C5 4616   4.659   2.776  10.444 -0.2743 -0.1567 -0.1122
  303MPD2     H 4617   4.553   2.413  10.451 -1.5326  0.0523  0.9867
  303MPD2    H1 4618   4.698   2.765  10.242  1.3131 -0.6535  0.5383
  303MPD2    H2 4619   4.589   2.794  10.640 -0.5920  1.1195 -1.2710
  303MPD2    H3 4620   4.699   2.876  10.441 -1.6639  0.3247 -2.2218
  303MPD2     N 4621   4.609   2.516  10.193  0.2927  0.6333  0.0166
  303MPD2    H5 4622   4.621   2.581  10.116 -0.9554  1.5113  0.5557
  303MPD2    N1 4623   4.479   2.568  10.677 -0.3620 -0.3265 -0.6779
  303MPD2    H7 4624   4.474   2.628  10.758 -0.1991 -1.8765  0.4842
  304TMC3    C1 4625   4.328   2.438  10.812 -0.1173 -0.6206  0.3249
  304TMC3    C2 4626   4.283   2.554  10.874 -0.1451 -0.1521  0.2680
  304TMC3    C3 4627   4.194   2.531  10.972 -0.1062 -0.1923  0.2221
  304TMC3    C4 4628   4.301   2.311  10.865 -0.0508  0.1412  0.5559
  304TMC3    C5 4629   4.227   2.297  10.974  0.0058 -0.6759  0.0122
  304TMC3    C6 4630   4.164   2.403  11.017  0.2281 -0.8581 -0.0786
  304TMC3     C 4631   4.414   2.447  10.695 -0.5353 -0.3044 -0.3812
  304TMC3     O 4632   4.442   2.341  10.642  0.7735 -0.1003  0.3220
  304TMC3     H 4633   4.283   2.645  10.815  2.8026 -1.7304 -2.1518
  304TMC3    H1 4634   4.361   2.229  10.828 -1.0376 -0.8453  1.1492
  304TMC3    H2 4635   4.088   2.407  11.094  2.2656 -0.3607  1.9091
  304TMC3    C7 4636   4.139   2.193  10.958 -0.3182  0.9991 -0.0911
  304TMC3    C8 4637   4.078   2.609  10.945  0.0945  0.9429 -0.7979
  304TMC3    O1 4638   4.033   2.241  10.911  0.0507 -0.1219 -0.0688
  304TMC3    O2 4639   4.089   2.729  10.931  0.2770 -0.4548 -0.1181
  305MPD2     C 4640   2.586   0.358  14.237 -0.7326 -0.7376 -0.3204
  305MPD2    C1 4641   2.590   0.229  14.290 -0.0944  0.3600 -0.0134
  305MPD2    C2 4642   2.543   0.126  14.210 -0.2079 -0.6403  0.0695
  305MPD2    C3 4643   2.483   0.146  14.087 -1.1151  0.2491 -0.2510
  305MPD2    C4 4644   2.478   0.276  14.036  0.2430  0.7598 -0.2322
  305MPD2    C5 4645   2.523   0.379  14.121 -0.3627 -0.2003 -1.2523
  305MPD2     H 4646   2.545   0.025  14.248 -1.8628 -1.2337 -1.4471
  305MPD2    H1 4647   2.439   0.301  13.938 -0.6730 -0.1068 -0.0952
  305MPD2    H2 4648   2.628   0.444  14.288 -3.5193  1.0221 -0.9824
  305MPD2    H3 4649   2.518   0.481  14.084 -0.0200 -0.3503 -1.7166
  305MPD2     N 4650   2.448   0.039  13.999 -0.2651  0.0145  0.3345
  305MPD2    H5 4651   2.411   0.064  13.907 -2.3354  1.3079  1.5205
  305MPD2    N1 4652   2.659   0.209  14.411  0.2744  1.0859  0.2277
  305MPD2    H7 4653   2.711   0.287  14.451  0.7519  0.5783  0.5968
  306TMC3    C1 4654   2.746   0.108  14.600  0.6933  0.4490  0.2906
  306TMC3    C2 4655   2.820   4.733  14.645 -0.4396 -0.1805 -0.2063
  306TMC3    C3 4656   2.872   0.012  14.764 -0.4374 -0.2773 -0.5597
  306TMC3    C4 4657   2.716   0.215  14.675 -0.2553 -0.0714  0.1747
  306TMC3    C5 4658   2.766   0.217  14.800 -0.0417  0.0852  0.1861
  306TMC3    C6 4659   2.843   0.118  14.843  0.8672  0.1074  0.1572
  306TMC3     C 4660   2.679   0.092  14.474 -0.1118  0.0326  0.0964
  306TMC3     O 4661   2.627   4.723  14.451 -0.4228  0.1492  0.2459
  306TMC3     H 4662   2.840   4.648  14.581  0.7736 -0.9675  1.1993
  306TMC3    H1 4663   2.658   0.297  14.636 -0.0717  0.0739  0.2039
  306TMC3    H2 4664   2.869   0.112  14.948 -0.8003  2.3618  0.6834
  306TMC3    C7 4665   2.709   0.308  14.889 -0.1610  0.1691 -0.3642
  306TMC3    C8 4666   2.973   4.659  14.810 -0.2238 -0.5434  0.0971
  306TMC3    O1 4667   2.601   0.353  14.862 -0.0862 -0.1920 -0.3833
  306TMC3    O2 4668   2.954   4.547  14.765 -0.3552  0.6776  0.4407
  307MPD2     C 4669   0.951   4.281   0.579 -0.5105 -0.4880  0.6112
  307MPD2    C1 4670   0.843   4.361   0.602  0.2763  0.4378 -0.7680
  307MPD2    C2 4671   0.725   4.314   0.654  0.4241  0.0661  0.1828
  307MPD2    C3 4672   0.721   4.177   0.690 -0.4808 -0.7876 -0.5427
  307MPD2    C4 4673   0.833   4.105   0.680 -0.8057 -0.0560  0.6893
  307MPD2    C5 4674   0.941   4.141   0.617  0.0117 -0.4207  0.2468
  307MPD2     H 4675   0.648   4.388   0.669  1.2818  1.4006 -1.9954
  307MPD2    H1 4676   0.832   4.004   0.719  0.9567  0.2982  1.6484
  307MPD2    H2 4677   1.042   4.300   0.523 -1.6140  0.2552 -0.9399
  307MPD2    H3 4678   1.020   4.070   0.597 -0.0788 -0.7489  1.0316
  307MPD2     N 4679   0.599   4.127   0.737 -0.1212 -0.2092  0.5534
  307MPD2    H5 4680   0.525   4.197   0.745 -1.2114 -1.2655 -0.2560
  307MPD2    N1 4681   0.843   4.496   0.576  0.2748  0.2418  0.3021
  307MPD2    H7 4682   0.758   4.551   0.585  1.1588  1.2285  2.6074
  308TMC3    C1 4683   0.225   3.935   0.757 -0.8154  0.1244 -0.3483
  308TMC3    C2 4684   0.172   4.055   0.786 -0.9139  0.4049  0.2157
  308TMC3    C3 4685   0.253   4.139   0.852 -0.0025  0.0315  0.5676
  308TMC3    C4 4686   0.354   3.897   0.797 -0.0783  0.0152 -0.4233
  308TMC3    C5 4687   0.437   3.992   0.851 -0.2656  0.4524 -0.0037
  308TMC3    C6 4688   0.388   4.113   0.881 -0.7184  0.3186  0.1986
  308TMC3     C 4689   0.145   3.838   0.675 -0.1363 -0.1746 -0.4466
  308TMC3     O 4690   0.196   3.732   0.643  0.5431  0.4345 -0.2336
  308TMC3     H 4691   0.070   4.085   0.763 -0.4497  2.2796  0.6377
  308TMC3    H1 4692   0.392   3.800   0.768 -2.5799 -1.6519  1.8515
  308TMC3    H2 4693   0.449   4.182   0.938 -1.3217 -0.3387  1.6514
  308TMC3    C7 4694   0.567   3.996   0.779 -0.4100 -0.3389 -0.0077
  308TMC3    C8 4695   0.214   4.276   0.884  0.7260  0.4856  0.1786
  308TMC3    O1 4696   0.627   3.893   0.767  0.3405 -0.1297  1.1028
  308TMC3    O2 4697   0.269   4.337   0.975 -0.4880  0.4747  0.6071
  309MPD2     C 4698   4.421   3.883  17.247  0.7376 -0.0506 -0.1771
  309MPD2    C1 4699   4.343   3.857  17.132  0.2898  0.1046 -0.4657
  309MPD2    C2 4700   4.213   3.900  17.133  0.1345 -0.0552  0.4047
  309MPD2    C3 4701   4.155   3.979  17.228  0.0037 -0.4947  0.3834
  309MPD2    C4 4702   4.240   4.014  17.328 -0.5010  0.1175  0.1555
  309MPD2    C5 4703   4.369   3.974  17.333 -0.3426  0.2333  0.4081
  309MPD2     H 4704   4.149   3.873  17.050  0.3428 -1.1237  0.5932
  309MPD2    H1 4705   4.194   4.064  17.412 -0.8589 -0.0403  0.0534
  309MPD2    H2 4706   4.521   3.842  17.258  0.3358 -1.3337 -1.2842
  309MPD2    H3 4707   4.433   4.005  17.415 -0.3276  2.1355 -0.2985
  309MPD2     N 4708   4.026   4.016  17.241 -0.4845  0.2896 -0.0111
  309MPD2    H5 4709   3.996   4.044  17.334  1.0928  2.4162 -0.1627
  309MPD2    N1 4710   4.378   3.762  17.030  0.6633  0.1472 -0.0162
  309MPD2    H7 4711   4.310   3.742  16.957  0.1455 -0.5790  0.6659
  310TMC3    C1 4712   4.489   3.572  16.941  0.3047  0.5214 -0.5094
  310TMC3    C2 4713   4.415   3.573  16.823  0.7869  0.5803  0.7241
  310TMC3    C3 4714   4.402   3.446  16.762  0.5213  0.3128 -0.4835
  310TMC3    C4 4715   4.553   3.458  16.993  0.2087  0.1758  0.2672
  310TMC3    C5 4716   4.535   3.341  16.923 -0.3233 -0.5423 -0.5594
  310TMC3    C6 4717   4.459   3.332  16.811  0.3139 -0.3562  0.0880
  310TMC3     C 4718   4.484   3.677  17.035 -0.2289  0.5383  0.3992
  310TMC3     O 4719   4.564   3.664  17.125  0.1342  0.8649 -0.2837
  310TMC3     H 4720   4.382   3.666  16.778 -2.1711  0.2606  2.2042
  310TMC3    H1 4721   4.598   3.452  17.092 -0.1321  1.0863  0.4743
  310TMC3    H2 4722   4.454   3.232  16.770 -2.0125 -0.5886  0.9731
  310TMC3    C7 4723   4.650   3.249  16.925  0.1272 -0.1683  0.6621
  310TMC3    C8 4724   4.372   3.453  16.622 -0.2146  0.4433  0.5156
  310TMC3    O1 4725   4.647   3.165  16.833  0.6000  0.1508  0.6764
  310TMC3    O2 4726   4.300   3.544  16.582  0.0018  0.0452 -0.0483
  311MPD2     C 4727   1.646   4.591  12.164 -0.4662 -0.8996 -1.4269
  311MPD2    C1 4728   1.717   4.651  12.265 -0.0849  0.6179 -0.0016
  311MPD2    C2 4729   1.693   4.609  12.398 -0.7468  0.2605 -0.2616
  311MPD2    C3 4730   1.599   4.511  12.426 -0.1415  0.2605 -0.1428
  311MPD2    C4 4731   1.534   4.444  12.321  0.2280 -0.1004  0.1063
  311MPD2    C5 4732   1.559   4.489  12.195 -0.7377  0.0957 -0.0466
  311MPD2     H 4733   1.741   4.657  12.483 -3.0482 -1.1019  1.8151
  311MPD2    H1 4734   1.469   4.357  12.334 -0.0240  0.5645  3.1821
  311MPD2    H2 4735   1.640   4.628  12.062 -1.3124 -0.6389 -1.2840
  311MPD2    H3 4736   1.498   4.443  12.118 -1.4089  0.0261  0.5288
  311MPD2     N 4737   1.570   4.486  12.564  0.1423  0.3368  0.4332
  311MPD2    H5 4738   1.624   4.528  12.639  2.1524 -0.9005 -0.3254
  311MPD2    N1 4739   1.804   0.021  12.247 -0.6356 -0.3481  0.0911
  311MPD2    H7 4740   1.852   0.052  12.331 -1.3867 -1.8380  1.0586
  312TMC3    C1 4741   1.507   4.371  12.762  1.0924  0.2422 -0.3328
  312TMC3    C2 4742   1.465   4.251  12.812  0.4534 -0.2176 -0.3603
  312TMC3    C3 4743   1.423   4.251  12.942  0.1582  0.6443  0.0539
  312TMC3    C4 4744   1.508   4.483  12.841 -0.5710 -0.2754 -0.8010
  312TMC3    C5 4745   1.463   4.479  12.970  0.6790 -0.7628  0.1701
  312TMC3    C6 4746   1.413   4.363  13.017  0.2100 -0.8442 -0.4666
  312TMC3     C 4747   1.496   4.383  12.613 -0.8256 -0.2042  0.9800
  312TMC3     O 4748   1.439   4.291  12.552  0.8728 -0.8399 -0.7867
  312TMC3     H 4749   1.477   4.161  12.752  0.0050  1.0887 -2.4092
  312TMC3    H1 4750   1.558   4.575  12.809 -2.3017  1.3733  1.2358
  312TMC3    H2 4751   1.358   4.357  13.110  0.5705  1.2317 -0.1173
  312TMC3    C7 4752   1.466   4.601  13.056 -0.1893  0.3036  0.1086
  312TMC3    C8 4753   1.314   4.159  12.958  0.4903  0.2962 -0.1124
  312TMC3    O1 4754   1.444   4.706  12.997 -0.9124 -0.1267 -0.2740
  312TMC3    O2 4755   1.332   4.047  12.908  1.3168  0.3968  0.7577
  313MPD2     C 4756   0.561   3.895  11.457 -0.6216 -0.2841 -0.2903
  313MPD2    C1 4757   0.591   3.887  11.322 -0.0830  0.1320 -0.2797
  313MPD2    C2 4758   0.544   3.780  11.247  0.3588  0.2546  0.2600
  313MPD2    C3 4759   0.455   3.688  11.299 -0.8486 -0.5235 -0.3932
  313MPD2    C4 4760   0.428   3.687  11.433 -0.5584 -1.0790  0.3122
  313MPD2    C5 4761   0.481   3.794  11.511 -0.3209 -0.1384 -0.2281
  313MPD2     H 4762   0.568   3.780  11.142  0.4614 -2.9355  0.3007
  313MPD2    H1 4763   0.371   3.614  11.489 -1.2659 -1.0600 -0.3750
  313MPD2    H2 4764   0.590   3.979  11.519  2.1471 -1.4175 -0.0370
  313MPD2    H3 4765   0.463   3.790  11.618 -1.6735 -2.1400 -0.5426
  313MPD2     N 4766   0.390   3.592  11.217 -0.3555  0.0965 -0.1844
  313MPD2    H5 4767   0.436   3.562  11.131  1.1787 -0.6006  0.8825
  313MPD2    N1 4768   0.671   3.981  11.249  0.3176  0.3204  0.2173
  313MPD2    H7 4769   0.681   3.963  11.150 -1.3290 -0.5299  0.1971
  314TMC3    C1 4770   0.786   4.172  11.200  0.1913 -0.6095  0.2978
  314TMC3    C2 4771   0.874   4.275  11.236 -0.0559  0.0425 -0.1489
  314TMC3    C3 4772   0.932   4.351  11.141  0.1090 -0.2081  0.1134
  314TMC3    C4 4773   0.734   4.164  11.073 -0.0707  0.7197 -0.0067
  314TMC3    C5 4774   0.788   4.251  10.982  0.7930  0.1439 -0.0224
  314TMC3    C6 4775   0.886   4.345  11.013 -0.0339 -0.3115 -0.7099
  314TMC3     C 4776   0.727   4.095  11.302 -1.0740 -0.4104  0.1950
  314TMC3     O 4777   0.750   4.126  11.419 -0.6972 -0.2261 -0.3010
  314TMC3     H 4778   0.904   4.281  11.340  4.5722  0.9986 -1.5209
  314TMC3    H1 4779   0.651   4.097  11.051  1.3284 -1.3341  1.0105
  314TMC3    H2 4780   0.919   4.417  10.939  0.0032  1.2137  0.7862
  314TMC3    C7 4781   0.762   4.232  10.844 -0.4685  0.3535 -0.2991
  314TMC3    C8 4782   1.046   4.445  11.162  0.4574  0.5539  0.3685
  314TMC3    O1 4783   0.803   4.321  10.768  0.2132  0.0811  0.1796
  314TMC3    O2 4784   1.078   4.525  11.072  0.3550  0.5383 -1.2511
  315MPD2     C 4785   0.650   3.638  17.642  0.3005 -0.0036 -0.0656
  315MPD2    C1 4786   0.750   3.677  17.725 -0.6488 -0.2940 -0.1606
  315MPD2    C2 4787   0.859   3.746  17.675 -0.2824  0.3781  0.1971
  315MPD2    C3 4788   0.868   3.769  17.539  0.1192 -0.3209 -0.2487
  315MPD2    C4 4789   0.775   3.708  17.453 -0.4659 -0.1547  0.0710
  315MPD2    C5 4790   0.664   3.643  17.505 -0.4942  0.1850 -0.1038
  315MPD2     H 4791   0.941   3.780  17.737  0.0398 -0.7814  0.4065
  315MPD2    H1 4792   0.782   3.704  17.345 -0.8656  0.0890  0.0360
  315MPD2    H2 4793   0.572   3.572  17.677 -1.0077  1.7063  0.2230
  315MPD2    H3 4794   0.591   3.602  17.436  0.9475  0.6018 -1.9026
  315MPD2     N 4795   0.985   3.828  17.488 -1.1596 -0.2952 -0.2391
  315MPD2    H5 4796   1.050   3.872  17.552 -0.2182 -0.6051 -0.9737
  315MPD2    N1 4797   0.747   3.662   0.114 -0.0890  0.0343 -0.4644
  315MPD2    H7 4798   0.794   3.736   0.166  1.3334 -1.7002  0.7038
  316TMC3    C1 4799   1.158   3.886  17.352 -0.2360  0.2400 -0.7370
  316TMC3    C2 4800   1.236   3.898  17.461  0.5792 -0.7894 -0.1094
  316TMC3    C3 4801   1.366   3.944  17.450  0.2468  0.0940 -0.2169
  316TMC3    C4 4802   1.211   3.899  17.224  0.0960 -0.2808  0.5741
  316TMC3    C5 4803   1.339   3.957  17.216  0.0200  0.3921  0.2634
  316TMC3    C6 4804   1.420   3.970  17.323  0.1609  0.0162  0.2906
  316TMC3     C 4805   1.028   3.838  17.359  0.0068  0.0493 -0.3979
  316TMC3     O 4806   0.982   3.780  17.262  0.0163  0.9248  0.3163
  316TMC3     H 4807   1.204   3.886  17.563 -1.6253 -2.0504 -0.9569
  316TMC3    H1 4808   1.137   3.887  17.146  0.7192 -0.8499  0.0808
  316TMC3    H2 4809   1.523   4.000  17.305  0.2271  0.4373  1.4081
  316TMC3    C7 4810   1.396   3.987  17.087 -0.0380  0.3877 -0.1285
  316TMC3    C8 4811   1.469   3.966  17.556 -0.1793  0.5211  0.1906
  316TMC3    O1 4812   1.518   3.996  17.074 -0.2119 -0.4713  0.0480
  316TMC3    O2 4813   1.568   4.032  17.525  0.0499 -0.2846 -0.2997
  317MPD2     C 4814   2.356   1.630  12.818  0.2600 -0.0198  0.2941
  317MPD2    C1 4815   2.399   1.502  12.810  0.0353  0.7253  0.2928
  317MPD2    C2 4816   2.502   1.469  12.897  0.2314  0.1855  0.5745
  317MPD2    C3 4817   2.558   1.555  12.985  0.1733  0.5370  0.5827
  317MPD2    C4 4818   2.523   1.689  12.982 -0.0529 -0.4940 -0.0598
  317MPD2    C5 4819   2.420   1.721  12.891 -0.1991 -0.2733 -0.2545
  317MPD2     H 4820   2.542   1.368  12.901 -3.1944 -1.2732 -2.2451
  317MPD2    H1 4821   2.573   1.763  13.043 -1.1877  0.6007 -0.4662
  317MPD2    H2 4822   2.282   1.670  12.750  1.7534  0.1716 -1.2269
  317MPD2    H3 4823   2.395   1.826  12.877  1.9681  0.0871 -1.5305
  317MPD2     N 4824   2.657   1.493  13.064  0.6820 -0.1734  0.3926
  317MPD2    H5 4825   2.663   1.393  13.046 -1.0529 -0.3303  0.6600
  317MPD2    N1 4826   2.341   1.406  12.729  0.1495 -0.1424 -0.4536
  317MPD2    H7 4827   2.376   1.311  12.741  0.2740  0.2303  2.1143
  318TMC3    C1 4828   2.787   1.456  13.260  0.0422 -0.5528 -0.4928
  318TMC3    C2 4829   2.731   1.333  13.281 -0.4234 -0.4130  0.0904
  318TMC3    C3 4830   2.759   1.262  13.397  0.6234 -0.4841 -0.9900
  318TMC3    C4 4831   2.891   1.501  13.339 -0.8266 -0.4938 -0.0144
  318TMC3    C5 4832   2.937   1.411  13.434  0.2178  0.3770  0.1159
  318TMC3    C6 4833   2.869   1.293  13.468 -0.0344  0.3038 -0.1924
  318TMC3     C 4834   2.727   1.552  13.170  0.5398  0.4993  0.0822
  318TMC3     O 4835   2.765   1.666  13.166 -0.7564 -0.1828  0.1212
  318TMC3     H 4836   2.648   1.311  13.215 -1.2045  1.9787  0.2704
  318TMC3    H1 4837   2.933   1.601  13.336  1.3770 -1.4821 -2.1540
  318TMC3    H2 4838   2.885   1.260  13.570  0.3236  0.5641 -0.1635
  318TMC3    C7 4839   3.038   1.460  13.519 -0.0001  0.2800 -0.0364
  318TMC3    C8 4840   2.665   1.163  13.446  0.5121 -0.7120 -0.4915
  318TMC3    O1 4841   3.044   1.585  13.530  0.2018 -0.7840  0.2655
  318TMC3    O2 4842   2.704   1.084  13.533  0.5404  0.1895 -0.0572
  319MPD2     C 4843   4.198   2.948  16.416 -0.9014  0.4884  0.0479
  319MPD2    C1 4844   4.094   2.900  16.500  0.1791  0.1053 -0.6254
  319MPD2    C2 4845   3.997   2.820  16.452  0.1149 -0.1530 -0.1912
  319MPD2    C3 4846   3.995   2.777  16.318 -0.1055 -0.1001 -0.1778
  319MPD2    C4 4847   4.089   2.833  16.227 -0.2199 -0.2083 -0.3426
  319MPD2    C5 4848   4.182   2.921  16.282 -0.2959 -0.3440 -0.5001
  319MPD2     H 4849   3.916   2.792  16.518  0.6108 -0.9963  0.0692
  319MPD2    H1 4850   4.080   2.819  16.120  1.2866 -2.3203 -0.2016
  319MPD2    H2 4851   4.281   3.010  16.447 -1.6846  1.4897  0.1358
  319MPD2    H3 4852   4.259   2.961  16.218 -0.0564 -0.1395 -0.0814
  319MPD2     N 4853   3.881   2.705  16.276 -1.0373  0.4457  0.4422
  319MPD2    H5 4854   3.871   2.700  16.175 -0.0541  0.7570  0.3248
  319MPD2    N1 4855   4.083   2.941  16.641  0.3167 -0.3578 -0.3104
  319MPD2    H7 4856   4.011   2.892  16.694  0.1822  2.0274  1.7307
  320TMC3    C1 4857   3.659   2.639  16.272 -0.3854 -0.1757  0.4188
  320TMC3    C2 4858   3.613   2.753  16.215 -1.0060 -0.1389  0.4676
  320TMC3    C3 4859   3.482   2.761  16.178  0.6719 -0.6923 -0.3282
  320TMC3    C4 4860   3.580   2.534  16.301 -0.0350 -0.2751 -0.7838
  320TMC3    C5 4861   3.443   2.547  16.278  0.1742 -0.3458  0.5575
  320TMC3    C6 4862   3.396   2.662  16.218  0.4209  0.1290  0.1780
  320TMC3     C 4863   3.781   2.644  16.351 -0.1805 -0.8136  0.2087
  320TMC3     O 4864   3.777   2.624  16.472  0.3027  0.3628  0.5236
  320TMC3     H 4865   3.672   2.842  16.197 -1.7190  0.6696  2.0923
  320TMC3    H1 4866   3.622   2.441  16.338  2.0014  0.6326 -0.7829
  320TMC3    H2 4867   3.294   2.681  16.187  1.0373  1.5221 -1.0393
  320TMC3    C7 4868   3.359   2.432  16.289  0.4689  0.7999 -0.2149
  320TMC3    C8 4869   3.447   2.906  16.159  0.0784  0.0332  0.1618
  320TMC3    O1 4870   3.264   2.424  16.219  0.1646 -0.1017  0.2304
  320TMC3    O2 4871   3.340   2.932  16.207 -0.0042  0.2884  0.6472
  321TMC3    C1 4872   4.111   3.046  16.839  0.7050  0.1528  0.1855
  321TMC3    C2 4873   4.060   2.933  16.897 -0.3386 -0.6376 -1.1393
  321TMC3    C3 4874   4.031   2.950  17.029 -0.3437 -0.0078  0.0006
  321TMC3    C4 4875   4.120   3.168  16.902 -0.4886  0.2119 -0.2533
  321TMC3    C5 4876   4.088   3.176  17.038  0.2948  0.3001 -0.9623
  321TMC3    C6 4877   4.041   3.064  17.103  0.2464  0.6506  0.1621
  321TMC3     C 4878   4.164   3.031  16.708  0.5947 -0.2983  0.7370
  321TMC3     O 4879   4.256   3.101  16.663  0.1741 -0.6926  0.4103
  321TMC3     H 4880   4.065   2.834  16.853 -0.7573 -1.9071  1.6377
  321TMC3    H1 4881   4.178   3.246  16.853  0.8349  0.8096  2.2614
  321TMC3    H2 4882   4.022   3.068  17.210 -1.4412 -0.0930 -0.1097
  321TMC3    C7 4883   4.204   3.224  17.103  0.3930  0.2322  0.0325
  321TMC3    C8 4884   4.035   2.830  17.109  0.1092  0.2694 -0.4684
  321TMC3    O1 4885   4.274   3.132  17.150 -0.4077  0.1846 -0.5191
  321TMC3    O2 4886   3.964   2.733  17.084 -0.3611  0.3732  0.0307
  322MPD2     C 4887   2.351   4.065  14.034 -0.3879 -0.6466  0.4748
  322MPD2    C1 4888   2.457   4.015  14.110 -0.6999 -0.1856  0.3199
  322MPD2    C2 4889   2.532   3.915  14.053 -0.0443 -0.0716 -1.3383
  322MPD2    C3 4890   2.503   3.861  13.932  0.3836 -0.2646  0.2759
  322MPD2    C4 4891   2.388   3.905  13.861 -0.0859 -0.4114 -0.2551
  322MPD2    C5 4892   2.316   4.004  13.919 -0.3863 -0.0042 -0.4213
  322MPD2     H 4893   2.619   3.890  14.112 -1.2063  0.7258  0.7331
  322MPD2    H1 4894   2.355   3.857  13.770 -1.3615  1.6951 -0.9041
  322MPD2    H2 4895   2.282   4.139  14.072 -0.4011 -0.6703  0.4968
  322MPD2    H3 4896   2.224   4.035  13.871 -0.8272 -0.0381  0.4072
  322MPD2     N 4897   2.586   3.755  13.890  0.2798  0.1104  0.4138
  322MPD2    H5 4898   2.664   3.735  13.952  1.1388  1.7416 -0.1254
  322MPD2    N1 4899   2.506   4.087  14.225  0.5029  0.3952  0.1348
  322MPD2    H7 4900   2.599   4.060  14.256  1.0684  1.6638 -0.4400
  323TMC3    C1 4901   2.542   4.265  14.383  0.3346  0.5005  0.0470
  323TMC3    C2 4902   2.589   4.396  14.378  0.0683  0.0134 -0.0634
  323TMC3    C3 4903   2.693   4.430  14.454  0.0023 -0.3087  0.5580
  323TMC3    C4 4904   2.593   4.176  14.470 -0.4478 -0.0258  0.2038
  323TMC3    C5 4905   2.679   4.220  14.561  0.2903  0.1753 -0.2259
  323TMC3    C6 4906   2.735   4.346  14.560  0.0902  0.2981 -0.6402
  323TMC3     C 4907   2.459   4.207  14.277 -0.4147  0.2307  0.4441
  323TMC3     O 4908   2.397   4.290  14.218  0.4273 -0.0293 -0.1943
  323TMC3     H 4909   2.538   4.453  14.301  1.7950  1.7489  0.0983
  323TMC3    H1 4910   2.571   4.070  14.476 -0.1376 -0.0892  0.2229
  323TMC3    H2 4911   2.814   4.385  14.625 -0.1133  2.1730 -1.5120
  323TMC3    C7 4912   2.753   4.123  14.643  0.2293  0.6430 -0.3524
  323TMC3    C8 4913   2.809   4.488  14.381 -0.0384  0.1217  0.2102
  323TMC3    O1 4914   2.748   4.002  14.616  0.1380 -0.4168 -0.1991
  323TMC3    O2 4915   2.915   4.462  14.434 -0.4863  0.2388 -0.3680
  324MPD2     C 4916   4.084   4.725  14.397 -0.2391 -0.0880 -0.3722
  324MPD2    C1 4917   4.145   0.106  14.386  0.7604  0.4043  0.6391
  324MPD2    C2 4918   4.072   0.220  14.372  0.1703  0.0840  0.3532
  324MPD2    C3 4919   3.935   0.211  14.358  0.5440  0.4539  0.2112
  324MPD2    C4 4920   3.873   0.088  14.367  0.5422  0.4707  0.5746
  324MPD2    C5 4921   3.951   4.711  14.389 -0.4411  0.4967 -0.4266
  324MPD2     H 4922   4.132   0.311  14.381 -0.2830  0.2763  1.3861
  324MPD2    H1 4923   3.765   0.081  14.359  0.6112 -1.0602  1.0907
  324MPD2    H2 4924   4.130   4.631  14.424 -1.0251  0.2928  2.3731
  324MPD2    H3 4925   3.908   4.615  14.414  0.3389  0.2861  0.0865
  324MPD2     N 4926   3.852   0.322  14.331 -0.4619  0.5129  0.2160
  324MPD2    H5 4927   3.755   0.305  14.306 -0.6399  1.9636 -0.0623
  324MPD2    N1 4928   4.286   0.120  14.416  0.2426 -0.2347 -0.1913
  324MPD2    H7 4929   4.316   0.217  14.410 -0.2794 -0.0208  0.6052
  325TMC3    C1 4930   3.789   0.536  14.272 -0.2581  0.8889  0.8179
  325TMC3    C2 4931   3.661   0.483  14.234  0.4166  1.0290 -0.5584
  325TMC3    C3 4932   3.551   0.568  14.235  0.3432  0.6908 -0.1522
  325TMC3    C4 4933   3.800   0.671  14.307  1.4437  0.4210  0.0364
  325TMC3    C5 4934   3.681   0.746  14.302 -0.2465 -0.4774  0.0987
  325TMC3    C6 4935   3.555   0.699  14.270 -0.0113 -0.3517 -0.5078
  325TMC3     C 4936   3.891   0.450  14.316  0.1687  0.2159  0.6814
  325TMC3     O 4937   3.988   0.511  14.361 -0.4333  0.7178  0.0411
  325TMC3     H 4938   3.651   0.385  14.190  1.2245 -1.1989  4.2186
  325TMC3    H1 4939   3.895   0.710  14.338  1.0840  0.7332  0.7473
  325TMC3    H2 4940   3.473   0.769  14.263  0.9735  0.9602  1.2300
  325TMC3    C7 4941   3.690   0.894  14.330  0.1233  0.6571  0.0287
  325TMC3    C8 4942   3.426   0.505  14.197 -0.1889  0.2587 -0.2511
  325TMC3    O1 4943   3.796   0.950  14.300 -0.2136  0.1696 -0.4432
  325TMC3    O2 4944   3.445   0.405  14.135 -0.0585  0.1585 -0.2807
  326MPD2     C 4945   0.521   1.869  11.197 -1.0580 -0.2455  0.3594
  326MPD2    C1 4946   0.616   1.810  11.107  0.6580 -0.0515 -0.1350
  326MPD2    C2 4947   0.743   1.866  11.088  0.6048  0.1867 -0.3057
  326MPD2    C3 4948   0.776   1.980  11.161  0.0741 -0.0811  0.2632
  326MPD2    C4 4949   0.681   2.038  11.250  0.3180  0.1362 -0.5723
  326MPD2    C5 4950   0.553   1.986  11.264 -0.3277  0.3874 -0.5357
  326MPD2     H 4951   0.808   1.820  11.015 -0.8420  1.0775 -2.1590
  326MPD2    H1 4952   0.712   2.124  11.308  2.2050 -1.1338  0.3235
  326MPD2    H2 4953   0.426   1.819  11.210 -0.4657 -1.7076 -0.9110
  326MPD2    H3 4954   0.485   2.022  11.341  0.0165 -0.7341  0.2908
  326MPD2     N 4955   0.906   2.042  11.160 -0.1686  0.1729  0.4908
  326MPD2    H5 4956   0.914   2.130  11.210  1.8838  0.5300 -0.4426
  326MPD2    N1 4957   0.587   1.692  11.037  0.4617 -1.5273  0.3581
  326MPD2    H7 4958   0.667   1.660  10.982 -1.1785 -1.1341 -2.2812
  327TMC3    C1 4959   0.466   1.520  10.934 -0.2042 -0.0547  0.3492
  327TMC3    C2 4960   0.347   1.519  10.864 -0.0809 -0.4797  0.3199
  327TMC3    C3 4961   0.347   1.499  10.732 -0.7782  0.2982  0.2497
  327TMC3    C4 4962   0.588   1.497  10.867  0.3151 -0.0562  0.7162
  327TMC3    C5 4963   0.582   1.466  10.734 -1.1525 -0.3631 -0.0675
  327TMC3    C6 4964   0.462   1.476  10.666 -0.1151 -0.1354 -1.1409
  327TMC3     C 4965   0.477   1.611  11.044  0.0147 -0.5466  0.0948
  327TMC3     O 4966   0.378   1.627  11.111 -0.0661 -0.5174 -0.3468
  327TMC3     H 4967   0.260   1.559  10.916  0.1718  1.5308 -0.8059
  327TMC3    H1 4968   0.684   1.512  10.915 -0.0651  1.1163  1.1171
  327TMC3    H2 4969   0.453   1.453  10.560 -1.9136 -0.8953 -0.8147
  327TMC3    C7 4970   0.708   1.461  10.660 -0.1457  0.4139  0.2907
  327TMC3    C8 4971   0.247   1.572  10.661  0.4806 -0.0421  0.1534
  327TMC3    O1 4972   0.711   1.484  10.540 -0.1864  0.2119 -0.4631
  327TMC3    O2 4973   0.284   1.611  10.549  0.0624 -0.4152  0.0638
  328MPD2     C 4974   3.064   2.150  17.217 -0.0018  0.0900  0.0873
  328MPD2    C1 4975   2.978   2.049  17.202 -0.3076 -0.3712 -0.6259
  328MPD2    C2 4976   2.923   2.024  17.076 -0.1573  0.5132  0.4514
  328MPD2    C3 4977   2.958   2.108  16.971 -0.0048 -0.5983  0.1576
  328MPD2    C4 4978   3.053   2.207  16.987  0.5093  0.5490  1.1860
  328MPD2    C5 4979   3.110   2.228  17.112 -0.0248 -0.0311 -0.0379
  328MPD2     H 4980   2.848   1.947  17.061 -1.2554  1.1814  2.5558
  328MPD2    H1 4981   3.089   2.276  16.912 -1.4375 -2.0305 -2.0919
  328MPD2    H2 4982   3.107   2.168  17.315 -0.5798  0.2337  0.3085
  328MPD2    H3 4983   3.184   2.307  17.118  0.7739 -0.7180 -0.7398
  328MPD2     N 4984   2.902   2.104  16.845  0.0147 -0.4460 -0.0902
  328MPD2    H5 4985   2.922   2.182  16.784 -1.1620  0.3713  0.5584
  328MPD2    N1 4986   2.934   1.965  17.313  0.7537  0.8700  0.2362
  328MPD2    H7 4987   2.943   1.997  17.409  1.0757 -0.4849  0.6487
  329TMC3    C1 4988   2.835   1.799  17.445  0.0341 -0.3883 -0.4082
  329TMC3    C2 4989   2.835   1.875  17.563  0.5141 -0.2746  0.1044
  329TMC3    C3 4990   2.757   1.823  17.666  0.5961  0.4597 -0.7471
  329TMC3    C4 4991   2.781   1.675  17.444 -0.5556  0.4297 -0.3469
  329TMC3    C5 4992   2.707   1.628  17.548 -0.2822 -0.2010 -0.1527
  329TMC3    C6 4993   2.685   1.706  17.658 -0.1186 -0.0545  0.1030
  329TMC3     C 4994   2.867   1.845  17.307 -0.3380  0.7599  0.6881
  329TMC3     O 4995   2.825   1.776  17.209 -0.0931  0.2779 -0.4847
  329TMC3     H 4996   2.891   1.967  17.573 -1.3255  0.8044  0.4524
  329TMC3    H1 4997   2.791   1.609  17.359  0.3981 -0.8217  0.7507
  329TMC3    H2 4998   2.617   1.669  17.734 -1.1775  1.9825  0.1323
  329TMC3    C7 4999   2.626   1.510  17.532 -0.2207 -0.3358 -0.1722
  329TMC3    C8 5000   2.711   1.920   0.004 -0.1506 -0.1571  0.6433
  329TMC3    O1 5001   2.599   1.477  17.417 -0.8547 -0.1308 -0.5636
  329TMC3    O2 5002   2.787   2.016   0.025  0.2666 -0.3988 -0.3271
  330TMC3    C1 5003   1.240   0.984   9.717  0.7905  0.3824  0.0330
  330TMC3    C2 5004   1.199   0.911   9.610 -0.3240  0.1490 -0.1420
  330TMC3    C3 5005   1.225   0.777   9.615  0.1251  0.0896 -0.9763
  330TMC3    C4 5006   1.318   0.931   9.818  0.4791 -0.5184 -0.1061
  330TMC3    C5 5007   1.352   0.804   9.807 -0.2519 -0.0699 -0.0959
  330TMC3    C6 5008   1.304   0.721   9.711 -0.4569 -0.4010 -0.8631
  330TMC3     C 5009   1.213   1.127   9.725  0.5176  0.4408 -0.9916
  330TMC3     O 5010   1.284   1.181   9.806  0.4472  0.3887 -1.3749
  330TMC3     H 5011   1.153   0.963   9.527 -0.9854 -1.1196 -0.5711
  330TMC3    H1 5012   1.352   0.996   9.897 -0.8979  0.4433 -0.3055
  330TMC3    H2 5013   1.333   0.618   9.693  0.9085 -0.4762  1.8013
  330TMC3    C7 5014   1.434   0.745   9.921  0.5538 -0.8673 -0.3359
  330TMC3    C8 5015   1.178   0.699   9.501  0.0166  0.4029 -0.5061
  330TMC3    O1 5016   1.476   0.827  10.002 -0.2782 -0.0131 -0.1307
  330TMC3    O2 5017   1.162   0.758   9.396 -0.2626  0.4159  0.4127
  331MPD2     C 5018   4.289   4.674  13.365  0.4087 -0.2268  0.5428
  331MPD2    C1 5019   4.152   4.662  13.344  0.8158 -0.3181  0.0623
  331MPD2    C2 5020   4.097   4.534  13.333  0.4376 -0.6772  0.0063
  331MPD2    C3 5021   4.178   4.422  13.347 -0.3601 -0.4834  0.2479
  331MPD2    C4 5022   4.309   4.437  13.373 -0.4152 -0.4169 -0.0889
  331MPD2    C5 5023   4.365   4.560  13.385 -0.6079 -0.2922 -0.3915
  331MPD2     H 5024   3.993   4.523  13.304  0.2332  1.0686  0.0606
  331MPD2    H1 5025   4.372   4.350  13.386  1.2989  0.7653 -0.3539
  331MPD2    H2 5026   4.337   0.032  13.351  0.1034 -0.0070  0.9995
  331MPD2    H3 5027   4.471   4.574  13.403 -0.2348 -0.5146 -2.4273
  331MPD2     N 5028   4.135   4.288  13.322  0.8089  0.5460 -0.5319
  331MPD2    H5 5029   4.210   4.218  13.320 -0.2891 -0.5670 -2.2790
  331MPD2    N1 5030   4.061   0.023  13.309 -0.1985 -0.1353  0.1872
  331MPD2    H7 5031   3.962   0.004  13.299 -0.0652 -1.4317  1.3839
  332TMC3    C1 5032   4.008   4.181  13.154  0.3072 -1.0357  0.2347
  332TMC3    C2 5033   3.967   4.256  13.047 -0.1121 -0.6358 -0.6388
  332TMC3    C3 5034   4.035   4.238  12.931 -0.1490  0.3612 -0.5439
  332TMC3    C4 5035   4.106   4.093  13.148 -0.9328 -0.5639  0.1699
  332TMC3    C5 5036   4.170   4.077  13.026  0.2858  1.3181  1.0932
  332TMC3    C6 5037   4.136   4.147  12.920  0.3220  0.4960 -0.1985
  332TMC3     C 5038   4.004   4.248  13.282 -0.3860 -0.1165 -0.0925
  332TMC3     O 5039   3.897   4.293  13.321  0.0849 -0.3806  0.2958
  332TMC3     H 5040   3.905   4.342  13.071 -0.1082 -0.1279 -2.4011
  332TMC3    H1 5041   4.123   4.030  13.235 -2.7599 -2.5884 -0.9493
  332TMC3    H2 5042   4.188   4.128  12.826  0.7230 -1.1011  0.3446
  332TMC3    C7 5043   4.263   3.966  13.018  0.4266  0.5072 -0.6566
  332TMC3    C8 5044   3.988   4.310  12.817  0.7722 -0.2538  0.1679
  332TMC3    O1 5045   4.238   3.871  13.086 -0.6124  0.4577 -0.4478
  332TMC3    O2 5046   4.069   4.320  12.728 -0.8310 -0.2886 -0.3520
  333MPD2     C 5047   3.979   0.235  11.216  0.7237  0.0411 -0.8362
  333MPD2    C1 5048   4.049   0.137  11.147  0.1938 -0.7986 -0.0317
  333MPD2    C2 5049   4.026   0.003  11.181  0.0605 -0.1929  0.5251
  333MPD2    C3 5050   3.933   4.704  11.268 -0.7063 -0.3563 -0.2948
  333MPD2    C4 5051   3.858   0.059  11.337 -0.5723  0.0281 -0.1807
  333MPD2    C5 5052   3.887   0.191  11.312 -0.6024 -0.2825 -0.0582
  333MPD2     H 5053   4.080   4.667  11.124  0.3109  0.8287 -0.5663
  333MPD2    H1 5054   3.794   0.044  11.423 -0.0788  1.1375  0.3778
  333MPD2    H2 5055   3.991   0.342  11.203  1.0526  0.0969 -0.0696
  333MPD2    H3 5056   3.843   0.271  11.370 -0.3705 -0.9667  1.0671
  333MPD2     N 5057   3.927   4.570  11.302  0.6125 -0.3470  0.4321
  333MPD2    H5 5058   4.000   4.508  11.269 -0.3269 -0.8928 -0.6283
  333MPD2    N1 5059   4.127   0.180  11.038 -0.0493  0.9660 -0.0377
  333MPD2    H7 5060   4.129   0.280  11.025  0.8306  1.0364  0.6649
  334TMC3    C1 5061   4.290   0.177  10.874 -0.2412 -0.3238 -0.0749
  334TMC3    C2 5062   4.391   0.105  10.814 -0.2830  0.7994 -0.2061
  334TMC3    C3 5063   4.479   0.176  10.737 -0.1886 -0.1528  0.0491
  334TMC3    C4 5064   4.260   0.305  10.844  0.3726  0.3972 -0.4755
  334TMC3    C5 5065   4.342   0.362  10.748 -0.6827  0.2716 -0.9354
  334TMC3    C6 5066   4.457   0.306  10.693 -0.2110  0.3433  0.3344
  334TMC3     C 5067   4.201   0.106  10.954  0.7729  0.4591  0.1972
  334TMC3     O 5068   4.228   4.726  10.964  0.2997 -0.2835  0.2380
  334TMC3     H 5069   4.414   0.003  10.842  0.4090  1.3161  1.1188
  334TMC3    H1 5070   4.181   0.370  10.881  0.1070 -1.1432  1.6962
  334TMC3    H2 5071   4.521   0.360  10.625 -1.0922  1.3672  0.3107
  334TMC3    C7 5072   4.312   0.498  10.702 -0.1251 -0.5595 -1.0653
  334TMC3    C8 5073   4.565   0.095  10.649  0.1014 -0.1149  0.1701
  334TMC3    O1 5074   4.387   0.587  10.740  0.0949  0.4163  0.1641
  334TMC3    O2 5075   4.524   4.716  10.628 -0.5753  0.1753  0.2621
  335TMC3    C1 5076   3.841   1.837  17.215  0.1804  0.5580  0.1423
  335TMC3    C2 5077   3.871   1.726  17.145  0.2177  0.7383 -0.3198
  335TMC3    C3 5078   3.958   1.740  17.041  0.0836 -1.4446  0.1677
  335TMC3    C4 5079   3.911   1.954  17.197 -0.2136  0.7388 -0.8924
  335TMC3    C5 5080   4.007   1.964  17.100 -0.4057  0.0513 -0.2023
  335TMC3    C6 5081   4.032   1.849  17.020 -0.1797 -0.8115 -0.3507
  335TMC3     C 5082   3.752   1.840  17.333 -0.0252 -0.0738 -0.1719
  335TMC3     O 5083   3.744   1.946  17.396 -0.2640  0.3288  0.2916
  335TMC3     H 5084   3.832   1.626  17.158  0.0298  0.8689  0.0880
  335TMC3    H1 5085   3.881   2.045  17.246  1.4222  1.2289 -0.7945
  335TMC3    H2 5086   4.103   1.851  16.939  1.2303  0.5658  0.9298
  335TMC3    C7 5087   4.122   2.045  17.109 -0.1416  0.2035  0.5870
  335TMC3    C8 5088   3.975   1.634  16.945 -0.3388  0.1702 -0.1981
  335TMC3    O1 5089   4.200   2.044  17.011 -0.0076  0.3836  0.2758
  335TMC3    O2 5090   4.041   1.662  16.847 -0.0742 -0.2976  0.0560
  336MPD2     C 5091   3.676   4.017  16.298 -0.1477 -0.9032  0.3668
  336MPD2    C1 5092   3.630   3.950  16.190  0.6346  0.2878 -0.3818
  336MPD2    C2 5093   3.679   3.826  16.154 -1.3144  0.4167  0.2411
  336MPD2    C3 5094   3.776   3.773  16.233 -0.1851  0.6542 -0.1724
  336MPD2    C4 5095   3.824   3.839  16.344 -0.2905  0.0174  0.3325
  336MPD2    C5 5096   3.774   3.961  16.374  0.0227  0.9706 -0.2955
  336MPD2     H 5097   3.634   3.778  16.068  0.5533 -0.5729 -0.2004
  336MPD2    H1 5098   3.898   3.794  16.410 -0.2077 -0.6869 -0.2485
  336MPD2    H2 5099   3.655   4.120  16.326 -1.4433 -1.1871  0.4357
  336MPD2    H3 5100   3.815   4.017  16.457 -0.5035  0.3910  0.3473
  336MPD2     N 5101   3.832   3.647  16.220 -0.0004 -0.0463 -0.2564
  336MPD2    H5 5102   3.899   3.611  16.287 -2.8807 -0.5125  2.3802
  336MPD2    N1 5103   3.529   4.001  16.107  0.1563  0.3810  0.1412
  336MPD2    H7 5104   3.503   3.960  16.018  1.3834 -0.2977  0.0912
  337TMC3    C1 5105   3.381   4.168  16.020  0.3519  0.2195 -0.4877
  337TMC3    C2 5106   3.296   4.069  15.969 -0.1374 -0.2926 -0.5695
  337TMC3    C3 5107   3.184   4.121  15.906  0.5962  0.6879  0.0751
  337TMC3    C4 5108   3.356   4.300  16.019  0.5266 -0.4487 -0.7798
  337TMC3    C5 5109   3.248   4.345  15.950 -0.2660  0.7548  0.2971
  337TMC3    C6 5110   3.158   4.256  15.892 -0.6874  0.2489  0.3839
  337TMC3     C 5111   3.479   4.131  16.120 -0.1220  0.3899  0.1799
  337TMC3     O 5112   3.497   4.222  16.203  0.2607  0.1854 -0.7005
  337TMC3     H 5113   3.319   3.964  15.979 -1.2798 -0.4959 -0.1646
  337TMC3    H1 5114   3.429   4.372  16.051 -1.0192  0.6617  0.2644
  337TMC3    H2 5115   3.074   4.296  15.837 -0.3690  1.0029  0.4504
  337TMC3    C7 5116   3.214   4.488  15.981  0.0136  0.4573  0.2252
  337TMC3    C8 5117   3.088   4.026  15.862 -0.1123 -0.5936  0.0025
  337TMC3    O1 5118   3.269   4.540  16.077  0.3795 -0.2987  0.0674
  337TMC3    O2 5119   3.123   3.905  15.866  0.0794 -0.6620 -0.6194
  338MPD2     C 5120   3.771   4.535   0.877  0.5380  0.0509 -0.8736
  338MPD2    C1 5121   3.708   4.449   0.785 -0.4414 -0.5644  0.1322
  338MPD2    C2 5122   3.570   4.456   0.766 -0.4017 -0.3100 -0.3268
  338MPD2    C3 5123   3.493   4.546   0.840 -0.5199 -0.2945 -0.0731
  338MPD2    C4 5124   3.549   4.630   0.933  0.4890  0.9609 -0.2824
  338MPD2    C5 5125   3.687   4.622   0.948 -0.3670 -0.2504  0.1818
  338MPD2     H 5126   3.521   4.396   0.690 -1.2047 -0.7974  0.5766
  338MPD2    H1 5127   3.503   4.712   0.988 -0.5347 -0.1193  0.4745
  338MPD2    H2 5128   3.878   4.528   0.898  0.1921 -0.4213  0.7107
  338MPD2    H3 5129   3.726   4.685   1.028 -0.4934  0.4516 -0.3109
  338MPD2     N 5130   3.352   4.551   0.823  0.4210 -0.7274 -0.0100
  338MPD2    H5 5131   3.315   4.493   0.748 -1.8804 -0.2807  0.7759
  338MPD2    N1 5132   3.782   4.357   0.705 -0.1142 -0.4834 -0.0911
  338MPD2    H7 5133   3.726   4.322   0.629  1.3710  0.9754 -1.8745
  339TMC3    C1 5134   3.127   4.598   0.838  0.0864 -0.2072 -0.0814
  339TMC3    C2 5135   3.040   4.530   0.921  0.1876  0.5406  0.3158
  339TMC3    C3 5136   2.961   4.434   0.860 -0.2452 -0.3473  0.2705
  339TMC3    C4 5137   3.121   4.583   0.703  0.9466  0.6011  0.3362
  339TMC3    C5 5138   3.026   4.502   0.649  0.5190 -0.5200 -0.0671
  339TMC3    C6 5139   2.962   4.413   0.725 -0.2401  0.1550 -0.0137
  339TMC3     C 5140   3.260   4.624   0.891 -0.8495 -0.5411  0.1004
  339TMC3     O 5141   3.267   4.670   1.007  0.1551 -0.1991 -0.2152
  339TMC3     H 5142   3.056   4.535   1.028  1.0874  2.6278  0.0767
  339TMC3    H1 5143   3.189   4.641   0.642 -1.5885  2.4460 -0.7435
  339TMC3    H2 5144   2.917   4.322   0.686  0.9648 -0.5211  0.1708
  339TMC3    C7 5145   3.045   4.477   0.513  0.4050  0.8086  0.2024
  339TMC3    C8 5146   2.862   4.371   0.947 -0.2503 -0.2055 -0.0173
  339TMC3    O1 5147   3.040   4.574   0.439  0.2307 -0.3922 -0.4145
  339TMC3    O2 5148   2.833   4.435   1.050  0.3807  0.4714 -0.0714
  340MPD2     C 5149   4.163   1.642  10.499  0.3516 -0.3014 -0.2656
  340MPD2    C1 5150   4.111   1.514  10.489  0.4775 -0.7565  0.4561
  340MPD2    C2 5151   4.191   1.405  10.477 -0.1228 -0.3768 -0.3521
  340MPD2    C3 5152   4.329   1.421  10.480  1.1335 -0.1896 -0.2581
  340MPD2    C4 5153   4.380   1.550  10.493 -0.1776 -0.1016  0.2678
  340MPD2    C5 5154   4.298   1.658  10.494 -0.1766 -0.7845 -0.4484
  340MPD2     H 5155   4.143   1.308  10.472 -0.9560  0.0666 -1.2244
  340MPD2    H1 5156   4.486   1.562  10.508  0.0488 -0.1340 -1.3131
  340MPD2    H2 5157   4.102   1.730  10.516  0.4293 -0.5097  1.1554
  340MPD2    H3 5158   4.337   1.758  10.512  0.0018 -0.9492  0.1125
  340MPD2     N 5159   4.422   1.320  10.464 -0.1570 -0.2698 -0.1029
  340MPD2    H5 5160   4.520   1.343  10.470 -0.4689  0.9693  0.1904
  340MPD2    N1 5161   3.966   1.510  10.477 -0.2881  0.3469 -0.4145
  340MPD2    H7 5162   3.924   1.597  10.507  1.0494  0.4902  1.0343
  341TMC3    C1 5163   3.922   1.312  10.347 -0.2101 -0.7738 -0.6046
  341TMC3    C2 5164   3.858   1.191  10.351  0.0365  0.2084  0.2142
  341TMC3    C3 5165   3.904   1.104  10.252 -0.0257 -0.2083  0.7947
  341TMC3    C4 5166   4.017   1.345  10.249  0.5419 -0.1714 -0.2843
  341TMC3    C5 5167   4.053   1.256  10.158 -0.0030 -0.0997 -0.0272
  341TMC3    C6 5168   4.000   1.132  10.160  0.1837  0.0596  0.3563
  341TMC3     C 5169   3.879   1.406  10.447 -0.4400 -0.0568  0.0959
  341TMC3     O 5170   3.756   1.396  10.465  0.1032  0.0661  0.1060
  341TMC3     H 5171   3.795   1.158  10.432 -0.8573  1.0814 -0.1236
  341TMC3    H1 5172   4.040   1.450  10.242  0.0898 -0.2243 -2.6296
  341TMC3    H2 5173   4.036   1.053  10.096 -0.5569  0.7161 -0.8733
  341TMC3    C7 5174   4.189   1.255  10.100  0.1143  0.1491  0.7132
  341TMC3    C8 5175   3.838   0.975  10.247  0.1409 -1.1456 -0.1796
  341TMC3    O1 5176   4.222   1.166  10.018 -0.1439 -0.3816 -0.1985
  341TMC3    O2 5177   3.715   0.971  10.248  0.1071  0.1621 -0.0247
  342MPD2     C 5178   2.052   4.106   0.128  0.0857  0.2590  0.0064
  342MPD2    C1 5179   2.073   4.109  17.740  0.4476  0.3238 -0.4484
  342MPD2    C2 5180   2.030   4.214  17.663 -0.2514  0.5514 -0.0081
  342MPD2    C3 5181   1.961   4.321  17.718 -0.3399  0.0880 -1.0912
  342MPD2    C4 5182   1.946   4.318   0.103 -0.1855  0.4391 -0.1719
  342MPD2    C5 5183   1.988   4.211   0.181 -0.3335 -0.4516 -0.4534
  342MPD2     H 5184   2.030   4.190  17.557 -0.2220 -0.2878  0.1816
  342MPD2    H1 5185   1.892   4.394   0.158 -1.1915 -0.0866 -0.4291
  342MPD2    H2 5186   2.077   4.021   0.191 -1.4608 -1.5777 -1.8597
  342MPD2    H3 5187   1.970   4.218   0.287  0.0299  0.7137 -0.4687
  342MPD2     N 5188   1.918   4.435  17.646  0.0058 -0.4522  0.0761
  342MPD2    H5 5189   1.864   4.503  17.697  2.6149  0.5235  1.5045
  342MPD2    N1 5190   2.146   4.010  17.678 -0.0138  0.1565  0.5802
  342MPD2    H7 5191   2.170   4.018  17.580 -1.5430  2.5599  0.4281
  343TMC3    C1 5192   2.252   3.816  17.623 -0.0307 -0.1333 -0.0600
  343TMC3    C2 5193   2.385   3.780  17.613 -0.1321  0.0763  0.1829
  343TMC3    C3 5194   2.422   3.667  17.539  0.2807  0.3794  0.1322
  343TMC3    C4 5195   2.153   3.750  17.563  0.4413 -0.0622  0.4749
  343TMC3    C5 5196   2.190   3.640  17.486 -1.6213 -0.3153 -0.0118
  343TMC3    C6 5197   2.320   3.597  17.479  0.0881  0.3148 -0.1940
  343TMC3     C 5198   2.212   3.901  17.737  0.1114  0.3949 -0.2307
  343TMC3     O 5199   2.196   3.847   0.100  1.1926  0.1671 -0.2549
  343TMC3     H 5200   2.464   3.837  17.660 -0.0464  0.7555 -0.7921
  343TMC3    H1 5201   2.053   3.780  17.592 -0.6909 -0.6060 -2.9559
  343TMC3    H2 5202   2.339   3.509  17.419  0.4428  1.3687 -1.6306
  343TMC3    C7 5203   2.086   3.556  17.436 -0.3666 -0.0082 -0.0447
  343TMC3    C8 5204   2.559   3.662  17.502 -0.1942  0.1646 -0.4851
  343TMC3    O1 5205   1.975   3.566  17.486 -0.1522 -0.3281  1.0245
  343TMC3    O2 5206   2.637   3.726  17.569 -0.5489 -0.9559  0.2322
  344MPD2     C 5207   2.323   4.163  10.264 -0.1933 -0.1881  0.1113
  344MPD2    C1 5208   2.429   4.122  10.343 -0.2279 -0.1018  0.8113
  344MPD2    C2 5209   2.532   4.212  10.365  0.3863  0.3957 -0.4316
  344MPD2    C3 5210   2.537   4.336  10.310  0.0011  0.7855  0.2987
  344MPD2    C4 5211   2.430   4.373  10.239 -0.2038 -0.3456  0.1068
  344MPD2    C5 5212   2.321   4.291  10.211  0.2104  0.2823 -0.3063
  344MPD2     H 5213   2.613   4.180  10.430 -2.8121 -3.2698  1.7193
  344MPD2    H1 5214   2.417   4.479  10.218  0.5996 -0.4352 -0.8822
  344MPD2    H2 5215   2.237   4.100  10.246 -0.7302  1.2353 -2.1826
  344MPD2    H3 5216   2.240   4.327  10.149 -1.9541 -2.2410  1.0185
  344MPD2     N 5217   2.631   4.435  10.333  0.1519  0.3414  0.3245
  344MPD2    H5 5218   2.619   4.524  10.286 -0.9986  0.3516  0.6282
  344MPD2    N1 5219   2.439   3.995  10.392  0.5490  0.1003 -0.3542
  344MPD2    H7 5220   2.514   3.969  10.456 -0.2574  1.5562  1.1757
  345TMC3    C1 5221   2.837   4.535  10.402 -0.1201  0.4525 -0.5015
  345TMC3    C2 5222   2.974   4.508  10.427  0.9283 -0.8338 -0.5475
  345TMC3    C3 5223   3.058   4.608  10.390 -0.2494 -0.3842 -0.1219
  345TMC3    C4 5224   2.798   4.642  10.329 -0.3600 -0.1343 -0.2098
  345TMC3    C5 5225   2.892   4.728  10.281 -0.1157 -0.3492 -0.0001
  345TMC3    C6 5226   3.023   4.714  10.311  0.4413  0.3925  0.3756
  345TMC3     C 5227   2.747   4.421  10.402 -0.0839  0.1953  0.5715
  345TMC3     O 5228   2.800   4.318  10.441 -0.2755  0.0353  0.1287
  345TMC3     H 5229   3.001   4.412  10.470 -2.5916 -1.6327 -0.1185
  345TMC3    H1 5230   2.696   4.661  10.298  0.4317  1.6983 -1.6821
  345TMC3    H2 5231   3.093   0.041  10.260 -0.3189  0.5516 -0.4697
  345TMC3    C7 5232   2.861   0.108  10.214 -0.0312 -0.3808  0.2533
  345TMC3    C8 5233   3.175   4.639  10.474 -0.3560 -0.5603  0.3485
  345TMC3    O1 5234   2.934   0.204  10.223  0.1313 -0.2481  0.4373
  345TMC3    O2 5235   3.260   4.562  10.506  0.3232 -0.4085  0.1911
  346MPD2     C 5236   2.651   0.681  14.504  0.1207  0.5358  0.0290
  346MPD2    C1 5237   2.714   0.792  14.452  0.0805  0.0826 -0.6922
  346MPD2    C2 5238   2.785   0.875  14.530 -0.7624 -0.0312  0.3848
  346MPD2    C3 5239   2.798   0.848  14.665 -0.4319  0.4062  0.8094
  346MPD2    C4 5240   2.750   0.736  14.716 -0.4241 -0.6827 -0.0012
  346MPD2    C5 5241   2.675   0.653  14.632  0.1921  0.0108  0.2337
  346MPD2     H 5242   2.827   0.969  14.497 -1.5662  0.7997  1.7261
  346MPD2    H1 5243   2.749   0.709  14.821  1.0275 -1.9488 -0.3200
  346MPD2    H2 5244   2.587   0.612  14.451  0.2884  0.4176 -0.0195
  346MPD2    H3 5245   2.638   0.557  14.666  2.6700 -0.7520  0.8222
  346MPD2     N 5246   2.857   0.952  14.730 -0.1053  0.3705 -0.2123
  346MPD2    H5 5247   2.913   1.018  14.678  0.7104  0.0992  0.3329
  346MPD2    N1 5248   2.700   0.835  14.318  0.9411 -0.2204  0.5864
  346MPD2    H7 5249   2.760   0.910  14.286 -0.6002  0.5705 -0.4255
  347TMC3    C1 5250   2.974   1.062  14.891  0.7450 -0.2088 -0.2168
  347TMC3    C2 5251   3.022   1.134  14.786  0.4366  0.5190  0.0400
  347TMC3    C3 5252   3.148   1.187  14.802  0.2390 -0.1150  0.5538
  347TMC3    C4 5253   3.046   1.045  15.011 -0.4238  1.1116 -0.1391
  347TMC3    C5 5254   3.168   1.100  15.018  0.2788 -0.1159 -0.7311
  347TMC3    C6 5255   3.224   1.167  14.916  0.1783 -0.4390 -0.0230
  347TMC3     C 5256   2.867   0.968  14.865 -0.5418 -0.4085 -0.5560
  347TMC3     O 5257   2.844   0.893  14.959  0.2689  0.2632  0.2293
  347TMC3     H 5258   2.972   1.165  14.695 -0.4476  3.1904  1.4436
  347TMC3    H1 5259   3.014   0.975  15.087 -0.1460 -0.1608 -1.1996
  347TMC3    H2 5260   3.312   1.226  14.937 -0.6654  0.0911  1.9753
  347TMC3    C7 5261   3.232   1.118  15.147 -0.2647  0.4772 -0.0475
  347TMC3    C8 5262   3.226   1.173  14.678  0.5396 -0.5695  0.1216
  347TMC3    O1 5263   3.158   1.170  15.230  0.0254 -0.0038 -0.8677
  347TMC3    O2 5264   3.169   1.103  14.591  0.2634  0.0493 -0.3888
  348MPD2     C 5265   2.125   0.444  11.873 -0.2711 -0.1825  0.5929
  348MPD2    C1 5266   2.012   0.385  11.822  0.2072 -0.5423 -1.3244
  348MPD2    C2 5267   1.899   0.462  11.774 -0.9674  0.2209  0.5086
  348MPD2    C3 5268   1.908   0.596  11.786 -0.6952 -0.5750  0.9098
  348MPD2    C4 5269   2.011   0.653  11.851  0.0748 -0.7949 -0.3970
  348MPD2    C5 5270   2.116   0.581  11.893 -0.6554  0.2418 -0.7936
  348MPD2     H 5271   1.823   0.410  11.716 -0.4989 -0.4039  0.4512
  348MPD2    H1 5272   2.022   0.760  11.861  1.5689 -0.7322 -2.5289
  348MPD2    H2 5273   2.219   0.389  11.882  0.2872  0.9444  1.5222
  348MPD2    H3 5274   2.202   0.634  11.931 -1.5076  1.1874 -0.1681
  348MPD2     N 5275   1.824   0.691  11.720  0.1613 -0.1363 -0.1295
  348MPD2    H5 5276   1.858   0.786  11.714 -0.1832  0.0282  0.4821
  348MPD2    N1 5277   2.000   0.249  11.797 -0.0586 -0.1707  0.0199
  348MPD2    H7 5278   1.909   0.221  11.761  0.2932  0.8360 -1.6446
  349TMC3    C1 5279   2.021   0.019  11.804 -0.1752  0.0380 -0.4562
  349TMC3    C2 5280   2.049   4.660  11.892 -0.0430 -0.3128 -0.2668
  349TMC3    C3 5281   1.945   4.573  11.915 -0.5582 -0.3619 -0.8021
  349TMC3    C4 5282   1.898   0.028  11.746  0.3910 -0.1479  0.2098
  349TMC3    C5 5283   1.793   4.684  11.782  0.0244  0.7076 -0.1132
  349TMC3    C6 5284   1.819   4.582  11.871 -0.5129 -0.8426  0.0340
  349TMC3     C 5285   2.090   0.144  11.826  0.4996  0.5660  0.5302
  349TMC3     O 5286   2.192   0.134  11.896 -0.2975 -0.3032 -0.1780
  349TMC3     H 5287   2.140   4.658  11.951 -1.8376 -1.8806  2.4317
  349TMC3    H1 5288   1.895   0.085  11.654  0.4871  2.0471  1.5886
  349TMC3    H2 5289   1.739   4.511  11.883 -0.3748 -0.9420  0.3580
  349TMC3    C7 5290   1.654   4.720  11.765  0.1297  0.2089  0.4345
  349TMC3    C8 5291   1.968   4.490  12.028  0.8976  0.2075  0.9045
  349TMC3    O1 5292   1.572   4.645  11.816  0.2820  0.4507 -0.0657
  349TMC3    O2 5293   2.072   4.513  12.093 -0.2887  0.4638  0.3377
  350MPD2     C 5294   0.144   3.071  10.375  0.6027 -0.0419 -0.5431
  350MPD2    C1 5295   0.232   2.990  10.445 -0.5935 -0.2041 -0.3898
  350MPD2    C2 5296   0.273   3.031  10.575 -0.0628 -0.6509 -0.6046
  350MPD2    C3 5297   0.238   3.153  10.621  0.7709 -0.1143  0.1231
  350MPD2    C4 5298   0.168   3.242  10.540  0.1640  0.3534 -0.1970
  350MPD2    C5 5299   0.112   3.199  10.421 -0.5595 -0.4167 -0.4361
  350MPD2     H 5300   0.327   2.957  10.631 -0.5836  0.1312  0.9486
  350MPD2    H1 5301   0.146   3.344  10.568  0.4840  0.4788 -0.4035
  350MPD2    H2 5302   0.120   3.046  10.272  0.4603 -2.5721  0.1014
  350MPD2    H3 5303   0.046   3.264  10.366 -1.8833 -0.3482  1.2099
  350MPD2     N 5304   0.289   3.184  10.752  0.0012  0.3660 -0.0910
  350MPD2    H5 5305   0.311   3.102  10.808  0.8524 -0.2531 -1.3377
  350MPD2    N1 5306   0.280   2.870  10.377 -0.1402  0.3494  1.4052
  350MPD2    H7 5307   0.233   2.853  10.288 -3.5663  1.0219  3.0804
  351TMC3    C1 5308   0.439   2.698  10.325  0.0591  0.4745 -0.2063
  351TMC3    C2 5309   0.573   2.675  10.315  0.0864  0.0294  0.1964
  351TMC3    C3 5310   0.626   2.641  10.198  0.2240 -0.0649  0.3535
  351TMC3    C4 5311   0.356   2.663  10.222  0.2562  0.3272  0.6266
  351TMC3    C5 5312   0.413   2.627  10.100 -0.9157  0.1927  0.5122
  351TMC3    C6 5313   0.550   2.621  10.082 -0.0455  0.3312 -0.0321
  351TMC3     C 5314   0.396   2.802  10.422  0.2017 -0.9329  0.1058
  351TMC3     O 5315   0.471   2.827  10.520  0.6016 -0.1162  0.6807
  351TMC3     H 5316   0.640   2.701  10.397 -1.0159 -2.0753  1.7533
  351TMC3    H1 5317   0.249   2.675  10.226  0.1629 -0.4192  0.3963
  351TMC3    H2 5318   0.600   2.615   9.986  0.7687 -0.4380  0.4354
  351TMC3    C7 5319   0.330   2.645   9.980  0.5402  0.7247  0.4834
  351TMC3    C8 5320   0.766   2.660  10.169 -0.1489 -0.2846 -0.1424
  351TMC3    O1 5321   0.220   2.593   9.975  0.1526  0.5106 -0.2179
  351TMC3    O2 5322   0.812   2.579  10.092 -0.5158  0.6519  0.4468
  352MPD2     C 5323   3.945   1.446   1.148  0.5582 -0.0899  0.5077
  352MPD2    C1 5324   3.889   1.384   1.040 -0.0668  1.0785 -0.5302
  352MPD2    C2 5325   3.907   1.248   1.021  0.3187 -1.1165 -0.6139
  352MPD2    C3 5326   3.997   1.175   1.107 -0.2096 -0.2445 -0.1790
  352MPD2    C4 5327   4.048   1.244   1.216  0.1052  0.1683 -0.5078
  352MPD2    C5 5328   4.023   1.373   1.240 -0.6842  0.3919 -0.4086
  352MPD2     H 5329   3.879   1.199   0.928 -1.4486 -0.5439 -0.3937
  352MPD2    H1 5330   4.098   1.185   1.291 -1.9569 -0.6659  0.2229
  352MPD2    H2 5331   3.920   1.550   1.162 -0.7383 -0.3819  0.3479
  352MPD2    H3 5332   4.058   1.422   1.330  0.8877 -0.0823 -0.7552
  352MPD2     N 5333   4.036   1.037   1.089 -0.6647 -0.7297  0.0322
  352MPD2    H5 5334   4.108   1.010   1.156  0.4636 -0.6998 -1.1835
  352MPD2    N1 5335   3.815   1.463   0.954 -0.4419  0.5212 -0.5346
  352MPD2    H7 5336   3.826   1.563   0.971 -0.9707  0.3862  0.5620
  353TMC3    C1 5337   4.011   0.812   1.000 -0.3887 -0.1001 -0.3211
  353TMC3    C2 5338   4.114   0.758   1.070  0.5062  0.5352 -0.1160
  353TMC3    C3 5339   4.143   0.627   1.053  0.3034  0.5454 -0.1383
  353TMC3    C4 5340   3.936   0.726   0.918 -0.3839 -0.2000  0.0266
  353TMC3    C5 5341   3.961   0.592   0.916  0.1862  0.6461  0.5686
  353TMC3    C6 5342   4.059   0.536   0.995 -0.6303 -0.0986 -0.1465
  353TMC3     C 5343   3.983   0.953   0.992 -0.1360  0.3070 -0.0587
  353TMC3     O 5344   3.909   0.980   0.899 -0.2246 -0.3596 -0.2365
  353TMC3     H 5345   4.176   0.830   1.123  1.7508 -0.1226 -0.6572
  353TMC3    H1 5346   3.850   0.762   0.864 -2.6015 -2.5969  1.9663
  353TMC3    H2 5347   4.069   0.429   1.003  0.1470 -0.0545 -0.4942
  353TMC3    C7 5348   3.853   0.499   0.893 -0.0230 -0.2603  0.6135
  353TMC3    C8 5349   4.269   0.585   1.113 -0.4539 -0.0013  0.6854
  353TMC3    O1 5350   3.882   0.383   0.871  0.0542 -0.6877 -0.4856
  353TMC3    O2 5351   4.325   0.671   1.191  0.0368 -0.1849 -0.5451
  354TMC3    C1 5352   0.669   1.957  13.690 -0.7572 -0.1563 -0.1654
  354TMC3    C2 5353   0.740   2.072  13.669 -0.2712 -0.1767  0.2273
  354TMC3    C3 5354   0.747   2.113  13.539  0.3988  0.2545  0.5442
  354TMC3    C4 5355   0.594   1.889  13.595 -0.2725  0.3564 -0.2391
  354TMC3    C5 5356   0.606   1.933  13.468  0.2276 -0.0788 -0.0542
  354TMC3    C6 5357   0.680   2.052  13.433 -0.3726 -0.1661  0.4595
  354TMC3     C 5358   0.664   1.910  13.825 -0.3765 -0.1368 -0.5284
  354TMC3     O 5359   0.562   1.850  13.860 -0.0797  0.2452  0.0763
  354TMC3     H 5360   0.784   2.122  13.754  0.3054  0.5432 -0.4933
  354TMC3    H1 5361   0.545   1.794  13.616 -0.5636  0.5167 -0.1987
  354TMC3    H2 5362   0.698   2.099  13.337 -1.4979  1.1974  0.9136
  354TMC3    C7 5363   0.597   1.828  13.369  0.0956  0.0388 -0.2154
  354TMC3    C8 5364   0.823   2.232  13.515 -0.0048 -0.2001 -0.4319
  354TMC3    O1 5365   0.486   1.793  13.330 -0.2083 -0.1095  0.5233
  354TMC3    O2 5366   0.858   2.306  13.604 -0.1319  0.4255 -0.3644
  355MPD2     C 5367   1.156   2.318  11.782  0.3187  0.4897 -0.8309
  355MPD2    C1 5368   1.194   2.405  11.879 -0.3656 -0.0115  0.1304
  355MPD2    C2 5369   1.259   2.363  11.994  0.3696 -0.9128 -0.1501
  355MPD2    C3 5370   1.280   2.226  12.016 -0.0640  0.0929  0.1727
  355MPD2    C4 5371   1.236   2.140  11.924 -0.5254  0.3011  0.3676
  355MPD2    C5 5372   1.181   2.190  11.806  0.4005  0.1016 -0.2343
  355MPD2     H 5373   1.282   2.437  12.070 -1.6640 -1.0124  0.5876
  355MPD2    H1 5374   1.262   2.035  11.935 -1.5359  0.3949  3.7121
  355MPD2    H2 5375   1.121   2.355  11.686 -0.4153  0.9961 -0.3675
  355MPD2    H3 5376   1.161   2.128  11.719 -1.2481  2.0544 -1.2079
  355MPD2     N 5377   1.346   2.167  12.125  0.2613 -0.2738 -0.7762
  355MPD2    H5 5378   1.333   2.066  12.128 -0.5540 -0.1240  1.1057
  355MPD2    N1 5379   1.166   2.547  11.853 -0.2138 -0.8063  0.0370
  355MPD2    H7 5380   1.130   2.564  11.760 -1.1837 -1.2035  0.3413
  356TMC3    C1 5381   1.489   2.348  12.195  0.4652 -0.6453  0.2117
  356TMC3    C2 5382   1.553   2.372  12.075  0.9568  0.1262 -0.4302
  356TMC3    C3 5383   1.627   2.484  12.065  0.7190 -0.1102  0.0070
  356TMC3    C4 5384   1.515   2.418  12.312 -0.2078  0.7936 -0.1120
  356TMC3    C5 5385   1.584   2.538  12.294  0.1197  0.1382 -0.0846
  356TMC3    C6 5386   1.647   2.565  12.174 -0.4966  0.3634 -0.1783
  356TMC3     C 5387   1.432   2.221  12.217  0.8786  0.4422  0.0655
  356TMC3     O 5388   1.472   2.179  12.325 -0.4725  0.2559  0.2283
  356TMC3     H 5389   1.532   2.304  11.993 -0.0048 -0.8770  0.6484
  356TMC3    H1 5390   1.461   2.397  12.403 -0.3978 -4.7148 -1.5112
  356TMC3    H2 5391   1.728   2.637  12.174  0.4502 -0.7090 -2.5066
  356TMC3    C7 5392   1.626   2.594  12.416  1.1952  0.4056  1.0300
  356TMC3    C8 5393   1.626   2.545  11.929  0.0799  0.1936 -0.0013
  356TMC3    O1 5394   1.622   2.528  12.520  0.4794 -0.5615 -0.5275
  356TMC3    O2 5395   1.621   2.461  11.836 -0.3692  0.4681  0.0169
  357MPD2     C 5396   0.804   2.782   1.498  0.6676 -0.0754  0.6857
  357MPD2    C1 5397   0.739   2.717   1.404  0.3151  0.0413  0.0099
  357MPD2    C2 5398   0.640   2.628   1.444  0.7577  0.6978 -0.1005
  357MPD2    C3 5399   0.621   2.593   1.575  0.3816  0.0201  0.5681
  357MPD2    C4 5400   0.698   2.654   1.667  0.4447  0.6529  0.4423
  357MPD2    C5 5401   0.784   2.748   1.630  0.3359  0.3497  0.6601
  357MPD2     H 5402   0.572   2.582   1.372  2.2683 -1.5744 -0.1000
  357MPD2    H1 5403   0.694   2.634   1.774 -3.9188  0.3354  0.1929
  357MPD2    H2 5404   0.883   2.851   1.470  2.2797 -1.7618  1.0645
  357MPD2    H3 5405   0.846   2.792   1.707  1.7492  0.0309 -0.2938
  357MPD2     N 5406   0.521   2.493   1.597 -0.0540 -0.6802 -0.4273
  357MPD2    H5 5407   0.461   2.470   1.518 -1.4250  2.1985 -0.2029
  357MPD2    N1 5408   0.780   2.725   1.266 -0.1619  0.1539  0.6100
  357MPD2    H7 5409   0.874   2.759   1.253  0.1475 -1.1096 -0.4454
  358TMC3    C1 5410   0.792   2.573   1.080  0.3785 -0.3480  0.0911
  358TMC3    C2 5411   0.738   2.528   0.961  0.3872  0.3270 -0.5292
  358TMC3    C3 5412   0.802   2.419   0.901  0.2572 -0.1219  0.4976
  358TMC3    C4 5413   0.898   2.511   1.138 -0.5142  0.5428  0.2286
  358TMC3    C5 5414   0.957   2.408   1.065  0.1352 -0.3676  0.0399
  358TMC3    C6 5415   0.910   2.351   0.944  0.1920  0.2912 -0.5091
  358TMC3     C 5416   0.709   2.657   1.166 -0.2633 -0.4399  0.3044
  358TMC3     O 5417   0.588   2.658   1.153  0.2224 -0.0050 -0.0742
  358TMC3     H 5418   0.631   2.537   0.948  0.1693  0.3494  1.2952
  358TMC3    H1 5419   0.928   2.539   1.238  2.5321 -0.3142 -0.4396
  358TMC3    H2 5420   0.961   2.292   0.869  0.6473 -0.7069  0.5820
  358TMC3    C7 5421   1.076   2.340   1.124 -0.3288  0.3598  0.0557
  358TMC3    C8 5422   0.730   2.359   0.792 -0.0344  0.3965  0.4729
  358TMC3    O1 5423   1.115   2.374   1.239  0.2056 -0.1526  0.5983
  358TMC3    O2 5424   0.662   2.432   0.723 -0.3336  0.0827  0.0463
  359MPD2     C 5425   0.827   1.041  11.954  0.0151 -0.4784 -0.4922
  359MPD2    C1 5426   0.861   0.917  12.016  0.2476 -0.0092 -0.9180
  359MPD2    C2 5427   0.772   0.803  12.014  1.2109  0.5307 -0.5221
  359MPD2    C3 5428   0.650   0.831  11.957 -0.1745 -1.2083  0.0497
  359MPD2    C4 5429   0.621   0.949  11.887 -0.7097  0.1715 -0.5329
  359MPD2    C5 5430   0.708   1.057  11.887 -0.3204  0.2286 -0.1167
  359MPD2     H 5431   0.798   0.715  12.071 -0.2754  1.5443  1.7246
  359MPD2    H1 5432   0.523   0.966  11.844 -0.3745  0.7488 -1.0717
  359MPD2    H2 5433   0.894   1.126  11.956  1.4638 -1.5840 -1.7257
  359MPD2    H3 5434   0.691   1.144  11.824  0.0260 -0.2172 -0.8195
  359MPD2     N 5435   0.552   0.734  11.960  0.2585  0.0996  0.1162
  359MPD2    H5 5436   0.471   0.761  11.905  1.4585  0.2276 -1.5677
  359MPD2    N1 5437   0.989   0.903  12.079 -0.2048 -0.3365  0.0374
  359MPD2    H7 5438   1.013   0.810  12.112  0.8352 -0.4178 -0.9442
  360TMC3    C1 5439   1.212   0.944  12.131  0.4797  0.3378  0.0980
  360TMC3    C2 5440   1.295   1.037  12.186  0.0303 -0.4421  0.6155
  360TMC3    C3 5441   1.429   1.018  12.158 -0.3931 -0.5419 -0.3189
  360TMC3    C4 5442   1.259   0.861  12.032  0.2760 -1.3220  0.4366
  360TMC3    C5 5443   1.389   0.846  11.999 -0.7380  0.1665 -0.3176
  360TMC3    C6 5444   1.477   0.923  12.072  0.6454 -1.0372  0.3874
  360TMC3     C 5445   1.081   0.999  12.105  0.2580  0.0588  0.9181
  360TMC3     O 5446   1.064   1.118  12.091  0.0701 -0.9093 -0.1741
  360TMC3     H 5447   1.261   1.095  12.270 -1.4460 -2.8783  1.6835
  360TMC3    H1 5448   1.187   0.791  11.992 -0.5351 -0.0209 -0.3450
  360TMC3    H2 5449   1.584   0.914  12.057  0.4275  1.9395 -2.8510
  360TMC3    C7 5450   1.409   0.858  11.857 -0.0259  0.2874 -0.8132
  360TMC3    C8 5451   1.512   1.133  12.184  0.1180  0.0500  0.3135
  360TMC3    O1 5452   1.486   0.946  11.833 -0.5966 -0.4563 -0.0141
  360TMC3    O2 5453   1.460   1.215  12.257  0.4372  0.1391  0.2394
  361MPD2     C 5454   2.939   0.486  16.108 -0.6401  0.4734 -1.0938
  361MPD2    C1 5455   2.843   0.470  16.210  0.3118  0.1483  0.3123
  361MPD2    C2 5456   2.890   0.428  16.332 -0.0840  0.0902  0.0547
  361MPD2    C3 5457   3.025   0.390  16.355 -0.0355 -0.5025 -0.1369
  361MPD2    C4 5458   3.113   0.401  16.245 -0.1272  0.0068  0.1455
  361MPD2    C5 5459   3.070   0.453  16.124 -0.1979 -0.2539  0.5105
  361MPD2     H 5460   2.824   0.428  16.417  1.4962 -0.4021  1.2879
  361MPD2    H1 5461   3.218   0.379  16.260 -0.5531 -1.1207  1.4681
  361MPD2    H2 5462   2.912   0.517  16.008 -2.8983 -1.4033 -1.0729
  361MPD2    H3 5463   3.135   0.460  16.038  0.4736 -1.8930  0.8988
  361MPD2     N 5464   3.066   0.335  16.481 -0.5382 -0.0937  0.5075
  361MPD2    H5 5465   3.148   0.276  16.490 -1.8503 -2.1922 -1.3986
  361MPD2    N1 5466   2.711   0.508  16.209 -0.0340 -0.6336  0.4065
  361MPD2    H7 5467   2.663   0.514  16.299 -0.1200  0.6278  0.2737
  362TMC3    C1 5468   2.492   0.585  16.137 -0.5915  0.1373  0.2971
  362TMC3    C2 5469   2.450   0.561  16.265 -0.5955  0.3840 -0.1386
  362TMC3    C3 5470   2.337   0.615  16.310  0.1838  0.2227  0.3588
  362TMC3    C4 5471   2.428   0.669  16.053 -0.2420 -0.2558  0.6516
  362TMC3    C5 5472   2.305   0.718  16.099 -0.7325  0.4579 -0.0542
  362TMC3    C6 5473   2.255   0.687  16.220  0.2809  0.4313  0.6251
  362TMC3     C 5474   2.633   0.550  16.103  0.1752  0.2284 -0.7361
  362TMC3     O 5475   2.668   0.577  15.992 -0.1368  0.0251 -0.2926
  362TMC3     H 5476   2.493   0.489  16.333 -1.1591 -1.6115 -1.8801
  362TMC3    H1 5477   2.465   0.692  15.954  1.9898  1.1224  1.8035
  362TMC3    H2 5478   2.159   0.724  16.255 -1.0708 -0.5304 -2.1000
  362TMC3    C7 5479   2.241   0.836  16.040  0.0330  0.1410 -0.5902
  362TMC3    C8 5480   2.289   0.561  16.439  0.2496  0.0456 -0.5090
  362TMC3    O1 5481   2.182   0.922  16.100 -0.2619 -0.2685  0.6036
  362TMC3    O2 5482   2.329   0.452  16.471  0.2295 -0.1667 -0.1334
  363TMC3    C1 5483   1.974   2.984  10.063 -0.1304  0.2567 -0.2892
  363TMC3    C2 5484   1.973   2.890  10.161 -0.1205  0.4520  1.0884
  363TMC3    C3 5485   1.857   2.830  10.190  0.2835  0.0447  0.7946
  363TMC3    C4 5486   1.866   3.022   9.985  0.0494 -0.3888 -0.3199
  363TMC3    C5 5487   1.752   2.954  10.028 -0.0276  0.1354  0.2894
  363TMC3    C6 5488   1.744   2.863  10.131  0.0609 -0.3095  0.4474
  363TMC3     C 5489   2.100   3.023  10.015 -0.1171  0.1329  0.3335
  363TMC3     O 5490   2.196   2.958  10.052 -0.4131  0.1009  0.7364
  363TMC3     H 5491   2.060   2.863  10.220  1.2458  0.1504 -1.0617
  363TMC3    H1 5492   1.856   3.081   9.895 -0.2012 -0.1109 -0.1100
  363TMC3    H2 5493   1.644   2.835  10.163 -1.1188 -0.5202 -3.4801
  363TMC3    C7 5494   1.622   3.004   9.978 -0.7693 -0.4210  0.6319
  363TMC3    C8 5495   1.844   2.789  10.329  0.3792  0.7053 -0.1194
  363TMC3    O1 5496   1.528   2.923   9.981 -0.1510 -0.0318  0.2451
  363TMC3    O2 5497   1.763   2.854  10.398  0.0385  0.1464  0.2988
  364MPD2     C 5498   4.552   1.835  10.661 -0.0065 -0.4031  0.8312
  364MPD2    C1 5499   4.664   1.844  10.586 -0.1485  0.2297  0.6809
  364MPD2    C2 5500   0.029   1.752  10.592  0.6450 -0.4982  0.6371
  364MPD2    C3 5501   0.021   1.655  10.691 -0.1506 -0.9052  0.4026
  364MPD2    C4 5502   4.645   1.637  10.763 -0.2741 -0.4807 -0.0666
  364MPD2    C5 5503   4.547   1.729  10.749  0.6930  1.0409  0.6325
  364MPD2     H 5504   0.123   1.766  10.540 -0.0463 -0.5204 -0.6194
  364MPD2    H1 5505   4.624   1.570  10.845 -0.1941 -0.0662  0.2892
  364MPD2    H2 5506   4.470   1.907  10.657 -0.1550 -0.5375  1.4100
  364MPD2    H3 5507   4.452   1.721  10.801 -0.9804  0.5331 -2.4766
  364MPD2     N 5508   0.125   1.573  10.721 -0.0332 -0.1808  0.2705
  364MPD2    H5 5509   0.115   1.513  10.803 -0.6094 -2.4398 -1.4596
  364MPD2    N1 5510   4.676   1.961  10.505  0.1416 -0.2839  0.1297
  364MPD2    H7 5511   4.607   2.036  10.511  1.7710  1.2801 -0.7838
  365TMC3    C1 5512   0.039   2.118  10.370 -0.1673  0.6748 -0.0843
  365TMC3    C2 5513   0.122   2.124  10.261  0.4492  0.1246  0.4530
  365TMC3    C3 5514   0.230   2.206  10.263 -0.1181 -0.1697 -0.0874
  365TMC3    C4 5515   0.064   2.213  10.470  0.0048 -0.0684 -0.0485
  365TMC3    C5 5516   0.179   2.293  10.471  0.0839 -0.0610 -0.0010
  365TMC3    C6 5517   0.266   2.294  10.369 -0.1261  0.2655  0.0448
  365TMC3     C 5518   0.030   1.983  10.408  0.0041 -0.6411  0.3069
  365TMC3     O 5519   0.117   1.910  10.356  0.0973 -0.1789  0.0608
  365TMC3     H 5520   0.104   2.067  10.170  2.6179 -0.4649  0.3972
  365TMC3    H1 5521   0.002   2.216  10.559 -0.2443  2.6341 -0.3187
  365TMC3    H2 5522   0.360   2.346  10.379 -0.3726  0.9269 -1.1496
  365TMC3    C7 5523   0.188   2.414  10.562  0.3794  0.1158  0.2512
  365TMC3    C8 5524   0.347   2.148  10.203  0.1383  0.1308 -0.4562
  365TMC3    O1 5525   0.277   2.496  10.536 -0.5408  0.2738  0.3839
  365TMC3    O2 5526   0.439   2.227  10.179  0.4361  0.3112 -0.0048
  366MPD2     C 5527   3.114   3.242  15.125  0.4865  0.3884 -0.3811
  366MPD2    C1 5528   3.203   3.303  15.210  0.3038  0.2770 -0.0926
  366MPD2    C2 5529   3.345   3.276  15.197  0.0649 -0.0097 -0.2300
  366MPD2    C3 5530   3.385   3.193  15.094 -0.6684 -0.0188 -0.6628
  366MPD2    C4 5531   3.297   3.143  15.004 -0.3338 -0.5036 -0.7543
  366MPD2    C5 5532   3.155   3.156  15.029 -0.2899  0.5802 -0.0383
  366MPD2     H 5533   3.414   3.333  15.258  1.8862 -0.5937 -1.7713
  366MPD2    H1 5534   3.323   3.085  14.917  0.6500 -0.3720 -0.5484
  366MPD2    H2 5535   3.008   3.260  15.135  0.2984 -0.1823 -1.3382
  366MPD2    H3 5536   3.089   3.106  14.960  1.4260 -1.1318 -0.4572
  366MPD2     N 5537   3.528   3.171  15.084 -0.3861  0.4926  0.0851
  366MPD2    H5 5538   3.585   3.235  15.138  1.2160 -2.7837  2.2953
  366MPD2    N1 5539   3.170   3.403  15.307 -0.2136  0.3562  0.0369
  366MPD2    H7 5540   3.245   3.452  15.355  1.8716  0.9300 -3.8576
  367TMC3    C1 5541   3.069   3.581  15.418 -0.1870  0.5016  0.8247
  367TMC3    C2 5542   3.170   3.592  15.512 -0.4142  0.4180  0.0756
  367TMC3    C3 5543   3.199   3.715  15.568  0.2339 -0.1802  0.3038
  367TMC3    C4 5544   2.982   3.681  15.399 -0.0886 -0.1939 -0.2467
  367TMC3    C5 5545   3.012   3.800  15.461  0.7918 -0.2798 -0.0804
  367TMC3    C6 5546   3.116   3.822  15.550  0.0890  0.4478  0.6760
  367TMC3     C 5547   3.051   3.462  15.331  0.2359 -0.5677 -0.3910
  367TMC3     O 5548   2.934   3.433  15.303 -0.1219 -0.4404 -0.2339
  367TMC3     H 5549   3.240   3.511  15.530 -0.1249  0.5217 -0.5874
  367TMC3    H1 5550   2.912   3.673  15.316  0.7936 -0.9504 -0.9141
  367TMC3    H2 5551   3.127   3.920  15.595  0.9301 -0.3512  2.2246
  367TMC3    C7 5552   2.926   3.919  15.412 -0.0807 -0.7764 -0.4767
  367TMC3    C8 5553   3.332   3.730  15.628 -0.3075  0.1074  0.1158
  367TMC3    O1 5554   2.830   3.894  15.344 -0.1188  0.1009 -0.1303
  367TMC3    O2 5555   3.411   3.638  15.620  0.3307 -0.1927  0.3528
  368MPD2     C 5556   4.283   0.346  13.493 -0.1802 -0.6154 -1.1045
  368MPD2    C1 5557   4.276   0.460  13.421  0.1317 -0.4088  0.2503
  368MPD2    C2 5558   4.379   0.488  13.336 -0.7968  0.6265  0.3355
  368MPD2    C3 5559   4.498   0.413  13.332  0.1995  0.0717 -0.7335
  368MPD2    C4 5560   4.508   0.302  13.414  0.7126 -0.5729 -0.0758
  368MPD2    C5 5561   4.398   0.267  13.489 -0.7315  0.7391  0.0931
  368MPD2     H 5562   4.375   0.575  13.271  1.1960  0.5794  0.1394
  368MPD2    H1 5563   4.593   0.235  13.416  0.7729 -0.5269 -1.0532
  368MPD2    H2 5564   4.207   0.313  13.564  0.8842 -1.6796 -0.4694
  368MPD2    H3 5565   4.399   0.171  13.539  0.7702  0.4011 -0.5736
  368MPD2     N 5566   4.605   0.448  13.244  0.0353  0.1962  0.0090
  368MPD2    H5 5567   4.686   0.386  13.252 -1.2440 -1.2406  1.9567
  368MPD2    N1 5568   4.154   0.534  13.425  0.2136  0.0536 -0.6329
  368MPD2    H7 5569   4.088   0.500  13.494 -0.3160 -3.4022 -2.8261
  369TMC3    C1 5570   3.990   0.678  13.346 -0.2883 -0.4434 -0.4334
  369TMC3    C2 5571   3.964   0.809  13.305 -0.5525  0.3665 -0.0899
  369TMC3    C3 5572   3.834   0.846  13.281  0.5267 -0.0181  0.3104
  369TMC3    C4 5573   3.893   0.586  13.367 -0.7648  0.6437  0.2691
  369TMC3    C5 5574   3.767   0.623  13.331  0.0827 -0.0794  0.5591
  369TMC3    C6 5575   3.737   0.748  13.292 -0.2443 -0.1922  0.2244
  369TMC3     C 5576   4.122   0.640  13.344 -0.2436  0.2442 -1.0414
  369TMC3     O 5577   4.189   0.703  13.266  0.3459  0.7274  0.5305
  369TMC3     H 5578   4.051   0.873  13.302  0.3371 -0.8865 -0.8720
  369TMC3    H1 5579   3.911   0.481  13.386 -0.6597  0.8104  1.0892
  369TMC3    H2 5580   3.633   0.780  13.291  0.0927  0.8881  0.1461
  369TMC3    C7 5581   3.663   0.515  13.330 -1.1681  0.1982 -0.3332
  369TMC3    C8 5582   3.814   0.928  13.159 -0.3215 -0.0889 -0.4572
  369TMC3    O1 5583   3.681   0.439  13.423 -0.1699  0.3358  0.5878
  369TMC3    O2 5584   3.710   0.909  13.103  0.4576 -0.1776 -0.4490
  370TMC3    C1 5585   3.968   0.955  16.303 -0.0830  0.2798  0.4935
  370TMC3    C2 5586   3.900   0.875  16.388 -0.5336  0.3176  0.4560
  370TMC3    C3 5587   3.859   0.756  16.331  0.1073 -0.0273 -0.2886
  370TMC3    C4 5588   3.981   0.939  16.166  0.9517  0.8131  0.2499
  370TMC3    C5 5589   3.928   0.824  16.112 -0.9688 -0.5806 -1.3306
  370TMC3    C6 5590   3.872   0.727  16.196 -0.0986  0.0078 -0.1335
  370TMC3     C 5591   4.048   1.058  16.364 -0.7245 -0.2511 -0.3088
  370TMC3     O 5592   4.081   1.040  16.478  0.1954  0.2553  0.0141
  370TMC3     H 5593   3.903   0.902  16.493 -2.9793  1.4549  0.2404
  370TMC3    H1 5594   4.053   0.999  16.111  1.6349  0.8330  1.1719
  370TMC3    H2 5595   3.833   0.637  16.151  2.3423 -1.0970 -0.0802
  370TMC3    C7 5596   3.966   0.796  15.974  0.6516 -0.4662  0.7090
  370TMC3    C8 5597   3.794   0.652  16.410 -0.1387  0.3264  0.9004
  370TMC3    O1 5598   3.969   0.887  15.895 -0.6383  0.3031 -0.3841
  370TMC3    O2 5599   3.750   0.560  16.352  0.4131  0.0288 -0.2443
  371TMC3    C1 5600   0.493   4.086  15.481 -0.0405  0.1980  0.3431
  371TMC3    C2 5601   0.358   4.070  15.485  0.2369  0.3557 -0.4134
  371TMC3    C3 5602   0.276   4.179  15.456 -0.2982  0.0629 -0.2296
  371TMC3    C4 5603   0.546   4.206  15.448  0.3349 -0.4407  0.1841
  371TMC3    C5 5604   0.464   4.314  15.420 -0.4501 -0.3758 -0.2271
  371TMC3    C6 5605   0.331   4.304  15.422 -0.7494 -0.2990  0.4490
  371TMC3     C 5606   0.579   3.980  15.511 -0.0713  0.5092  0.4129
  371TMC3     O 5607   0.690   4.011  15.557 -0.1215  0.1811  0.4436
  371TMC3     H 5608   0.325   3.970  15.510 -3.4299  2.5373  3.3621
  371TMC3    H1 5609   0.654   4.213  15.457  0.1726 -0.0506  1.7882
  371TMC3    H2 5610   0.263   4.379  15.382  1.0835  0.5438 -1.1246
  371TMC3    C7 5611   0.511   4.454  15.405 -0.4116  0.2982 -0.0300
  371TMC3    C8 5612   0.136   4.139  15.441  0.0542  0.1127  0.3092
  371TMC3    O1 5613   0.435   4.534  15.346 -0.1551 -0.1961 -0.2140
  371TMC3    O2 5614   0.113   4.019  15.413 -0.0530  0.4502  0.2464
  372MPD2     C 5615   0.370   0.654  13.364  0.2475  0.9147 -0.4146
  372MPD2    C1 5616   0.452   0.562  13.427  0.1770  0.5854 -0.0345
  372MPD2    C2 5617   0.395   0.456  13.498 -0.0494  0.2802 -0.1562
  372MPD2    C3 5618   0.258   0.445  13.513  0.4869 -0.2303 -0.0488
  372MPD2    C4 5619   0.179   0.539  13.453 -0.5010  0.0931 -0.3643
  372MPD2    C5 5620   0.236   0.643  13.382 -0.1279 -0.0690 -0.3813
  372MPD2     H 5621   0.465   0.401  13.560 -2.6599 -0.5427  2.0559
  372MPD2    H1 5622   0.071   0.534  13.467 -0.3066 -0.2868  1.0423
  372MPD2    H2 5623   0.410   0.739  13.309 -0.8183  1.7234  0.0547
  372MPD2    H3 5624   0.175   0.715  13.329 -0.1067 -1.9646 -2.9600
  372MPD2     N 5625   0.209   0.335  13.582  0.0528  0.2310 -0.0620
  372MPD2    H5 5626   0.276   0.262  13.603 -0.9035 -0.5474  0.2704
  372MPD2    N1 5627   0.592   0.568  13.414  0.2404  0.5131 -0.2723
  372MPD2    H7 5628   0.653   0.507  13.467 -1.2272  0.1681  0.9951
  373TMC3    C1 5629   0.017   0.211  13.670 -0.3975  0.2058 -0.7010
  373TMC3    C2 5630   4.642   0.215  13.753  0.1158  0.3492 -0.2057
  373TMC3    C3 5631   4.584   0.097  13.778 -0.2195 -0.3194 -0.2470
  373TMC3    C4 5632   0.063   0.097  13.615  0.0092 -1.4294  0.5110
  373TMC3    C5 5633   0.002   4.715  13.645 -0.2912 -0.6539 -0.9362
  373TMC3    C6 5634   4.626   4.716  13.720  0.6320  0.2603  0.0859
  373TMC3     C 5635   0.085   0.339  13.645 -0.2404  0.4535 -0.0054
  373TMC3     O 5636   0.038   0.435  13.702 -0.5396  0.2918 -0.4791
  373TMC3     H 5637   4.605   0.314  13.773 -3.1432 -0.7307 -0.8967
  373TMC3    H1 5638   0.147   0.099  13.546 -0.1419  2.2819  0.4544
  373TMC3    H2 5639   4.585   4.624  13.760  2.5924 -1.1806 -1.2585
  373TMC3    C7 5640   0.098   4.605  13.640 -0.1591 -0.1293 -0.3556
  373TMC3    C8 5641   4.461   0.102  13.874 -0.6781 -0.0391  0.9430
  373TMC3    O1 5642   0.213   4.632  13.617 -0.0208 -0.4903  0.0583
  373TMC3    O2 5643   4.393   0.200  13.851  0.1262  0.1796 -0.0269
  374TMC3    C1 5644   0.602   0.435   9.605  0.4179 -0.2186  0.1717
  374TMC3    C2 5645   0.669   0.536   9.663 -0.5441 -0.2163 -0.2533
  374TMC3    C3 5646   0.721   0.637   9.584  0.3584  0.1275 -0.3588
  374TMC3    C4 5647   0.588   0.435   9.465 -0.0294  0.2089  0.0860
  374TMC3    C5 5648   0.636   0.540   9.387 -0.1888 -0.4009  0.3388
  374TMC3    C6 5649   0.709   0.641   9.445 -1.0004  0.3359  0.1331
  374TMC3     C 5650   0.566   0.313   9.673  0.8194  0.7529  0.5802
  374TMC3     O 5651   0.498   0.233   9.604 -0.0020  0.6071 -0.1059
  374TMC3     H 5652   0.680   0.547   9.770 -0.9727 -0.3338 -0.1991
  374TMC3    H1 5653   0.516   0.370   9.417 -0.6293  1.3768 -0.5852
  374TMC3    H2 5654   0.735   0.726   9.383 -0.7343  0.5010  0.4714
  374TMC3    C7 5655   0.629   0.540   9.245 -0.6531 -1.1181  0.5141
  374TMC3    C8 5656   0.778   0.758   9.644  0.3745  0.5836  0.2972
  374TMC3    O1 5657   0.637   0.644   9.187 -0.2449  0.6482 -0.4457
  374TMC3    O2 5658   0.746   0.867   9.593  0.7410 -0.0297 -0.0932
  375MPD2     C 5659   0.564   2.400  16.882 -0.0143  0.1475  0.1120
  375MPD2    C1 5660   0.454   2.341  16.819 -0.6920 -0.1375 -0.4703
  375MPD2    C2 5661   0.476   2.219  16.756 -0.5198  0.4284 -0.4906
  375MPD2    C3 5662   0.598   2.151  16.764 -0.0342  0.4399 -0.4010
  375MPD2    C4 5663   0.702   2.219  16.821  0.7028 -0.5008 -0.0950
  375MPD2    C5 5664   0.687   2.337  16.877  0.5260  0.7031  0.5840
  375MPD2     H 5665   0.395   2.170  16.704  1.4800 -1.1457 -2.0870
  375MPD2    H1 5666   0.801   2.174  16.829  0.4256 -1.0139  0.4901
  375MPD2    H2 5667   0.564   2.494  16.936 -2.3255 -0.9325  2.0003
  375MPD2    H3 5668   0.770   2.382  16.929  2.6915  1.1871 -3.3623
  375MPD2     N 5669   0.626   2.028  16.696 -0.7254  0.2646 -0.0622
  375MPD2    H5 5670   0.723   2.010  16.672 -0.1350  1.1300  1.6522
  375MPD2    N1 5671   0.325   2.405  16.807  0.5803  0.6426 -0.2750
  375MPD2    H7 5672   0.259   2.352  16.751 -0.5453 -1.2554  2.8456
  376TMC3    C1 5673   0.577   1.826  16.593 -0.1486 -0.6161  0.3131
  376TMC3    C2 5674   0.712   1.799  16.586  0.5086 -0.2764 -0.1561
  376TMC3    C3 5675   0.744   1.670  16.558 -0.5872  0.3540 -1.0398
  376TMC3    C4 5676   0.487   1.734  16.544 -0.0978  0.2824  0.0407
  376TMC3    C5 5677   0.531   1.608  16.510  0.3710 -0.7400  0.7813
  376TMC3    C6 5678   0.660   1.571  16.526  0.7804 -0.3368  0.6782
  376TMC3     C 5679   0.528   1.945  16.657  0.0080  0.4374 -0.1004
  376TMC3     O 5680   0.407   1.946  16.676  0.2686  0.1113  0.0338
  376TMC3     H 5681   0.790   1.873  16.598  0.0143  0.1162  0.5901
  376TMC3    H1 5682   0.381   1.756  16.537  0.1538  1.3630 -0.3368
  376TMC3    H2 5683   0.704   1.477  16.497 -2.2720 -1.2367 -0.9100
  376TMC3    C7 5684   0.445   1.541  16.415 -0.9367 -0.7853  0.5825
  376TMC3    C8 5685   0.884   1.649  16.566  0.4453  0.5396  0.5065
  376TMC3    O1 5686   0.368   1.612  16.350 -0.5793 -0.1203  0.5839
  376TMC3    O2 5687   0.959   1.745  16.558  0.2735 -0.4480 -0.2344
  377MPD2     C 5688   3.209   0.742  13.268 -0.2754  0.1359 -0.1048
  377MPD2    C1 5689   3.186   0.701  13.134  0.5217 -0.3221  0.1219
  377MPD2    C2 5690   3.083   0.607  13.116  0.1817  0.5870  0.2673
  377MPD2    C3 5691   3.012   0.557  13.225 -0.4661  0.2853 -0.3361
  377MPD2    C4 5692   3.041   0.596  13.352 -0.3497 -0.6546 -0.2592
  377MPD2    C5 5693   3.141   0.684  13.374 -0.0781 -0.6190  0.1809
  377MPD2     H 5694   3.054   0.576  13.017 -1.4315  0.4410  0.7932
  377MPD2    H1 5695   2.989   0.559  13.440 -0.7117 -0.9996 -0.6138
  377MPD2    H2 5696   3.270   0.827  13.297 -2.4166  1.4922  0.4673
  377MPD2    H3 5697   3.157   0.715  13.477 -0.6043  1.6805 -0.4357
  377MPD2     N 5698   2.921   0.454  13.213 -0.5083 -0.1190  0.2428
  377MPD2    H5 5699   2.900   0.407  13.301  0.6112 -0.7339  0.1812
  377MPD2    N1 5700   3.270   0.747  13.032 -0.2399  0.5599  0.0345
  377MPD2    H7 5701   3.346   0.803  13.069  0.1323 -0.6992  1.1900
  378TMC3    C1 5702   3.491   0.714  12.625  0.4765 -0.1353  0.4060
  378TMC3    C2 5703   3.372   0.738  12.685 -0.2274  0.1702 -0.1880
  378TMC3    C3 5704   3.375   0.733  12.823 -0.8425  0.1293  0.0272
  378TMC3    C4 5705   3.611   0.682  12.692  0.2526 -0.0602 -1.0058
  378TMC3    C5 5706   3.603   0.686  12.828  0.7859 -0.3046  0.1566
  378TMC3    C6 5707   3.487   0.712  12.896 -0.6524  0.0111 -0.5518
  378TMC3     C 5708   3.492   0.712  12.479 -0.1990  1.2860 -0.2144
  378TMC3     O 5709   3.387   0.702  12.420 -0.3821 -0.4528  0.3826
  378TMC3     H 5710   3.282   0.754  12.627  0.0729 -0.0712 -0.7144
  378TMC3    H1 5711   3.696   0.640  12.640  1.2202 -1.1112  1.4229
  378TMC3    H2 5712   3.495   0.710  13.004  0.3654 -1.2697 -0.6432
  378TMC3    C7 5713   3.719   0.676  12.910 -0.1814 -0.1215  0.2184
  378TMC3    C8 5714   3.253   0.727  12.896 -0.1794  0.2987  0.2446
  378TMC3    O1 5715   3.717   0.625  13.022 -0.0722 -0.2554 -0.4699
  378TMC3    O2 5716   3.161   0.673  12.829  0.0364 -0.7364  0.1885
  379MPD2     C 5717   4.416   3.246  16.146 -0.6597  0.3359  0.2702
  379MPD2    C1 5718   4.349   3.364  16.182 -0.4910  0.3545 -0.6479
  379MPD2    C2 5719   4.353   3.413  16.313  0.5074 -0.0748 -0.0105
  379MPD2    C3 5720   4.403   3.325  16.415  0.0585  0.5185 -0.5447
  379MPD2    C4 5721   4.455   3.205  16.373 -0.3290  0.3338  0.3759
  379MPD2    C5 5722   4.468   3.167  16.245 -0.1818 -0.7222  0.3026
  379MPD2     H 5723   4.330   3.515  16.340 -0.8399 -0.3812 -0.0033
  379MPD2    H1 5724   4.490   3.136  16.450 -2.1653  0.8608  1.7146
  379MPD2    H2 5725   4.438   3.208  16.047  0.0859 -1.0943  0.9800
  379MPD2    H3 5726   4.500   3.065  16.222  0.8016 -0.1745 -0.7552
  379MPD2     N 5727   4.415   3.345  16.550 -0.2288  0.3828  0.3662
  379MPD2    H5 5728   4.439   3.270  16.614  3.0750  0.7376 -0.4611
  379MPD2    N1 5729   4.314   3.453  16.078  0.0580  0.2450  0.3521
  379MPD2    H7 5730   4.365   3.434  15.993 -0.9551  2.0367 -0.6581
  380TMC3    C1 5731   4.196   3.614  15.970 -0.3587 -0.6242  0.3073
  380TMC3    C2 5732   4.245   3.563  15.853 -0.5375  0.4475 -0.4795
  380TMC3    C3 5733   4.178   3.581  15.735 -0.3764  0.2763 -0.0764
  380TMC3    C4 5734   4.082   3.685  15.972 -0.7902  0.2528 -0.3508
  380TMC3    C5 5735   4.008   3.700  15.856 -0.2368 -0.1997 -0.2945
  380TMC3    C6 5736   4.063   3.647  15.738  0.1173 -0.0365  1.0965
  380TMC3     C 5737   4.228   3.551  16.095 -0.4820 -0.3204 -0.1061
  380TMC3     O 5738   4.169   3.580  16.195 -1.0971 -0.4431  0.2090
  380TMC3     H 5739   4.335   3.502  15.850  0.9131  2.5308  0.8064
  380TMC3    H1 5740   4.045   3.727  16.064 -0.8608 -0.0216 -0.2554
  380TMC3    H2 5741   4.002   3.653  15.649  1.6592  2.9459  0.2544
  380TMC3    C7 5742   3.940   3.827  15.842  0.6890  0.4791 -0.0293
  380TMC3    C8 5743   4.248   3.600  15.607  0.2094 -0.2076 -0.6232
  380TMC3    O1 5744   3.985   3.926  15.891 -1.0094 -0.1792 -0.4194
  380TMC3    O2 5745   4.181   3.623  15.513  0.2430  0.2381  0.2506
  381TMC3    C1 5746   3.626   0.010  15.975  0.4908  0.2957 -0.2259
  381TMC3    C2 5747   3.757   0.045  16.001  0.0150 -0.4412 -0.4492
  381TMC3    C3 5748   3.783   0.142  16.098  0.1711  0.2181 -0.0084
  381TMC3    C4 5749   3.521   0.059  16.049  0.3147 -0.0651 -0.1166
  381TMC3    C5 5750   3.553   0.154  16.146 -0.1174 -0.8545  0.5064
  381TMC3    C6 5751   3.683   0.205  16.169  0.1207 -0.0798 -0.0823
  381TMC3     C 5752   3.603   4.652  15.866  0.5999 -0.3452 -0.0377
  381TMC3     O 5753   3.710   4.596  15.830  0.6092  1.1519 -0.2512
  381TMC3     H 5754   3.837   4.734  15.947  0.5034  2.7932 -2.6749
  381TMC3    H1 5755   3.419   0.023  16.041  0.3980 -0.1174 -0.9744
  381TMC3    H2 5756   3.701   0.285  16.239 -1.7897 -0.2029  0.5432
  381TMC3    C7 5757   3.456   0.169  16.247  0.4279 -0.1452 -0.3901
  381TMC3    C8 5758   3.918   0.192  16.118  0.3254 -0.4541 -0.2065
  381TMC3    O1 5759   3.373   0.078  16.254  0.3317  0.1508 -0.0861
  381TMC3    O2 5760   3.989   0.182  16.018  0.0836 -0.1353 -0.2147
  382MPD2     C 5761   3.296   2.898  16.924 -0.4793  0.0758  0.4417
  382MPD2    C1 5762   3.241   2.935  17.049  0.9878 -0.1650  0.3429
  382MPD2    C2 5763   3.138   2.851  17.097 -0.9532 -0.3654  0.3166
  382MPD2    C3 5764   3.100   2.734  17.032  0.5825 -0.6395  0.2755
  382MPD2    C4 5765   3.168   2.705  16.913 -0.5742  0.0771  0.3333
  382MPD2    C5 5766   3.259   2.786  16.860 -0.2727  0.1985 -0.0940
  382MPD2     H 5767   3.096   2.869  17.196  2.5278 -1.9733  2.0918
  382MPD2    H1 5768   3.151   2.615  16.856  0.8345  0.1509 -0.1943
  382MPD2    H2 5769   3.385   2.953  16.896  0.5295 -1.6332  0.2550
  382MPD2    H3 5770   3.321   2.755  16.777  0.3809  0.5539  0.2659
  382MPD2     N 5771   3.003   2.640  17.079 -1.0416 -0.1172  0.3782
  382MPD2    H5 5772   2.983   2.553  17.031 -0.3217 -0.1239  0.0915
  382MPD2    N1 5773   3.267   3.055  17.119 -0.8072 -0.2694 -0.2517
  382MPD2    H7 5774   3.210   3.071  17.201  0.7929  2.0405  0.4079
  383TMC3    C1 5775   2.816   2.557  17.213 -0.2577 -0.0282 -0.1140
  383TMC3    C2 5776   2.779   2.462  17.123 -0.1090 -0.0464  0.0587
  383TMC3    C3 5777   2.682   2.377  17.166  0.6294 -0.0689  0.2751
  383TMC3    C4 5778   2.768   2.571  17.339  0.1503  0.2780 -0.3721
  383TMC3    C5 5779   2.666   2.485  17.375  0.2552 -0.1019 -0.0538
  383TMC3    C6 5780   2.624   2.382  17.289  0.3112 -0.2752 -0.5450
  383TMC3     C 5781   2.911   2.661  17.177 -0.2995 -0.4160 -0.1193
  383TMC3     O 5782   2.902   2.765  17.239  0.4162  0.2249  0.0792
  383TMC3     H 5783   2.824   2.448  17.026  0.1724  0.6364  0.0912
  383TMC3    H1 5784   2.806   2.653  17.400  2.6064  0.3350 -1.9632
  383TMC3    H2 5785   2.551   2.308  17.321 -2.1979  2.8200  0.9658
  383TMC3    C7 5786   2.589   2.527  17.483  0.4724 -0.2963 -0.4863
  383TMC3    C8 5787   2.630   2.277  17.074  0.2618 -0.0252 -0.2454
  383TMC3    O1 5788   2.612   2.644  17.501  0.2670 -0.1463  0.1701
  383TMC3    O2 5789   2.628   2.294  16.952  0.2331 -0.5989 -0.3148
  384MPD2     C 5790   4.236   3.664  12.114  0.3702 -0.2437  0.0750
  384MPD2    C1 5791   4.355   3.712  12.151  0.2997  1.0248  0.5816
  384MPD2    C2 5792   4.463   3.627  12.142 -0.5762 -0.0578  0.1947
  384MPD2    C3 5793   4.447   3.500  12.088  0.2594 -0.0706 -0.2550
  384MPD2    C4 5794   4.323   3.449  12.053  1.0356 -0.1622 -0.0364
  384MPD2    C5 5795   4.219   3.537  12.065 -0.2520  0.4660 -0.9607
  384MPD2     H 5796   4.557   3.656  12.186  1.8483 -1.6069 -3.9725
  384MPD2    H1 5797   4.320   3.350  12.010  1.3633  0.0259 -0.4867
  384MPD2    H2 5798   4.150   3.730  12.119  0.6440  0.0233  1.2467
  384MPD2    H3 5799   4.122   3.505  12.027 -0.9021  3.7135 -2.0738
  384MPD2     N 5800   4.560   3.423  12.079 -0.7779  0.2444  0.0164
  384MPD2    H5 5801   4.642   3.473  12.111 -0.6711 -2.0897  3.3166
  384MPD2    N1 5802   4.356   3.831  12.231 -0.2260 -0.0370 -0.0276
  384MPD2    H7 5803   4.270   3.857  12.278  0.2575  0.8209  0.3980
  385TMC3    C1 5804   4.704   3.234  12.082 -0.3082 -0.3761  0.0577
  385TMC3    C2 5805   0.007   3.131  12.013  0.2623 -0.4764 -0.2787
  385TMC3    C3 5806   0.137   3.088  12.035  0.7340  0.1078  0.0360
  385TMC3    C4 5807   0.046   3.304  12.171 -0.5774 -0.0037 -0.0422
  385TMC3    C5 5808   0.176   3.255  12.190 -0.6194  0.5448 -0.1839
  385TMC3    C6 5809   0.220   3.146  12.122  0.5819  0.0722  0.4019
  385TMC3     C 5810   4.573   3.291  12.059  0.6534  0.9577 -0.5000
  385TMC3     O 5811   4.491   3.209  12.019  0.1641 -0.3486 -0.2494
  385TMC3     H 5812   4.697   3.093  11.924 -0.8510  0.7752 -0.2095
  385TMC3    H1 5813   0.028   3.395  12.227 -1.3149 -0.0102 -0.2767
  385TMC3    H2 5814   0.325   3.120  12.117  0.5417 -0.0742  0.3121
  385TMC3    C7 5815   0.267   3.309  12.281 -0.2955 -0.2360 -0.1311
  385TMC3    C8 5816   0.202   2.998  11.945  0.4512 -0.2753  0.4312
  385TMC3    O1 5817   0.386   3.315  12.254 -0.3280 -0.0015  0.3037
  385TMC3    O2 5818   0.319   3.018  11.932 -1.0975  0.3216 -0.2162
  386TMC3    C1 5819   4.434   0.788  11.778  0.2434 -0.3972 -0.4437
  386TMC3    C2 5820   4.472   0.845  11.652 -0.5533 -0.3639  0.2761
  386TMC3    C3 5821   4.403   0.962  11.622 -0.1816 -0.5981  0.2448
  386TMC3    C4 5822   4.338   0.843  11.852  0.6352  0.9177  0.2399
  386TMC3    C5 5823   4.262   0.943  11.802 -0.1379 -1.2763 -0.4184
  386TMC3    C6 5824   4.299   1.013  11.693 -0.3608 -0.2845  0.1464
  386TMC3     C 5825   4.496   0.664  11.816  0.9222 -0.4282  0.7581
  386TMC3     O 5826   4.440   0.591  11.899 -0.5409 -0.7354 -0.6738
  386TMC3     H 5827   4.537   0.790  11.585 -1.1493 -1.3639  0.5061
  386TMC3    H1 5828   4.310   0.793  11.944  1.4521  0.8225  0.4324
  386TMC3    H2 5829   4.241   1.095  11.652 -1.4321 -0.2129  1.7947
  386TMC3    C7 5830   4.139   0.976  11.879 -0.8356 -0.0492  0.1973
  386TMC3    C8 5831   4.410   1.011  11.487 -0.1528  0.7977  0.0656
  386TMC3    O1 5832   4.127   0.948  11.995  0.4773  0.0002  0.0839
  386TMC3    O2 5833   4.309   1.062  11.443 -0.3994 -0.6784  0.5086
  387MPD2     C 5834   2.708   1.654   9.940  0.0936 -0.3942 -0.4568
  387MPD2    C1 5835   2.820   1.597   9.982 -0.0289 -0.2229 -0.6554
  387MPD2    C2 5836   2.831   1.463  10.020  0.2003  1.2792  0.3970
  387MPD2    C3 5837   2.721   1.382   9.994  0.1567 -0.3324 -0.5847
  387MPD2    C4 5838   2.607   1.437   9.956 -0.2156 -0.7424 -0.4466
  387MPD2    C5 5839   2.597   1.575   9.935  0.3694 -0.3309 -0.4841
  387MPD2     H 5840   2.931   1.427  10.041  0.0860  1.8163  1.7886
  387MPD2    H1 5841   2.515   1.380   9.959 -0.2920 -0.7080 -1.8556
  387MPD2    H2 5842   2.703   1.756   9.903 -2.2891 -0.6223 -0.7650
  387MPD2    H3 5843   2.507   1.613   9.888 -1.3612 -1.1039  2.2007
  387MPD2     N 5844   2.750   1.243   9.997  0.6162  0.2977  0.6341
  387MPD2    H5 5845   2.837   1.216  10.043  0.2240 -0.9847  0.6230
  387MPD2    N1 5846   2.943   1.665   9.992  0.0006  0.3706  0.4989
  387MPD2    H7 5847   3.031   1.618  10.011 -1.2786 -1.8631  0.9229
  388TMC3    C1 5848   3.109   1.801   9.924  0.0156  0.7044  0.4281
  388TMC3    C2 5849   3.168   1.924   9.907 -0.5253  1.0459  0.3923
  388TMC3    C3 5850   3.303   1.919   9.866 -0.1327 -0.6542 -0.1938
  388TMC3    C4 5851   3.177   1.680   9.908 -0.1790 -0.1744  0.1495
  388TMC3    C5 5852   3.313   1.686   9.879 -0.3025 -0.0828  0.2237
  388TMC3    C6 5853   3.378   1.805   9.862  0.0456  0.7517 -0.0465
  388TMC3     C 5854   2.967   1.792   9.948 -0.2628  0.0652  0.3639
  388TMC3     O 5855   2.893   1.871   9.892  0.4345 -0.0053 -0.1348
  388TMC3     H 5856   3.111   2.016   9.914  1.2365  2.1353  0.4831
  388TMC3    H1 5857   3.142   1.582   9.881  1.6552 -0.5159 -1.0572
  388TMC3    H2 5858   3.485   1.813   9.849 -0.0403  0.6171 -0.8049
  388TMC3    C7 5859   3.381   1.566   9.848  0.1215 -0.1936  0.5189
  388TMC3    C8 5860   3.373   2.051   9.853  0.0625  0.1449  0.0840
  388TMC3    O1 5861   3.494   1.573   9.797  0.7018  0.2182 -0.0623
  388TMC3    O2 5862   3.322   2.149   9.903  0.4043 -0.0886  0.3341
  389MPD2     C 5863   1.520   4.349  11.096 -0.1276  0.5975 -0.2578
  389MPD2    C1 5864   1.499   4.249  11.010  0.3028  0.7054  0.2088
  389MPD2    C2 5865   1.493   4.120  11.058  0.6035 -0.4107 -0.5520
  389MPD2    C3 5866   1.492   4.094  11.196 -0.3081  0.4272 -0.3871
  389MPD2    C4 5867   1.509   4.199  11.279 -0.1794  0.3083 -0.2584
  389MPD2    C5 5868   1.520   4.320  11.232  0.2004 -0.3102 -0.4591
  389MPD2     H 5869   1.474   4.044  10.985  2.4134  0.3318 -1.8073
  389MPD2    H1 5870   1.508   4.190  11.387 -0.5981 -1.7577 -0.4300
  389MPD2    H2 5871   1.531   4.455  11.078 -2.9105  0.8596 -0.3806
  389MPD2    H3 5872   1.543   4.401  11.300  2.7354 -1.2255 -0.2266
  389MPD2     N 5873   1.461   3.966  11.253  0.4200  0.3455  0.4988
  389MPD2    H5 5874   1.476   3.960  11.354 -0.8649 -0.9305  0.6005
  389MPD2    N1 5875   1.494   4.283  10.878  0.1089  0.3381  0.1651
  389MPD2    H7 5876   1.515   4.379  10.852  2.1713 -0.2553 -0.3661
  390TMC3    C1 5877   1.383   3.751  11.277 -0.4786  0.5186 -0.4159
  390TMC3    C2 5878   1.401   3.763  11.418  0.0702 -0.6288 -0.0565
  390TMC3    C3 5879   1.348   3.660  11.490  0.0809 -0.2211 -0.3128
  390TMC3    C4 5880   1.315   3.646  11.216  0.7327  0.0177  0.3990
  390TMC3    C5 5881   1.261   3.550  11.297 -0.0850 -0.7059 -0.2479
  390TMC3    C6 5882   1.293   3.553  11.434  0.5519  0.5363 -0.1834
  390TMC3     C 5883   1.428   3.854  11.185 -0.6250  0.2057  0.1462
  390TMC3     O 5884   1.435   3.826  11.065 -0.3806  0.5180 -0.1698
  390TMC3     H 5885   1.438   3.852  11.468  0.8699 -1.7420  1.3426
  390TMC3    H1 5886   1.311   3.645  11.108  0.2471 -1.1894  0.4305
  390TMC3    H2 5887   1.300   3.457  11.484  3.4826 -0.7829 -3.0375
  390TMC3    C7 5888   1.202   3.433  11.239 -0.6824  0.0026  0.1179
  390TMC3    C8 5889   1.332   3.681  11.630 -0.1171  0.1746 -0.2539
  390TMC3    O1 5890   1.245   3.401  11.128 -0.1712  0.4004 -0.1621
  390TMC3    O2 5891   1.399   3.763  11.687 -0.2710  0.6078 -0.4591
  391MPD2     C 5892   1.289   0.490  11.149  0.3614 -0.4237  0.9241
  391MPD2    C1 5893   1.394   0.573  11.110  0.5366 -0.6944  0.9490
  391MPD2    C2 5894   1.425   0.589  10.975  0.3208  0.4120 -0.2281
  391MPD2    C3 5895   1.346   0.527  10.879  0.3795  0.1669 -0.0135
  391MPD2    C4 5896   1.240   0.449  10.921 -0.3452  0.0152 -0.7121
  391MPD2    C5 5897   1.215   0.430  11.054 -0.1789  0.5638  0.5464
  391MPD2     H 5898   1.491   0.663  10.932 -0.4727  1.1399 -0.1952
  391MPD2    H1 5899   1.173   0.402  10.850 -2.5028  0.4067  1.0482
  391MPD2    H2 5900   1.265   0.482  11.254 -1.3569 -0.2307  0.5523
  391MPD2    H3 5901   1.133   0.366  11.086  1.0216 -1.7922 -1.1107
  391MPD2     N 5902   1.366   0.570  10.743  0.4623 -0.3258 -0.5265
  391MPD2    H5 5903   1.450   0.626  10.729  0.9933 -1.1450 -0.6019
  391MPD2    N1 5904   1.461   0.638  11.217  0.1150 -0.1437  0.6019
  391MPD2    H7 5905   1.425   0.623  11.311 -2.9952  0.9613 -0.4059
  392TMC3    C1 5906   1.321   0.616  10.512 -0.2642 -0.6613 -0.0287
  392TMC3    C2 5907   1.238   0.598  10.407 -0.5788  0.3079 -0.5046
  392TMC3    C3 5908   1.248   0.691  10.306 -0.1984 -0.5234 -0.5186
  392TMC3    C4 5909   1.412   0.723  10.522 -0.2175 -0.7720  0.1692
  392TMC3    C5 5910   1.432   0.799  10.409  0.1027  0.1346 -0.1908
  392TMC3    C6 5911   1.352   0.778  10.296 -0.1572  0.9884 -0.1615
  392TMC3     C 5912   1.281   0.548  10.637  0.1736 -0.5385  0.3823
  392TMC3     O 5913   1.165   0.513  10.642 -0.4429  0.4301  0.1674
  392TMC3     H 5914   1.168   0.515  10.414  0.2299 -0.4527 -1.4007
  392TMC3    H1 5915   1.469   0.747  10.610  0.9143 -2.8021 -0.0128
  392TMC3    H2 5916   1.360   0.842  10.208  0.4123 -0.8978 -1.4922
  392TMC3    C7 5917   1.543   0.896  10.402 -0.7554  0.0931 -0.1891
  392TMC3    C8 5918   1.165   0.689  10.185 -0.3516  0.4838 -0.0118
  392TMC3    O1 5919   1.595   0.907  10.512  0.2883  0.0554  0.0567
  392TMC3    O2 5920   1.128   0.586  10.139  0.1329  0.3956  0.2118
  393TMC3    C1 5921   4.152   3.783  10.551 -0.0229 -0.1837 -0.7441
  393TMC3    C2 5922   4.042   3.788  10.639 -0.1959 -0.5412  1.2220
  393TMC3    C3 5923   4.036   3.690  10.738 -0.0615  0.1371  0.0442
  393TMC3    C4 5924   4.248   3.690  10.568 -0.2028 -0.6569 -0.1616
  393TMC3    C5 5925   4.238   3.598  10.667  0.4822  0.0314 -0.3081
  393TMC3    C6 5926   4.136   3.594  10.755 -0.8218 -0.1765 -0.4473
  393TMC3     C 5927   4.163   3.876  10.437  0.1189 -0.0384  0.4372
  393TMC3     O 5928   4.271   3.884  10.372 -1.0976 -0.3699  0.4597
  393TMC3     H 5929   3.968   3.868  10.635 -0.7658 -0.9943  2.6357
  393TMC3    H1 5930   4.335   3.684  10.503  2.4109  1.0991  3.1773
  393TMC3    H2 5931   4.120   3.517  10.830  0.6642  2.6409  2.7584
  393TMC3    C7 5932   4.326   3.487  10.664  0.9571 -0.3708  0.3624
  393TMC3    C8 5933   3.932   3.686  10.836 -0.7393  0.6100  0.2426
  393TMC3    O1 5934   4.390   3.456  10.561 -0.6575 -0.1886  0.7636
  393TMC3    O2 5935   3.940   3.596  10.918  0.7417 -0.5894 -0.3169
  394TMC3    C1 5936   1.458   4.274  10.652  0.5004 -0.5238 -0.7800
  394TMC3    C2 5937   1.359   4.251  10.558 -0.1717 -0.1061 -0.5296
  394TMC3    C3 5938   1.391   4.265  10.430  0.7843  0.6528 -0.6667
  394TMC3    C4 5939   1.589   4.300  10.619 -0.1295  0.2248 -0.2692
  394TMC3    C5 5940   1.616   4.309  10.487 -0.5773 -0.3133  0.3738
  394TMC3    C6 5941   1.524   4.289  10.388  0.1995 -0.4520  0.1729
  394TMC3     C 5942   1.446   4.203  10.775  0.3816 -0.2446 -0.3374
  394TMC3     O 5943   1.378   4.104  10.777  0.1094 -0.0508 -0.1598
  394TMC3     H 5944   1.257   4.228  10.586  0.2912 -1.9345 -0.3850
  394TMC3    H1 5945   1.663   4.309  10.698  0.7652  0.0144 -1.0924
  394TMC3    H2 5946   1.548   4.280  10.282 -1.5219  0.2438 -0.2796
  394TMC3    C7 5947   1.741   4.352  10.433  1.0103  0.2044 -0.0703
  394TMC3    C8 5948   1.309   4.192  10.334 -0.7738 -0.4810 -0.2691
  394TMC3    O1 5949   1.750   4.402  10.322 -0.1038 -0.1713  0.4376
  394TMC3    O2 5950   1.186   4.203  10.343  0.4321 -0.0667  0.1170
  395TMC3    C1 5951   0.887   0.477  15.252 -0.1347 -0.7473 -0.1787
  395TMC3    C2 5952   0.799   0.438  15.148 -0.1627 -0.0777 -0.5339
  395TMC3    C3 5953   0.858   0.392  15.032  0.7513  0.2456  0.4896
  395TMC3    C4 5954   1.016   0.445  15.250  0.2931 -0.3209  0.2131
  395TMC3    C5 5955   1.067   0.383  15.140  0.2171  0.6770  0.3057
  395TMC3    C6 5956   0.993   0.357  15.031 -0.3479  0.4550 -1.3931
  395TMC3     C 5957   0.863   0.605  15.316  0.4582  0.0235  0.1533
  395TMC3     O 5958   0.786   0.683  15.262  0.0650  0.1665 -0.5533
  395TMC3     H 5959   0.692   0.449  15.155 -0.1788 -0.4082 -0.2353
  395TMC3    H1 5960   1.086   0.476  15.327  1.1231  0.7313 -0.9580
  395TMC3    H2 5961   1.045   0.310  14.948 -0.6956  1.0684 -1.9618
  395TMC3    C7 5962   1.214   0.387  15.125 -0.2505 -0.0737  0.0066
  395TMC3    C8 5963   0.765   0.343  14.933  0.5773  0.2398  0.6034
  395TMC3    O1 5964   1.261   0.407  15.017 -0.9650  0.1247 -0.0194
  395TMC3    O2 5965   0.658   0.306  14.970 -0.2123  0.2341  0.0461
  396MPD2     C 5966   1.167   2.168  16.955  0.5723  0.3454 -0.5020
  396MPD2    C1 5967   1.301   2.176  16.991  0.0397  0.1883  1.1760
  396MPD2    C2 5968   1.372   2.284  16.945  0.5209  0.5993 -0.1980
  396MPD2    C3 5969   1.313   2.389  16.891  0.3098  0.1331 -0.3174
  396MPD2    C4 5970   1.175   2.387  16.861  0.2631  0.0697 -0.4408
  396MPD2    C5 5971   1.112   2.275  16.895  0.6006  1.0081 -0.1095
  396MPD2     H 5972   1.478   2.295  16.965  0.1758  0.7095  1.5988
  396MPD2    H1 5973   1.125   2.476  16.824 -1.4107  0.4817  2.8541
  396MPD2    H2 5974   1.113   2.076  16.975 -2.2800  2.2633  0.6495
  396MPD2    H3 5975   1.007   2.268  16.867  0.6204  0.1541  0.0228
  396MPD2     N 5976   1.393   2.504  16.857 -0.6471  0.4047  0.2014
  396MPD2    H5 5977   1.490   2.509  16.887 -0.7699 -0.3411  0.7407
  396MPD2    N1 5978   1.349   2.067  17.063  0.5347  0.0547  1.0014
  396MPD2    H7 5979   1.280   1.994  17.076 -0.1575  0.4970 -0.1079
  397TMC3    C1 5980   1.492   1.934  17.193  0.5038 -0.8327 -0.2316
  397TMC3    C2 5981   1.615   1.889  17.164 -0.2330  0.2679  0.2911
  397TMC3    C3 5982   1.619   1.763  17.107 -0.4391  0.0555 -0.4396
  397TMC3    C4 5983   1.382   1.851  17.195  0.2020  0.1619 -0.1719
  397TMC3    C5 5984   1.395   1.721  17.164  0.4094 -0.4700 -0.0094
  397TMC3    C6 5985   1.512   1.673  17.113 -0.3007 -0.0215 -0.2038
  397TMC3     C 5986   1.472   2.064  17.121  0.5283  0.2682  0.3514
  397TMC3     O 5987   1.565   2.147  17.119  0.0616 -0.6726  0.4448
  397TMC3     H 5988   1.695   1.959  17.145  2.0961 -2.0756  1.3399
  397TMC3    H1 5989   1.289   1.895  17.229 -0.9999 -2.0769 -0.5586
  397TMC3    H2 5990   1.517   1.566  17.098 -0.2507 -0.0756  0.1848
  397TMC3    C7 5991   1.302   1.627  17.206 -0.0282  0.5702  0.3576
  397TMC3    C8 5992   1.746   1.694  17.090 -0.2414  0.0305 -0.6830
  397TMC3    O1 5993   1.285   1.517  17.150  0.0483 -0.1274  0.1924
  397TMC3    O2 5994   1.732   1.573  17.117 -0.2333 -0.6115 -0.1175
  398MPD2     C 5995   4.005   4.306  17.588 -0.5915  0.5257  0.2898
  398MPD2    C1 5996   4.105   4.236  17.652  0.3541  0.0149 -0.0711
  398MPD2    C2 5997   4.213   4.304  17.711  0.5700 -1.4093 -0.6063
  398MPD2    C3 5998   4.219   4.440  17.700 -0.5102 -0.4462 -0.5216
  398MPD2    C4 5999   4.118   4.512  17.635 -0.0865 -0.2558  0.8458
  398MPD2    C5 6000   4.018   4.442  17.575  0.2597 -0.6757 -0.7133
  398MPD2     H 6001   4.296   4.246   0.000  0.1572 -0.5069  1.6304
  398MPD2    H1 6002   4.119   4.618  17.615 -0.0414 -0.1579  1.3664
  398MPD2    H2 6003   3.916   4.262  17.544 -0.7108  0.4836  0.5771
  398MPD2    H3 6004   3.938   4.488  17.520  1.0856  0.8388 -0.6502
  398MPD2     N 6005   4.326   4.499   0.019 -0.2249  0.4699 -0.3668
  398MPD2    H5 6006   4.377   4.436   0.080 -1.4721 -0.0251  0.1568
  398MPD2    N1 6007   4.096   4.096  17.667 -0.0059 -1.1719  0.0494
  398MPD2    H7 6008   4.173   4.060  17.724  0.4188 -1.9526 -1.0181
  399TMC3    C1 6009   4.042   3.867  17.648  0.5625 -0.3085 -0.4872
  399TMC3    C2 6010   4.083   3.831   0.025 -0.1268  0.4813 -0.2339
  399TMC3    C3 6011   4.076   3.700   0.066 -0.8544  0.5447 -0.6465
  399TMC3    C4 6012   3.997   3.770  17.566 -0.0468  0.0202 -0.6647
  399TMC3    C5 6013   3.984   3.639  17.603 -0.2853 -0.4718  0.2902
  399TMC3    C6 6014   4.018   3.603  17.735  0.1507  0.0362 -0.3111
  399TMC3     C 6015   4.016   4.006  17.604 -0.4429  0.0500  0.2692
  399TMC3     O 6016   3.938   4.024  17.508  0.0743 -1.0103 -0.3130
  399TMC3     H 6017   4.108   3.911   0.094  1.5168  0.3907 -0.7266
  399TMC3    H1 6018   3.965   3.808  17.470  1.3398 -2.0970 -1.9570
  399TMC3    H2 6019   4.026   3.498   0.013 -0.7069  0.2526  0.7279
  399TMC3    C7 6020   3.944   3.536  17.514  0.0371 -0.2184 -0.1057
  399TMC3    C8 6021   4.102   3.666   0.211 -0.1001 -0.0201  0.7235
  399TMC3    O1 6022   3.958   3.415  17.536  0.2977 -0.9812  0.2863
  399TMC3    O2 6023   4.094   3.760   0.289  0.8427 -0.0849 -0.1030
  400TMC3    C1 6024   2.750   2.067  16.679 -0.5425 -0.4121  0.5147
  400TMC3    C2 6025   2.693   1.977  16.594 -0.7915 -0.2588  0.3394
  400TMC3    C3 6026   2.620   2.029  16.487 -0.3267  0.1588  0.8317
  400TMC3    C4 6027   2.730   2.204  16.667 -0.3034 -0.2846  0.4013
  400TMC3    C5 6028   2.654   2.251  16.559 -0.1380  0.0991  0.0438
  400TMC3    C6 6029   2.596   2.162  16.474 -0.1674  0.1679  0.4193
  400TMC3     C 6030   2.817   2.012  16.793 -0.0141 -0.3393 -0.3543
  400TMC3     O 6031   2.794   1.900  16.829  0.0575  0.0978  0.2618
  400TMC3     H 6032   2.740   1.879  16.601  1.3110  1.0061  3.7819
  400TMC3    H1 6033   2.759   2.271  16.746 -1.0294 -0.6873  1.0071
  400TMC3    H2 6034   2.543   2.195  16.385 -1.7815 -1.1870  0.8718
  400TMC3    C7 6035   2.589   2.380  16.554  0.1339  0.5124 -0.0818
  400TMC3    C8 6036   2.525   1.943  16.423 -0.3055 -0.4032  0.0324
  400TMC3    O1 6037   2.573   2.414  16.441  0.5135 -0.3941 -0.5886
  400TMC3    O2 6038   2.464   1.997  16.332  0.2973  0.3569 -0.2909
  401MPD2     C 6039   1.344   0.913   1.012 -0.3656 -0.4390 -0.3897
  401MPD2    C1 6040   1.357   0.779   0.988 -0.2061 -0.2260 -0.2123
  401MPD2    C2 6041   1.275   0.690   1.056  0.4273  0.4340 -0.1076
  401MPD2    C3 6042   1.182   0.735   1.149 -0.2682 -0.7266  0.3754
  401MPD2    C4 6043   1.169   0.871   1.176  0.0479 -0.4093 -0.0690
  401MPD2    C5 6044   1.248   0.949   1.100 -0.3650  0.4247  0.2894
  401MPD2     H 6045   1.271   0.588   1.022  0.6792  0.5895 -0.6126
  401MPD2    H1 6046   1.105   0.912   1.253 -0.7440  0.1710 -1.0322
  401MPD2    H2 6047   1.398   0.996   0.968  1.5904 -0.7752  1.3763
  401MPD2    H3 6048   1.223   1.055   1.100  0.6566  0.6588  0.4073
  401MPD2     N 6049   1.113   0.627   1.198  0.9138 -0.1111  0.3266
  401MPD2    H5 6050   1.139   0.536   1.161  0.4751 -1.3321  2.9823
  401MPD2    N1 6051   1.447   0.727   0.897 -0.5673 -0.2604  0.0609
  401MPD2    H7 6052   1.446   0.627   0.881 -1.6532 -0.2679  0.2025
  402TMC3    C1 6053   0.998   0.501   1.352  0.6083 -0.5673 -0.3002
  402TMC3    C2 6054   1.052   0.465   1.471 -0.1013 -0.2772 -0.3803
  402TMC3    C3 6055   1.097   0.338   1.489  0.1081 -0.7313  0.9597
  402TMC3    C4 6056   0.993   0.411   1.248 -0.2626 -0.4967 -0.8490
  402TMC3    C5 6057   1.021   0.281   1.276 -0.6088 -0.0159  0.4452
  402TMC3    C6 6058   1.085   0.242   1.389 -0.4434  0.2318  0.4572
  402TMC3     C 6059   1.026   0.635   1.306  0.3740  0.2191  0.9242
  402TMC3     O 6060   1.008   0.729   1.383 -0.5434  0.4451  0.2225
  402TMC3     H 6061   1.079   0.546   1.537  2.1506 -0.5018 -1.0420
  402TMC3    H1 6062   0.931   0.440   1.165 -0.2838  1.5304 -0.1336
  402TMC3    H2 6063   1.115   0.140   1.407  0.5028  0.5913  0.9273
  402TMC3    C7 6064   0.995   0.180   1.166 -0.0002  0.2981 -0.4638
  402TMC3    C8 6065   1.229   0.334   1.553  0.5652 -0.2387 -0.6023
  402TMC3    O1 6066   0.895   0.189   1.099  0.4298  0.4024  0.1168
  402TMC3    O2 6067   1.306   0.244   1.519  0.1405 -1.2367 -0.7916
  403MPD2     C 6068   4.555   2.344  13.576 -0.0871 -0.1325 -0.4340
  403MPD2    C1 6069   4.584   2.463  13.511  0.0958 -0.5749 -0.2566
  403MPD2    C2 6070   4.685   2.548  13.560 -0.3001 -0.3979 -0.2265
  403MPD2    C3 6071   0.018   2.510  13.674 -0.4358  0.2714 -0.2890
  403MPD2    C4 6072   4.723   2.389  13.736  0.0341  0.0897 -0.0660
  403MPD2    C5 6073   4.623   2.310  13.691 -0.3748  0.1837 -0.0933
  403MPD2     H 6074   4.700   2.648  13.522 -2.8923 -1.0040 -2.8688
  403MPD2    H1 6075   0.030   2.362  13.830 -0.4170  0.6248  0.3056
  403MPD2    H2 6076   4.472   2.279  13.552 -1.1369  0.8245  0.6011
  403MPD2    H3 6077   4.590   2.218  13.738 -2.9930  1.3032  0.2865
  403MPD2     N 6078   0.118   2.596  13.736  0.3439  0.8713  0.2039
  403MPD2    H5 6079   0.113   2.691  13.701 -0.9077  0.1021 -1.6845
  403MPD2    N1 6080   4.501   2.495  13.404 -0.3135 -0.2599  0.6685
  403MPD2    H7 6081   4.423   2.430  13.395 -1.0530  1.1166 -3.0036
  404TMC3    C1 6082   4.402   2.607  13.222 -0.7793  0.3895 -0.6698
  404TMC3    C2 6083   4.315   2.515  13.260 -0.2690  0.3347 -0.1648
  404TMC3    C3 6084   4.196   2.550  13.321 -0.3580  0.3830 -0.4782
  404TMC3    C4 6085   4.365   2.739  13.225  0.1226 -0.3044  0.6687
  404TMC3    C5 6086   4.240   2.772  13.265  0.0253 -0.0180  0.2590
  404TMC3    C6 6087   4.156   2.682  13.311  0.4075  0.1249 -0.3267
  404TMC3     C 6088   4.518   2.597  13.313 -0.7729 -0.7451 -0.3729
  404TMC3     O 6089   4.597   2.693  13.310  0.1065  0.5427 -0.3397
  404TMC3     H 6090   4.335   2.411  13.234  1.5932  1.0967 -1.7402
  404TMC3    H1 6091   4.427   2.820  13.187  0.9680 -0.1071  2.4836
  404TMC3    H2 6092   4.060   2.717  13.345  0.2510  0.3425 -0.9926
  404TMC3    C7 6093   4.183   2.876  13.197  0.1794 -0.6547  0.5585
  404TMC3    C8 6094   4.176   2.491  13.451 -0.5208  0.4189 -0.6288
  404TMC3    O1 6095   4.231   2.987  13.208 -0.3957 -0.1725 -0.1505
  404TMC3    O2 6096   4.227   2.379  13.451  0.0995 -0.9212  0.5550
  405MPD2     C 6097   4.444   3.932  13.991 -0.0797 -0.2693  0.3385
  405MPD2    C1 6098   4.397   3.801  14.006  1.3231  0.2797  0.0999
  405MPD2    C2 6099   4.261   3.784  14.017 -0.1231  0.1785 -0.6165
  405MPD2    C3 6100   4.170   3.887  14.003  1.1596  0.2645  0.3388
  405MPD2    C4 6101   4.214   4.011  13.984 -0.0191  0.5457  0.0836
  405MPD2    C5 6102   4.350   4.033  13.978  0.3110 -0.3992 -0.9061
  405MPD2     H 6103   4.218   3.687  14.036  0.4057  0.2939  1.1678
  405MPD2    H1 6104   4.148   4.097  13.974 -0.8684 -0.1322 -0.1165
  405MPD2    H2 6105   4.545   3.952  13.959 -0.3578 -0.8735 -0.9319
  405MPD2    H3 6106   4.387   4.130  13.947  0.9174 -0.2488  0.2854
  405MPD2     N 6107   4.038   3.851  14.020 -0.6988  0.1844  0.1499
  405MPD2    H5 6108   4.029   3.751  14.034  0.9149  0.2040  1.2848
  405MPD2    N1 6109   4.484   3.694  14.011 -0.3215  0.0383  0.0014
  405MPD2    H7 6110   4.584   3.712  14.012 -0.8370  2.7750  2.2315
  406TMC3    C1 6111   3.573   3.820  14.037  0.3366  0.4676 -0.0581
  406TMC3    C2 6112   3.574   3.694  13.997 -0.0093  0.4830 -0.4836
  406TMC3    C3 6113   3.691   3.645  13.952  0.2154  0.1293 -0.3227
  406TMC3    C4 6114   3.680   3.906  14.043 -0.4526  0.7460  0.5471
  406TMC3    C5 6115   3.799   3.854  14.001 -0.2225  1.3970 -0.0141
  406TMC3    C6 6116   3.805   3.725  13.957 -0.2616 -0.1161  0.5216
  406TMC3     C 6117   3.449   3.867  14.078 -0.1849  0.5469 -0.3215
  406TMC3     O 6118   3.360   3.840  13.996 -0.0720  0.1021  0.1204
  406TMC3     H 6119   3.484   3.635  13.999 -0.6754  1.4444 -1.8179
  406TMC3    H1 6120   3.667   4.012  14.064  0.4756  0.5690  1.9558
  406TMC3    H2 6121   3.893   3.695  13.900  0.7310  3.8515 -0.0414
  406TMC3    C7 6122   3.926   3.933  14.014  1.0963  0.3790  0.3156
  406TMC3    C8 6123   3.704   3.515  14.007  0.5563 -0.8200 -0.6325
  406TMC3    O1 6124   3.920   4.055  14.003  0.0374  0.1254 -0.4875
  406TMC3    O2 6125   3.633   3.494  14.101  0.2054 -0.0573 -0.3853
  407MPD2     C 6126   2.153   0.869   9.918 -0.6125 -0.7418  0.1832
  407MPD2    C1 6127   2.255   0.957   9.896 -0.3033 -0.0799  0.6184
  407MPD2    C2 6128   2.275   1.054   9.992  0.0863 -0.6195 -0.4036
  407MPD2    C3 6129   2.219   1.037  10.121  0.0092  0.0261  0.4760
  407MPD2    C4 6130   2.138   0.927  10.149 -0.2672  0.7004  0.8314
  407MPD2    C5 6131   2.093   0.856  10.040  0.7548 -0.3006 -0.4362
  407MPD2     H 6132   2.358   1.121   9.972  1.1731 -1.4405  1.3914
  407MPD2    H1 6133   2.098   0.915  10.249 -1.1780  0.7809  0.4719
  407MPD2    H2 6134   2.131   0.795   9.842 -4.0230 -1.8900  2.3064
  407MPD2    H3 6135   2.021   0.778  10.060  0.9621 -0.6994 -1.2419
  407MPD2     N 6136   2.262   1.129  10.218 -0.7688  0.8889 -0.5632
  407MPD2    H5 6137   2.233   1.120  10.315 -0.6465  0.3820 -0.5746
  407MPD2    N1 6138   2.330   0.970   9.777 -0.2977  0.4692  0.2532
  407MPD2    H7 6139   2.400   1.044   9.775 -2.6708  2.6199 -2.7314
  408TMC3    C1 6140   2.454   0.902   9.593  0.5763 -0.7664 -0.1481
  408TMC3    C2 6141   2.528   0.794   9.561  0.0213 -0.5254 -0.1497
  408TMC3    C3 6142   2.662   0.810   9.542  0.8654  0.8289  0.6907
  408TMC3    C4 6143   2.514   1.020   9.614 -0.1913  0.7501 -0.2376
  408TMC3    C5 6144   2.645   1.034   9.595 -0.6046  0.4737  0.7259
  408TMC3    C6 6145   2.724   0.932   9.553  0.6196  0.0103 -0.2618
  408TMC3     C 6146   2.346   0.870   9.682 -0.8393  0.2588 -0.6340
  408TMC3     O 6147   2.296   0.758   9.667  0.1433 -0.3677 -0.0645
  408TMC3     H 6148   2.480   0.697   9.565  0.3994 -0.6261  2.1667
  408TMC3    H1 6149   2.457   1.106   9.648  0.8637  1.2066  0.4226
  408TMC3    H2 6150   2.826   0.948   9.521  0.4531 -1.2197 -1.4642
  408TMC3    C7 6151   2.694   1.168   9.593 -0.2744 -0.0574 -0.5706
  408TMC3    C8 6152   2.728   0.682   9.523 -0.5916 -0.5629 -0.0839
  408TMC3    O1 6153   2.609   1.252   9.592  0.2772 -0.2582  0.0216
  408TMC3    O2 6154   2.648   0.590   9.505 -0.1768 -0.1666 -0.4237
  409MPD2     C 6155   1.495   1.505  16.795  0.2569 -0.1480  0.1171
  409MPD2    C1 6156   1.612   1.433  16.770  0.0280  0.2753  0.6809
  409MPD2    C2 6157   1.714   1.505  16.713  0.0143 -0.1980  0.7176
  409MPD2    C3 6158   1.700   1.633  16.676  0.0128 -0.7323  1.0614
  409MPD2    C4 6159   1.586   1.702  16.703 -0.4951  0.2421  0.2749
  409MPD2    C5 6160   1.485   1.633  16.763  0.3481  0.2897  0.0018
  409MPD2     H 6161   1.800   1.444  16.689 -0.7736 -0.6265 -1.0250
  409MPD2    H1 6162   1.572   1.805  16.674  3.5255  1.2019  1.7036
  409MPD2    H2 6163   1.403   1.471  16.842 -1.2783 -0.1381 -2.9114
  409MPD2    H3 6164   1.392   1.685  16.781  0.0286 -0.0302 -0.6941
  409MPD2     N 6165   1.803   1.707  16.625 -0.6769 -0.5310  0.2120
  409MPD2    H5 6166   1.782   1.797  16.584 -0.2420 -1.0840 -1.2208
  409MPD2    N1 6167   1.636   1.299  16.812  0.6899 -0.2608  0.3274
  409MPD2    H7 6168   1.730   1.265  16.793  1.0939  1.8628 -1.5187
  410TMC3    C1 6169   2.022   1.781  16.597  0.5810  0.3317  0.0907
  410TMC3    C2 6170   2.118   1.808  16.686 -0.1638  0.4843 -0.2966
  410TMC3    C3 6171   2.209   1.903  16.655  0.2199 -0.3449 -0.0343
  410TMC3    C4 6172   2.009   1.845  16.476 -0.3135 -0.5175 -0.3298
  410TMC3    C5 6173   2.095   1.949  16.457  0.6354  0.0460 -0.1433
  410TMC3    C6 6174   2.200   1.980  16.539  0.0446  0.2131 -0.3571
  410TMC3     C 6175   1.937   1.670  16.638 -0.8541 -0.4311 -0.1919
  410TMC3     O 6176   1.990   1.574  16.691  0.1067  0.4442  0.2978
  410TMC3     H 6177   2.118   1.751  16.778 -0.4094  1.6233  0.4135
  410TMC3    H1 6178   1.946   1.818  16.392 -2.7559  2.7733  0.4205
  410TMC3    H2 6179   2.275   2.047  16.498 -0.4737  0.3886 -1.0232
  410TMC3    C7 6180   2.096   2.021  16.333  0.1231 -0.1936 -0.6690
  410TMC3    C8 6181   2.305   1.960  16.748 -0.3169  0.0715 -0.3445
  410TMC3    O1 6182   2.050   1.972  16.232 -0.2043  0.0034  0.3292
  410TMC3    O2 6183   2.339   2.073  16.735  0.5094 -0.3476  0.1816
  411MPD2     C 6184   2.209   2.397  15.055  0.1498  0.0904 -0.0520
  411MPD2    C1 6185   2.106   2.418  14.968  0.2608  0.1884  0.5269
  411MPD2    C2 6186   2.002   2.323  14.961 -0.1721  0.5983 -0.1269
  411MPD2    C3 6187   2.006   2.212  15.039 -0.2626 -0.3797 -0.9230
  411MPD2    C4 6188   2.109   2.196  15.135 -0.3303 -0.4972 -0.2263
  411MPD2    C5 6189   2.208   2.288  15.147  0.3699 -0.0511  0.5636
  411MPD2     H 6190   1.917   2.333  14.894 -1.1019 -0.1458  0.9178
  411MPD2    H1 6191   2.114   2.107  15.197 -3.1275  0.2820  1.0832
  411MPD2    H2 6192   2.292   2.468  15.057  0.5109 -0.3834  1.9999
  411MPD2    H3 6193   2.277   2.278  15.230 -0.5763  1.4564  1.5315
  411MPD2     N 6194   1.895   2.121  15.034  0.4556 -0.6182 -0.5395
  411MPD2    H5 6195   1.826   2.146  14.964 -0.7853 -0.9944  0.5595
  411MPD2    N1 6196   2.107   2.528  14.878 -0.7998  0.1225  0.0062
  411MPD2    H7 6197   2.032   2.529  14.810 -0.9580 -0.1654  0.1775
  412TMC3    C1 6198   1.725   1.977  15.098  1.1366  0.2418  0.4005
  412TMC3    C2 6199   1.632   2.044  15.029  0.4264  0.0724 -0.1105
  412TMC3    C3 6200   1.507   1.986  15.008  0.2437 -0.2166  0.3966
  412TMC3    C4 6201   1.697   1.858  15.159 -0.0065  0.8102 -0.2518
  412TMC3    C5 6202   1.572   1.807  15.147  0.6292  0.3006 -0.5506
  412TMC3    C6 6203   1.479   1.870  15.064  0.1339  0.4241 -0.3840
  412TMC3     C 6204   1.854   2.028  15.126 -0.5980 -0.0244 -0.1041
  412TMC3     O 6205   1.902   1.995  15.232 -0.0886  0.0035 -0.0257
  412TMC3     H 6206   1.656   2.132  14.971 -0.1854 -0.1892 -0.7581
  412TMC3    H1 6207   1.766   1.805  15.223 -2.0407 -2.8067 -1.0875
  412TMC3    H2 6208   1.389   1.812  15.047  0.0079 -0.0126  1.7302
  412TMC3    C7 6209   1.564   1.665  15.117  0.2966  0.4963 -0.0972
  412TMC3    C8 6210   1.446   2.013  14.879  0.1268 -0.5773 -0.5233
  412TMC3    O1 6211   1.478   1.594  15.167 -0.6171  0.1351  0.7582
  412TMC3    O2 6212   1.522   2.069  14.801 -0.2364  0.2091  0.1128
  413MPD2     C 6213   3.866   0.937  15.380 -0.5193 -0.0452  0.3898
  413MPD2    C1 6214   3.767   0.854  15.329  0.4485  0.2653 -0.2203
  413MPD2    C2 6215   3.799   0.743  15.244  0.1364 -0.4234  0.2680
  413MPD2    C3 6216   3.935   0.706  15.232 -0.4718 -0.6330  0.4279
  413MPD2    C4 6217   4.026   0.795  15.280  0.2618 -0.3069 -0.3371
  413MPD2    C5 6218   3.997   0.901  15.370 -0.1768  0.6931 -0.0965
  413MPD2     H 6219   3.724   0.671  15.215 -0.7170 -0.4481  2.5157
  413MPD2    H1 6220   4.130   0.773  15.260  0.5574  1.5448 -0.7848
  413MPD2    H2 6221   3.835   1.017  15.447 -2.2322 -0.9690  0.7204
  413MPD2    H3 6222   4.074   0.954  15.424 -0.3247  0.1828  0.6106
  413MPD2     N 6223   3.971   0.579  15.172  0.0200  0.2382 -0.2354
  413MPD2    H5 6224   3.893   0.533  15.126  0.2864 -0.2566 -0.1926
  413MPD2    N1 6225   3.634   0.878  15.361  0.5813 -0.0871 -0.3992
  413MPD2    H7 6226   3.615   0.940  15.439 -1.2800 -1.1808  0.0325
  414TMC3    C1 6227   4.090   0.378  15.112 -0.4229  0.8700 -0.5577
  414TMC3    C2 6228   4.121   0.278  15.194  0.7033  0.2419  0.0168
  414TMC3    C3 6229   4.064   0.158  15.163 -0.2563  0.5687 -0.1583
  414TMC3    C4 6230   4.016   0.365  14.996  0.1431 -0.4138 -0.4173
  414TMC3    C5 6231   3.973   0.240  14.964  0.1757 -0.0748  0.5397
  414TMC3    C6 6232   3.989   0.132  15.049 -0.7181 -0.2766 -0.1306
  414TMC3     C 6233   4.096   0.512  15.180 -0.5821 -0.1980 -0.5996
  414TMC3     O 6234   4.185   0.539  15.259  0.3238 -0.3842 -0.0692
  414TMC3     H 6235   4.155   0.292  15.296 -0.1487 -0.4343  0.3864
  414TMC3    H1 6236   4.008   0.455  14.937 -0.7826 -1.1838 -1.4735
  414TMC3    H2 6237   3.951   0.033  15.027 -0.4686 -0.4197  0.0757
  414TMC3    C7 6238   3.900   0.221  14.839 -0.1189 -0.6805  0.6274
  414TMC3    C8 6239   4.125   0.039  15.210 -0.0948  0.6935  0.0251
  414TMC3    O1 6240   3.805   0.298  14.833 -0.3083 -0.3582  0.4848
  414TMC3    O2 6241   4.075   4.668  15.183 -0.5015  0.4842 -0.1768
  415TMC3    C1 6242   4.563   2.355  10.019 -0.1150  0.3500 -0.2010
  415TMC3    C2 6243   4.598   2.454   9.929  0.3675  0.0660  0.0841
  415TMC3    C3 6244   4.546   2.440   9.805  0.6426 -0.3128  0.2057
  415TMC3    C4 6245   4.487   2.248   9.996 -0.4080  0.2203 -0.3418
  415TMC3    C5 6246   4.447   2.234   9.866 -0.5043 -0.2294  0.4043
  415TMC3    C6 6247   4.473   2.327   9.774  0.6778 -0.3135  0.7946
  415TMC3     C 6248   4.573   2.387  10.163 -0.4870 -0.7806 -0.4517
  415TMC3     O 6249   4.520   2.304  10.236 -0.6827 -0.6401 -0.2516
  415TMC3     H 6250   4.671   2.529   9.957  0.9671 -0.3397 -0.3954
  415TMC3    H1 6251   4.462   2.165  10.061  1.3675 -0.6353 -0.7370
  415TMC3    H2 6252   4.438   2.305   9.673 -1.0465 -0.3801  1.3965
  415TMC3    C7 6253   4.334   2.147   9.833  0.0029  0.1565 -0.0998
  415TMC3    C8 6254   4.561   2.532   9.702  0.4289 -0.2796  0.5006
  415TMC3    O1 6255   4.308   2.114   9.721 -0.5259  0.1219  0.0585
  415TMC3    O2 6256   4.519   2.501   9.591  0.3325  0.1846 -0.7062
  416MPD2     C 6257   1.252   1.933  11.380  0.0424 -1.0304  0.2558
  416MPD2    C1 6258   1.221   1.824  11.456  0.2216  0.2763 -0.0150
  416MPD2    C2 6259   1.292   1.707  11.447  0.4149 -0.1629  0.3821
  416MPD2    C3 6260   1.397   1.694  11.354  0.4087 -0.2325  0.0439
  416MPD2    C4 6261   1.421   1.798  11.272  0.2013  0.5601  0.2985
  416MPD2    C5 6262   1.351   1.914  11.289  0.1923 -0.0820  0.1294
  416MPD2     H 6263   1.276   1.613  11.499 -2.0678 -0.5675 -1.1427
  416MPD2    H1 6264   1.508   1.807  11.208 -0.3073 -0.8623 -0.5974
  416MPD2    H2 6265   1.202   2.029  11.383 -0.2344 -1.1502 -0.4499
  416MPD2    H3 6266   1.365   2.001  11.227 -2.2896  0.1567 -0.0988
  416MPD2     N 6267   1.475   1.573  11.342  0.1426 -0.4845 -0.4584
  416MPD2    H5 6268   1.439   1.493  11.392  0.5731 -0.3597  0.0505
  416MPD2    N1 6269   1.111   1.836  11.545 -0.2512 -0.2014 -0.4316
  416MPD2    H7 6270   1.066   1.927  11.554  1.3547  0.2725  2.8104
  417TMC3    C1 6271   0.940   1.782  11.703 -0.6428 -0.8428 -0.1450
  417TMC3    C2 6272   0.940   1.764  11.840  0.7348  0.0933  0.2075
  417TMC3    C3 6273   0.844   1.830  11.913 -0.3865  0.0968  0.1863
  417TMC3    C4 6274   0.839   1.846  11.639  0.3267 -0.7995  0.3220
  417TMC3    C5 6275   0.748   1.904  11.717 -0.1215 -0.3705 -0.0894
  417TMC3    C6 6276   0.745   1.907  11.854  0.8334  0.3143 -0.4760
  417TMC3     C 6277   1.053   1.740  11.626  0.9664 -0.1528  0.2734
  417TMC3     O 6278   1.105   1.633  11.662 -0.1973  0.0755 -0.2163
  417TMC3     H 6279   1.019   1.708  11.889 -0.5943 -1.2293  0.8318
  417TMC3    H1 6280   0.834   1.856  11.532  2.6015 -1.5712  0.1322
  417TMC3    H2 6281   0.682   1.970  11.915 -0.5167 -1.1404 -0.3979
  417TMC3    C7 6282   0.665   1.996  11.644  0.2782 -0.4306 -0.2058
  417TMC3    C8 6283   0.860   1.859  12.054  0.4252  0.7426  0.5368
  417TMC3    O1 6284   0.715   2.049  11.549  0.2203  0.5652 -0.8782
  417TMC3    O2 6285   0.774   1.930  12.104  0.3103  0.0909  0.4286
  418TMC3    C1 6286   4.615   0.108   0.171  0.9398  0.1537  0.4108
  418TMC3    C2 6287   4.508   0.073   0.097 -0.3320  0.1974  0.0483
  418TMC3    C3 6288   4.455   4.686   0.123 -0.1548  0.2239 -0.2352
  418TMC3    C4 6289   4.644   0.041   0.290 -0.0901  0.5627  0.8760
  418TMC3    C5 6290   4.572   4.667   0.316 -0.1845 -0.2475  0.0018
  418TMC3    C6 6291   4.484   4.615   0.230 -0.3121  0.2352 -0.6505
  418TMC3     C 6292   4.727   0.158   0.093  0.5253 -0.3636  0.7992
  418TMC3     O 6293   4.703   0.184  17.722 -0.2143  0.4305 -0.4333
  418TMC3     H 6294   4.472   0.132   0.013  0.9809  0.9281  0.0027
  418TMC3    H1 6295   4.727   0.071   0.354 -0.4676  0.3638  1.4623
  418TMC3    H2 6296   4.446   4.517   0.254 -1.3235  0.5299 -1.0423
  418TMC3    C7 6297   4.611   4.587   0.426 -0.4642 -0.0072 -0.3103
  418TMC3    C8 6298   4.348   4.637   0.029 -0.3394 -0.0062  0.0762
  418TMC3    O1 6299   4.610   4.464   0.405 -0.1824 -0.0689 -0.2363
  418TMC3    O2 6300   4.299   4.728  17.712  0.0660 -0.2210  0.0016
  419MPD2     C 6301   3.046   1.494  12.129  0.0406 -0.1005 -1.0135
  419MPD2    C1 6302   3.028   1.625  12.176 -0.3397 -0.2794  0.8540
  419MPD2    C2 6303   3.009   1.649  12.308 -0.9386 -0.2382  0.1286
  419MPD2    C3 6304   3.013   1.540  12.394 -0.1356 -0.2901 -0.4966
  419MPD2    C4 6305   3.041   1.414  12.344 -0.2171  0.2178 -0.1433
  419MPD2    C5 6306   3.056   1.393  12.210  0.3610  0.4471 -0.5858
  419MPD2     H 6307   2.972   1.745  12.343 -3.4703 -1.0254 -0.4317
  419MPD2    H1 6308   3.049   1.327  12.407  1.6994  0.5405  0.0409
  419MPD2    H2 6309   3.053   1.475  12.022  0.1858 -0.6473 -0.9059
  419MPD2    H3 6310   3.058   1.293  12.169  2.3650  0.1426  0.2341
  419MPD2     N 6311   2.999   1.576  12.527 -0.3648  0.0374  0.0588
  419MPD2    H5 6312   2.995   1.674  12.553 -0.9027  0.3513 -1.2031
  419MPD2    N1 6313   3.008   1.739  12.088  0.1715 -0.4617 -0.3778
  419MPD2    H7 6314   3.009   1.830  12.135 -3.1211 -1.3812  1.4624
  420TMC3    C1 6315   2.982   1.563  12.750 -0.3588  0.1135  0.8360
  420TMC3    C2 6316   2.903   1.673  12.745  0.2102 -0.4727 -0.0858
  420TMC3    C3 6317   2.909   1.753  12.861  0.3477  0.5680  0.9223
  420TMC3    C4 6318   3.054   1.523  12.859  0.4680  0.5638 -0.6387
  420TMC3    C5 6319   3.052   1.606  12.966 -0.5323 -0.4081  0.2021
  420TMC3    C6 6320   2.982   1.726  12.970 -0.1261 -0.1447  0.5689
  420TMC3     C 6321   3.005   1.491  12.629  1.2198  0.2549  0.0903
  420TMC3     O 6322   3.016   1.367  12.634 -0.3566 -0.3333  0.0157
  420TMC3     H 6323   2.838   1.689  12.660  0.4750  0.7021 -0.0771
  420TMC3    H1 6324   3.114   1.433  12.858  1.2870  1.0781  4.1624
  420TMC3    H2 6325   3.005   1.812  13.031 -1.1279  1.3598 -1.1644
  420TMC3    C7 6326   3.170   1.611  13.042  0.4618 -0.1014  0.2283
  420TMC3    C8 6327   2.839   1.879  12.863  0.1803  0.1697  0.4992
  420TMC3    O1 6328   3.262   1.544  13.005 -0.3525  0.1778  0.0755
  420TMC3    O2 6329   2.782   1.914  12.762  0.0542 -0.0552 -0.0427
  421TMC3    C1 6330   0.278   2.679  13.880  0.0380  0.2118  0.4215
  421TMC3    C2 6331   0.243   2.815  13.849  0.0706  0.4831  0.0661
  421TMC3    C3 6332   0.318   2.908  13.903 -0.5453 -0.7631 -0.0814
  421TMC3    C4 6333   0.388   2.652  13.956 -0.0133  0.1193  0.0388
  421TMC3    C5 6334   0.460   2.759  14.001 -0.3460  0.7761  0.3457
  421TMC3    C6 6335   0.429   2.887  13.979 -0.8125  0.2669  0.2149
  421TMC3     C 6336   0.207   2.561  13.833  0.3827 -1.0394  0.6299
  421TMC3     O 6337   0.237   2.453  13.882  0.2947  0.3545  0.1846
  421TMC3     H 6338   0.158   2.837  13.785 -0.8350 -0.9766  0.7756
  421TMC3    H1 6339   0.431   2.554  13.971 -0.8684 -0.3626 -0.6900
  421TMC3    H2 6340   0.473   2.976  14.022  0.7361 -2.3241  3.9592
  421TMC3    C7 6341   0.564   2.742  14.094  0.3906 -0.3495  0.0601
  421TMC3    C8 6342   0.300   3.052  13.870  0.5992  0.9072 -0.0649
  421TMC3    O1 6343   0.635   2.840  14.120 -0.1922  0.2933  0.1738
  421TMC3    O2 6344   0.402   3.126  13.884  0.2976  0.4169 -0.3611
  422TMC3    C1 6345   2.106   0.316  12.192  0.7808 -0.0031 -0.5091
  422TMC3    C2 6346   2.051   0.431  12.215  0.5783 -0.5373 -0.4993
  422TMC3    C3 6347   1.912   0.440  12.209  0.4919 -0.0305  0.0148
  422TMC3    C4 6348   2.033   0.201  12.160  0.6947 -0.5504  0.2429
  422TMC3    C5 6349   1.897   0.220  12.149  0.0820 -0.0748 -0.1191
  422TMC3    C6 6350   1.831   0.342  12.168 -0.3703  0.1497  0.0232
  422TMC3     C 6351   2.242   0.307  12.234 -0.5317 -0.1690  0.1323
  422TMC3     O 6352   2.274   0.358  12.335 -0.7776 -0.4153  0.4495
  422TMC3     H 6353   2.113   0.516  12.241  1.2588 -1.1713 -0.0514
  422TMC3    H1 6354   2.068   0.100  12.140  0.6873 -0.4560 -0.2338
  422TMC3    H2 6355   1.724   0.354  12.154 -0.1528  0.6699 -1.1814
  422TMC3    C7 6356   1.811   0.100  12.138 -0.4405  0.6157  0.2007
  422TMC3    C8 6357   1.874   0.519  12.329 -0.2057 -0.2131 -0.5693
  422TMC3    O1 6358   1.741   0.110  12.039  0.0800 -0.1288 -0.1063
  422TMC3    O2 6359   1.932   0.621  12.354 -0.6166  0.2151  0.0939
  423MPD2     C 6360   3.729   1.547   0.168  0.0202  0.3294  0.3983
  423MPD2    C1 6361   3.686   1.434   0.235 -0.6788  1.3589  0.0237
  423MPD2    C2 6362   3.696   1.313   0.171 -0.6490 -0.1827 -0.6641
  423MPD2    C3 6363   3.739   1.296   0.034  0.5822 -0.0743 -0.0707
  423MPD2    C4 6364   3.780   1.403  17.717 -0.2882 -1.0915  0.1171
  423MPD2    C5 6365   3.780   1.521   0.044  0.6346 -0.8015 -0.2226
  423MPD2     H 6366   3.660   1.224   0.222  1.7693 -1.5946 -1.4295
  423MPD2    H1 6367   3.806   1.410  17.613 -0.5541  0.3245  0.1405
  423MPD2    H2 6368   3.729   1.651   0.199  0.2393  0.1983  0.8343
  423MPD2    H3 6369   3.818   1.608  17.741  1.6232 -1.3816 -0.4788
  423MPD2     N 6370   3.737   1.169  17.710  0.4196 -0.5120  0.0220
  423MPD2    H5 6371   3.750   1.177  17.609  0.3314 -0.3950  0.0205
  423MPD2    N1 6372   3.645   1.443   0.371  0.1438 -0.5654 -0.4372
  423MPD2    H7 6373   3.644   1.361   0.432  0.7090 -0.3024 -0.0712
  424TMC3    C1 6374   3.577   1.546   0.572 -0.4574 -0.3671 -0.1347
  424TMC3    C2 6375   3.671   1.481   0.639 -0.2507 -0.0056  0.0748
  424TMC3    C3 6376   3.680   1.521   0.767  0.4445  0.0147 -0.3246
  424TMC3    C4 6377   3.503   1.646   0.622  0.0548  0.1782 -0.3340
  424TMC3    C5 6378   3.517   1.683   0.752 -0.9770 -0.5384 -0.3342
  424TMC3    C6 6379   3.610   1.620   0.836 -0.7858  0.1751 -0.3475
  424TMC3     C 6380   3.596   1.556   0.427  1.3096 -0.0585 -0.0602
  424TMC3     O 6381   3.567   1.660   0.367  0.0918 -0.0059 -0.1370
  424TMC3     H 6382   3.746   1.420   0.588 -0.5134 -0.9678  0.8449
  424TMC3    H1 6383   3.430   1.688   0.554  0.3996  2.6250  0.7948
  424TMC3    H2 6384   3.610   1.632   0.943 -0.6555  0.0991 -0.3393
  424TMC3    C7 6385   3.401   1.752   0.814 -1.0415 -0.3735  0.8067
  424TMC3    C8 6386   3.744   1.419   0.842 -0.4708 -0.4043  0.0747
  424TMC3    O1 6387   3.421   1.803   0.920  0.1919 -0.1361 -0.2858
  424TMC3    O2 6388   3.749   1.314   0.779 -0.4772  0.1124 -0.1366
  425MPD2     C 6389   2.354   0.089  16.834 -0.5386 -0.0996  0.6476
  425MPD2    C1 6390   2.386   4.730  16.927 -0.6879  1.3845  0.2926
  425MPD2    C2 6391   2.305   4.715  17.039  0.3276  0.1135 -0.1387
  425MPD2    C3 6392   2.188   0.048  17.049 -0.5387  0.1252 -0.1197
  425MPD2    C4 6393   2.161   0.155  16.964  0.2175 -0.2005  0.0235
  425MPD2    C5 6394   2.249   0.172  16.860  0.6213  0.5948 -0.2765
  425MPD2     H 6395   2.335   4.651  17.120 -0.9559 -2.1245 -1.4349
  425MPD2    H1 6396   2.083   0.230  16.977 -1.6853 -2.2752  0.6193
  425MPD2    H2 6397   2.432   0.107  16.761 -1.0675  0.3259  0.1895
  425MPD2    H3 6398   2.233   0.253  16.790 -1.6006  0.6331  0.2699
  425MPD2     N 6399   2.111   0.029  17.166 -0.0598 -0.9105  0.0088
  425MPD2    H5 6400   2.145   4.699  17.233  1.7871 -0.7906 -0.8021
  425MPD2    N1 6401   2.498   4.651  16.898  0.0156  0.1878 -0.2433
  425MPD2    H7 6402   2.544   4.682  16.813 -1.3618  2.5911 -0.0937
  426TMC3    C1 6403   2.661   4.490  16.913 -0.2305 -0.6126 -0.5549
  426TMC3    C2 6404   2.627   4.399  16.818 -0.5226 -0.5289  0.1437
  426TMC3    C3 6405   2.708   4.284  16.813 -0.0857  0.0066  0.0684
  426TMC3    C4 6406   2.756   4.462  17.005  0.2261 -0.6009 -0.4475
  426TMC3    C5 6407   2.841   4.356  16.988  0.1324 -0.1879  0.0499
  426TMC3    C6 6408   2.821   4.266  16.887  0.4096  0.0592 -0.3503
  426TMC3     C 6409   2.542   4.548  16.979 -0.1933  0.0532  0.4736
  426TMC3     O 6410   2.511   4.506  17.089  0.4186 -0.5395  0.7771
  426TMC3     H 6411   2.540   4.425  16.759  0.3429 -1.3285 -1.4736
  426TMC3    H1 6412   2.773   4.525  17.092  2.0094 -1.1754 -0.3798
  426TMC3    H2 6413   2.893   4.188  16.864 -0.5866 -0.4096 -1.8517
  426TMC3    C7 6414   2.871   4.287  17.109  0.0040 -0.3757  0.5008
  426TMC3    C8 6415   2.639   4.163  16.773 -0.3330  0.1582  0.0845
  426TMC3    O1 6416   2.955   4.198  17.102  0.3333 -0.6587  1.1445
  426TMC3    O2 6417   2.708   4.065  16.757  0.5157 -0.5733 -0.1837
  427MPD2     C 6418   1.176   2.736  15.106  0.4115  0.3064  0.1243
  427MPD2    C1 6419   1.169   2.602  15.146  0.1524  0.2298 -0.4939
  427MPD2    C2 6420   1.047   2.549  15.185 -0.0421 -0.1893 -0.5574
  427MPD2    C3 6421   0.935   2.626  15.169 -0.3357 -0.6686  0.1064
  427MPD2    C4 6422   0.948   2.755  15.139 -0.5095 -0.2193  0.0551
  427MPD2    C5 6423   1.069   2.816  15.108 -0.2072 -0.8335 -0.6863
  427MPD2     H 6424   1.043   2.442  15.201 -1.4417  0.0499  0.6763
  427MPD2    H1 6425   0.864   2.824  15.131 -1.1876 -1.1836 -1.0157
  427MPD2    H2 6426   1.269   2.774  15.066  0.5460 -1.0196 -0.8547
  427MPD2    H3 6427   1.070   2.922  15.086 -3.8849 -0.3871  1.2748
  427MPD2     N 6428   0.804   2.572  15.161  0.0879  0.0075  0.2170
  427MPD2    H5 6429   0.734   2.628  15.114 -0.7624 -0.1463  1.3161
  427MPD2    N1 6430   1.278   2.513  15.152 -0.0006 -0.2209  0.0009
  427MPD2    H7 6431   1.256   2.428  15.204 -1.1904  1.6571  2.5704
  428TMC3    C1 6432   1.484   2.414  15.143  0.2448 -0.0184  0.0921
  428TMC3    C2 6433   1.418   2.303  15.182 -0.3434  0.0364 -0.0828
  428TMC3    C3 6434   1.489   2.229  15.272  0.6610 -0.0591  0.3169
  428TMC3    C4 6435   1.604   2.451  15.193  0.1301  0.5232  0.0322
  428TMC3    C5 6436   1.676   2.362  15.273 -0.2694 -0.2828 -0.3090
  428TMC3    C6 6437   1.616   2.247  15.316 -0.0157 -0.4207 -0.0643
  428TMC3     C 6438   1.407   2.531  15.112  0.2935  0.3815  0.0006
  428TMC3     O 6439   1.454   2.628  15.055 -0.3267 -0.5410  0.4702
  428TMC3     H 6440   1.325   2.265  15.142  0.3778 -2.7715  0.8650
  428TMC3    H1 6441   1.644   2.547  15.162  2.0098 -1.1077 -2.5222
  428TMC3    H2 6442   1.672   2.170  15.369  0.2472 -0.1624  0.0294
  428TMC3    C7 6443   1.786   2.431  15.348 -0.3386  0.6335  0.3821
  428TMC3    C8 6444   1.429   2.109  15.315  0.1289 -0.5258 -0.1741
  428TMC3    O1 6445   1.809   2.391  15.464 -0.3219 -0.5111 -0.0416
  428TMC3    O2 6446   1.337   2.065  15.250 -0.7873 -0.2891 -0.0020
  429MPD2     C 6447   1.923   2.326  17.612 -0.0495  0.2558  0.5000
  429MPD2    C1 6448   2.011   2.292  17.516  0.4042 -0.8155  0.3679
  429MPD2    C2 6449   2.082   2.387  17.453  0.4907 -0.2057 -0.9160
  429MPD2    C3 6450   2.087   2.511  17.505  0.3312 -0.0622  0.0985
  429MPD2    C4 6451   1.985   2.554  17.586  0.0823 -0.3700  0.1933
  429MPD2    C5 6452   1.905   2.461  17.640  0.6267  0.1685  0.0046
  429MPD2     H 6453   2.154   2.369  17.374  1.7801 -0.0478  0.2301
  429MPD2    H1 6454   1.969   2.660  17.606 -0.7046 -0.5505  0.5098
  429MPD2    H2 6455   1.860   2.255  17.665 -0.2660 -0.2679 -0.4573
  429MPD2    H3 6456   1.837   2.498  17.716  1.1855 -0.1529  0.6535
  429MPD2     N 6457   2.160   2.602  17.433  0.8230  0.8960 -0.7957
  429MPD2    H5 6458   2.184   2.576  17.338 -0.4180  0.3859 -0.9612
  429MPD2    N1 6459   2.039   2.160  17.476 -0.1019 -0.1069  0.4663
  429MPD2    H7 6460   2.119   2.155  17.414  0.2422 -1.8497  1.0244
  430TMC3    C1 6461   2.266   2.794  17.363  0.0740  0.2382 -0.2871
  430TMC3    C2 6462   2.265   2.936  17.351  0.2608  0.6282 -0.1170
  430TMC3    C3 6463   2.340   3.004  17.254 -0.0667 -0.4574 -0.1660
  430TMC3    C4 6464   2.368   2.729  17.311 -0.3168 -0.2971 -0.2916
  430TMC3    C5 6465   2.455   2.804  17.226  0.1382  0.7828  0.8077
  430TMC3    C6 6466   2.454   2.943  17.206 -0.7548  0.4511  0.2959
  430TMC3     C 6467   2.181   2.734  17.466 -0.0115 -0.6147 -0.1879
  430TMC3     O 6468   2.154   2.796  17.567 -0.1187 -0.0850  0.2438
  430TMC3     H 6469   2.186   2.983  17.409 -0.6444  1.3438 -1.9027
  430TMC3    H1 6470   2.372   2.621  17.311  0.0124 -0.2869  0.2812
  430TMC3    H2 6471   2.522   3.002  17.146 -0.1090  1.2265  1.7712
  430TMC3    C7 6472   2.494   2.724  17.108 -1.0343 -0.2259 -0.0471
  430TMC3    C8 6473   2.268   3.022  17.128  0.2268  0.4529  0.2995
  430TMC3    O1 6474   2.493   2.601  17.113  0.1398 -0.6428  0.3436
  430TMC3    O2 6475   2.333   3.054  17.028 -0.5266  0.1234 -0.4984
  431MPD2     C 6476   3.100   2.359  12.515  0.6130 -0.4597 -0.6032
  431MPD2    C1 6477   3.174   2.405  12.410  0.0195  0.2478 -0.3867
  431MPD2    C2 6478   3.140   2.368  12.283 -0.2656  0.5678 -0.6645
  431MPD2    C3 6479   3.045   2.268  12.261  0.5059 -0.2264  0.1123
  431MPD2    C4 6480   2.977   2.219  12.364 -0.8163 -0.0982 -0.0224
  431MPD2    C5 6481   3.006   2.261  12.493 -0.3043  0.4315  0.3989
  431MPD2     H 6482   3.193   2.410  12.199 -1.0963 -0.6809 -1.8281
  431MPD2    H1 6483   2.909   2.135  12.354  0.1319 -0.9943  1.0330
  431MPD2    H2 6484   3.111   2.386  12.620 -0.4524 -3.0830  0.1937
  431MPD2    H3 6485   2.944   2.231  12.577  0.9303  0.2916  1.2628
  431MPD2     N 6486   3.027   2.203  12.134  0.0058 -0.6317  0.1441
  431MPD2    H5 6487   2.949   2.139  12.138  0.0138 -0.6387  0.1861
  431MPD2    N1 6488   3.271   2.513  12.424  0.7727 -0.1183 -0.2460
  431MPD2    H7 6489   3.306   2.557  12.341  2.8326 -0.1678  0.6004
  432TMC3    C1 6490   3.080   2.111  11.933  0.0196 -0.0332 -0.0444
  432TMC3    C2 6491   3.137   2.117  11.812 -0.4947 -0.5365  0.1303
  432TMC3    C3 6492   3.132   2.008  11.735  0.3441  0.4770  0.5935
  432TMC3    C4 6493   3.020   1.994  11.981  0.0768  0.0234  0.3176
  432TMC3    C5 6494   3.025   1.885  11.899  0.4665  0.0586 -0.5314
  432TMC3    C6 6495   3.077   1.889  11.777 -0.8435  0.6301 -0.1637
  432TMC3     C 6496   3.103   2.214  12.022  0.4729 -0.1486 -0.2648
  432TMC3     O 6497   3.194   2.292  11.996 -0.0732  0.1459 -0.5617
  432TMC3     H 6498   3.182   2.208  11.775  1.0772 -0.6172  1.8694
  432TMC3    H1 6499   2.963   1.979  12.072  0.8553 -1.4321  0.5689
  432TMC3    H2 6500   3.065   1.799  11.719  3.1565 -0.1748  0.3098
  432TMC3    C7 6501   3.023   1.748  11.953  0.7554 -0.1243  0.0596
  432TMC3    C8 6502   3.227   2.000  11.619 -0.1466  0.6064 -0.1607
  432TMC3    O1 6503   3.001   1.658  11.873  0.2839  0.6961 -0.2151
  432TMC3    O2 6504   3.208   1.916  11.528 -0.1327  0.3779  0.1102
  433MPD2     C 6505   2.274   1.266  10.925 -0.3127 -0.2326 -0.4763
  433MPD2    C1 6506   2.253   1.137  10.983 -0.0270 -0.4407 -0.0898
  433MPD2    C2 6507   2.232   1.128  11.119 -0.2849  0.4515  0.6209
  433MPD2    C3 6508   2.231   1.239  11.206  0.4674  0.0077 -0.5664
  433MPD2    C4 6509   2.260   1.361  11.146 -1.0685  0.3760 -0.0626
  433MPD2    C5 6510   2.274   1.377  11.006  0.4808 -0.0361  0.2048
  433MPD2     H 6511   2.216   1.029  11.160 -1.4118  0.0214 -0.8907
  433MPD2    H1 6512   2.266   1.443  11.216  2.3668 -0.7437  0.9409
  433MPD2    H2 6513   2.275   1.288  10.819  3.4517  0.1759 -0.3685
  433MPD2    H3 6514   2.289   1.473  10.957  0.6392  0.3282  0.9681
  433MPD2     N 6515   2.229   1.221  11.347 -0.0851 -0.0526 -0.3642
  433MPD2    H5 6516   2.228   1.123  11.375 -2.6207  0.2745  0.6676
  433MPD2    N1 6517   2.253   1.020  10.902  0.8318 -0.0050 -0.5306
  433MPD2    H7 6518   2.295   1.035  10.811 -1.9711 -0.8501 -1.9612
  434TMC3    C1 6519   2.252   0.808  10.839 -0.3037  0.3963 -0.1433
  434TMC3    C2 6520   2.278   0.681  10.888  0.0266  0.3344 -0.0227
  434TMC3    C3 6521   2.369   0.608  10.819  0.0177 -0.1996 -0.0225
  434TMC3    C4 6522   2.298   0.847  10.716  0.5639 -0.0083  0.4846
  434TMC3    C5 6523   2.374   0.758  10.643  0.6260 -0.4436  0.0959
  434TMC3    C6 6524   2.422   0.645  10.692 -0.0420  0.1434  0.1679
  434TMC3     C 6525   2.212   0.895  10.941  0.5716  0.0217 -0.5352
  434TMC3     O 6526   2.156   0.856  11.043  0.0419  0.2225 -0.7259
  434TMC3     H 6527   2.266   0.660  10.994 -0.4511 -1.1188 -0.3685
  434TMC3    H1 6528   2.274   0.946  10.679  2.0146  0.2626  0.2932
  434TMC3    H2 6529   2.486   0.579  10.636 -0.5731  0.1096 -0.3940
  434TMC3    C7 6530   2.312   0.724  10.524 -0.5877 -0.0700 -0.5767
  434TMC3    C8 6531   2.411   0.484  10.881  0.6574  0.0892  0.7364
  434TMC3    O1 6532   2.283   0.817  10.452 -0.3652  0.1573 -0.4707
  434TMC3    O2 6533   2.326   0.457  10.969  0.5265  0.5699 -0.1479
  435MPD2     C 6534   4.222   1.139  15.568  0.2161 -0.0676 -0.5152
  435MPD2    C1 6535   4.169   1.089  15.685  0.5114 -0.4818 -0.1543
  435MPD2    C2 6536   4.248   0.989  15.751 -0.2140 -0.0438 -0.4949
  435MPD2    C3 6537   4.368   0.953  15.696  0.2544 -1.1110  0.2008
  435MPD2    C4 6538   4.420   1.007  15.575  0.2249 -0.3927 -0.2337
  435MPD2    C5 6539   4.345   1.108  15.521  0.1558 -0.7163  0.6242
  435MPD2     H 6540   4.212   0.944  15.843  1.7692  1.7102  1.1457
  435MPD2    H1 6541   4.494   0.963  15.509  1.1682  0.9404 -0.0687
  435MPD2    H2 6542   4.165   1.213  15.512  1.0492  1.3176  0.4753
  435MPD2    H3 6543   4.371   1.158  15.428  0.7916 -0.8723  0.7225
  435MPD2     N 6544   4.427   0.833  15.752 -0.0636  0.1643 -0.3261
  435MPD2    H5 6545   4.377   0.790  15.829 -1.3376  2.1326 -0.0252
  435MPD2    N1 6546   4.045   1.118  15.741  0.8484 -0.1030  0.6204
  435MPD2    H7 6547   4.016   1.057  15.816  1.8161 -0.7103  0.4898
  436TMC3    C1 6548   3.708   1.222  15.958  0.1333 -0.3305  0.1158
  436TMC3    C2 6549   3.832   1.221  15.895 -0.2238  0.0577 -1.2909
  436TMC3    C3 6550   3.826   1.218  15.756 -0.1113  0.3395 -0.0885
  436TMC3    C4 6551   3.590   1.211  15.889  0.0837 -0.9120 -0.5368
  436TMC3    C5 6552   3.589   1.206  15.751  0.0601  0.0183  0.1789
  436TMC3    C6 6553   3.706   1.215  15.688  1.2542  0.0201 -0.3735
  436TMC3     C 6554   3.711   1.208  16.104 -0.0263  0.3715  0.7926
  436TMC3     O 6555   3.821   1.198  16.152  0.4482  0.1433 -0.2940
  436TMC3     H 6556   3.928   1.224  15.945 -1.8066 -0.5428  1.8116
  436TMC3    H1 6557   3.501   1.214  15.950  1.2609 -1.6475  1.2135
  436TMC3    H2 6558   3.711   1.220  15.580  2.3119 -0.2458 -0.3343
  436TMC3    C7 6559   3.474   1.150  15.687  0.7044  0.3036 -0.3304
  436TMC3    C8 6560   3.944   1.192  15.681  0.0873 -0.0896 -0.7818
  436TMC3    O1 6561   3.492   1.090  15.583  0.8291 -0.3527  0.8244
  436TMC3    O2 6562   3.948   1.248  15.576  0.3133 -0.6986  0.0555
  437TMC3    C1 6563   2.688   2.957  12.473 -0.7603  0.4561 -0.3427
  437TMC3    C2 6564   2.675   2.891  12.358 -0.8429 -0.2464 -0.1737
  437TMC3    C3 6565   2.743   2.935  12.250  0.2765  0.5928 -0.2154
  437TMC3    C4 6566   2.778   3.057  12.492 -0.7636  0.0018  0.1382
  437TMC3    C5 6567   2.867   3.086  12.387  0.4269 -0.9834  0.2342
  437TMC3    C6 6568   2.838   3.032  12.262 -0.6336 -0.2454  0.1979
  437TMC3     C 6569   2.583   2.949  12.568 -0.0301 -0.6820 -0.5785
  437TMC3     O 6570   2.566   3.046  12.641  0.4797 -0.1606 -0.7158
  437TMC3     H 6571   2.606   2.807  12.356 -0.4138 -0.6370  1.0517
  437TMC3    H1 6572   2.791   3.111  12.585  2.4828 -1.1419  0.3512
  437TMC3    H2 6573   2.900   3.065  12.179  0.7544 -0.7794  1.0444
  437TMC3    C7 6574   2.931   3.214  12.393 -0.7347 -0.1795 -0.4600
  437TMC3    C8 6575   2.675   2.929  12.116  0.0536  0.5788  0.7436
  437TMC3    O1 6576   2.936   3.289  12.294  0.0911  0.2129 -0.5355
  437TMC3    O2 6577   2.746   2.971  12.027 -0.1441 -0.8629 -0.0005
  438MPD2     C 6578   0.235   3.564  16.910  0.1726  0.1873  0.2603
  438MPD2    C1 6579   0.370   3.592  16.931  0.0870  0.4485  0.3403
  438MPD2    C2 6580   0.414   3.671  17.037  0.2639 -0.1873 -0.7968
  438MPD2    C3 6581   0.324   3.732  17.116  0.2663 -0.2897  0.2868
  438MPD2    C4 6582   0.192   3.696  17.102  0.2138 -0.7504 -0.0881
  438MPD2    C5 6583   0.149   3.623  16.994 -0.0014  0.2584 -0.2274
  438MPD2     H 6584   0.518   3.683  17.062 -0.0756 -0.1544  0.6002
  438MPD2    H1 6585   0.118   3.738  17.168  1.7352  1.4249  0.2370
  438MPD2    H2 6586   0.197   3.505  16.827 -1.0180 -0.0090  0.9415
  438MPD2    H3 6587   0.043   3.618  16.970 -0.6703 -1.4615  3.0517
  438MPD2     N 6588   0.359   3.827  17.216 -0.0697 -0.0695  0.8673
  438MPD2    H5 6589   0.288   3.855  17.283 -1.0431  0.3757 -0.3473
  438MPD2    N1 6590   0.475   3.526  16.858 -0.5842 -0.8033 -0.4525
  438MPD2    H7 6591   0.570   3.537  16.890 -1.2972  1.9649  0.7462
  439TMC3    C1 6592   0.578   3.392  16.700  0.2293  0.0771  0.1366
  439TMC3    C2 6593   0.638   3.415  16.580 -0.0144  0.4008 -0.3134
  439TMC3    C3 6594   0.772   3.382  16.564 -0.2865  0.3538  0.8521
  439TMC3    C4 6595   0.648   3.329  16.796 -0.4905  0.0523  0.0797
  439TMC3    C5 6596   0.780   3.296  16.773  0.6431  0.1282  0.1380
  439TMC3    C6 6597   0.846   3.328  16.663  0.1142 -0.3543 -0.0021
  439TMC3     C 6598   0.456   3.463  16.737 -0.3092 -0.0547  0.3011
  439TMC3     O 6599   0.356   3.452  16.667  0.3237 -0.1927 -0.1246
  439TMC3     H 6600   0.585   3.476  16.508 -2.0061  0.6821  1.3784
  439TMC3    H1 6601   0.613   3.310  16.897 -0.1817  2.9568  0.7287
  439TMC3    H2 6602   0.946   3.293  16.639  1.4191  3.3995 -0.2066
  439TMC3    C7 6603   0.860   3.241  16.881 -0.6636 -0.8711 -0.1041
  439TMC3    C8 6604   0.847   3.426  16.453 -0.6925 -0.5057 -0.2851
  439TMC3    O1 6605   0.966   3.292  16.910 -0.2725 -0.0368 -0.2185
  439TMC3    O2 6606   0.967   3.413  16.455  0.2641  0.3079 -0.0158
  440MPD2     C 6607   3.664   4.161  14.700  0.1070  0.2863 -0.4196
  440MPD2    C1 6608   3.734   4.255  14.775  0.2199  0.2233  0.6961
  440MPD2    C2 6609   3.864   4.235  14.808  0.2653 -0.1861 -0.1152
  440MPD2    C3 6610   3.930   4.121  14.781  1.2488  0.2051 -0.3842
  440MPD2    C4 6611   3.863   4.017  14.715  0.1810  0.0264  0.1963
  440MPD2    C5 6612   3.736   4.050  14.658 -0.1187 -0.5957  0.2280
  440MPD2     H 6613   3.921   4.308  14.865 -0.0958 -1.0775  1.3930
  440MPD2    H1 6614   3.913   3.923  14.698  0.3632 -0.2366  2.1654
  440MPD2    H2 6615   3.567   4.184  14.658  0.4696 -0.8780 -1.9158
  440MPD2    H3 6616   3.692   3.970  14.600 -0.0341 -0.4523 -0.0332
  440MPD2     N 6617   4.055   4.081  14.841  0.1343 -0.2278  0.2535
  440MPD2    H5 6618   4.089   3.987  14.823  0.8362 -0.2020  1.4271
  440MPD2    N1 6619   3.673   4.376  14.819  0.1489 -0.1586 -0.1628
  440MPD2    H7 6620   3.728   4.444  14.872 -3.1177  0.8137  1.9456
  441TMC3    C1 6621   4.269   4.111  14.930  0.3438  0.7392  0.0828
  441TMC3    C2 6622   4.363   4.209  14.946 -1.4170 -0.6513 -0.4174
  441TMC3    C3 6623   4.476   4.185  15.028 -0.0882 -0.5209 -0.5088
  441TMC3    C4 6624   4.282   3.984  14.993  0.1498 -0.6961 -0.3107
  441TMC3    C5 6625   4.393   3.971  15.069 -0.5342 -0.6853 -0.6904
  441TMC3    C6 6626   4.481   4.067  15.096  0.4987  0.7476 -0.3205
  441TMC3     C 6627   4.134   4.169  14.916 -0.2364  0.1062  0.2142
  441TMC3     O 6628   4.115   4.285  14.944  0.3349  0.1433  0.1268
  441TMC3     H 6629   4.356   4.304  14.893 -0.9508 -0.3625  0.0349
  441TMC3    H1 6630   4.202   3.913  14.978  0.3309 -0.7464 -1.0100
  441TMC3    H2 6631   4.552   4.059  15.178 -0.7729  0.3614  0.7327
  441TMC3    C7 6632   4.390   3.853  15.155  0.8175  0.0397 -0.3162
  441TMC3    C8 6633   4.535   4.294  15.099 -0.1384  0.4563 -0.0302
  441TMC3    O1 6634   4.284   3.821  15.201  0.2905  0.5889  0.0715
  441TMC3    O2 6635   4.644   4.283  15.152  0.4296  0.1770 -0.7889
  442MPD2     C 6636   2.158   0.105  16.526 -0.4202  0.8233 -0.2169
  442MPD2    C1 6637   2.094   4.730  16.576 -0.3135 -0.1168  0.4231
  442MPD2    C2 6638   2.143   4.598  16.553 -1.0638 -0.9114 -0.6139
  442MPD2    C3 6639   2.244   4.581  16.469 -0.4010 -0.1398  0.2906
  442MPD2    C4 6640   2.304   4.690  16.411  0.4698  0.0879  0.4616
  442MPD2    C5 6641   2.261   0.078  16.443  0.2861 -0.3728  0.5505
  442MPD2     H 6642   2.081   4.514  16.583 -0.3230 -1.1029  0.4121
  442MPD2    H1 6643   2.373   4.682  16.328 -0.4939 -4.7049  0.0933
  442MPD2    H2 6644   2.132   0.208  16.544  0.7160  0.9378  0.7475
  442MPD2    H3 6645   2.294   0.163  16.383  1.2167 -1.5286 -0.5633
  442MPD2     N 6646   2.287   4.461  16.420  0.2906  0.8231 -0.0204
  442MPD2    H5 6647   2.373   4.475  16.369  2.1589 -4.1733  1.7269
  442MPD2    N1 6648   1.980   0.009  16.659  0.2636 -0.2534 -0.0023
  442MPD2    H7 6649   1.948   4.665  16.711 -0.9667 -0.5002 -1.1563
  443TMC3    C1 6650   1.813   0.115  16.784 -0.2471  0.0634  0.2146
  443TMC3    C2 6651   1.697   0.178  16.777  0.0982 -0.2296 -0.1901
  443TMC3    C3 6652   1.587   0.107  16.817  0.1718 -0.2537  0.4514
  443TMC3    C4 6653   1.823   0.003  16.864 -0.2521  0.3691 -0.0078
  443TMC3    C5 6654   1.712   4.693  16.931 -0.9552  0.1605  0.3926
  443TMC3    C6 6655   1.591   0.005  16.906 -0.5672  0.0594 -0.3833
  443TMC3     C 6656   1.913   0.125  16.679  0.9325  0.1855 -0.3412
  443TMC3     O 6657   1.920   0.229  16.619 -0.3296 -0.2387  0.4639
  443TMC3     H 6658   1.673   0.259  16.708  1.2473 -1.5243 -2.0957
  443TMC3    H1 6659   1.920   4.699  16.885  0.6327  1.5289 -1.7970
  443TMC3    H2 6660   1.500   4.701  16.948 -0.7818  0.0326 -0.8657
  443TMC3    C7 6661   1.733   4.594  17.037 -0.8614 -0.1064 -0.4947
  443TMC3    C8 6662   1.461   0.178  16.792  0.5838 -0.1078 -0.5439
  443TMC3    O1 6663   1.840   4.531  17.015 -0.1385 -0.1001  0.1819
  443TMC3    O2 6664   1.466   0.300  16.812  0.6801  0.3873  0.4137
  444MPD2     C 6665   2.841   3.619  17.390  0.8938 -0.0603  0.7273
  444MPD2    C1 6666   2.726   3.552  17.350  1.1260  0.1510  0.0729
  444MPD2    C2 6667   2.744   3.457  17.247  0.2074  0.5833 -0.5276
  444MPD2    C3 6668   2.871   3.435  17.192 -0.3122 -0.8016 -0.4797
  444MPD2    C4 6669   2.980   3.513  17.230 -0.4257 -0.6395 -0.8114
  444MPD2    C5 6670   2.965   3.599  17.330 -0.3882  0.6573 -0.1563
  444MPD2     H 6671   2.660   3.402  17.206  0.0219 -0.4517  1.2705
  444MPD2    H1 6672   3.076   3.504  17.179 -0.0107  2.0415 -0.4809
  444MPD2    H2 6673   2.844   3.685  17.476 -1.1043  2.0504 -0.8049
  444MPD2    H3 6674   3.052   3.651  17.369  0.5029 -1.3066  0.4677
  444MPD2     N 6675   2.891   3.333  17.093  0.0089  0.5216  0.7039
  444MPD2    H5 6676   2.808   3.282  17.065 -1.6418  3.2327  0.7155
  444MPD2    N1 6677   2.592   3.586  17.398 -0.0992 -1.1218 -0.1808
  444MPD2    H7 6678   2.519   3.530  17.354  0.0028 -1.9905  0.7426
  445TMC3    C1 6679   2.970   3.210  16.911 -0.3537  0.3791 -0.2858
  445TMC3    C2 6680   2.840   3.197  16.873 -0.0216 -0.0895 -0.6986
  445TMC3    C3 6681   2.811   3.127  16.760 -0.3631  0.4149 -0.1482
  445TMC3    C4 6682   3.076   3.156  16.844 -0.1513  0.0465 -0.0621
  445TMC3    C5 6683   3.040   3.110  16.720  0.7293  0.8680  0.3373
  445TMC3    C6 6684   2.912   3.085  16.682 -0.0202  0.2809 -0.6654
  445TMC3     C 6685   3.001   3.301  17.019  0.4609 -0.6608 -0.5286
  445TMC3     O 6686   3.114   3.344  17.025 -0.5975  0.0197  0.2377
  445TMC3     H 6687   2.750   3.234  16.922 -0.1549  2.2458 -2.7030
  445TMC3    H1 6688   3.179   3.153  16.875 -0.3017  0.0181  0.4286
  445TMC3    H2 6689   2.901   3.053  16.579  2.5256  1.1016 -1.1938
  445TMC3    C7 6690   3.144   3.051  16.640 -0.6537  0.3981  0.6725
  445TMC3    C8 6691   2.670   3.121  16.713 -0.0820 -0.0932  0.5300
  445TMC3    O1 6692   3.111   2.953  16.585 -0.1371  0.7350 -0.5435
  445TMC3    O2 6693   2.585   3.158  16.795  0.0985  0.1593  0.9423
  446MPD2     C 6694   1.948   0.583  11.355 -0.1703 -0.6302  0.0056
  446MPD2    C1 6695   1.986   0.503  11.254 -0.2889 -0.3174 -0.3210
  446MPD2    C2 6696   2.119   0.490  11.214 -0.3740 -0.0528  0.1675
  446MPD2    C3 6697   2.214   0.545  11.295 -0.2973 -0.0685 -0.7072
  446MPD2    C4 6698   2.180   0.603  11.410 -0.2445 -0.5504  0.8605
  446MPD2    C5 6699   2.049   0.626  11.439 -1.0271 -0.3238  0.0962
  446MPD2     H 6700   2.149   0.440  11.123  0.7658 -1.6789  1.4452
  446MPD2    H1 6701   2.251   0.650  11.477 -0.6813 -1.0402  1.6620
  446MPD2    H2 6702   1.845   0.611  11.373  0.0707  1.0559 -1.2724
  446MPD2    H3 6703   2.028   0.693  11.522 -0.3366 -1.5069  1.2342
  446MPD2     N 6704   2.342   0.540  11.252  0.2074  0.6645 -0.1366
  446MPD2    H5 6705   2.355   0.530  11.152 -0.5692  1.2008 -0.2881
  446MPD2    N1 6706   1.890   0.439  11.168  0.0036 -0.0526  0.1222
  446MPD2    H7 6707   1.916   0.384  11.086 -2.1207 -1.7286  0.5493
  447TMC3    C1 6708   2.572   0.561  11.240 -0.6595 -0.1121  0.0772
  447TMC3    C2 6709   2.558   0.622  11.118  0.3697 -0.6380 -0.2649
  447TMC3    C3 6710   2.668   0.644  11.044  0.3006 -0.0842  0.2904
  447TMC3    C4 6711   2.679   0.485  11.275 -0.2406 -0.1731  0.1647
  447TMC3    C5 6712   2.792   0.508  11.192 -0.5769  0.4140  0.5484
  447TMC3    C6 6713   2.785   0.586  11.079  0.4042 -0.6127  0.0850
  447TMC3     C 6714   2.456   0.545  11.327  0.1199 -0.6294 -0.1269
  447TMC3     O 6715   2.473   0.525  11.446 -0.7705  0.2163  0.0343
  447TMC3     H 6716   2.473   0.685  11.093  0.2837 -0.5552  0.2221
  447TMC3    H1 6717   2.676   0.414  11.356  0.1569 -1.3902 -0.8815
  447TMC3    H2 6718   2.876   0.605  11.024  0.6168 -0.4413  0.4954
  447TMC3    C7 6719   2.914   0.433  11.210 -1.4145 -0.1456 -0.4439
  447TMC3    C8 6720   2.665   0.752  10.944 -0.6693  0.1209 -0.7678
  447TMC3    O1 6721   3.005   0.460  11.131  0.1402 -0.2005 -0.2661
  447TMC3    O2 6722   2.563   0.809  10.926  0.0759  0.5145  0.1768
  448TMC3    C1 6723   0.380   0.442  16.997  0.0908  0.1471  0.4136
  448TMC3    C2 6724   0.392   0.360  16.886 -0.1285 -1.2653  1.0187
  448TMC3    C3 6725   0.496   0.270  16.881 -0.4045  0.5317  0.8717
  448TMC3    C4 6726   0.476   0.447  17.095 -0.2162  0.3615 -0.6175
  448TMC3    C5 6727   0.578   0.362  17.081  0.1001  0.4875  0.4321
  448TMC3    C6 6728   0.588   0.259  16.982  0.3010  0.3132  0.1746
  448TMC3     C 6729   0.277   0.541  17.007 -0.5595 -0.2847  0.0747
  448TMC3     O 6730   0.227   0.568  16.897 -0.2887  0.1053  0.2067
  448TMC3     H 6731   0.316   0.353  16.809 -0.7493  1.8174  1.3601
  448TMC3    H1 6732   0.464   0.513  17.181  0.0558 -0.3003 -0.0759
  448TMC3    H2 6733   0.675   0.195  16.972 -0.5664 -1.1275  1.8030
  448TMC3    C7 6734   0.681   0.368  17.183 -0.0430 -0.0489 -0.1379
  448TMC3    C8 6735   0.541   0.216  16.757 -0.3457  0.4429 -1.3058
  448TMC3    O1 6736   0.762   0.276  17.179 -0.3920  0.1898 -0.0084
  448TMC3    O2 6737   0.650   0.159  16.762  0.1007  0.5531 -0.1904
  449MPD2     C 6738   1.981   3.827  13.954 -0.3282 -0.4865 -0.5884
  449MPD2    C1 6739   1.865   3.747  13.929 -0.2422  0.3357 -0.4578
  449MPD2    C2 6740   1.865   3.626  13.987 -0.2605  0.1129 -0.4674
  449MPD2    C3 6741   1.969   3.570  14.048 -0.1598 -0.0983  0.0449
  449MPD2    C4 6742   2.083   3.647  14.076 -0.0640  1.5296 -0.0336
  449MPD2    C5 6743   2.080   3.775  14.036 -0.2206  0.0492  0.7625
  449MPD2     H 6744   1.785   3.556  13.968  0.7434 -0.6819 -1.7485
  449MPD2    H1 6745   2.165   3.610  14.138 -0.3390  1.6169  0.3798
  449MPD2    H2 6746   2.000   3.921  13.902  0.7979 -1.3368 -1.7007
  449MPD2    H3 6747   2.168   3.834  14.058 -0.5242  1.3978 -1.5819
  449MPD2     N 6748   1.955   3.431  14.080  0.1621  0.2519 -0.5754
  449MPD2    H5 6749   1.877   3.387  14.033 -0.8258  1.0765  0.2788
  449MPD2    N1 6750   1.756   3.779  13.850 -0.6105  0.1929 -0.2801
  449MPD2    H7 6751   1.677   3.716  13.855  1.2098 -1.8854  2.0821
  450TMC3    C1 6752   1.638   3.871  13.667  0.3527  0.0131 -0.5683
  450TMC3    C2 6753   1.677   3.841  13.544 -0.0675  0.3308  0.5517
  450TMC3    C3 6754   1.599   3.755  13.468 -0.1881 -0.8158  0.2767
  450TMC3    C4 6755   1.522   3.830  13.725  0.2496 -0.1822  0.4891
  450TMC3    C5 6756   1.448   3.737  13.652 -0.1874  0.6634 -0.0520
  450TMC3    C6 6757   1.481   3.706  13.523 -0.0380  0.7961  0.0646
  450TMC3     C 6758   1.753   3.883  13.757 -0.3203  0.1331 -0.4115
  450TMC3     O 6759   1.839   3.961  13.720 -0.4675  0.1952 -0.0560
  450TMC3     H 6760   1.776   3.871  13.511 -0.4307  0.0437 -0.7841
  450TMC3    H1 6761   1.499   3.853  13.828 -1.4941 -3.1991  0.7720
  450TMC3    H2 6762   1.428   3.621  13.482 -1.3820  0.5329  2.3327
  450TMC3    C7 6763   1.442   3.621  13.739 -0.3217  0.4982 -0.4864
  450TMC3    C8 6764   1.656   3.673  13.357  0.1900  0.6578  0.2478
  450TMC3    O1 6765   1.512   3.615  13.835  0.1723  0.4147  0.0651
  450TMC3    O2 6766   1.594   3.570  13.327 -0.6993 -0.2110 -0.1343
  451MPD2     C 6767   2.700   2.016   0.546 -0.4615  0.5110  0.0045
  451MPD2    C1 6768   2.806   2.099   0.584  0.4886 -0.4327  0.0367
  451MPD2    C2 6769   2.920   2.091   0.503  0.2439 -0.4509  0.2248
  451MPD2    C3 6770   2.925   2.008   0.395 -0.2902 -0.3318 -0.2850
  451MPD2    C4 6771   2.818   1.927   0.366 -0.5156  0.4875 -0.0182
  451MPD2    C5 6772   2.706   1.929   0.447  0.7051 -0.4428  0.6113
  451MPD2     H 6773   3.011   2.146   0.528  0.1634 -0.3393  0.2743
  451MPD2    H1 6774   2.824   1.842   0.299  1.8340  0.7926 -0.2139
  451MPD2    H2 6775   2.607   2.017   0.603 -0.0586 -0.0900  0.6732
  451MPD2    H3 6776   2.633   1.851   0.427 -1.5068  1.3706  1.6843
  451MPD2     N 6777   3.029   2.005   0.299 -0.2270  0.0708  0.1651
  451MPD2    H5 6778   3.023   1.939   0.221 -1.7842 -0.3171  0.6043
  451MPD2    N1 6779   2.792   2.181   0.701  0.3192 -0.6238  0.7269
  451MPD2    H7 6780   2.702   2.179   0.748  0.2273  1.7587  0.6444
  452TMC3    C1 6781   3.219   2.076   0.186 -0.0880  0.0435 -0.8906
  452TMC3    C2 6782   3.206   1.970   0.100  0.5161 -0.3008 -0.5310
  452TMC3    C3 6783   3.209   2.003  17.720 -0.4236 -0.4679 -0.4803
  452TMC3    C4 6784   3.266   2.200   0.149  0.1628  0.4156 -0.3660
  452TMC3    C5 6785   3.277   2.229   0.018  0.4256 -0.4864  0.2896
  452TMC3    C6 6786   3.246   2.127  17.678  0.1674  0.4924  0.2731
  452TMC3     C 6787   3.140   2.082   0.307  0.2658  0.1509  0.2985
  452TMC3     O 6788   3.187   2.161   0.390  0.1320 -0.1104  0.1245
  452TMC3     H 6789   3.186   1.866   0.124 -4.3082  0.9855  1.0211
  452TMC3    H1 6790   3.273   2.282   0.219 -0.6335 -1.9092  2.4089
  452TMC3    H2 6791   3.230   2.164  17.578  1.2959 -0.9855 -0.4696
  452TMC3    C7 6792   3.327   2.353  17.716  0.2063 -0.3394 -0.6868
  452TMC3    C8 6793   3.202   1.900  17.623  0.4796 -0.2660  0.2835
  452TMC3    O1 6794   3.386   2.345  17.606  0.3335  0.3421  0.1537
  452TMC3    O2 6795   3.133   1.807  17.659 -0.2422 -0.2824 -0.0182
  453TMC3    C1 6796   4.412   4.471  11.756  0.3070 -0.1302  0.1516
  453TMC3    C2 6797   4.322   4.366  11.774  0.6524  0.2818  0.5093
  453TMC3    C3 6798   4.216   4.367  11.692 -0.5286 -0.1936 -0.1831
  453TMC3    C4 6799   4.410   4.558  11.648 -0.0717  0.6862 -0.5748
  453TMC3    C5 6800   4.307   4.545  11.561  0.0908  0.4860  0.1526
  453TMC3    C6 6801   4.208   4.456  11.585  0.1209  0.2143 -0.0515
  453TMC3     C 6802   4.541   4.462  11.833 -0.7201 -0.2215 -0.9115
  453TMC3     O 6803   4.619   4.552  11.817  0.1409 -0.2799 -0.3561
  453TMC3     H 6804   4.323   4.298  11.859 -0.2582 -1.4939 -0.8879
  453TMC3    H1 6805   4.494   4.625  11.630 -1.3222  2.9208  1.9749
  453TMC3    H2 6806   4.127   4.455  11.513 -0.9884  2.4734  1.2088
  453TMC3    C7 6807   4.342   4.573  11.422  1.2514 -0.7572 -0.5586
  453TMC3    C8 6808   4.109   4.261  11.695 -0.5629 -0.6216 -0.1602
  453TMC3    O1 6809   4.285   4.515  11.332 -0.3100 -0.3651  0.2095
  453TMC3    O2 6810   3.999   4.295  11.651  0.1954  0.0342 -1.0306
  454MPD2     C 6811   3.165   3.682  16.781 -0.3673  0.5453 -0.1134
  454MPD2    C1 6812   3.180   3.618  16.661 -1.2037  0.2104  0.2861
  454MPD2    C2 6813   3.075   3.536  16.619 -0.3577 -0.3472  0.1190
  454MPD2    C3 6814   2.961   3.523  16.696 -0.2958 -0.0080  0.3154
  454MPD2    C4 6815   2.966   3.560  16.823 -0.1468 -0.2404 -0.0536
  454MPD2    C5 6816   3.069   3.648  16.871 -0.9908 -0.0777 -0.0330
  454MPD2     H 6817   3.074   3.501  16.516  0.4466  0.4938 -0.1793
  454MPD2    H1 6818   2.877   3.552  16.884 -0.6400  0.7667 -0.6466
  454MPD2    H2 6819   3.235   3.759  16.811 -0.6957  1.1961 -1.0285
  454MPD2    H3 6820   3.057   3.700  16.965  0.5675 -1.2948  0.8187
  454MPD2     N 6821   2.850   3.458  16.633 -0.3311 -0.1067  0.4425
  454MPD2    H5 6822   2.858   3.421  16.539  0.0404 -1.5611  1.0340
  454MPD2    N1 6823   3.283   3.639  16.566 -0.1322 -0.0262  0.2920
  454MPD2    H7 6824   3.279   3.578  16.485 -0.0156 -1.3135  1.2601
  455TMC3    C1 6825   2.620   3.471  16.565  0.6104 -0.0108  0.3996
  455TMC3    C2 6826   2.494   3.514  16.595  0.3215 -0.0016  0.4155
  455TMC3    C3 6827   2.402   3.543  16.492  0.3053 -0.3391  0.1085
  455TMC3    C4 6828   2.655   3.456  16.434  0.8246  0.0062 -0.6101
  455TMC3    C5 6829   2.565   3.485  16.340  0.0164 -0.2365 -1.2048
  455TMC3    C6 6830   2.430   3.518  16.362 -0.0423  0.1544 -0.1350
  455TMC3     C 6831   2.716   3.472  16.674  0.5473  0.5340  0.3913
  455TMC3     O 6832   2.672   3.526  16.772  0.3270  0.1331 -0.2427
  455TMC3     H 6833   2.464   3.536  16.696  0.0433  0.7721  0.1610
  455TMC3    H1 6834   2.759   3.437  16.409  0.6906 -1.8014  0.2412
  455TMC3    H2 6835   2.364   3.545  16.280  0.7828  0.4110 -0.7119
  455TMC3    C7 6836   2.611   3.499  16.204 -0.2508  0.2056 -0.4323
  455TMC3    C8 6837   2.314   3.655  16.514 -0.7219 -0.7561 -0.5020
  455TMC3    O1 6838   2.531   3.479  16.115 -0.1325 -0.1843 -0.1928
  455TMC3    O2 6839   2.207   3.666  16.453 -0.0940  0.9528  0.5742
  456MPD2     C 6840   0.978   3.913  15.765 -0.0130  0.2803 -0.4708
  456MPD2    C1 6841   1.090   3.929  15.847  0.4746  0.3909 -0.4010
  456MPD2    C2 6842   1.079   3.990  15.976  0.1928 -0.0225  0.3554
  456MPD2    C3 6843   0.950   4.028  16.013  0.3617  0.2060 -0.1014
  456MPD2    C4 6844   0.838   4.000  15.942  1.0157  0.6475 -0.6142
  456MPD2    C5 6845   0.853   3.942  15.816 -0.1255  0.2061 -0.1554
  456MPD2     H 6846   1.170   4.019  16.028 -0.7904  0.9907  1.5340
  456MPD2    H1 6847   0.741   4.024  15.985  1.4862  0.6741  0.4464
  456MPD2    H2 6848   0.979   3.856  15.672  2.5098 -0.2389 -0.1236
  456MPD2    H3 6849   0.764   3.911  15.762 -0.1953 -2.1643  1.3199
  456MPD2     N 6850   0.946   4.111  16.125 -0.1672  0.2436 -0.4906
  456MPD2    H5 6851   1.034   4.111  16.177  0.2235 -0.7453 -1.1519
  456MPD2    N1 6852   1.215   3.892  15.791 -0.6499 -0.4654  0.5335
  456MPD2    H7 6853   1.223   3.854  15.697 -2.9279 -3.1551  1.4164
  457TMC3    C1 6854   0.844   4.255  16.288 -0.4790  0.6845  0.3542
  457TMC3    C2 6855   0.766   4.362  16.316  0.3212  0.0256 -0.2310
  457TMC3    C3 6856   0.785   4.414  16.444  0.3713  0.2253 -0.0451
  457TMC3    C4 6857   0.916   4.187  16.388  0.5220  0.3738  0.2056
  457TMC3    C5 6858   0.928   4.246  16.508  0.2005  0.8574  0.4848
  457TMC3    C6 6859   0.870   4.362  16.540  0.8948  0.4259 -0.2529
  457TMC3     C 6860   0.838   4.200  16.151 -0.7910 -0.1732 -1.1691
  457TMC3     O 6861   0.755   4.245  16.073 -0.4447  0.2718 -0.1650
  457TMC3     H 6862   0.730   4.424  16.234 -0.3629 -2.5901 -1.8906
  457TMC3    H1 6863   0.941   4.082  16.378  1.4141  0.3481  2.6066
  457TMC3    H2 6864   0.891   4.405  16.637  0.9582 -2.3853  0.9766
  457TMC3    C7 6865   1.014   4.191  16.609 -0.1286 -0.1202 -0.2567
  457TMC3    C8 6866   0.711   4.529  16.482 -0.6129  0.2351 -0.3667
  457TMC3    O1 6867   0.996   4.236  16.722 -0.0430 -0.3634  0.0853
  457TMC3    O2 6868   0.772   4.602  16.557  0.1301 -0.2707 -0.3867
  458MPD2     C 6869   3.148   3.603  12.625 -0.7786 -0.5849 -0.5998
  458MPD2    C1 6870   3.194   3.483  12.675  0.3629 -0.6502 -0.3146
  458MPD2    C2 6871   3.148   3.361  12.626  0.3280  0.0613 -0.3105
  458MPD2    C3 6872   3.037   3.360  12.545 -0.0162 -0.1715 -0.2137
  458MPD2    C4 6873   2.988   3.481  12.495  0.0524 -0.5238  0.8056
  458MPD2    C5 6874   3.040   3.602  12.537  0.4200  0.2288  0.2594
  458MPD2     H 6875   3.194   3.266  12.649 -3.1271 -1.5887 -0.2518
  458MPD2    H1 6876   2.899   3.488  12.433  0.1739 -0.7092  0.6085
  458MPD2    H2 6877   3.186   3.698  12.660 -1.3076  0.2705 -2.3589
  458MPD2    H3 6878   2.995   3.693  12.499 -1.4943 -0.6846  0.3206
  458MPD2     N 6879   2.986   3.234  12.512 -0.1671  0.0250 -0.2880
  458MPD2    H5 6880   3.001   3.156  12.576  1.1372 -1.3678 -2.2830
  458MPD2    N1 6881   3.297   3.496  12.765 -0.7541  0.1230 -0.3629
  458MPD2    H7 6882   3.332   3.590  12.781 -0.7167 -0.5606  3.4486
  459TMC3    C1 6883   3.446   3.446  12.928 -0.4451  0.4871 -0.4950
  459TMC3    C2 6884   3.546   3.531  12.881  0.2928 -0.0437  1.1237
  459TMC3    C3 6885   3.668   3.541  12.946 -0.8980 -0.4710  0.2179
  459TMC3    C4 6886   3.466   3.384  13.043  0.3079 -0.1325 -0.0335
  459TMC3    C5 6887   3.587   3.395  13.108 -0.2072  0.0331 -0.4084
  459TMC3    C6 6888   3.696   3.467  13.053 -0.0681  0.2341  0.5120
  459TMC3     C 6889   3.353   3.391  12.837 -0.5223 -0.4038  0.1240
  459TMC3     O 6890   3.310   3.278  12.860 -0.1146 -0.1026  0.3818
  459TMC3     H 6891   3.549   3.564  12.778  0.9939  1.2768  1.5525
  459TMC3    H1 6892   3.389   3.318  13.082 -0.9496  1.3651 -0.0074
  459TMC3    H2 6893   3.796   3.483  13.093 -0.2793  1.9202  0.3539
  459TMC3    C7 6894   3.623   3.295  13.203  0.4157  0.4165 -0.0288
  459TMC3    C8 6895   3.761   3.629  12.894  0.3445  0.2477 -0.7665
  459TMC3    O1 6896   3.548   3.200  13.218  0.2298 -0.1749  0.7771
  459TMC3    O2 6897   3.874   3.585  12.901 -0.0340 -0.5590 -0.1875
  460MPD2     C 6898   2.952   0.890  10.773  0.4852 -0.3691 -0.6737
  460MPD2    C1 6899   2.819   0.875  10.796 -0.2082  0.1150  0.3577
  460MPD2    C2 6900   2.726   0.942  10.722 -0.3467 -0.1266  0.1827
  460MPD2    C3 6901   2.774   1.030  10.621  0.6680 -0.7132  0.7261
  460MPD2    C4 6902   2.907   1.054  10.610  0.4741 -0.0617 -0.8081
  460MPD2    C5 6903   2.991   0.976  10.681  0.1332  0.6012  0.6313
  460MPD2     H 6904   2.622   0.920  10.739 -0.3668  1.0501  1.5888
  460MPD2    H1 6905   2.945   1.112  10.526  0.5608  2.1333  0.7747
  460MPD2    H2 6906   3.027   0.833  10.827  0.1972  0.2919  0.4345
  460MPD2    H3 6907   3.097   0.995  10.672  0.2575 -0.0933  0.6519
  460MPD2     N 6908   2.679   1.112  10.556  0.2935 -0.0571  0.4562
  460MPD2    H5 6909   2.580   1.093  10.566  0.2430 -0.5041 -0.8798
  460MPD2    N1 6910   2.788   0.773  10.889  0.0765 -0.2062  0.1823
  460MPD2    H7 6911   2.867   0.716  10.915  0.2448  0.1016  0.3492
  461TMC3    C1 6912   2.597   1.297  10.421 -0.3974  0.5475  0.7103
  461TMC3    C2 6913   2.494   1.232  10.361 -0.3283 -1.0224  0.0862
  461TMC3    C3 6914   2.398   1.309  10.301  0.0754 -0.4156 -0.4540
  461TMC3    C4 6915   2.616   1.435  10.406 -0.3711 -0.5244  0.0708
  461TMC3    C5 6916   2.526   1.508  10.339  0.1604  0.1226 -0.4165
  461TMC3    C6 6917   2.412   1.446  10.287 -0.5876  0.4508  0.2413
  461TMC3     C 6918   2.711   1.226  10.489 -0.0129  0.6931  0.4182
  461TMC3     O 6919   2.814   1.290  10.474 -0.3519 -0.0296 -0.1807
  461TMC3     H 6920   2.484   1.125  10.375  1.7515 -1.2211  0.0003
  461TMC3    H1 6921   2.701   1.487  10.449  0.8229 -1.5299 -1.0678
  461TMC3    H2 6922   2.334   1.502  10.237 -0.8192  0.3508  0.4901
  461TMC3    C7 6923   2.548   1.644  10.322  0.5072  0.0017 -0.7916
  461TMC3    C8 6924   2.319   1.253  10.191 -0.8800  0.4132  0.7171
  461TMC3    O1 6925   2.456   1.724  10.317 -0.2415  0.5563  0.2859
  461TMC3    O2 6926   2.311   1.323  10.090 -0.4117 -0.2686  0.4908
  462TMC3    C1 6927   1.691   2.135   0.170 -0.0083  0.3354 -0.0366
  462TMC3    C2 6928   1.817   2.165   0.205 -0.6709 -0.4654  0.5872
  462TMC3    C3 6929   1.913   2.065   0.197 -0.2550 -0.0487  0.7495
  462TMC3    C4 6930   1.650   2.011   0.129  0.4694 -0.5330 -0.0390
  462TMC3    C5 6931   1.748   1.922   0.114 -0.3013 -0.3875 -0.5712
  462TMC3    C6 6932   1.879   1.948   0.141  1.3508 -0.0970 -0.1991
  462TMC3     C 6933   1.601   2.240   0.157 -0.5195 -0.6660  0.3148
  462TMC3     O 6934   1.642   2.351   0.118 -0.1280 -0.0320 -0.1406
  462TMC3     H 6935   1.840   2.267   0.235 -0.5793 -1.0844  2.6445
  462TMC3    H1 6936   1.552   1.992   0.086 -0.3988  1.3063  1.1322
  462TMC3    H2 6937   1.945   1.866   0.167 -1.3347 -2.2393 -0.1982
  462TMC3    C7 6938   1.726   1.793   0.069  0.7128 -0.0059 -0.6572
  462TMC3    C8 6939   2.051   2.093   0.244 -0.0053 -0.5310  0.1402
  462TMC3    O1 6940   1.820   1.720   0.030 -0.0266  0.0603 -0.4964
  462TMC3    O2 6941   2.064   2.209   0.282  0.2902 -0.2890 -0.9103
  463MPD2     C 6942   4.369   0.848   1.726  0.0411  0.5327  0.2473
  463MPD2    C1 6943   4.364   0.837   1.584 -0.5683 -0.6030  0.5752
  463MPD2    C2 6944   4.488   0.805   1.527 -0.6616 -0.7668  0.4938
  463MPD2    C3 6945   4.603   0.775   1.597 -0.2409 -0.3138  0.4156
  463MPD2    C4 6946   4.610   0.796   1.733 -0.0420  0.7564 -0.4156
  463MPD2    C5 6947   4.491   0.834   1.791 -0.3729  0.6466 -0.0764
  463MPD2     H 6948   4.482   0.772   1.423 -2.3622 -3.0020  1.2962
  463MPD2    H1 6949   4.700   0.774   1.789 -0.4433  0.4787  0.1145
  463MPD2    H2 6950   4.279   0.873   1.781 -0.0922  0.8225 -0.1073
  463MPD2    H3 6951   4.486   0.821   1.899  0.4519 -1.1859 -0.2703
  463MPD2     N 6952   4.701   0.711   1.517  0.8595 -0.5343 -0.3125
  463MPD2    H5 6953   4.692   0.721   1.416 -3.8216 -0.7018  0.0701
  463MPD2    N1 6954   4.256   0.862   1.505  0.5527 -0.2183 -0.3233
  463MPD2    H7 6955   4.263   0.855   1.404  0.9002  0.7424 -0.3604
  464TMC3    C1 6956   4.039   0.908   1.449  0.3108 -0.3191 -0.3264
  464TMC3    C2 6957   3.940   1.007   1.452  0.4380 -0.7735 -0.1388
  464TMC3    C3 6958   3.820   0.978   1.395 -0.4504 -0.4162 -0.0937
  464TMC3    C4 6959   4.016   0.787   1.397  0.5628  0.2910 -0.4999
  464TMC3    C5 6960   3.888   0.765   1.346 -0.1839 -0.6151  0.6648
  464TMC3    C6 6961   3.791   0.850   1.339 -0.6252  0.1511 -0.6494
  464TMC3     C 6962   4.141   0.920   1.548  0.3388 -0.0404 -0.4692
  464TMC3     O 6963   4.117   0.986   1.647  0.2593  0.1407 -0.5064
  464TMC3     H 6964   3.967   1.107   1.485  3.1150 -1.7230  0.5348
  464TMC3    H1 6965   4.086   0.707   1.417 -1.2098 -1.5901 -1.8223
  464TMC3    H2 6966   3.694   0.819   1.299 -0.5960 -0.4942 -0.2231
  464TMC3    C7 6967   3.873   0.629   1.301  0.0750 -0.0352 -0.7104
  464TMC3    C8 6968   3.729   1.081   1.346 -0.2411 -0.2613  0.0746
  464TMC3    O1 6969   3.971   0.559   1.276 -0.1459  0.3856 -0.4492
  464TMC3    O2 6970   3.635   1.048   1.273 -0.2948 -0.1788 -0.1049
  465MPD2     C 6971   0.229   3.783  15.896  0.9509  0.3397 -0.1230
  465MPD2    C1 6972   0.214   3.849  16.016  0.4977 -0.7228 -0.6522
  465MPD2    C2 6973   0.088   3.892  16.058  0.1349  0.2980 -0.8130
  465MPD2    C3 6974   4.716   3.872  15.982  0.0041 -1.1073 -0.4273
  465MPD2    C4 6975   4.728   3.806  15.861  0.3950 -0.2393  0.4453
  465MPD2    C5 6976   0.118   3.762  15.826 -0.3578 -0.2620  0.7042
  465MPD2     H 6977   0.089   3.946  16.153 -0.8530  1.1269 -1.2796
  465MPD2    H1 6978   4.642   3.786  15.798 -0.9308  0.0306  2.1497
  465MPD2    H2 6979   0.325   3.742  15.867  0.2549 -1.3963  0.0292
  465MPD2    H3 6980   0.130   3.709  15.732  0.1184 -0.4470  0.8659
  465MPD2     N 6981   4.596   3.899  16.046 -0.3551 -0.3581 -0.0151
  465MPD2    H5 6982   4.597   3.944  16.136 -2.0652 -1.0509  0.3449
  465MPD2    N1 6983   0.325   3.890  16.095  0.6724  0.1687 -0.6333
  465MPD2    H7 6984   0.300   3.944  16.177  0.8234 -1.4579  0.4795
  466TMC3    C1 6985   4.336   3.802  16.341 -0.4901 -0.2968 -0.3942
  466TMC3    C2 6986   4.205   3.856  16.333  0.3614  0.0088  0.2603
  466TMC3    C3 6987   4.175   3.913  16.211  0.0548  0.3948 -0.0530
  466TMC3    C4 6988   4.425   3.813  16.234 -1.1393 -0.1868  0.3893
  466TMC3    C5 6989   4.388   3.871  16.116  0.0948  0.3927  0.2921
  466TMC3    C6 6990   4.265   3.916  16.097 -0.1241 -0.6745  0.4501
  466TMC3     C 6991   4.394   3.828  16.476  0.7773 -0.1584 -0.1387
  466TMC3     O 6992   4.320   3.887  16.553  0.3372  0.0826 -0.1445
  466TMC3     H 6993   4.131   3.843  16.412  0.8749  0.7747  0.8709
  466TMC3    H1 6994   4.523   3.767  16.245  0.0365  2.4175  0.8335
  466TMC3    H2 6995   4.258   3.963  16.000 -2.7803  1.6038  1.7441
  466TMC3    C7 6996   4.475   3.860  16.001 -0.2904 -0.7873 -1.4903
  466TMC3    C8 6997   4.098   4.031  16.230 -0.5717 -0.2311 -0.1823
  466TMC3    O1 6998   4.431   3.812  15.899 -0.1738  0.1272 -0.0315
  466TMC3    O2 6999   4.101   4.086  16.342 -0.0432  0.0080  0.1047
  467TMC3    C1 7000   0.518   2.351  13.768 -0.9981  0.5037  0.3178
  467TMC3    C2 7001   0.479   2.421  13.657  0.8359 -0.0336  0.0783
  467TMC3    C3 7002   0.406   2.357  13.559  0.2722 -0.1494  0.6164
  467TMC3    C4 7003   0.470   2.223  13.791  0.0714  0.8205 -0.0240
  467TMC3    C5 7004   0.390   2.167  13.695 -0.3874 -0.0338  0.9994
  467TMC3    C6 7005   0.369   2.228  13.574  0.3792  0.5248  1.0048
  467TMC3     C 7006   0.640   2.391  13.835 -0.2017 -0.5161  0.7954
  467TMC3     O 7007   0.696   2.481  13.777  0.1260 -0.0250 -0.0044
  467TMC3     H 7008   0.506   2.525  13.647 -1.0456  0.5298  1.0357
  467TMC3    H1 7009   0.486   2.169  13.883 -1.5122 -1.3951 -1.0530
  467TMC3    H2 7010   0.288   2.192  13.512 -0.2567  3.0056  0.3646
  467TMC3    C7 7011   0.290   2.074  13.740 -0.1031 -0.6615 -0.1662
  467TMC3    C8 7012   0.372   2.439  13.437  0.5876  0.0157  0.0399
  467TMC3    O1 7013   0.287   1.962  13.697  0.0337 -0.2658 -0.5522
  467TMC3    O2 7014   0.352   2.555  13.455 -0.3058 -0.5646  0.5210
  468MPD2     C 7015   3.946   0.822  10.555 -1.6595  0.4018  0.5187
  468MPD2    C1 7016   4.065   0.851  10.619 -0.3330  0.4921 -0.3173
  468MPD2    C2 7017   4.156   0.742  10.649  0.0992  0.5050  0.5513
  468MPD2    C3 7018   4.110   0.613  10.621  0.4042  0.1558  0.0560
  468MPD2    C4 7019   3.983   0.587  10.567 -0.3521  0.0771  0.2607
  468MPD2    C5 7020   3.904   0.693  10.527 -0.6414  0.1894  0.3318
  468MPD2     H 7021   4.259   0.765  10.674  0.1167 -1.5678  2.4265
  468MPD2    H1 7022   3.945   0.491  10.535 -2.4774  0.9693  0.0944
  468MPD2    H2 7023   3.888   0.909  10.528  1.8619  2.2202 -1.1560
  468MPD2    H3 7024   3.809   0.672  10.479 -0.2371 -0.8989 -0.0017
  468MPD2     N 7025   4.190   0.502  10.637 -0.2734  0.6239  0.2164
  468MPD2    H5 7026   4.157   0.413  10.602  0.2181  0.4115  0.2972
  468MPD2    N1 7027   4.093   0.981  10.665 -0.2669 -0.7969 -0.6401
  468MPD2    H7 7028   4.173   0.993  10.726 -1.8100 -3.7072  1.9911
  469TMC3    C1 7029   4.071   1.203  10.731 -0.5699 -0.0748 -0.4864
  469TMC3    C2 7030   4.209   1.212  10.751 -0.2198  0.2402 -0.1348
  469TMC3    C3 7031   4.255   1.293  10.847  0.0881 -0.8368 -0.1658
  469TMC3    C4 7032   3.989   1.279  10.813  0.0420  0.3366  0.6861
  469TMC3    C5 7033   4.048   1.357  10.907  0.2271  0.2011 -0.1022
  469TMC3    C6 7034   4.177   1.367  10.935 -0.2925  0.0879  0.0565
  469TMC3     C 7035   4.009   1.090  10.668 -0.6009  0.1034  0.2616
  469TMC3     O 7036   3.889   1.086  10.670  0.1251  0.2489  0.0637
  469TMC3     H 7037   4.276   1.150  10.693  0.2580  0.6572 -0.0340
  469TMC3    H1 7038   3.881   1.271  10.806  0.1778 -1.1215  0.1750
  469TMC3    H2 7039   4.218   1.437  11.007  3.0293 -2.4168  0.6207
  469TMC3    C7 7040   3.954   1.450  10.974 -0.3255  0.3199  0.7225
  469TMC3    C8 7041   4.392   1.252  10.884 -0.1831  0.1531 -0.1508
  469TMC3    O1 7042   3.847   1.463  10.922 -0.2175 -0.0026  0.2492
  469TMC3    O2 7043   4.463   1.193  10.801 -0.2996 -0.7573 -0.9544
  470TMC3    C1 7044   1.780   1.173   0.405 -0.4274  0.4466  0.8117
  470TMC3    C2 7045   1.827   1.244   0.292 -0.2007 -0.0011 -0.6401
  470TMC3    C3 7046   1.971   1.262   0.295 -0.2239  0.1359 -0.0485
  470TMC3    C4 7047   1.858   1.116   0.496 -0.1552 -0.4529  0.3371
  470TMC3    C5 7048   1.994   1.139   0.493 -0.5939  0.0265 -1.1395
  470TMC3    C6 7049   2.053   1.200   0.383  0.0861  0.1409  0.4215
  470TMC3     C 7050   1.642   1.200   0.455  0.2007  0.0270 -0.1404
  470TMC3     O 7051   1.551   1.213   0.374 -0.1654  0.4656 -0.2383
  470TMC3     H 7052   1.759   1.280   0.216  1.4604 -0.1604 -2.2118
  470TMC3    H1 7053   1.823   1.049   0.575  1.1682  0.8079  1.9896
  470TMC3    H2 7054   2.160   1.214   0.387 -0.0824  1.3837  0.3931
  470TMC3    C7 7055   2.083   1.057   0.577  0.0267  0.3212  0.3730
  470TMC3    C8 7056   2.003   1.397   0.240 -0.1062  0.5469 -0.2741
  470TMC3    O1 7057   2.198   1.053   0.532  0.2164 -0.2403 -0.1030
  470TMC3    O2 7058   1.906   1.472   0.231  0.2503  0.0304  0.5059
  471MPD2     C 7059   1.896   2.816  16.831  1.1544  0.2407  0.7427
  471MPD2    C1 7060   1.993   2.902  16.799 -0.9092 -0.3045  0.0830
  471MPD2    C2 7061   2.075   2.957  16.899 -0.0800 -0.4561  0.5435
  471MPD2    C3 7062   2.056   2.926  17.026 -0.0315  0.1434  1.0063
  471MPD2    C4 7063   1.948   2.842  17.056  0.2357 -0.4163 -0.3273
  471MPD2    C5 7064   1.870   2.788  16.959 -0.1889 -0.2678 -0.5026
  471MPD2     H 7065   2.163   3.016  16.873  0.4530 -0.5005  2.2451
  471MPD2    H1 7066   1.931   2.819  17.160 -1.0357  1.4023 -0.1318
  471MPD2    H2 7067   1.826   2.768  16.763  0.9733  1.1046  0.3175
  471MPD2    H3 7068   1.795   2.714  16.984 -2.6554  2.7135  0.9443
  471MPD2     N 7069   2.142   2.962  17.136  0.2687  0.1356 -0.1688
  471MPD2    H5 7070   2.116   2.925  17.227  0.6239  0.4001  0.0437
  471MPD2    N1 7071   2.019   2.948  16.666  0.1389  0.8090  0.7858
  471MPD2    H7 7072   2.096   3.015  16.658  0.5643  0.0988 -1.1150
  472TMC3    C1 7073   2.020   2.949  16.444 -0.1323  0.0403  0.0726
  472TMC3    C2 7074   1.941   2.994  16.343  0.3975 -0.1048  0.6038
  472TMC3    C3 7075   1.976   2.953  16.212 -0.3793 -0.7447  0.2405
  472TMC3    C4 7076   2.123   2.861  16.422 -0.1068  0.7263 -0.7639
  472TMC3    C5 7077   2.139   2.813  16.296  0.5527 -0.0676 -0.0275
  472TMC3    C6 7078   2.075   2.862  16.190 -0.0427  0.3738 -0.6905
  472TMC3     C 7079   1.942   2.910  16.560 -0.2904  0.3122 -0.3529
  472TMC3     O 7080   1.831   2.867  16.539 -0.9886  0.8205 -0.5058
  472TMC3     H 7081   1.863   3.067  16.361  0.8187  1.0053 -2.1638
  472TMC3    H1 7082   2.191   2.826  16.500 -0.7076 -0.9548 -0.9923
  472TMC3    H2 7083   2.089   2.820  16.091 -1.4450  0.5321 -0.9570
  472TMC3    C7 7084   2.164   2.676  16.308  0.1946  0.5885  0.0245
  472TMC3    C8 7085   1.863   2.914  16.137 -0.2864 -0.0679 -0.5272
  472TMC3    O1 7086   2.139   2.620  16.411 -0.3141  0.4280 -0.1291
  472TMC3    O2 7087   1.874   2.929  16.018 -0.1925  0.0047 -0.4047
  473MPD2     C 7088   2.052   4.470  13.927  0.1620 -0.5553 -0.3685
  473MPD2    C1 7089   2.019   4.590  13.865  0.0676 -0.4765  0.6352
  473MPD2    C2 7090   2.028   4.705  13.939 -0.2093  0.0955 -0.3036
  473MPD2    C3 7091   2.082   4.708  14.070 -0.2128 -0.5752  0.0217
  473MPD2    C4 7092   2.128   4.592  14.118 -0.1285 -0.0671 -0.2775
  473MPD2    C5 7093   2.110   4.476  14.048 -0.0082  0.4689 -0.2519
  473MPD2     H 7094   2.018   0.052  13.872 -1.9142 -0.3434 -0.5889
  473MPD2    H1 7095   2.196   4.581  14.201  0.6534 -0.5566 -0.9858
  473MPD2    H2 7096   2.047   4.373  13.880  0.6058  0.1221 -1.8250
  473MPD2    H3 7097   2.145   4.383  14.090  0.5190  0.7598 -0.0498
  473MPD2     N 7098   2.126   0.095  14.126 -0.2288  0.2466  0.6022
  473MPD2    H5 7099   2.180   0.091  14.212 -0.9572 -0.8056  1.0118
  473MPD2    N1 7100   1.969   4.612  13.737  0.6609 -0.5458  0.6297
  473MPD2    H7 7101   1.946   4.710  13.723  0.9696 -0.8091 -1.8380
  474TMC3    C1 7102   2.125   0.336  14.134  0.2971  0.1532 -0.2851
  474TMC3    C2 7103   2.133   0.442  14.056  0.6377 -0.8685  0.2112
  474TMC3    C3 7104   2.177   0.559  14.099 -0.8052 -0.5159  0.5786
  474TMC3    C4 7105   2.141   0.341  14.271 -0.6966 -0.0329 -0.4546
  474TMC3    C5 7106   2.181   0.465  14.316  0.5778 -0.4132  0.6434
  474TMC3    C6 7107   2.198   0.571  14.234  0.0876 -0.3839 -0.3238
  474TMC3     C 7108   2.072   0.216  14.083  0.2993  0.3079  0.3649
  474TMC3     O 7109   1.979   0.233  14.008  0.4958 -0.6907 -0.6253
  474TMC3     H 7110   2.108   0.433  13.951  1.7759 -1.3079 -0.0232
  474TMC3    H1 7111   2.119   0.257  14.336 -0.3626 -1.4401 -2.1553
  474TMC3    H2 7112   2.237   0.665  14.274 -1.8774 -0.6879  2.2945
  474TMC3    C7 7113   2.243   0.459  14.442  0.5852  0.9914 -0.5468
  474TMC3    C8 7114   2.222   0.656  14.000 -0.8280  0.3514  0.1410
  474TMC3    O1 7115   2.239   0.349  14.498  0.5879 -0.8392 -0.3779
  474TMC3    O2 7116   2.239   0.602  13.888 -0.0515  0.7206  0.5878
  475MPD2     C 7117   4.594   3.113  10.873  0.3429 -0.2099 -0.1309
  475MPD2    C1 7118   4.601   3.223  10.952  0.0684 -0.2774  0.9253
  475MPD2    C2 7119   4.512   3.324  10.916  0.4745 -0.1530 -0.2421
  475MPD2    C3 7120   4.429   3.324  10.810  0.0773 -0.2147 -0.2179
  475MPD2    C4 7121   4.429   3.215  10.733 -0.1332  0.1396 -0.2355
  475MPD2    C5 7122   4.499   3.105  10.771 -0.4009 -0.0998  0.5154
  475MPD2     H 7123   4.507   3.415  10.975 -1.9757 -1.6029  1.7799
  475MPD2    H1 7124   4.374   3.191  10.643 -0.8621 -1.1263  0.5518
  475MPD2    H2 7125   4.660   3.028  10.883 -0.9671 -1.0757  1.2916
  475MPD2    H3 7126   4.486   3.014  10.715 -0.1910 -0.4891  1.1041
  475MPD2     N 7127   4.340   3.431  10.789  0.1008 -0.0935 -0.1806
  475MPD2    H5 7128   4.314   3.486  10.870  0.3767 -0.1531 -0.0487
  475MPD2    N1 7129   4.695   3.246  11.052 -0.1458 -0.4003 -0.0162
  475MPD2    H7 7130   4.713   3.343  11.075 -0.9302 -0.5650  1.3020
  476TMC3    C1 7131   0.170   3.184  11.133 -0.3119 -0.1263  0.4051
  476TMC3    C2 7132   0.244   3.172  11.018 -0.1028 -0.0410 -0.3063
  476TMC3    C3 7133   0.309   3.281  10.962 -0.5625 -0.0148 -0.0284
  476TMC3    C4 7134   0.191   3.295  11.208  0.1557  1.0534  0.0573
  476TMC3    C5 7135   0.268   3.397  11.163 -0.2424  0.6249  0.1559
  476TMC3    C6 7136   0.318   3.399  11.034 -0.5448  0.1073  1.1259
  476TMC3     C 7137   0.030   3.142  11.102 -0.1946 -0.0869 -0.0361
  476TMC3     O 7138   0.004   3.021  11.117 -0.0644  0.4495 -0.3039
  476TMC3     H 7139   0.220   3.084  10.960 -0.0518 -0.6740  0.6406
  476TMC3    H1 7140   0.143   3.298  11.305 -2.9410 -1.6876 -1.4111
  476TMC3    H2 7141   0.341   3.491  10.982 -1.3906  0.6754  1.7480
  476TMC3    C7 7142   0.278   3.513  11.253  0.4709 -0.4489 -0.1016
  476TMC3    C8 7143   0.275   3.298  10.821  0.1389  0.6492  0.0914
  476TMC3    O1 7144   0.201   3.527  11.346  0.2519 -0.2422  0.0664
  476TMC3    O2 7145   0.265   3.414  10.778 -0.3984  0.1299 -0.5411
  477MPD2     C 7146   2.390   4.514  12.022  0.4286 -0.0161 -0.1489
  477MPD2    C1 7147   2.480   4.503  11.922 -0.1164 -0.2159  0.0497
  477MPD2    C2 7148   2.597   4.437  11.949 -1.0824 -0.3235  0.5588
  477MPD2    C3 7149   2.631   4.387  12.075 -0.3137 -0.2123 -0.2590
  477MPD2    C4 7150   2.534   4.409  12.175 -0.4621 -0.9140  0.0596
  477MPD2    C5 7151   2.411   4.464  12.152  0.2507 -0.0483  0.5359
  477MPD2     H 7152   2.670   4.417  11.872 -0.2378 -2.1903  1.8221
  477MPD2    H1 7153   2.550   4.363  12.272  1.4102 -0.2878  0.0495
  477MPD2    H2 7154   2.297   4.567  12.006  0.5382  0.1589 -0.2033
  477MPD2    H3 7155   2.335   4.474  12.229  0.1202 -1.8644  0.6421
  477MPD2     N 7156   2.768   4.331  12.088 -0.1508 -0.5215 -0.1027
  477MPD2    H5 7157   2.822   4.346  12.003 -0.9565 -2.1508 -0.9164
  477MPD2    N1 7158   2.443   4.555  11.800  0.4249 -0.0146  0.3482
  477MPD2    H7 7159   2.368   4.622  11.800  0.1220 -0.3415  1.3744
  478TMC3    C1 7160   2.476   4.686  11.601 -0.2011  1.1478  0.6259
  478TMC3    C2 7161   2.412   0.051  11.657 -0.4234 -0.1533  0.6111
  478TMC3    C3 7162   2.430   0.180  11.604  0.4862 -0.5321 -0.1555
  478TMC3    C4 7163   2.569   4.696  11.507  0.2214  0.1944 -0.3018
  478TMC3    C5 7164   2.586   0.085  11.452  0.1146  0.0031 -0.5412
  478TMC3    C6 7165   2.518   0.198  11.500 -0.7558  0.1875  0.1540
  478TMC3     C 7166   2.514   4.575  11.689 -0.5608  0.3834 -0.5318
  478TMC3     O 7167   2.628   4.527  11.674  0.1998 -0.4771 -0.2995
  478TMC3     H 7168   2.376   0.053  11.759  0.7419  2.3312  0.9651
  478TMC3    H1 7169   2.621   4.611  11.465 -2.0950 -1.6792  0.6874
  478TMC3    H2 7170   2.543   0.294  11.457  0.9956  0.2822  1.3891
  478TMC3    C7 7171   2.653   0.093  11.327  0.3265 -0.0835  0.4130
  478TMC3    C8 7172   2.453   0.279  11.721  0.0100  0.4804  0.5156
  478TMC3    O1 7173   2.754   0.027  11.324 -0.3086 -0.5481  0.3244
  478TMC3    O2 7174   2.512   0.230  11.817 -0.2292  0.4702  0.0357
  479MPD2     C 7175   2.037   2.650  15.214 -0.3126  0.0924  0.1939
  479MPD2    C1 7176   1.971   2.586  15.310 -0.4255 -0.1973 -0.2117
  479MPD2    C2 7177   2.017   2.599  15.445 -0.5007  0.0443  0.3768
  479MPD2    C3 7178   2.116   2.690  15.477  0.1914 -0.0453 -0.1955
  479MPD2    C4 7179   2.184   2.749  15.372 -0.1942  1.3490 -0.7496
  479MPD2    C5 7180   2.142   2.725  15.245 -0.5667 -0.2272 -0.3357
  479MPD2     H 7181   1.966   2.539  15.519 -0.9964 -0.4656 -0.3837
  479MPD2    H1 7182   2.268   2.816  15.390  0.8919  0.1445 -1.2996
  479MPD2    H2 7183   2.006   2.642  15.110 -0.1507  2.5233 -0.0419
  479MPD2    H3 7184   2.193   2.770  15.162  1.3601 -0.9953  0.4301
  479MPD2     N 7185   2.151   2.739  15.606 -0.2950  0.4980 -0.1059
  479MPD2    H5 7186   2.242   2.784  15.612  0.1732 -0.6368  1.2772
  479MPD2    N1 7187   1.860   2.514  15.264 -0.6617 -0.1697 -0.0048
  479MPD2    H7 7188   1.839   2.524  15.165  0.0335 -0.9086 -0.2257
  480TMC3    C1 7189   1.772   2.580  15.837  0.4059  0.1662 -0.5080
  480TMC3    C2 7190   1.687   2.612  15.743 -0.1709  0.1350  0.3491
  480TMC3    C3 7191   1.730   2.705  15.654 -0.0212 -0.2356  0.7331
  480TMC3    C4 7192   1.903   2.609  15.826  0.0323 -0.6549  0.9899
  480TMC3    C5 7193   1.947   2.694  15.732  0.4579 -0.2432 -0.4264
  480TMC3    C6 7194   1.860   2.755  15.645  0.6592  0.0671 -0.2962
  480TMC3     C 7195   1.745   2.464  15.916  0.1021  0.6788 -0.0984
  480TMC3     O 7196   1.673   2.375  15.867  0.4157  0.2128  0.0231
  480TMC3     H 7197   1.588   2.568  15.732  0.5066 -1.1701 -0.4801
  480TMC3    H1 7198   1.972   2.555  15.891  0.0994  0.0736  1.5252
  480TMC3    H2 7199   1.892   2.833  15.577 -0.5516  0.8722  0.0685
  480TMC3    C7 7200   2.089   2.718  15.731  0.6505 -0.4968 -0.4313
  480TMC3    C8 7201   1.630   2.741  15.549 -0.2979  0.0847 -0.3249
  480TMC3    O1 7202   2.136   2.744  15.846  0.7020  0.2916  0.0036
  480TMC3    O2 7203   1.512   2.718  15.569 -0.2738 -0.0411  1.0302
  481MPD2     C 7204   3.727   2.010  14.223  0.1513 -0.0234 -0.0059
  481MPD2    C1 7205   3.629   1.911  14.246 -0.3571  0.4376 -0.3366
  481MPD2    C2 7206   3.627   1.851  14.375  0.2424 -0.5920 -0.3945
  481MPD2    C3 7207   3.721   1.888  14.472  0.0381 -0.1891  0.4915
  481MPD2    C4 7208   3.825   1.983  14.437 -0.5815 -0.9935 -1.2012
  481MPD2    C5 7209   3.821   2.044  14.312 -0.2509 -0.6168 -0.0142
  481MPD2     H 7210   3.548   1.783  14.404  0.0002  0.3712  1.2536
  481MPD2    H1 7211   3.902   2.013  14.507 -2.2178  1.0748 -0.2983
  481MPD2    H2 7212   3.733   2.059  14.127 -1.5353  1.4119  0.6294
  481MPD2    H3 7213   3.893   2.121  14.287 -0.5629 -0.0416  0.8709
  481MPD2     N 7214   3.728   1.839  14.607  0.0923  0.0036 -0.4201
  481MPD2    H5 7215   3.793   1.892  14.664  0.3325 -1.9695  1.1464
  481MPD2    N1 7216   3.525   1.891  14.155 -0.3192 -0.0776  0.0553
  481MPD2    H7 7217   3.531   1.957  14.079  1.0170  0.9182  1.0176
  482TMC3    C1 7218   3.337   1.798  14.035  0.0772  0.0054 -0.8863
  482TMC3    C2 7219   3.227   1.719  14.044  0.5186  0.0076  0.3634
  482TMC3    C3 7220   3.140   1.716  13.940  0.4684 -0.3145 -0.3882
  482TMC3    C4 7221   3.361   1.887  13.925  0.3888 -0.1753 -0.0185
  482TMC3    C5 7222   3.274   1.879  13.820 -0.1778 -0.1602  0.2159
  482TMC3    C6 7223   3.159   1.799  13.832 -0.1592 -0.2722  0.7107
  482TMC3     C 7224   3.423   1.790  14.153 -0.4863  0.0349  0.5202
  482TMC3     O 7225   3.401   1.698  14.226 -0.2977  0.1359 -0.2076
  482TMC3     H 7226   3.207   1.660  14.133  1.3275  0.3615  0.7725
  482TMC3    H1 7227   3.453   1.944  13.921  0.7217 -0.8113 -1.4521
  482TMC3    H2 7228   3.097   1.792  13.743 -2.2729  0.2960  2.1389
  482TMC3    C7 7229   3.343   1.869  13.695 -0.0064 -0.2652  0.0229
  482TMC3    C8 7230   3.026   1.615  13.942  0.4077 -0.2924  0.1611
  482TMC3    O1 7231   3.466   1.869  13.704  0.0946  0.1094 -0.0063
  482TMC3    O2 7232   3.032   1.524  14.023 -0.2742 -0.4802 -0.6638
  483TMC3    C1 7233   1.635   0.714   0.756 -0.0319 -0.3050 -0.2065
  483TMC3    C2 7234   1.697   0.777   0.645  0.3074 -0.5102 -0.1320
  483TMC3    C3 7235   1.790   0.702   0.582 -0.3800 -0.4946  0.1668
  483TMC3    C4 7236   1.665   0.584   0.797 -0.6079  0.5085 -0.5284
  483TMC3    C5 7237   1.770   0.522   0.737 -0.4711  0.2629  0.0487
  483TMC3    C6 7238   1.826   0.574   0.622 -0.3115 -0.0085  0.8766
  483TMC3     C 7239   1.551   0.799   0.839  0.7234 -0.0857 -0.0077
  483TMC3     O 7240   1.554   0.916   0.821  0.4532  0.2823  0.7164
  483TMC3     H 7241   1.684   0.884   0.629 -0.3098 -0.5395  0.1529
  483TMC3    H1 7242   1.617   0.543   0.885 -2.8018  2.0714 -0.9985
  483TMC3    H2 7243   1.917   0.531   0.582  0.3654 -0.0137  2.3863
  483TMC3    C7 7244   1.818   0.397   0.789  1.2058 -0.3127 -0.5411
  483TMC3    C8 7245   1.851   0.762   0.467 -0.0335 -0.4674  0.1801
  483TMC3    O1 7246   1.928   0.357   0.748 -0.0226  0.0598  0.1284
  483TMC3    O2 7247   1.786   0.845   0.406 -0.0880  0.5040  0.0521
  484MPD2     C 7248   3.712   3.954  12.735 -0.1794 -0.3350  0.6757
  484MPD2    C1 7249   3.781   3.844  12.776  0.0420  0.4205  0.2275
  484MPD2    C2 7250   3.913   3.830  12.737 -0.3723 -0.8607  0.3230
  484MPD2    C3 7251   3.975   3.938  12.673  0.1203 -0.0215 -0.4821
  484MPD2    C4 7252   3.902   4.045  12.625 -0.3004 -0.0590  0.5867
  484MPD2    C5 7253   3.771   4.049  12.659  0.6450 -0.2179  0.7953
  484MPD2     H 7254   3.964   3.737  12.758  1.2434 -0.0208  0.0734
  484MPD2    H1 7255   3.941   4.123  12.561 -2.6637  1.2123  0.7094
  484MPD2    H2 7256   3.611   3.967  12.772 -0.2365  0.6134  0.1975
  484MPD2    H3 7257   3.709   4.136  12.640  1.3040 -0.1884 -1.2027
  484MPD2     N 7258   4.108   3.928  12.624  0.4167  0.6088  0.2679
  484MPD2    H5 7259   4.143   3.997  12.559  0.6132  0.5042  0.2639
  484MPD2    N1 7260   3.709   3.748  12.843  0.2394 -0.1049 -0.2730
  484MPD2    H7 7261   3.611   3.769  12.859  0.6766  0.0874  2.1528
  485TMC3    C1 7262   4.333   3.858  12.597 -0.5191 -0.0093  0.2923
  485TMC3    C2 7263   4.443   3.802  12.653  0.5855 -0.5271 -0.3808
  485TMC3    C3 7264   4.568   3.816  12.598  0.2820 -0.1232  0.2998
  485TMC3    C4 7265   4.337   3.920  12.478  0.3285  0.9881 -0.5744
  485TMC3    C5 7266   4.463   3.934  12.420 -0.0230  0.2065 -0.6631
  485TMC3    C6 7267   4.573   3.890  12.482 -0.8306  0.6784 -0.8633
  485TMC3     C 7268   4.204   3.837  12.671  0.5653 -0.5802 -0.5350
  485TMC3     O 7269   4.208   3.759  12.769 -0.0606  0.0856  0.7384
  485TMC3     H 7270   4.435   3.751  12.749 -1.7920  0.8445  0.1492
  485TMC3    H1 7271   4.251   3.967  12.431 -1.2099  0.7984  2.0494
  485TMC3    H2 7272   4.666   3.878  12.428 -0.9890 -1.7329 -0.6193
  485TMC3    C7 7273   4.469   3.893  12.279  0.4376  0.1680  0.2740
  485TMC3    C8 7274   4.662   3.710  12.620 -1.3219  0.6189  0.4397
  485TMC3    O1 7275   4.575   3.892  12.223  0.1028  0.0291  0.9728
  485TMC3    O2 7276   4.613   3.600  12.645 -0.1721  0.1643  0.9545
  486MPD2     C 7277   1.674   2.277  13.095  0.5342  0.6488  0.8675
  486MPD2    C1 7278   1.553   2.224  13.058 -0.5400  0.5725  0.2441
  486MPD2    C2 7279   1.487   2.287  12.952  0.5893  0.3365 -0.6286
  486MPD2    C3 7280   1.527   2.409  12.899 -0.5594  0.0670 -0.0035
  486MPD2    C4 7281   1.652   2.462  12.939 -0.0176 -0.4503  0.0519
  486MPD2    C5 7282   1.719   2.396  13.038 -0.5431  0.0786  0.3474
  486MPD2     H 7283   1.399   2.239  12.911 -0.0206  1.7715 -0.9959
  486MPD2    H1 7284   1.690   2.554  12.897  0.8988  0.0673  2.0124
  486MPD2    H2 7285   1.724   2.236  13.182 -0.1305 -1.3203  0.3133
  486MPD2    H3 7286   1.800   2.444  13.092 -0.4346  0.3054 -0.0163
  486MPD2     N 7287   1.438   2.468  12.812  0.3166  0.2449  0.0346
  486MPD2    H5 7288   1.361   2.412  12.776  0.0591  2.2213 -2.4790
  486MPD2    N1 7289   1.506   2.105  13.125  0.5752 -0.5241 -0.6806
  486MPD2    H7 7290   1.575   2.073  13.192  1.0122 -1.5811 -1.6429
  487TMC3    C1 7291   1.390   1.900  13.173 -0.1216  0.1459  0.0725
  487TMC3    C2 7292   1.324   1.801  13.100  0.3561 -0.4745  0.6146
  487TMC3    C3 7293   1.330   1.680  13.161 -0.5979 -0.0042  0.2854
  487TMC3    C4 7294   1.475   1.876  13.284  0.2743  0.2936  0.6759
  487TMC3    C5 7295   1.495   1.748  13.319  0.3070 -0.1910 -0.0245
  487TMC3    C6 7296   1.419   1.650  13.265  0.5122  0.5117 -0.3842
  487TMC3     C 7297   1.387   2.038  13.115  0.0919 -0.4904 -0.5681
  487TMC3     O 7298   1.293   2.064  13.042 -0.1085 -0.0023 -0.1229
  487TMC3     H 7299   1.246   1.829  13.030  1.8483 -0.3125 -0.9837
  487TMC3    H1 7300   1.521   1.948  13.351 -2.7699  0.7938  2.2092
  487TMC3    H2 7301   1.396   1.556  13.313 -1.9202  0.8970 -0.8358
  487TMC3    C7 7302   1.547   1.730  13.456 -0.4301 -0.0351  0.2929
  487TMC3    C8 7303   1.195   1.630  13.193  0.0813  1.1505 -0.5575
  487TMC3    O1 7304   1.577   1.825  13.527  0.0120 -0.8452  0.4334
  487TMC3    O2 7305   1.175   1.610  13.312 -0.0384 -0.1867 -0.6903
  488MPD2     C 7306   1.878   3.849  16.486 -0.9080  0.2226  0.4220
  488MPD2    C1 7307   1.839   3.964  16.550  0.4648  0.0209 -0.0837
  488MPD2    C2 7308   1.812   3.958  16.684 -0.2180  0.7860  0.6096
  488MPD2    C3 7309   1.826   3.840  16.754 -0.3945  0.4282 -0.0471
  488MPD2    C4 7310   1.863   3.724  16.691 -0.5709  0.2507  0.6895
  488MPD2    C5 7311   1.892   3.730  16.554 -0.1825 -0.0363 -0.5084
  488MPD2     H 7312   1.784   4.045  16.742 -1.3806  1.6455 -1.2337
  488MPD2    H1 7313   1.885   3.627  16.734  2.4881  0.4520 -0.4876
  488MPD2    H2 7314   1.893   3.843  16.378 -1.1515  1.3405  0.3256
  488MPD2    H3 7315   1.923   3.636  16.511  0.3101  0.4327 -1.1860
  488MPD2     N 7316   1.809   3.849  16.890  0.2969  0.0799 -0.3196
  488MPD2    H5 7317   1.780   3.940  16.923 -1.0342 -0.4402 -0.0525
  488MPD2    N1 7318   1.824   4.093  16.487  0.2069 -0.1575 -0.8898
  488MPD2    H7 7319   1.805   4.169  16.551 -1.7266 -1.6124  0.2771
  489TMC3    C1 7320   1.837   3.808  17.118  0.0555 -0.3665 -0.7169
  489TMC3    C2 7321   1.874   3.938  17.136 -0.0785  0.3599  0.2172
  489TMC3    C3 7322   1.876   3.996  17.266  0.9557 -0.4586  0.1406
  489TMC3    C4 7323   1.791   3.733  17.223  0.4716 -0.2251 -0.6833
  489TMC3    C5 7324   1.786   3.791  17.350 -0.3727  0.3315 -0.2594
  489TMC3    C6 7325   1.831   3.919  17.375 -0.8519 -0.4360 -0.1922
  489TMC3     C 7326   1.823   3.753  16.984 -0.1341 -0.3315  0.4741
  489TMC3     O 7327   1.827   3.632  16.969  0.1477  0.4266 -0.4024
  489TMC3     H 7328   1.926   3.989  17.055 -0.6263 -2.5533 -1.9879
  489TMC3    H1 7329   1.772   3.627  17.207 -0.0160 -0.7619  3.3051
  489TMC3    H2 7330   1.832   3.951  17.479  1.8466  0.9746 -0.6339
  489TMC3    C7 7331   1.688   3.740  17.449 -0.5863 -0.8226  0.1549
  489TMC3    C8 7332   1.855   4.138  17.264  0.0050 -0.8886 -0.0515
  489TMC3    O1 7333   1.715   3.762  17.565 -0.3044 -0.4158  0.4838
  489TMC3    O2 7334   1.887   4.189  17.158  0.5103 -0.4692  0.1820
  490MPD2     C 7335   2.560   3.216  17.714 -0.3383  0.7903 -0.0225
  490MPD2    C1 7336   2.481   3.319  17.744 -0.0703 -0.1492  0.5263
  490MPD2    C2 7337   2.532   3.435   0.051  0.3550  0.1509  0.2507
  490MPD2    C3 7338   2.673   3.449   0.063  0.3903 -0.7457  0.5422
  490MPD2    C4 7339   2.751   3.344   0.037 -0.2206 -0.5588  0.2559
  490MPD2    C5 7340   2.695   3.227  17.741 -0.6316 -0.1447 -0.1736
  490MPD2     H 7341   2.464   3.511   0.089  0.9365  0.9909 -0.3978
  490MPD2    H1 7342   2.858   3.357   0.048 -0.1482 -1.7876  1.0266
  490MPD2    H2 7343   2.525   3.118  17.683 -1.9141  0.9995  1.0881
  490MPD2    H3 7344   2.754   3.140  17.716 -1.2020 -0.2926 -1.0317
  490MPD2     N 7345   2.737   3.575   0.081 -0.0767 -0.7774 -0.1161
  490MPD2    H5 7346   2.838   3.575   0.071  0.1419  1.6987  2.0806
  490MPD2    N1 7347   2.338   3.313  17.727  0.2307  0.0593 -0.8761
  490MPD2    H7 7348   2.277   3.383   0.019  0.7163  0.2095 -0.4103
  491TMC3    C1 7349   2.137   3.209  17.679  0.2303  0.6092  0.3086
  491TMC3    C2 7350   2.090   3.214   0.057  0.3303  0.6226  0.0769
  491TMC3    C3 7351   1.978   3.147   0.094  0.4059  0.4924  0.8487
  491TMC3    C4 7352   2.065   3.141  17.588  0.0524 -0.4602 -0.0708
  491TMC3    C5 7353   1.956   3.068  17.625 -0.7881  0.2244  0.4415
  491TMC3    C6 7354   1.916   3.060   0.008 -0.6265  0.4648  0.2204
  491TMC3     C 7355   2.281   3.215  17.656  0.5560 -0.3609  0.1649
  491TMC3     O 7356   2.320   3.146  17.562  0.0834 -0.4256  0.1286
  491TMC3     H 7357   2.138   3.265   0.140  0.6423  3.0691 -1.6185
  491TMC3    H1 7358   2.083   3.144  17.481  1.5361 -0.8088  0.1651
  491TMC3    H2 7359   1.829   3.009   0.047 -1.8845  0.3657 -2.6841
  491TMC3    C7 7360   1.884   2.988  17.525  0.1587  0.1149 -0.2565
  491TMC3    C8 7361   1.944   3.154   0.234 -0.3400  0.2582 -0.7220
  491TMC3    O1 7362   1.942   2.988  17.420  0.6423 -0.1202  0.0981
  491TMC3    O2 7363   1.994   3.249   0.297 -0.2488 -0.6889 -0.5622
  492MPD2     C 7364   2.491   3.973  11.030  0.0382  0.3411  0.0926
  492MPD2    C1 7365   2.434   3.860  10.995 -0.1194  0.2247 -0.0420
  492MPD2    C2 7366   2.371   3.779  11.093  0.7644 -0.3366 -0.2476
  492MPD2    C3 7367   2.395   3.801  11.228 -0.2229  0.1118  0.5332
  492MPD2    C4 7368   2.462   3.912  11.261  0.4858 -0.3274  0.6633
  492MPD2    C5 7369   2.511   3.996  11.166 -0.1675  0.0121 -0.1547
  492MPD2     H 7370   2.331   3.685  11.056 -1.1628  0.0304  0.8713
  492MPD2    H1 7371   2.485   3.928  11.366 -0.8601  4.7796  0.1765
  492MPD2    H2 7372   2.541   4.043  10.964  2.4809 -0.3006  1.2324
  492MPD2    H3 7373   2.562   4.088  11.193 -0.7702 -0.1780  1.6098
  492MPD2     N 7374   2.342   3.712  11.321  0.8177  0.0010  0.8304
  492MPD2    H5 7375   2.372   3.745  11.413 -1.7372 -0.1393  1.7343
  492MPD2    N1 7376   2.439   3.830  10.856  0.7914  0.0004  0.2298
  492MPD2    H7 7377   2.481   3.898  10.794  0.3340 -1.5009 -1.7257
  493TMC3    C1 7378   2.418   3.689  10.658 -0.6791  0.1594  0.5705
  493TMC3    C2 7379   2.427   3.790  10.569 -0.7878 -0.7560 -0.1812
  493TMC3    C3 7380   2.389   3.767  10.439  0.8701  0.0904 -0.3618
  493TMC3    C4 7381   2.376   3.565  10.610  0.3710  0.9961  0.1711
  493TMC3    C5 7382   2.354   3.538  10.478 -0.0967  0.0817 -0.3203
  493TMC3    C6 7383   2.362   3.641  10.384  0.0528 -0.3976  0.0948
  493TMC3     C 7384   2.384   3.716  10.802  0.2734 -0.0549 -0.2179
  493TMC3     O 7385   2.310   3.630  10.845 -0.3735  0.0179 -0.2971
  493TMC3     H 7386   2.448   3.890  10.605 -0.1333 -0.6783 -0.7667
  493TMC3    H1 7387   2.368   3.485  10.682  0.9312  1.4545  0.7412
  493TMC3    H2 7388   2.348   3.625  10.278 -1.6631  2.2991 -0.0818
  493TMC3    C7 7389   2.306   3.410  10.426 -0.3985 -0.0658  0.3970
  493TMC3    C8 7390   2.362   3.884  10.358 -0.1814 -0.1076  0.5712
  493TMC3    O1 7391   2.263   3.408  10.313  0.1638  0.3806 -0.5235
  493TMC3    O2 7392   2.282   3.875  10.266  0.2087  0.0514 -1.1743
  494TMC3    C1 7393   2.982   0.908   0.259 -0.1508  0.2115  0.1393
  494TMC3    C2 7394   2.927   0.784   0.254 -0.4454  0.5745 -0.6993
  494TMC3    C3 7395   2.938   0.716   0.131 -0.3896  0.3656  0.0395
  494TMC3    C4 7396   3.035   0.966   0.145 -0.2607  0.3624 -1.1586
  494TMC3    C5 7397   3.051   0.892   0.032  0.4191  0.1710 -0.0304
  494TMC3    C6 7398   2.992   0.773   0.015  0.0154  0.0209 -0.6693
  494TMC3     C 7399   3.018   0.980   0.386 -0.0129 -0.2502  0.8563
  494TMC3     O 7400   3.030   1.103   0.390  0.1807  0.6525  0.3218
  494TMC3     H 7401   2.879   0.745   0.343 -0.6649  5.1279  1.2212
  494TMC3    H1 7402   3.087   1.060   0.157 -0.5367 -0.1887  4.4281
  494TMC3    H2 7403   3.002   0.707  17.680  2.7348  0.9499 -1.0543
  494TMC3    C7 7404   3.116   0.952  17.664  0.0140  0.0530  1.0680
  494TMC3    C8 7405   2.963   0.576   0.154 -0.2587 -0.3114  0.0662
  494TMC3    O1 7406   3.073   0.908  17.558  0.0430 -0.3909 -0.0631
  494TMC3    O2 7407   3.009   0.545   0.264 -0.0049 -0.3220  0.2192
  495TMC3    C1 7408   2.124   2.739  14.790 -0.6770  0.3566 -0.7728
  495TMC3    C2 7409   2.036   2.701  14.703  1.0806 -0.1254 -0.5575
  495TMC3    C3 7410   1.919   2.759  14.665 -0.1744  0.0456 -0.2889
  495TMC3    C4 7411   2.092   2.856  14.860  0.3700  0.2515 -0.3022
  495TMC3    C5 7412   1.964   2.907  14.836  0.6828  0.2393 -0.0359
  495TMC3    C6 7413   1.886   2.867  14.736  0.6352 -0.2463 -0.0002
  495TMC3     C 7414   2.181   2.643  14.879  0.4036 -0.4929  0.1690
  495TMC3     O 7415   2.282   2.675  14.942  0.3988 -0.0609  0.0616
  495TMC3     H 7416   2.056   2.610  14.647  0.2488 -1.1924  0.8921
  495TMC3    H1 7417   2.151   2.895  14.942  0.7121  0.2865 -0.5600
  495TMC3    H2 7418   1.792   2.916  14.714  1.0166  1.4709  2.1210
  495TMC3    C7 7419   1.901   2.942  14.965  0.2986 -0.3965  0.0042
  495TMC3    C8 7420   1.800   2.681  14.646  0.6043 -0.8733 -0.6494
  495TMC3    O1 7421   1.967   2.965  15.061  0.5100 -0.1146  0.2709
  495TMC3    O2 7422   1.719   2.692  14.732  0.4043  0.4890 -0.4243
  496MPD2     C 7423   3.572   2.769  15.145 -0.1251  0.0271 -1.1751
  496MPD2    C1 7424   3.657   2.740  15.251  0.3808 -0.3710 -0.3213
  496MPD2    C2 7425   3.609   2.649  15.343 -0.4326 -0.0613  0.1832
  496MPD2    C3 7426   3.477   2.595  15.343 -0.1714  0.1621 -0.2422
  496MPD2    C4 7427   3.403   2.623  15.226 -0.0717  0.3320 -0.0412
  496MPD2    C5 7428   3.449   2.706  15.130  0.0147 -0.4450 -0.5042
  496MPD2     H 7429   3.686   2.600  15.402  0.0208 -0.9969 -1.1943
  496MPD2    H1 7430   3.302   2.589  15.207 -0.6364  1.6120  0.6171
  496MPD2    H2 7431   3.596   2.843  15.070  0.3569 -0.7161 -1.7491
  496MPD2    H3 7432   3.391   2.721  15.039  0.9921  0.7022 -0.9388
  496MPD2     N 7433   3.437   2.504  15.444  0.5365  1.0867  0.3688
  496MPD2    H5 7434   3.344   2.468  15.428  1.2892 -0.8039  0.2751
  496MPD2    N1 7435   3.793   2.791  15.240  0.7737  0.1155  0.0465
  496MPD2    H7 7436   3.813   2.838  15.152  0.7690 -1.6914 -0.9015
  497TMC3    C1 7437   3.453   2.339  15.614  0.1683  0.1937  0.6546
  497TMC3    C2 7438   3.377   2.255  15.545  0.2333 -0.8338  0.3782
  497TMC3    C3 7439   3.365   2.127  15.588 -0.0829 -0.4309 -0.4095
  497TMC3    C4 7440   3.522   2.298  15.725 -0.4138  0.7985  0.1588
  497TMC3    C5 7441   3.499   2.172  15.778  0.5653  0.4911 -0.4595
  497TMC3    C6 7442   3.424   2.084  15.707  0.1047  0.7160 -0.6206
  497TMC3     C 7443   3.510   2.460  15.550 -0.1453  0.2385 -0.5072
  497TMC3     O 7444   3.615   2.505  15.597 -0.3671 -0.0311 -0.0363
  497TMC3     H 7445   3.354   2.283  15.443 -0.9489  1.8655  1.4120
  497TMC3    H1 7446   3.585   2.376  15.767 -0.5194  0.2772  1.2665
  497TMC3    H2 7447   3.436   1.979  15.730  0.1676  1.0467  0.8824
  497TMC3    C7 7448   3.537   2.128  15.910 -0.1127  0.9551 -0.0631
  497TMC3    C8 7449   3.279   2.037  15.509  0.5265 -0.6851  0.1536
  497TMC3    O1 7450   3.465   2.039  15.956 -0.4644  0.3421  0.6716
  497TMC3    O2 7451   3.230   2.085  15.410  0.1582  0.5999  0.0752
  498MPD2     C 7452   4.617   3.022   9.558  0.5096 -0.4935  0.0644
  498MPD2    C1 7453   4.638   3.020   9.696  0.2925  0.3378 -0.0426
  498MPD2    C2 7454   4.637   2.893   9.760  0.0662 -0.3299  0.3466
  498MPD2    C3 7455   4.606   2.782   9.684  0.1883  0.2931 -0.1233
  498MPD2    C4 7456   4.579   2.785   9.548  0.4776 -1.0556  0.2705
  498MPD2    C5 7457   4.588   2.906   9.486  0.5763 -0.0907  0.0517
  498MPD2     H 7458   4.646   2.887   9.867  0.5776  0.3755  0.3456
  498MPD2    H1 7459   4.560   2.693   9.493 -0.9128  0.5894 -1.9827
  498MPD2    H2 7460   4.616   3.117   9.506  1.3526 -2.0562 -2.7837
  498MPD2    H3 7461   4.572   2.915   9.379 -1.4161  2.0783  0.5356
  498MPD2     N 7462   4.602   2.656   9.755 -0.0766  0.0646  0.6158
  498MPD2    H5 7463   4.622   2.666   9.854  0.4825  1.1010  0.3943
  498MPD2    N1 7464   4.660   3.135   9.775 -0.6099  0.3765 -0.4582
  498MPD2    H7 7465   4.685   3.121   9.873  0.1390  2.6428 -0.3164
  499TMC3    C1 7466   4.685   3.359   9.839  0.1623  0.6565 -0.3707
  499TMC3    C2 7467   0.042   3.319   9.932 -0.5282 -0.2650  0.6202
  499TMC3    C3 7468   0.088   3.414  10.021  0.5540 -0.4321  0.2758
  499TMC3    C4 7469   4.628   3.488   9.831 -0.2581 -0.6898 -0.2773
  499TMC3    C5 7470   4.674   3.575   9.928  0.4282  0.5121  0.2625
  499TMC3    C6 7471   0.036   3.537  10.018 -0.1023  0.0031  0.1781
  499TMC3     C 7472   4.648   3.263   9.730 -0.0633 -0.2555  0.4241
  499TMC3     O 7473   4.595   3.303   9.631  0.1848 -0.0432 -0.0642
  499TMC3     H 7474   0.064   3.213   9.941  1.3296  0.0273 -0.4650
  499TMC3    H1 7475   4.555   3.523   9.760  1.5744  1.9336 -0.8826
  499TMC3    H2 7476   0.083   3.604  10.090 -0.3517  2.1193 -1.6212
  499TMC3    C7 7477   4.662   3.715   9.890  0.2471 -0.8377 -0.3827
  499TMC3    C8 7478   0.199   3.390  10.108 -0.4521  0.3447 -0.6810
  499TMC3    O1 7479   4.632   3.732   9.769  0.4444 -0.0642 -0.0236
  499TMC3    O2 7480   0.240   3.485  10.174  0.0260  0.2792  0.1893
  500MPD2     C 7481   1.278   4.628  10.683 -0.1170 -0.0459 -0.1883
  500MPD2    C1 7482   1.340   4.626  10.559  0.4210  0.1720  0.1362
  500MPD2    C2 7483   1.272   4.611  10.437  0.1751 -0.0625 -0.2661
  500MPD2    C3 7484   1.140   4.574  10.445  0.5210  1.4020  0.2856
  500MPD2    C4 7485   1.075   4.580  10.564 -0.1873  0.0779  0.2871
  500MPD2    C5 7486   1.146   4.605  10.679 -0.3660  0.2357 -0.2038
  500MPD2     H 7487   1.330   4.612  10.345 -0.9646 -0.3757 -0.9870
  500MPD2    H1 7488   0.971   4.553  10.571 -0.2371  0.3419  0.5414
  500MPD2    H2 7489   1.332   4.638  10.777  0.0222 -1.0725 -0.1613
  500MPD2    H3 7490   1.092   4.598  10.773  0.2014  0.6076  0.1475
  500MPD2     N 7491   1.068   4.512  10.343  0.5826  0.1304  0.4842
  500MPD2    H5 7492   0.977   4.468  10.357  0.1540  1.6126  2.3579
  500MPD2    N1 7493   1.479   4.651  10.548  0.0650 -0.3348 -0.4557
  500MPD2    H7 7494   1.506   4.679  10.454 -0.9769  0.0046 -0.6576
  501TMC3    C1 7495   1.700   4.693  10.644 -0.1873 -0.6923  0.2513
  501TMC3    C2 7496   1.744   0.003  10.523 -0.4177  0.3610 -0.1632
  501TMC3    C3 7497   1.878   0.024  10.512  0.5850 -0.0275 -0.4308
  501TMC3    C4 7498   1.781   4.675  10.750 -0.1731  0.2366 -0.2140
  501TMC3    C5 7499   1.920   4.690  10.730 -0.0045 -0.0285 -0.3075
  501TMC3    C6 7500   1.971   0.004  10.609 -0.1041 -0.1607 -0.2450
  501TMC3     C 7501   1.565   4.640  10.660  0.7812 -0.1292  0.0055
  501TMC3     O 7502   1.550   4.593  10.769 -0.5104  0.5634  0.2176
  501TMC3     H 7503   1.686   0.010  10.432 -1.0544  1.4803  0.3344
  501TMC3    H1 7504   1.748   4.632  10.844 -0.9493  1.9025  0.2736
  501TMC3    H2 7505   2.077   0.001  10.583  0.0077 -1.9516  0.3922
  501TMC3    C7 7506   2.005   4.603  10.811 -0.4231 -0.3333  0.4038
  501TMC3    C8 7507   1.916   0.135  10.420  0.1558  0.2087 -0.1890
  501TMC3    O1 7508   1.950   4.530  10.887 -0.2430  0.2133  0.1968
  501TMC3    O2 7509   1.879   0.120  10.303  0.5960  0.9111  0.0110
  502TMC3    C1 7510   1.339   3.611  15.073 -0.1584 -0.0630 -0.0201
  502TMC3    C2 7511   1.315   3.689  14.964  0.6622 -0.2048  0.3867
  502TMC3    C3 7512   1.185   3.693  14.921 -0.0538 -0.0078 -0.0021
  502TMC3    C4 7513   1.243   3.524  15.120 -0.8968 -0.4447 -0.1261
  502TMC3    C5 7514   1.118   3.530  15.078 -0.0620  0.0202  0.0208
  502TMC3    C6 7515   1.086   3.615  14.975 -0.0058  0.1592  0.3171
  502TMC3     C 7516   1.472   3.600  15.117  0.4283 -0.4802 -0.3879
  502TMC3     O 7517   1.565   3.644  15.047 -0.3223 -0.2399  0.1240
  502TMC3     H 7518   1.387   3.768  14.945  0.2645  0.1006  0.1647
  502TMC3    H1 7519   1.265   3.440  15.185 -0.3507  0.4953  0.8885
  502TMC3    H2 7520   0.983   3.618  14.941 -0.4520 -0.7591  1.6301
  502TMC3    C7 7521   1.022   3.425  15.118 -0.4095  0.2593  0.4735
  502TMC3    C8 7522   1.146   3.821  14.867 -0.2849 -0.4205  0.2605
  502TMC3    O1 7523   1.065   3.319  15.159 -0.6924  0.5137 -0.0546
  502TMC3    O2 7524   1.211   3.918  14.900 -0.4468 -0.3207 -0.3811
  503MPD2     C 7525   3.126   4.372  16.722 -0.1779 -0.3260 -0.1680
  503MPD2    C1 7526   3.170   4.450  16.822 -0.1415  0.7300  0.1126
  503MPD2    C2 7527   3.248   4.398  16.921 -0.2841  0.1314  0.0946
  503MPD2    C3 7528   3.308   4.268  16.917  0.6982 -0.3662  0.0206
  503MPD2    C4 7529   3.263   4.186  16.808 -0.2883  0.2957 -0.2619
  503MPD2    C5 7530   3.176   4.240  16.714  0.2080  0.2769  0.3302
  503MPD2     H 7531   3.269   4.458  17.008 -1.1957 -0.9387  1.0449
  503MPD2    H1 7532   3.302   4.086  16.792  0.1105  0.2179  1.1967
  503MPD2    H2 7533   3.069   4.418  16.642 -0.7517  1.9980  1.5715
  503MPD2    H3 7534   3.132   4.177  16.637  1.2490  0.0872 -0.1003
  503MPD2     N 7535   3.408   4.236  17.009  0.2038  0.5924  0.0631
  503MPD2    H5 7536   3.426   4.302  17.084 -1.1382  0.8438  0.1672
  503MPD2    N1 7537   3.140   4.588  16.828 -0.4833 -0.0697  0.2132
  503MPD2    H7 7538   3.183   4.644  16.901 -1.0283 -2.9968  2.7807
  504TMC3    C1 7539   3.586   4.112  17.093  0.0933  0.4132 -0.5974
  504TMC3    C2 7540   3.562   4.170  17.215  0.3313  0.2486  0.1074
  504TMC3    C3 7541   3.663   4.186  17.309  0.0902  0.0460 -0.3318
  504TMC3    C4 7542   3.701   4.041  17.070 -0.4418 -0.0168  0.2255
  504TMC3    C5 7543   3.804   4.068  17.168  0.1799 -0.1666  0.1960
  504TMC3    C6 7544   3.783   4.141  17.283 -0.6038  0.1557  0.4174
  504TMC3     C 7545   3.484   4.123  16.993 -0.4984 -0.6550  0.5021
  504TMC3     O 7546   3.504   4.052  16.892  0.0570 -0.1228 -0.6677
  504TMC3     H 7547   3.464   4.211  17.235  0.0947 -0.0548 -0.4084
  504TMC3    H1 7548   3.722   3.981  16.982 -1.5635 -0.1011  0.0231
  504TMC3    H2 7549   3.861   4.172  17.351  2.3340 -2.2626 -1.8424
  504TMC3    C7 7550   3.936   4.016  17.139  0.3212  1.0479  0.4212
  504TMC3    C8 7551   3.624   4.244  17.434  0.0641 -0.8145 -0.3130
  504TMC3    O1 7552   3.950   3.968  17.024  0.4056 -0.3043  0.2849
  504TMC3    O2 7553   3.531   4.319  17.419 -0.7772  0.2547 -0.3918
  505MPD2     C 7554   3.644   2.580  10.662 -0.0584  0.3938 -0.2852
  505MPD2    C1 7555   3.688   2.452  10.690 -0.3249  0.6983 -0.3341
  505MPD2    C2 7556   3.802   2.438  10.770 -0.6550 -0.1617  0.6267
  505MPD2    C3 7557   3.861   2.546  10.826  0.0497 -0.4371  0.1944
  505MPD2    C4 7558   3.807   2.673  10.799  0.6938 -0.3082  0.4091
  505MPD2    C5 7559   3.700   2.686  10.714  0.1658  0.2039  0.2866
  505MPD2     H 7560   3.844   2.340  10.790 -2.8126 -1.1215  0.4642
  505MPD2    H1 7561   3.848   2.765  10.840 -0.9216  0.3371  0.5586
  505MPD2    H2 7562   3.570   2.604  10.587 -1.5516 -1.5770  0.5528
  505MPD2    H3 7563   3.660   2.785  10.693  0.6551  0.0681 -1.2608
  505MPD2     N 7564   3.984   2.523  10.895 -0.5356 -0.4528 -0.0599
  505MPD2    H5 7565   4.019   2.428  10.886  1.4680  0.3619 -0.9096
  505MPD2    N1 7566   3.627   2.347  10.621 -0.7270 -0.2285  0.1355
  505MPD2    H7 7567   3.549   2.362  10.557  1.0390  1.0134 -1.7028
  506TMC3    C1 7568   3.613   2.130  10.541  0.8608  0.1227 -0.0855
  506TMC3    C2 7569   3.659   2.171  10.418 -0.6675 -0.4480 -0.5664
  506TMC3    C3 7570   3.701   2.069  10.339  0.6117  0.4310 -0.4497
  506TMC3    C4 7571   3.618   1.996  10.580 -0.1922 -0.7289  0.1077
  506TMC3    C5 7572   3.683   1.903  10.507 -0.5319  0.4090 -0.3096
  506TMC3    C6 7573   3.714   1.936  10.383  0.1034  0.2947  0.1313
  506TMC3     C 7574   3.660   2.217  10.652 -0.1899 -0.4227 -1.2469
  506TMC3     O 7575   3.719   2.159  10.743  0.2610  0.4324  0.0345
  506TMC3     H 7576   3.655   2.273  10.381  1.1759 -0.4592 -0.8219
  506TMC3    H1 7577   3.584   1.977  10.681 -1.9472  0.3833 -0.2796
  506TMC3    H2 7578   3.760   1.860  10.320 -1.5443  0.0535 -0.7739
  506TMC3    C7 7579   3.777   1.825  10.582  0.0766 -0.2150  0.1272
  506TMC3    C8 7580   3.786   2.111  10.233 -0.9564  0.1901 -0.9138
  506TMC3    O1 7581   3.829   1.729  10.528 -0.3935 -0.7871 -0.4694
  506TMC3    O2 7582   3.830   2.225  10.239  0.7778 -0.0167  0.1998
  507TMC3    C1 7583   4.604   3.396  14.272 -0.5821 -0.0962  0.0241
  507TMC3    C2 7584   4.547   3.273  14.245 -0.0366 -0.4832 -0.0401
  507TMC3    C3 7585   4.484   3.254  14.127 -0.0408  0.0135 -0.0459
  507TMC3    C4 7586   4.602   3.490  14.168  0.6438  0.4352  0.2123
  507TMC3    C5 7587   4.547   3.464  14.046  0.4233 -0.5008  0.0774
  507TMC3    C6 7588   4.496   3.339  14.025 -0.7249  0.7611 -0.3729
  507TMC3     C 7589   4.579   3.455  14.397 -0.2751 -0.8098  0.4410
  507TMC3     O 7590   4.484   3.399  14.452 -0.2140  0.0672  0.1717
  507TMC3     H 7591   4.555   3.199  14.324  0.8206  0.1641  0.4912
  507TMC3    H1 7592   4.612   3.596  14.189  0.7258  0.4010  0.3432
  507TMC3    H2 7593   4.452   3.305  13.932 -0.4804  0.0125 -0.2156
  507TMC3    C7 7594   4.449   3.560  13.997  0.3104  0.0184 -0.1007
  507TMC3    C8 7595   4.345   3.206  14.140 -0.3932  0.8371 -0.0612
  507TMC3    O1 7596   4.343   3.507  13.962  0.1484  0.1245 -0.3448
  507TMC3    O2 7597   4.330   3.094  14.185 -0.2291  0.2487 -0.1560
  508MPD2     C 7598   0.501   1.199  16.295  0.2443  0.3146  0.1130
  508MPD2    C1 7599   0.446   1.323  16.292  0.1964  0.4692 -0.4784
  508MPD2    C2 7600   0.388   1.364  16.165 -0.7725 -0.5499  0.1577
  508MPD2    C3 7601   0.379   1.272  16.065 -0.4708 -0.3406 -0.4061
  508MPD2    C4 7602   0.426   1.138  16.083  0.6160 -0.2373  0.0273
  508MPD2    C5 7603   0.483   1.101  16.202  0.4345  1.1375 -0.2223
  508MPD2     H 7604   0.367   1.469  16.147  0.8406 -0.0398  1.2479
  508MPD2    H1 7605   0.410   1.059  16.011 -0.5571  0.5124 -0.5461
  508MPD2    H2 7606   0.561   1.178  16.383  2.1946 -0.3193 -1.3391
  508MPD2    H3 7607   0.525   1.002  16.212 -1.6890  0.3226  0.7795
  508MPD2     N 7608   0.329   1.322  15.939 -0.0537 -0.2620 -0.1529
  508MPD2    H5 7609   0.302   1.420  15.937  0.7957  0.0152  2.1312
  508MPD2    N1 7610   0.472   1.407  16.402 -0.3733  0.6361  0.7692
  508MPD2    H7 7611   0.507   1.366  16.488  1.2784  1.7050  0.6247
  509TMC3    C1 7612   0.322   1.512  15.583  0.1545 -0.5936  0.2070
  509TMC3    C2 7613   0.426   1.479  15.499  0.3541  0.7998  0.4205
  509TMC3    C3 7614   0.494   1.364  15.525 -0.2261  0.6582  0.4749
  509TMC3    C4 7615   0.283   1.434  15.684 -0.2867  0.4363 -0.0585
  509TMC3    C5 7616   0.339   1.309  15.697 -0.1599 -0.2037  0.4977
  509TMC3    C6 7617   0.452   1.281  15.625 -0.3659 -0.0217 -0.7112
  509TMC3     C 7618   0.229   1.621  15.544 -0.2653 -0.1934 -0.5453
  509TMC3     O 7619   0.127   1.647  15.609 -0.2942  0.0347  1.0036
  509TMC3     H 7620   0.441   1.523  15.401 -3.5048  0.3621 -0.3919
  509TMC3    H1 7621   0.191   1.464  15.734 -0.3755  0.2139 -0.0921
  509TMC3    H2 7622   0.522   1.200  15.643  0.4930  0.4639 -1.8607
  509TMC3    C7 7623   0.326   1.240  15.822  0.2810 -1.0765 -0.0063
  509TMC3    C8 7624   0.639   1.391  15.534  0.5442  0.4739 -0.3284
  509TMC3    O1 7625   0.360   1.122  15.806  0.8696  0.0131 -0.3692
  509TMC3    O2 7626   0.712   1.297  15.564 -0.2961  0.3785 -0.1987
  510MPD2     C 7627   3.244   2.658  14.283  0.8472 -0.4573 -0.1758
  510MPD2    C1 7628   3.302   2.614  14.395 -0.1238  0.4377 -0.5196
  510MPD2    C2 7629   3.445   2.620  14.404  0.1310  0.7133  0.5559
  510MPD2    C3 7630   3.521   2.693  14.316 -0.1729  0.4189  0.5285
  510MPD2    C4 7631   3.451   2.741  14.206  0.0477  0.3626  0.3672
  510MPD2    C5 7632   3.317   2.722  14.188  0.4633 -0.2860  0.5246
  510MPD2     H 7633   3.498   2.571  14.485  2.3799  2.3316  0.0365
  510MPD2    H1 7634   3.507   2.795  14.130 -0.4492  1.5892  0.8634
  510MPD2    H2 7635   3.138   2.648  14.262  0.8395  0.8375 -0.7733
  510MPD2    H3 7636   3.277   2.775  14.103  1.4735 -0.0638  0.1868
  510MPD2     N 7637   3.662   2.700  14.337 -0.0860 -0.4715 -0.2209
  510MPD2    H5 7638   3.702   2.639  14.408  0.9922 -0.0791 -0.4856
  510MPD2    N1 7639   3.217   2.559  14.488  0.0178 -0.1759 -0.0996
  510MPD2    H7 7640   3.118   2.550  14.468 -0.3982  0.0144  1.8895
  511TMC3    C1 7641   3.157   2.440  14.679  0.0730 -0.5730 -0.0603
  511TMC3    C2 7642   3.173   2.424  14.815  0.3632 -0.2761  0.1554
  511TMC3    C3 7643   3.080   2.365  14.891  0.3117 -0.0164  0.2361
  511TMC3    C4 7644   3.063   2.363  14.614  0.0611  0.1614  1.4752
  511TMC3    C5 7645   2.969   2.300  14.691  0.1568  0.4134 -1.0733
  511TMC3    C6 7646   2.975   2.295  14.831 -1.2414 -0.6397 -0.0545
  511TMC3     C 7647   3.255   2.510  14.607 -0.0269  0.2178 -0.5481
  511TMC3     O 7648   3.367   2.519  14.658 -0.0636 -0.4155 -0.4278
  511TMC3     H 7649   3.243   2.489  14.866 -0.2349  0.7794 -0.3635
  511TMC3    H1 7650   3.059   2.352  14.507 -0.2041  0.6206  1.4383
  511TMC3    H2 7651   2.897   2.258  14.897 -1.8968  1.7870  0.5297
  511TMC3    C7 7652   2.896   2.189  14.621 -0.1788  0.9348  0.0863
  511TMC3    C8 7653   3.048   2.461  14.999  1.0462  0.5343 -0.4949
  511TMC3    O1 7654   2.889   2.203  14.501  0.3130  0.4166 -0.2323
  511TMC3    O2 7655   3.008   2.571  14.967 -0.2537  0.2464  0.0225
  512TMC3    C1 7656   1.866   2.020  13.674 -0.4098  0.2238  0.4594
  512TMC3    C2 7657   1.989   1.972  13.699  0.1506  0.4990  0.5140
  512TMC3    C3 7658   2.060   1.915  13.602 -0.3253 -0.1703 -0.3367
  512TMC3    C4 7659   1.808   2.008  13.552  0.2201 -0.2592  0.4478
  512TMC3    C5 7660   1.880   1.940  13.456  0.6581  0.3838  0.5717
  512TMC3    C6 7661   2.011   1.898  13.472  0.3391 -0.0585  0.1331
  512TMC3     C 7662   1.775   2.021  13.779 -1.1684  0.4400  0.0107
  512TMC3     O 7663   1.819   2.046  13.893 -0.5200 -0.2994  0.3194
  512TMC3     H 7664   2.020   1.970  13.803  4.9474  0.7706 -0.9055
  512TMC3    H1 7665   1.710   2.053  13.535  1.6548  2.4780 -0.5592
  512TMC3    H2 7666   2.080   1.873  13.393 -0.4548 -1.9315  0.0457
  512TMC3    C7 7667   1.832   1.921  13.321 -0.2875 -0.0322 -0.0977
  512TMC3    C8 7668   2.200   1.895  13.629 -0.4309  0.2922  0.4708
  512TMC3    O1 7669   1.761   2.010  13.277 -0.4870  0.6154  0.8498
  512TMC3    O2 7670   2.260   1.812  13.566 -0.0365  0.1028 -0.1264
  513MPD2     C 7671   3.575   2.026  13.361 -0.0200 -0.7961  0.2068
  513MPD2    C1 7672   3.654   2.002  13.248  0.0365  0.5500 -0.6403
  513MPD2    C2 7673   3.787   2.031  13.250  1.1504  0.2497  0.3468
  513MPD2    C3 7674   3.842   2.088  13.362  0.1660  0.5688 -0.0569
  513MPD2    C4 7675   3.766   2.102  13.481 -0.0656 -0.0275 -0.1616
  513MPD2    C5 7676   3.630   2.087  13.471  0.2121  0.2696  0.0040
  513MPD2     H 7677   3.844   2.023  13.158  0.0874 -1.2684 -0.1685
  513MPD2    H1 7678   3.809   2.142  13.572 -0.3202 -1.6169  0.6423
  513MPD2    H2 7679   3.470   2.002  13.357  0.2311 -1.7625 -0.4029
  513MPD2    H3 7680   3.567   2.111  13.556 -1.2255 -0.0287 -0.9874
  513MPD2     N 7681   3.986   2.097  13.358  0.2354 -0.4651 -0.0043
  513MPD2    H5 7682   4.024   2.066  13.269  1.8620 -0.8731  0.8314
  513MPD2    N1 7683   3.597   1.938  13.136  0.4147  0.3658 -0.6186
  513MPD2    H7 7684   3.499   1.953  13.111 -0.2332 -0.3019  1.5352
  514TMC3    C1 7685   3.592   1.803  12.942 -0.8890 -0.0816 -0.4287
  514TMC3    C2 7686   3.553   1.902  12.852  0.3184  0.2664  0.0955
  514TMC3    C3 7687   3.581   1.870  12.722 -0.1941  0.0269  0.1104
  514TMC3    C4 7688   3.645   1.683  12.901  0.3779 -0.6175 -0.4483
  514TMC3    C5 7689   3.674   1.660  12.771  0.3518 -0.5252 -0.1748
  514TMC3    C6 7690   3.645   1.754  12.679 -0.3294 -0.2574 -0.3208
  514TMC3     C 7691   3.670   1.860  13.049  0.2034 -0.1187  0.2427
  514TMC3     O 7692   3.784   1.819  13.061 -0.1544 -0.5092  0.2647
  514TMC3     H 7693   3.537   2.002  12.891 -1.8449 -0.1967  0.3927
  514TMC3    H1 7694   3.659   1.606  12.975 -1.2113  1.3294  1.8968
  514TMC3    H2 7695   3.648   1.720  12.576  2.5018  0.9869 -0.6613
  514TMC3    C7 7696   3.810   1.612  12.744  0.5406 -0.2657  0.6083
  514TMC3    C8 7697   3.570   1.987  12.635 -0.6661 -0.1084  0.1904
  514TMC3    O1 7698   3.843   1.569  12.633  0.1403 -0.4396 -0.1739
  514TMC3    O2 7699   3.483   2.062  12.670  0.0598  0.4467 -0.6414
  515MPD2     C 7700   2.336   3.881  14.743  0.5686 -0.1778  0.2339
  515MPD2    C1 7701   2.223   3.845  14.819 -0.8112  0.9936 -0.9332
  515MPD2    C2 7702   2.210   3.900  14.947  0.6067  0.4521 -0.5019
  515MPD2    C3 7703   2.313   3.992  14.993 -0.5167  0.3825 -0.2566
  515MPD2    C4 7704   2.424   4.025  14.910 -0.1993  0.1904 -0.3856
  515MPD2    C5 7705   2.428   3.976  14.785  0.5867  0.2149  1.0358
  515MPD2     H 7706   2.117   3.875  14.996  1.6298  1.6205  2.0210
  515MPD2    H1 7707   2.504   4.093  14.938 -1.0495  1.7189 -1.6519
  515MPD2    H2 7708   2.362   3.841  14.646 -0.3438  2.3246 -1.0464
  515MPD2    H3 7709   2.496   4.007  14.707 -0.1260  2.6652  1.3782
  515MPD2     N 7710   2.311   4.052  15.120  0.4534  1.2243 -0.4978
  515MPD2    H5 7711   2.400   4.091  15.149 -0.4732  2.0107  1.2680
  515MPD2    N1 7712   2.127   3.756  14.772 -0.3138 -0.1257  0.1324
  515MPD2    H7 7713   2.054   3.718  14.831 -1.0294 -0.4116 -0.9416
  516TMC3    C1 7714   2.017   3.623  14.608  0.7271  0.3218 -0.0264
  516TMC3    C2 7715   1.959   3.641  14.493  0.5039 -0.0381 -0.0105
  516TMC3    C3 7716   1.843   3.569  14.475  0.2801  0.1012 -0.5416
  516TMC3    C4 7717   1.975   3.533  14.700  0.3692 -0.1905  0.4481
  516TMC3    C5 7718   1.864   3.455  14.675 -0.3752 -0.2159  0.1322
  516TMC3    C6 7719   1.788   3.476  14.563 -0.3264 -0.5081 -0.2725
  516TMC3     C 7720   2.125   3.710  14.639  0.2272  0.0232  0.6822
  516TMC3     O 7721   2.182   3.759  14.542  0.7590 -0.1485 -0.4745
  516TMC3     H 7722   1.998   3.697  14.409  0.5955  1.7345  1.2135
  516TMC3    H1 7723   2.029   3.514  14.792 -0.7011 -1.2253  0.8653
  516TMC3    H2 7724   1.696   3.426  14.535 -1.8196  2.5838 -0.9354
  516TMC3    C7 7725   1.806   3.392  14.796 -0.8116 -0.0514 -0.1821
  516TMC3    C8 7726   1.749   3.628  14.383  0.0076  0.2774  0.0078
  516TMC3    O1 7727   1.874   3.372  14.897  0.3970 -1.1527 -0.2926
  516TMC3    O2 7728   1.686   3.566  14.301 -0.4031  0.0737  0.6070
  517MPD2     C 7729   1.443   0.291  17.642  0.8898 -0.3119 -0.6748
  517MPD2    C1 7730   1.557   0.320  17.560 -0.2537  0.4483  0.7964
  517MPD2    C2 7731   1.580   0.453  17.524  0.0154 -0.3131  0.3185
  517MPD2    C3 7732   1.513   0.558  17.573  0.1546 -0.0571 -0.2295
  517MPD2    C4 7733   1.407   0.527  17.656  0.2115  1.0411  0.2574
  517MPD2    C5 7734   1.376   0.398  17.697  0.8085  0.2805  0.1589
  517MPD2     H 7735   1.660   0.474  17.454  0.8543  4.9235  2.9091
  517MPD2    H1 7736   1.347   0.607  17.697 -0.9304  0.5597 -0.4833
  517MPD2    H2 7737   1.419   0.192  17.679 -1.3605  0.9339  1.1806
  517MPD2    H3 7738   1.285   0.375   0.003 -0.1838  1.4782 -0.9575
  517MPD2     N 7739   1.537   0.701  17.551 -0.3585  0.3216  0.2488
  517MPD2    H5 7740   1.485   0.761  17.615 -0.9625  1.5804 -1.4398
  517MPD2    N1 7741   1.646   0.221  17.510  0.0066  0.0013 -0.3906
  517MPD2    H7 7742   1.732   0.257  17.470  0.5110 -0.8404 -0.0598
  518TMC3    C1 7743   1.758   0.018  17.460 -0.0577 -0.0030  0.2908
  518TMC3    C2 7744   1.795   4.637  17.515 -0.7086 -0.3911  0.4317
  518TMC3    C3 7745   1.909   4.585  17.471  0.4973 -0.1491 -1.5967
  518TMC3    C4 7746   1.810   0.074  17.353 -0.9810  0.5002 -0.0290
  518TMC3    C5 7747   1.928   0.018  17.314 -0.5770 -0.1263 -0.0173
  518TMC3    C6 7748   1.980   4.641  17.370  0.2600 -0.1603 -0.0223
  518TMC3     C 7749   1.644   0.085  17.527  0.1589 -0.9790 -0.1109
  518TMC3     O 7750   1.570   0.031  17.605  0.4657  0.2826  0.9471
  518TMC3     H 7751   1.729   4.590  17.586 -0.7268 -0.1007  0.6034
  518TMC3    H1 7752   1.785   0.173  17.317 -2.0653  0.5091  0.7613
  518TMC3    H2 7753   2.070   4.591  17.338  0.6282 -1.1282  2.4760
  518TMC3    C7 7754   1.987   0.083  17.195  0.0539 -0.5643  0.2304
  518TMC3    C8 7755   1.964   4.460  17.523 -0.1464 -0.2299 -0.2441
  518TMC3    O1 7756   1.923   0.162  17.132  0.2103 -0.4213 -0.1454
  518TMC3    O2 7757   2.046   4.400  17.455  0.2875 -0.3849  0.1689
  519MPD2     C 7758   3.367   3.184  14.418  0.0317 -0.4821 -0.6367
  519MPD2    C1 7759   3.345   3.255  14.301 -0.1939  0.3597  0.8189
  519MPD2    C2 7760   3.418   3.214  14.190 -0.4569 -0.3770 -0.0469
  519MPD2    C3 7761   3.499   3.104  14.192  0.1618 -0.0887 -0.8040
  519MPD2    C4 7762   3.525   3.050  14.313  0.4116 -0.0140 -0.0246
  519MPD2    C5 7763   3.450   3.081  14.421 -0.6500  0.4392 -0.0425
  519MPD2     H 7764   3.410   3.268  14.097  0.6921 -0.9139 -0.4532
  519MPD2    H1 7765   3.600   2.971  14.316  1.4111  0.9001 -0.8312
  519MPD2    H2 7766   3.309   3.220  14.503 -0.4962 -0.9451 -0.7997
  519MPD2    H3 7767   3.457   3.034  14.518 -0.1585 -0.0715 -0.3316
  519MPD2     N 7768   3.566   3.054  14.076 -0.3872 -0.1876  1.1637
  519MPD2    H5 7769   3.652   3.002  14.093  0.2501  0.3168 -0.5390
  519MPD2    N1 7770   3.268   3.366  14.310  0.6533 -0.6893 -0.1951
  519MPD2    H7 7771   3.244   3.401  14.402  0.1152 -3.2541  0.6219
  520TMC3    C1 7772   3.633   3.052  13.837  0.7732  0.2831  0.1689
  520TMC3    C2 7773   3.616   3.134  13.732  0.6753  0.3018 -0.1929
  520TMC3    C3 7774   3.725   3.203  13.682  0.3854  0.1879 -0.1782
  520TMC3    C4 7775   3.755   3.015  13.874 -0.0029  0.2903  0.0851
  520TMC3    C5 7776   3.863   3.068  13.810 -0.3087 -0.5678  0.4161
  520TMC3    C6 7777   3.855   3.173  13.721  0.0951 -0.3916 -0.5205
  520TMC3     C 7778   3.533   3.084  13.945 -0.0904 -0.0120 -0.1859
  520TMC3     O 7779   3.457   3.172  13.902 -0.6701  0.0757  0.3938
  520TMC3     H 7780   3.526   3.129  13.671  0.3910 -1.0725  0.3286
  520TMC3    H1 7781   3.776   2.935  13.944 -0.2434  0.4380  0.3241
  520TMC3    H2 7782   3.925   3.256  13.715 -1.0593  0.4158 -2.9349
  520TMC3    C7 7783   3.994   3.026  13.851  0.2762  0.2446  0.0245
  520TMC3    C8 7784   3.694   3.343  13.663 -0.7386 -0.2113 -0.0676
  520TMC3    O1 7785   3.997   2.933  13.934  0.3202  0.1064 -0.4473
  520TMC3    O2 7786   3.770   3.414  13.602 -0.1071 -0.3133  0.0300
  521MPD2     C 7787   4.213   2.277  17.377 -0.7423  0.5730  0.4190
  521MPD2    C1 7788   4.210   2.222  17.253  0.2093 -0.6165  0.2355
  521MPD2    C2 7789   4.307   2.271  17.163 -0.2377 -0.2023  0.8180
  521MPD2    C3 7790   4.399   2.365  17.193  0.6506 -0.7030 -0.2980
  521MPD2    C4 7791   4.397   2.425  17.321  0.3492 -0.5453 -0.5208
  521MPD2    C5 7792   4.307   2.375  17.410  0.5746  0.6614 -0.4900
  521MPD2     H 7793   4.316   2.224  17.066 -1.4277  0.6480  0.3101
  521MPD2    H1 7794   4.460   2.506  17.355 -1.2919 -0.3768  2.1447
  521MPD2    H2 7795   4.145   2.237  17.451 -2.8355  0.6394 -1.4679
  521MPD2    H3 7796   4.301   2.421  17.508  1.0338  3.6730 -1.8831
  521MPD2     N 7797   4.487   2.394  17.089  0.2406 -0.2184  0.0764
  521MPD2    H5 7798   4.467   2.361  16.995  0.0763 -1.3889  0.5251
  521MPD2    N1 7799   4.118   2.121  17.226  0.3949 -0.4376 -0.3488
  521MPD2    H7 7800   4.041   2.110  17.291 -0.0882  0.9257 -0.6902
  522TMC3    C1 7801   4.660   2.503  16.975 -0.2906 -0.2838  0.4336
  522TMC3    C2 7802   0.052   2.543  16.982 -0.4441 -1.1752 -0.5257
  522TMC3    C3 7803   0.133   2.533  16.872  0.0409 -0.2341  1.3412
  522TMC3    C4 7804   4.604   2.479  16.854 -0.2398 -0.7129 -0.2000
  522TMC3    C5 7805   4.685   2.483  16.746  0.1712  0.1352  0.0448
  522TMC3    C6 7806   0.079   2.509  16.746  0.0213 -0.4972 -0.5872
  522TMC3     C 7807   4.600   2.479  17.104  0.1736  0.0213  0.1043
  522TMC3     O 7808   4.658   2.505  17.209  0.6628  0.0229  0.3619
  522TMC3     H 7809   0.103   2.547  17.078 -0.4566 -2.6855 -0.4445
  522TMC3    H1 7810   4.496   2.473  16.845 -0.3770  2.3063 -0.4006
  522TMC3    H2 7811   0.138   2.510  16.656 -1.6784 -2.0862 -1.7238
  522TMC3    C7 7812   4.627   2.464  16.616 -0.1510 -0.4112 -0.7365
  522TMC3    C8 7813   0.277   2.512  16.886  0.7755 -0.2089  0.6447
  522TMC3    O1 7814   4.676   2.527  16.520  0.5418  0.8087  0.4080
  522TMC3    O2 7815   0.326   2.575  16.978  0.3219  0.2204  0.0662
  523MPD2     C 7816   2.882   1.803  10.283  0.1701  0.7798  0.4439
  523MPD2    C1 7817   2.748   1.795  10.319  0.2170  0.9570 -0.9429
  523MPD2    C2 7818   2.695   1.904  10.384 -1.0517 -0.0436 -0.0376
  523MPD2    C3 7819   2.772   2.013  10.415 -1.0684  0.4703  0.4987
  523MPD2    C4 7820   2.899   2.020  10.363 -0.3119 -0.0983  0.2770
  523MPD2    C5 7821   2.951   1.916  10.293  0.0373  0.3874  0.3514
  523MPD2     H 7822   2.593   1.906  10.420 -0.5594 -0.3471  1.3539
  523MPD2    H1 7823   2.965   2.105  10.377  1.3000 -1.6582  2.0937
  523MPD2    H2 7824   2.937   1.723  10.234  1.0355  0.6158  1.6857
  523MPD2    H3 7825   3.052   1.925  10.255 -0.7471  1.6743 -1.3783
  523MPD2     N 7826   2.738   2.123  10.491  0.4964  0.0869 -0.2769
  523MPD2    H5 7827   2.805   2.200  10.495  0.0839  0.1907  4.0384
  523MPD2    N1 7828   2.682   1.669  10.307 -0.1431 -0.7223  0.2540
  523MPD2    H7 7829   2.737   1.596  10.263  0.2602 -0.9967  1.2031
  524TMC3    C1 7830   2.617   2.282  10.607 -0.2902 -0.5508  0.1949
  524TMC3    C2 7831   2.725   2.296  10.692 -0.4209 -0.0790 -0.8126
  524TMC3    C3 7832   2.704   2.366  10.807 -0.0009  0.5016  0.8654
  524TMC3    C4 7833   2.495   2.331  10.633  0.9750  0.1136 -0.3879
  524TMC3    C5 7834   2.486   2.418  10.744 -0.2322  0.2852 -0.5480
  524TMC3    C6 7835   2.592   2.429  10.839 -0.0724  0.0035  0.2411
  524TMC3     C 7836   2.619   2.151  10.553 -0.5168 -0.0169 -0.1988
  524TMC3     O 7837   2.516   2.086  10.542 -0.1841 -0.1384  0.1747
  524TMC3     H 7838   2.816   2.238  10.684 -0.6231 -0.3289 -1.3235
  524TMC3    H1 7839   2.413   2.303  10.569 -0.6200  2.2380  0.7259
  524TMC3    H2 7840   2.565   2.469  10.936  1.2090 -0.6059  0.8466
  524TMC3    C7 7841   2.364   2.493  10.772 -1.1884 -0.6476 -0.9417
  524TMC3    C8 7842   2.821   2.393  10.894 -0.0930  0.2427  0.5509
  524TMC3    O1 7843   2.352   2.555  10.877  0.0801  0.3092  0.0702
  524TMC3    O2 7844   2.936   2.385  10.854 -0.0856  0.0646 -0.0630
  525MPD2     C 7845   0.193   3.130  14.362 -0.8715  0.2023 -0.8736
  525MPD2    C1 7846   0.304   3.154  14.442  0.4160 -0.3434  0.7069
  525MPD2    C2 7847   0.403   3.238  14.402 -0.5427 -0.1643 -0.4278
  525MPD2    C3 7848   0.405   3.293  14.277 -0.3320  0.0821  0.8239
  525MPD2    C4 7849   0.293   3.271  14.198  0.0977 -0.0556  0.1328
  525MPD2    C5 7850   0.188   3.192  14.237 -0.4025  0.2309  0.0561
  525MPD2     H 7851   0.480   3.256  14.477  1.0643  0.1421 -2.1564
  525MPD2    H1 7852   0.285   3.314  14.099 -0.1131 -0.9031 -0.2230
  525MPD2    H2 7853   0.107   3.071  14.390 -1.1881  0.9370 -0.3051
  525MPD2    H3 7854   0.111   3.174  14.162  1.4393 -1.3668 -1.4558
  525MPD2     N 7855   0.500   3.384  14.226  0.2262 -0.4626  0.7712
  525MPD2    H5 7856   0.485   3.426  14.135 -0.1156  1.5501  1.7387
  525MPD2    N1 7857   0.320   3.096  14.564  0.2005 -0.3709 -0.2785
  525MPD2    H7 7858   0.406   3.119  14.613  0.5213 -1.0505 -0.5289
  526TMC3    C1 7859   0.267   2.990  14.764  0.3167 -0.0869 -0.2092
  526TMC3    C2 7860   0.182   3.017  14.866 -0.0344  0.4072  0.0846
  526TMC3    C3 7861   0.232   2.991  14.990 -0.6461 -0.2219 -0.5763
  526TMC3    C4 7862   0.396   2.952  14.780 -0.3717 -0.5810 -0.5143
  526TMC3    C5 7863   0.442   2.939  14.909 -0.4179 -0.3400  0.0095
  526TMC3    C6 7864   0.357   2.946  15.016 -0.3235 -0.5594  0.4124
  526TMC3     C 7865   0.220   3.034  14.634 -0.5067 -0.1358 -0.2102
  526TMC3     O 7866   0.103   3.016  14.605  0.7639 -0.7022 -0.3684
  526TMC3     H 7867   0.088   3.058  14.831 -1.8005 -2.0561  2.0036
  526TMC3    H1 7868   0.462   2.926  14.699  0.5311 -0.1735  0.0896
  526TMC3    H2 7869   0.381   2.908  15.115  0.8841  0.1127  0.3712
  526TMC3    C7 7870   0.579   2.893  14.932 -0.2371  1.4599 -0.4223
  526TMC3    C8 7871   0.140   3.000  15.111 -0.0748  0.6425  0.2205
  526TMC3    O1 7872   0.614   2.815  15.021  0.5124 -0.0031 -0.3869
  526TMC3    O2 7873   0.173   2.934  15.209  0.7684 -0.4782  0.1178
  527MPD2     C 7874   2.897   1.802   0.824  0.4528 -0.1842 -0.2838
  527MPD2    C1 7875   2.924   1.686   0.757  0.1356 -0.2010  0.0498
  527MPD2    C2 7876   3.056   1.652   0.733 -1.0442 -0.0433 -0.2364
  527MPD2    C3 7877   3.156   1.729   0.794 -0.5995  0.0698 -0.0318
  527MPD2    C4 7878   3.126   1.837   0.874  0.1161 -1.0075  0.1687
  527MPD2    C5 7879   3.000   1.882   0.873 -0.1464 -0.1809 -0.0189
  527MPD2     H 7880   3.079   1.571   0.665  0.5010  0.4860 -0.3454
  527MPD2    H1 7881   3.208   1.892   0.917 -0.2390  0.4432 -1.0115
  527MPD2    H2 7882   2.794   1.833   0.837  0.2220 -1.4653  0.9914
  527MPD2    H3 7883   2.976   1.981   0.910  2.9714  1.1253 -1.5116
  527MPD2     N 7884   3.288   1.696   0.759  0.6824  0.6101  0.0349
  527MPD2    H5 7885   3.297   1.613   0.701 -3.6244  1.2002 -1.5101
  527MPD2    N1 7886   2.827   1.596   0.709 -0.7573  0.4561  0.2220
  527MPD2    H7 7887   2.870   1.520   0.659 -2.9783 -0.6405 -0.0265
  528TMC3    C1 7888   2.627   1.476   0.673 -0.1704  0.0834 -0.4170
  528TMC3    C2 7889   2.679   1.413   0.563 -0.3800 -0.2934 -0.8876
  528TMC3    C3 7890   2.595   1.323   0.503  0.3338  0.2061 -0.1486
  528TMC3    C4 7891   2.499   1.444   0.721 -0.8717 -0.8037 -0.3360
  528TMC3    C5 7892   2.421   1.358   0.654 -0.0978  0.5842 -0.6736
  528TMC3    C6 7893   2.469   1.299   0.544  0.1122 -0.2526 -0.5548
  528TMC3     C 7894   2.692   1.595   0.733  0.1092 -0.4210 -0.9094
  528TMC3     O 7895   2.621   1.672   0.801 -0.4540 -0.1349  0.4245
  528TMC3     H 7896   2.771   1.448   0.518  0.0224 -0.5058 -0.2248
  528TMC3    H1 7897   2.459   1.506   0.801  0.5356 -0.6977  0.2717
  528TMC3    H2 7898   2.409   1.231   0.484  0.4966 -0.7198 -0.4049
  528TMC3    C7 7899   2.278   1.350   0.690  0.0757  0.0693  0.6028
  528TMC3    C8 7900   2.651   1.261   0.373  0.3717  0.7176 -0.4318
  528TMC3    O1 7901   2.211   1.447   0.659 -0.3803  0.9818 -0.3506
  528TMC3    O2 7902   2.726   1.332   0.307  0.3623 -0.0490  0.4409
  529MPD2     C 7903   0.741   0.602   0.983 -0.4973  0.0618  0.0612
  529MPD2    C1 7904   0.639   0.519   0.959  0.7550  0.7652  0.1424
  529MPD2    C2 7905   0.585   0.505   0.833  0.4095 -0.2016  0.3862
  529MPD2    C3 7906   0.627   0.594   0.732  0.2533 -0.0606  0.1134
  529MPD2    C4 7907   0.730   0.685   0.757 -0.0426 -0.0967  0.0842
  529MPD2    C5 7908   0.793   0.681   0.882  0.3744 -0.0479  0.2021
  529MPD2     H 7909   0.520   0.420   0.814 -0.4517  0.5214  0.1183
  529MPD2    H1 7910   0.772   0.750   0.681 -2.1527  0.3002 -0.7360
  529MPD2    H2 7911   0.784   0.619   1.082 -2.2496  1.6289  0.5596
  529MPD2    H3 7912   0.862   0.761   0.905 -0.5899  0.7288  0.4026
  529MPD2     N 7913   0.579   0.583   0.599 -0.1291 -0.4670  0.4244
  529MPD2    H5 7914   0.617   0.648   0.531  1.6726 -1.1868  0.7649
  529MPD2    N1 7915   0.602   0.422   1.054  0.2405 -0.8028  0.4408
  529MPD2    H7 7916   0.526   0.362   1.025 -0.6575  1.3230 -1.6373
  530TMC3    C1 7917   0.609   0.293   1.255 -0.1445 -0.0582  0.3658
  530TMC3    C2 7918   0.636   0.297   1.390  0.2856 -0.3821  0.0252
  530TMC3    C3 7919   0.687   0.183   1.449 -0.6231  0.0989  0.2861
  530TMC3    C4 7920   0.621   0.174   1.185  0.4918  0.4525 -0.4509
  530TMC3    C5 7921   0.659   0.062   1.255  0.3131 -0.5988 -0.3628
  530TMC3    C6 7922   0.702   0.060   1.385 -0.1578 -0.5240  0.5260
  530TMC3     C 7923   0.639   0.419   1.184  0.5105  0.4997 -0.1607
  530TMC3     O 7924   0.693   0.504   1.249 -0.3611 -0.2170  0.8105
  530TMC3     H 7925   0.644   0.393   1.439  1.0784 -0.1735 -0.5130
  530TMC3    H1 7926   0.597   0.158   1.080  0.9816  1.8937 -0.7803
  530TMC3    H2 7927   0.716   4.711   1.448 -2.3843 -1.1206  0.1793
  530TMC3    C7 7928   0.656   4.680   1.180 -0.7006 -0.4293  0.0919
  530TMC3    C8 7929   0.766   0.209   1.565 -0.1319 -0.1376  0.5834
  530TMC3    O1 7930   0.651   4.692   1.054 -0.0658 -0.1724  0.3443
  530TMC3    O2 7931   0.763   0.323   1.615  0.5681  0.0700 -0.3075
  531MPD2     C 7932   4.308   1.642  12.872  0.1801 -0.1421  1.0036
  531MPD2    C1 7933   4.235   1.722  12.960 -0.1249 -0.8827  0.2117
  531MPD2    C2 7934   4.099   1.718  12.948 -0.0713  0.4479 -0.1542
  531MPD2    C3 7935   4.036   1.657  12.842 -0.2139 -0.8470 -0.1091
  531MPD2    C4 7936   4.107   1.588  12.749 -0.2757 -0.2358 -0.1228
  531MPD2    C5 7937   4.247   1.581  12.767  0.1625 -0.0334 -0.6939
  531MPD2     H 7938   4.037   1.767  13.022 -2.0676 -1.2687 -0.6824
  531MPD2    H1 7939   4.053   1.533  12.673 -1.1298 -0.9820  1.0322
  531MPD2    H2 7940   4.416   1.629  12.879  0.1206 -2.0647 -1.4767
  531MPD2    H3 7941   4.304   1.522  12.696  0.2410 -0.8331  0.0285
  531MPD2     N 7942   3.897   1.666  12.837 -0.4934 -0.5123 -0.1208
  531MPD2    H5 7943   3.851   1.726  12.905  1.3003 -0.4085  1.0086
  531MPD2    N1 7944   4.299   1.795  13.063 -0.3224  0.2900 -0.5135
  531MPD2    H7 7945   4.397   1.774  13.080 -0.0629  0.4204 -1.8674
  532TMC3    C1 7946   4.302   1.957  13.244 -0.2660 -0.4720  0.3568
  532TMC3    C2 7947   4.231   2.058  13.302 -0.2224  0.3228 -0.0140
  532TMC3    C3 7948   4.200   2.054  13.437 -0.5188  0.1124 -0.9177
  532TMC3    C4 7949   4.360   1.859  13.323 -0.1093  0.7959 -0.1108
  532TMC3    C5 7950   4.341   1.871  13.459 -0.8804  0.5696 -0.0967
  532TMC3    C6 7951   4.262   1.969  13.522  1.0737 -0.1732 -0.4995
  532TMC3     C 7952   4.234   1.900  13.133 -0.5939 -0.4724  0.4353
  532TMC3     O 7953   4.126   1.950  13.109 -1.1048 -0.0846  0.3706
  532TMC3     H 7954   4.185   2.133  13.238  1.9067 -0.6741 -2.7337
  532TMC3    H1 7955   4.420   1.779  13.281  0.1260  0.2018  1.3192
  532TMC3    H2 7956   4.226   1.955  13.623 -1.6176  2.6702 -1.0610
  532TMC3    C7 7957   4.425   1.787  13.548 -0.3698  0.5327 -0.2203
  532TMC3    C8 7958   4.062   2.094  13.479  0.0953  0.0549 -0.5178
  532TMC3    O1 7959   4.431   1.814  13.668 -0.3445 -0.3041 -0.1295
  532TMC3    O2 7960   4.031   2.091  13.600  0.2061 -0.1584 -1.1043
  533TMC3    C1 7961   0.684   3.533  14.225  0.0214 -0.5497 -0.4129
  533TMC3    C2 7962   0.799   3.568  14.288 -0.6514  0.6298  0.2388
  533TMC3    C3 7963   0.831   3.696  14.312  0.5380  0.0006  0.1346
  533TMC3    C4 7964   0.595   3.627  14.183 -0.3603 -0.4415 -0.5011
  533TMC3    C5 7965   0.621   3.761  14.219 -0.3509  0.7786  0.0966
  533TMC3    C6 7966   0.740   3.795  14.284 -0.1524  0.9839  0.4155
  533TMC3     C 7967   0.615   3.428  14.290 -0.2313  0.6371 -0.2613
  533TMC3     O 7968   0.670   3.390  14.390 -0.7386 -0.2303  0.6797
  533TMC3     H 7969   0.865   3.490  14.325 -0.7008  0.7694  0.6234
  533TMC3    H1 7970   0.502   3.596  14.136 -0.0759  1.3191 -2.2370
  533TMC3    H2 7971   0.757   3.899  14.308 -1.4256  1.0298  1.1558
  533TMC3    C7 7972   0.492   3.816  14.274  0.2107 -1.1393  0.2076
  533TMC3    C8 7973   0.965   3.751  14.316  0.0074 -0.0039 -0.6434
  533TMC3    O1 7974   0.401   3.730  14.274  0.0845 -0.1330  0.3790
  533TMC3    O2 7975   0.988   3.859  14.261 -0.5408 -0.8983 -0.4265
  534MPD2     C 7976   3.763   0.374   1.190  0.1481  0.5652 -0.4243
  534MPD2    C1 7977   3.681   0.475   1.242  0.6730 -0.5012 -0.3833
  534MPD2    C2 7978   3.541   0.450   1.252  0.5247  0.4276  0.1779
  534MPD2    C3 7979   3.490   0.329   1.208  0.2934  0.5647 -0.6790
  534MPD2    C4 7980   3.570   0.241   1.144 -0.5604  0.3564  0.1210
  534MPD2    C5 7981   3.706   0.264   1.135  0.1773  0.0345 -0.3526
  534MPD2     H 7982   3.474   0.525   1.292  0.9196  1.1749 -0.5667
  534MPD2    H1 7983   3.536   0.147   1.102  0.1396  0.3522 -0.4275
  534MPD2    H2 7984   3.870   0.386   1.178  0.0287 -0.3220 -2.3514
  534MPD2    H3 7985   3.771   0.191   1.088 -0.4126 -2.0463  2.0461
  534MPD2     N 7986   3.348   0.306   1.204 -0.0663  0.6218  0.2485
  534MPD2    H5 7987   3.320   0.224   1.151  1.7092  0.4259 -0.4120
  534MPD2    N1 7988   3.736   0.597   1.296  0.0806  0.4473  0.3211
  534MPD2    H7 7989   3.675   0.662   1.343  1.4601  1.3535  0.8654
  535TMC3    C1 7990   3.115   0.327   1.238  0.4290 -1.0617  0.0121
  535TMC3    C2 7991   3.032   0.295   1.338 -0.5374 -0.1088  0.6882
  535TMC3    C3 7992   2.906   0.250   1.304 -0.7416  0.3561 -0.2048
  535TMC3    C4 7993   3.093   0.305   1.105 -0.1638  0.7980 -0.4333
  535TMC3    C5 7994   2.965   0.256   1.076  0.5781  0.4911  0.7066
  535TMC3    C6 7995   2.869   0.230   1.172 -0.0853  0.7914  0.0955
  535TMC3     C 7996   3.248   0.370   1.273  0.1263 -0.3904 -0.8441
  535TMC3     O 7997   3.256   0.459   1.356 -0.6573  0.6320  0.0590
  535TMC3     H 7998   3.056   0.312   1.442  1.4444  1.4937 -0.0492
  535TMC3    H1 7999   3.164   0.332   1.028  0.7689  1.9867  0.8405
  535TMC3    H2 8000   2.780   0.176   1.142 -0.2641  1.6180 -0.8393
  535TMC3    C7 8001   2.918   0.272   0.949 -0.1964  0.3130  0.2090
  535TMC3    C8 8002   2.801   0.233   1.404  0.2033  0.5480 -0.2182
  535TMC3    O1 8003   2.859   0.175   0.899  0.3460 -0.2235  0.1594
  535TMC3    O2 8004   2.686   0.200   1.367  0.0057  0.6196 -0.0483
  536MPD2     C 8005   1.834   3.269  16.629  0.8727  0.3744 -0.5802
  536MPD2    C1 8006   1.709   3.224  16.588 -0.4835 -0.8883  0.0315
  536MPD2    C2 8007   1.647   3.281  16.472 -0.5240 -0.0589  0.2585
  536MPD2    C3 8008   1.710   3.376  16.400  0.1954 -0.1189  0.7767
  536MPD2    C4 8009   1.839   3.416  16.436 -0.0740  0.0761  0.2376
  536MPD2    C5 8010   1.898   3.363  16.553 -0.2487 -0.9594 -0.4774
  536MPD2     H 8011   1.547   3.254  16.440  0.1805  0.7715 -2.6049
  536MPD2    H1 8012   1.896   3.492  16.384  0.3799 -0.6021 -0.2522
  536MPD2    H2 8013   1.884   3.219  16.712  1.5062  0.4041 -0.9447
  536MPD2    H3 8014   2.000   3.392  16.576 -0.1196 -1.3047 -0.6146
  536MPD2     N 8015   1.637   3.434  16.296  0.1320 -0.0197 -0.0584
  536MPD2    H5 8016   1.540   3.409  16.283 -0.2540  2.8938 -2.6517
  536MPD2    N1 8017   1.653   3.124  16.660  0.2463  0.2759  0.1151
  536MPD2    H7 8018   1.701   3.106  16.748  1.4594 -0.9534 -0.8116
  537TMC3    C1 8019   1.536   2.932  16.735 -0.0030  0.8579 -0.0148
  537TMC3    C2 8020   1.585   2.948  16.865  0.1911  0.5986  0.0677
  537TMC3    C3 8021   1.552   2.853  16.960 -0.5364 -0.4558  1.2627
  537TMC3    C4 8022   1.464   2.819  16.705  0.0998  0.4768 -0.4655
  537TMC3    C5 8023   1.454   2.716  16.797  1.3034  0.1987  0.2015
  537TMC3    C6 8024   1.495   2.734  16.923 -0.4242  0.2972 -0.1335
  537TMC3     C 8025   1.549   3.035  16.628  0.0173  0.1833  0.8501
  537TMC3     O 8026   1.482   3.024  16.524 -0.0307  0.5462 -0.4820
  537TMC3     H 8027   1.609   3.050  16.892  0.0883  0.2020  1.6563
  537TMC3    H1 8028   1.424   2.794  16.607  3.8159  1.7005 -2.3184
  537TMC3    H2 8029   1.474   2.658  16.997 -0.4084 -0.8764 -1.3459
  537TMC3    C7 8030   1.361   2.608  16.774 -0.5560 -0.1302 -0.7729
  537TMC3    C8 8031   1.584   2.878  17.099 -0.0883  0.5363  0.0721
  537TMC3    O1 8032   1.253   2.621  16.720 -0.3867  0.1592 -0.3623
  537TMC3    O2 8033   1.628   2.990  17.121  0.7169 -0.2713 -0.0494
  538TMC3    C1 8034   2.821   1.058  11.099 -0.1899  0.2499  0.2207
  538TMC3    C2 8035   2.957   1.061  11.079  0.0347  0.1178  0.2688
  538TMC3    C3 8036   3.010   1.150  10.988  0.1093  0.0364  0.5308
  538TMC3    C4 8037   2.734   1.133  11.025  0.3709 -0.1088  0.3177
  538TMC3    C5 8038   2.793   1.220  10.938  0.2398 -0.2634  0.2613
  538TMC3    C6 8039   2.929   1.233  10.919  0.4582  0.2507 -0.2714
  538TMC3     C 8040   2.768   0.958  11.196  0.2134 -0.1884  0.5371
  538TMC3     O 8041   2.647   0.960  11.211  0.1086 -0.4807 -1.0638
  538TMC3     H 8042   3.034   1.011  11.135 -0.4613  0.2717  1.0896
  538TMC3    H1 8043   2.627   1.115  11.028  0.5136 -0.6947  1.9358
  538TMC3    H2 8044   2.967   1.284  10.831  0.1408  3.8179  1.6597
  538TMC3    C7 8045   2.708   1.306  10.863  0.4590  0.5478  0.7119
  538TMC3    C8 8046   3.152   1.140  10.952 -0.2032 -0.0120  0.2273
  538TMC3    O1 8047   2.594   1.268  10.855  0.3601 -0.3352 -0.2982
  538TMC3    O2 8048   3.205   1.053  11.016  0.2048  0.1969 -0.2583
  539MPD2     C 8049   2.522   0.492  11.911 -0.2335  0.3272 -0.0231
  539MPD2    C1 8050   2.468   0.513  11.790 -0.1471  0.5951 -0.8581
  539MPD2    C2 8051   2.450   0.640  11.748  0.3269  0.4213  0.1776
  539MPD2    C3 8052   2.464   0.747  11.833 -0.0622  0.2248  0.4672
  539MPD2    C4 8053   2.509   0.723  11.959  1.0137  0.1137  0.3913
  539MPD2    C5 8054   2.542   0.598  11.998 -0.1882  0.8459  0.1203
  539MPD2     H 8055   2.417   0.650  11.646  1.3001  0.6432 -0.1203
  539MPD2    H1 8056   2.518   0.802  12.032  2.1228 -0.1736  0.5672
  539MPD2    H2 8057   2.542   0.396  11.958  0.0083 -0.0092 -0.8069
  539MPD2    H3 8058   2.579   0.562  12.093  0.4902 -1.1039 -0.8817
  539MPD2     N 8059   2.423   0.878  11.799 -0.4039 -0.0561 -0.3905
  539MPD2    H5 8060   2.426   0.948  11.872  1.8990 -0.0517 -0.4776
  539MPD2    N1 8061   2.446   0.411  11.694 -0.4851  0.8314  0.3859
  539MPD2    H7 8062   2.419   0.440  11.601  1.0065  1.7754  0.2325
  540TMC3    C1 8063   2.339   1.065  11.681 -1.2051 -0.1272 -0.3569
  540TMC3    C2 8064   2.344   1.155  11.573  0.2513  0.4054 -0.4828
  540TMC3    C3 8065   2.264   1.266  11.566 -0.3449 -0.3743  0.4680
  540TMC3    C4 8066   2.258   1.097  11.788 -0.2019 -0.6170 -0.1243
  540TMC3    C5 8067   2.177   1.205  11.775  0.0821  1.1480  0.2563
  540TMC3    C6 8068   2.175   1.295  11.664  0.5924 -0.3088  0.7737
  540TMC3     C 8069   2.378   0.918  11.676 -0.3039  0.0925  0.2450
  540TMC3     O 8070   2.399   0.859  11.572 -0.2374  0.6098 -0.3053
  540TMC3     H 8071   2.400   1.110  11.491 -0.9824 -0.5493 -0.7952
  540TMC3    H1 8072   2.249   1.039  11.879 -1.1849 -0.3667 -0.0628
  540TMC3    H2 8073   2.092   1.362  11.649  0.5235 -0.7821 -1.0203
  540TMC3    C7 8074   2.068   1.208  11.872 -1.0931 -0.0988 -0.0508
  540TMC3    C8 8075   2.233   1.326  11.436 -0.3121  0.8290  0.2854
  540TMC3    O1 8076   2.047   1.099  11.924 -0.6708  0.1966 -0.2149
  540TMC3    O2 8077   2.208   1.447  11.434 -0.3902 -0.0131  0.0715
  541MPD2     C 8078   0.800   2.487  13.386  1.0237 -0.5731 -0.4425
  541MPD2    C1 8079   0.854   2.373  13.322 -0.0196  0.0759  0.3279
  541MPD2    C2 8080   0.881   2.378  13.187 -0.3119 -0.3689  0.6010
  541MPD2    C3 8081   0.874   2.496  13.113  0.2109 -0.0655 -0.3268
  541MPD2    C4 8082   0.833   2.610  13.181 -0.2562 -0.2704 -0.7221
  541MPD2    C5 8083   0.795   2.605  13.315  0.2976  0.7813 -0.3840
  541MPD2     H 8084   0.910   2.283  13.144  0.4501 -0.4072  1.1970
  541MPD2    H1 8085   0.823   2.703  13.126 -0.1511 -0.3596 -0.8920
  541MPD2    H2 8086   0.772   2.479  13.490  2.3638  0.8981  0.0279
  541MPD2    H3 8087   0.750   2.692  13.361 -0.3089  0.3613 -0.1628
  541MPD2     N 8088   0.893   2.511  12.974  0.4663 -0.7485  0.5659
  541MPD2    H5 8089   0.878   2.607  12.944  2.0075 -0.5698  0.3650
  541MPD2    N1 8090   0.855   2.246  13.383  0.3201  0.3876  0.2174
  541MPD2    H7 8091   0.872   2.160  13.331 -2.0596 -0.0804  0.2323
  542TMC3    C1 8092   0.907   2.416  12.747  0.0527 -0.0622  0.4710
  542TMC3    C2 8093   0.912   2.291  12.684 -0.1257 -0.0201  0.0065
  542TMC3    C3 8094   0.847   2.279  12.568  0.0030  0.2516  0.4537
  542TMC3    C4 8095   0.853   2.531  12.696  0.0355 -0.6383 -0.0848
  542TMC3    C5 8096   0.789   2.504  12.577 -0.2225  0.6396 -0.4060
  542TMC3    C6 8097   0.782   2.385  12.508 -0.2844  0.2443 -0.1514
  542TMC3     C 8098   0.920   2.407  12.890 -0.9520  0.3332  0.2660
  542TMC3     O 8099   0.979   2.306  12.929 -0.2308 -0.4078  0.5126
  542TMC3     H 8100   0.936   2.200  12.737 -0.2897  0.7988  1.4828
  542TMC3    H1 8101   0.856   2.633  12.733  0.5853  0.3478 -2.8338
  542TMC3    H2 8102   0.745   2.370  12.407  0.7321  0.8317 -0.6080
  542TMC3    C7 8103   0.742   2.618  12.492  0.5918 -0.2466  0.1826
  542TMC3    C8 8104   0.859   2.151  12.503  0.0960 -0.6089 -0.0314
  542TMC3    O1 8105   0.793   2.728  12.501 -0.1869 -0.7174 -0.0415
  542TMC3    O2 8106   0.776   2.136  12.419  0.2412 -0.0949  0.0819
  543TMC3    C1 8107   0.515   3.963  17.342  0.8208  0.2258  0.2236
  543TMC3    C2 8108   0.461   3.924  17.462  0.0514 -0.0073  0.3233
  543TMC3    C3 8109   0.515   3.978  17.576 -0.1308 -0.7644 -0.1204
  543TMC3    C4 8110   0.615   4.050  17.331  0.3165  0.2367 -0.0060
  543TMC3    C5 8111   0.669   4.105  17.444 -0.2627  0.6986  0.0631
  543TMC3    C6 8112   0.618   4.070  17.567  0.3643 -0.5453 -0.2325
  543TMC3     C 8113   0.482   3.891  17.222 -0.7689 -0.2242  0.7236
  543TMC3     O 8114   0.555   3.901  17.123  0.2738 -0.2710 -0.2475
  543TMC3     H 8115   0.383   3.849  17.467 -0.2240  0.1508 -1.5601
  543TMC3    H1 8116   0.655   4.060  17.231 -1.8833 -1.0624 -1.0190
  543TMC3    H2 8117   0.676   4.089  17.656  0.1046  2.0515 -0.6174
  543TMC3    C7 8118   0.801   4.157  17.444  0.4216 -0.9394  0.4809
  543TMC3    C8 8119   0.475   3.919  17.709 -0.8466  0.1954  0.7072
  543TMC3    O1 8120   0.862   4.161  17.551 -0.1246  0.0798 -0.4204
  543TMC3    O2 8121   0.375   3.851  17.691 -1.0970 -0.4962 -0.3758
  544MPD2     C 8122   0.461   3.813   0.448 -0.1558 -0.6320  0.1509
  544MPD2    C1 8123   0.399   3.750   0.346  0.2920  0.3843 -0.0885
  544MPD2    C2 8124   0.419   3.801   0.220 -0.0730 -0.6143  0.2084
  544MPD2    C3 8125   0.509   3.905   0.199  0.0177 -0.1580  0.4022
  544MPD2    C4 8126   0.567   3.966   0.309  0.4374  0.2588 -0.9865
  544MPD2    C5 8127   0.547   3.919   0.428  0.0181  0.1336  0.1718
  544MPD2     H 8128   0.375   3.750   0.134 -1.8557  0.0195  0.7408
  544MPD2    H1 8129   0.634   4.049   0.289  1.5736 -0.6187 -0.8117
  544MPD2    H2 8130   0.467   3.767   0.546 -0.0694 -0.3581  0.2743
  544MPD2    H3 8131   0.609   3.956   0.509  1.8737  0.5956 -1.4582
  544MPD2     N 8132   0.540   3.957   0.071 -0.7740  0.4936  0.2372
  544MPD2    H5 8133   0.602   4.037   0.061  1.6394 -1.5191 -0.9924
  544MPD2    N1 8134   0.323   3.637   0.377  0.2289  0.1170 -0.6500
  544MPD2    H7 8135   0.332   3.607   0.473  0.6803  0.9347 -0.4424
  545TMC3    C1 8136   0.180   3.462   0.343 -0.1903  0.2066  0.0637
  545TMC3    C2 8137   0.219   3.414   0.467  0.0938  0.1388 -0.9800
  545TMC3    C3 8138   0.195   3.284   0.493 -0.2467  0.7351  0.3633
  545TMC3    C4 8139   0.119   3.370   0.251 -0.3489 -0.1069 -0.2861
  545TMC3    C5 8140   0.090   3.244   0.291  0.3695 -0.0698 -1.2659
  545TMC3    C6 8141   0.124   3.201   0.415  0.5515  0.0704  0.0143
  545TMC3     C 8142   0.241   3.576   0.284  0.3670  0.1479 -0.2876
  545TMC3     O 8143   0.215   3.606   0.167 -0.0470 -0.1052 -0.1232
  545TMC3     H 8144   0.261   3.475   0.545 -0.8415 -1.5996  0.8945
  545TMC3    H1 8145   0.090   3.402   0.152  2.8348 -0.8347 -1.4459
  545TMC3    H2 8146   0.105   3.099   0.446 -0.5528  0.3490  0.2635
  545TMC3    C7 8147   0.039   3.149   0.191  0.4144  0.0831 -0.0366
  545TMC3    C8 8148   0.223   3.242   0.630  0.1010 -0.5130  0.4308
  545TMC3    O1 8149   0.005   3.198   0.083 -0.4242  0.1516  0.2593
  545TMC3    O2 8150   0.232   3.331   0.709  0.0545 -0.4972 -0.1641
  546MPD2     C 8151   1.875   3.207  17.136 -0.3878 -0.0225  0.5378
  546MPD2    C1 8152   1.828   3.260  17.249 -0.7635  0.3940 -0.4529
  546MPD2    C2 8153   1.904   3.351  17.312  0.0145  0.0423  0.0343
  546MPD2    C3 8154   2.030   3.390  17.265 -0.1768  0.8156  0.4011
  546MPD2    C4 8155   2.067   3.342  17.145 -0.2362  0.5555 -0.0618
  546MPD2    C5 8156   1.990   3.251  17.075 -0.5197  0.1269  0.4988
  546MPD2     H 8157   1.861   3.394  17.402  0.2720 -1.1359  0.7257
  546MPD2    H1 8158   2.166   3.364  17.106  0.0635 -1.0963 -0.2308
  546MPD2    H2 8159   1.819   3.127  17.090 -0.1301 -0.8542  1.6639
  546MPD2    H3 8160   2.022   3.211  16.979  0.8516 -0.5029  1.2142
  546MPD2     N 8161   2.119   3.474  17.335 -0.3078  0.4726 -0.3139
  546MPD2    H5 8162   2.213   3.483  17.297 -1.8223  2.2221 -3.5859
  546MPD2    N1 8163   1.708   3.211  17.302 -0.0998  0.0584  0.3661
  546MPD2    H7 8164   1.672   3.130  17.252 -0.7423  0.2524  0.5137
  547TMC3    C1 8165   1.534   3.171  17.456 -0.5003 -0.0817  0.7121
  547TMC3    C2 8166   1.459   3.126  17.349 -0.3672 -0.2986  0.2912
  547TMC3    C3 8167   1.331   3.071  17.383 -0.8460  0.8299 -0.4350
  547TMC3    C4 8168   1.497   3.152  17.580  0.1594  0.8092  1.1473
  547TMC3    C5 8169   1.376   3.092  17.604  0.6185 -0.4660  0.0412
  547TMC3    C6 8170   1.287   3.055  17.511  0.2240  0.6839  0.2997
  547TMC3     C 8171   1.660   3.234  17.429 -0.4581 -0.3574 -0.0718
  547TMC3     O 8172   1.714   3.278  17.529 -0.3816 -0.8980 -0.4225
  547TMC3     H 8173   1.491   3.128  17.245 -0.1548 -1.9569  0.3146
  547TMC3    H1 8174   1.561   3.181  17.663  1.0949  3.3325 -0.4580
  547TMC3    H2 8175   1.189   3.016  17.537 -0.6287  2.6553  0.0438
  547TMC3    C7 8176   1.313   3.101  17.729 -0.0747  0.0838 -0.0187
  547TMC3    C8 8177   1.227   3.080  17.275 -0.3352 -0.3691  0.0024
  547TMC3    O1 8178   1.196   3.140  17.723  0.3348  0.4530  0.5536
  547TMC3    O2 8179   1.256   3.133  17.168 -0.1349 -0.6514  0.0164
  548MPD2     C 8180   1.587   3.857  12.970  0.4098  0.1467 -0.3254
  548MPD2    C1 8181   1.541   3.777  12.873  0.1642  0.0987  0.2805
  548MPD2    C2 8182   1.614   3.689  12.807 -0.4175  0.3453 -0.4353
  548MPD2    C3 8183   1.751   3.681  12.844 -0.1324 -0.6426  0.3476
  548MPD2    C4 8184   1.801   3.764  12.934  0.0919 -0.4943 -0.4197
  548MPD2    C5 8185   1.719   3.856  12.995  0.4356 -0.2244  0.0725
  548MPD2     H 8186   1.578   3.641  12.717  0.3246  1.0814 -1.1309
  548MPD2    H1 8187   1.906   3.752  12.957 -0.4908 -1.3602  1.7722
  548MPD2    H2 8188   1.518   3.923  13.021  2.1095  2.9787 -1.6876
  548MPD2    H3 8189   1.759   3.919  13.074 -3.9465 -0.1903  2.2394
  548MPD2     N 8190   1.828   3.593  12.771 -0.2207 -0.1283 -0.3529
  548MPD2    H5 8191   1.779   3.541  12.700  0.1830 -0.4800 -0.3751
  548MPD2    N1 8192   1.404   3.794  12.844  0.2421  0.1105 -0.1422
  548MPD2    H7 8193   1.355   3.880  12.870 -1.5228 -1.0753  0.4640
  549TMC3    C1 8194   1.193   3.745  12.750 -0.5761  0.6015 -0.0677
  549TMC3    C2 8195   1.154   3.873  12.712  0.3699 -0.5005 -0.9008
  549TMC3    C3 8196   1.039   3.887  12.633 -0.0098  0.3572  0.5380
  549TMC3    C4 8197   1.111   3.643  12.718  0.0231 -0.1257  0.1720
  549TMC3    C5 8198   0.987   3.666  12.659 -0.2139 -0.3429  0.3413
  549TMC3    C6 8199   0.952   3.786  12.614  0.5598 -0.0196 -0.4579
  549TMC3     C 8200   1.328   3.707  12.770 -0.2768 -0.3173 -0.0455
  549TMC3     O 8201   1.354   3.601  12.716  0.1867  0.0338 -0.4229
  549TMC3     H 8202   1.220   3.958  12.721  1.6134 -1.5941  0.2478
  549TMC3    H1 8203   1.135   3.550  12.766  0.1952  0.6620  1.6078
  549TMC3    H2 8204   0.862   3.794  12.555 -1.2220  0.1059  2.2633
  549TMC3    C7 8205   0.889   3.560  12.649 -0.1202 -0.0417 -0.5966
  549TMC3    C8 8206   0.978   4.026  12.605  0.1542 -0.6245  0.2146
  549TMC3    O1 8207   0.773   3.582  12.628 -0.4467 -0.4824 -0.0092
  549TMC3    O2 8208   0.864   4.023  12.561  0.0774  0.1379  0.2416
  550TMC3    C1 8209   0.270   1.720  12.107  0.3201  0.0220  0.0115
  550TMC3    C2 8210   0.290   1.736  12.243 -0.9186  0.1598 -0.4797
  550TMC3    C3 8211   0.282   1.860  12.290  0.0993  0.0936  0.4034
  550TMC3    C4 8212   0.230   1.824  12.022  0.4088 -0.6705  0.1422
  550TMC3    C5 8213   0.211   1.942  12.079 -0.2765 -0.5757  0.7663
  550TMC3    C6 8214   0.248   1.960  12.205 -1.2133 -0.6486 -0.3312
  550TMC3     C 8215   0.294   1.584  12.053 -0.1342 -1.5267 -0.4302
  550TMC3     O 8216   0.373   1.511  12.116 -0.4739  0.5699  0.0054
  550TMC3     H 8217   0.340   1.670  12.313  1.8437  2.1669 -0.5338
  550TMC3    H1 8218   0.233   1.812  11.914 -0.1061  0.8331 -0.0313
  550TMC3    H2 8219   0.215   2.054  12.249  0.2753  0.4707 -1.6247
  550TMC3    C7 8220   0.097   2.019  12.034 -0.1265  0.2317 -0.0014
  550TMC3    C8 8221   0.208   1.876  12.413  0.0169  0.3716  1.4904
  550TMC3    O1 8222   0.023   1.975  11.948  0.1698  0.3467 -0.1966
  550TMC3    O2 8223   0.224   1.977  12.483 -0.2114 -0.0693  0.3784
  551TMC3    C1 8224   2.325   4.465  13.727 -0.8619  0.2992  0.4652
  551TMC3    C2 8225   2.389   4.339  13.743  0.2565  0.2149  0.7228
  551TMC3    C3 8226   2.481   4.320  13.838 -0.1477  0.1379 -0.9461
  551TMC3    C4 8227   2.353   4.566  13.808 -0.3645 -0.1153  0.2206
  551TMC3    C5 8228   2.432   4.540  13.915  0.0193  0.1300  0.3689
  551TMC3    C6 8229   2.487   4.410  13.934  0.5339 -0.5283  0.0819
  551TMC3     C 8230   2.280   4.493  13.594 -0.2367  0.0656  0.6491
  551TMC3     O 8231   2.248   4.392  13.535  0.1944 -0.0995 -0.5627
  551TMC3     H 8232   2.380   4.260  13.669  0.8130 -0.3544  1.2593
  551TMC3    H1 8233   2.299   4.660  13.810  0.0691  0.1104  2.1435
  551TMC3    H2 8234   2.544   4.391  14.025 -0.7650  2.6400  1.5662
  551TMC3    C7 8235   2.463   4.638  14.026  0.2481  0.4177  0.7201
  551TMC3    C8 8236   2.609   4.299  13.776 -0.1766 -0.0857 -0.2481
  551TMC3    O1 8237   2.477   4.591  14.137 -0.0045 -0.6368  0.0773
  551TMC3    O2 8238   2.701   4.245  13.836  0.2232 -0.1295 -0.0194
  552MPD2     C 8239   4.207   1.935  14.354 -0.4463  0.1229 -0.6675
  552MPD2    C1 8240   4.309   1.846  14.325  0.4233  0.4189  0.6833
  552MPD2    C2 8241   4.415   1.845  14.420  0.1614  0.2097 -0.0940
  552MPD2    C3 8242   4.408   1.923  14.535 -0.2964  0.2434 -0.2067
  552MPD2    C4 8243   4.301   2.008  14.557 -0.5393 -0.0047  0.3786
  552MPD2    C5 8244   4.199   2.012  14.466 -0.4161  0.0876  0.2381
  552MPD2     H 8245   4.492   1.773  14.396  0.5116  1.2029 -1.9172
  552MPD2    H1 8246   4.292   2.068  14.646  2.7185 -2.7197  2.5368
  552MPD2    H2 8247   4.131   1.964  14.283 -1.5013  1.6100  1.0830
  552MPD2    H3 8248   4.110   2.075  14.466 -0.4570  0.0264  0.5029
  552MPD2     N 8249   4.510   1.915  14.635 -0.1163 -0.1853 -0.0601
  552MPD2    H5 8250   4.507   1.987  14.707 -0.8280  0.2448 -0.5190
  552MPD2    N1 8251   4.326   1.762  14.213  0.3524  0.4597 -0.1083
  552MPD2    H7 8252   4.413   1.710  14.213 -0.6983 -1.2790  0.6430
  553TMC3    C1 8253   4.284   1.666  14.014 -0.4012  0.0039  0.6893
  553TMC3    C2 8254   4.224   1.663  13.891 -0.3725 -0.2359  0.2921
  553TMC3    C3 8255   4.262   1.560  13.807 -0.2604  0.2857 -0.0273
  553TMC3    C4 8256   4.368   1.560  14.057 -0.6465  0.2359 -0.6764
  553TMC3    C5 8257   4.398   1.464  13.964 -0.0083 -0.2588 -0.6059
  553TMC3    C6 8258   4.350   1.457  13.841 -0.3191 -0.0666  0.9399
  553TMC3     C 8259   4.233   1.754  14.115 -0.8401 -0.0439  0.1982
  553TMC3     O 8260   4.130   1.813  14.093  0.2397  0.5100 -0.5022
  553TMC3     H 8261   4.169   1.749  13.853  1.0074  0.2671 -0.5795
  553TMC3    H1 8262   4.403   1.548  14.159  1.8414 -0.0713 -1.5735
  553TMC3    H2 8263   4.390   1.390  13.766  1.5578  3.3692 -1.1353
  553TMC3    C7 8264   4.507   1.367  13.981 -0.4608  0.2360 -0.2488
  553TMC3    C8 8265   4.204   1.566  13.674 -0.1526  0.2218 -0.1356
  553TMC3    O1 8266   4.522   1.271  13.904 -0.3515  0.0496 -0.7572
  553TMC3    O2 8267   4.133   1.661  13.646  0.2299  0.3807 -0.3073
  554TMC3    C1 8268   1.668   0.747  11.555  0.1865 -0.6866 -0.2202
  554TMC3    C2 8269   1.604   0.702  11.443  0.3276 -0.5954  0.1203
  554TMC3    C3 8270   1.603   0.778  11.332  0.3353 -0.1672 -0.0854
  554TMC3    C4 8271   1.729   0.872  11.560 -0.1917  0.9594 -0.1262
  554TMC3    C5 8272   1.728   0.943  11.443 -0.7284  0.1023  0.0636
  554TMC3    C6 8273   1.671   0.894  11.331 -0.3480  0.0256 -0.1687
  554TMC3     C 8274   1.713   0.651  11.649  0.0492 -0.1183 -0.8995
  554TMC3     O 8275   1.646   0.552  11.666 -0.2396  0.1701 -0.0634
  554TMC3     H 8276   1.546   0.611  11.443 -2.8561  1.4430 -0.6523
  554TMC3    H1 8277   1.757   0.917  11.654  2.0560 -1.3395  0.3247
  554TMC3    H2 8278   1.657   0.958  11.245  3.3323 -0.5848 -1.2331
  554TMC3    C7 8279   1.787   1.075  11.451  0.2739  0.0155 -0.8363
  554TMC3    C8 8280   1.568   0.727  11.201 -0.1117 -0.1713  0.5345
  554TMC3    O1 8281   1.798   1.125  11.561  0.2819 -0.3796  0.5166
  554TMC3    O2 8282   1.626   0.770  11.104  0.0245  0.5110 -0.3543
  555TMC3    C1 8283   0.327   0.502  15.256 -0.3054 -0.5451 -0.5670
  555TMC3    C2 8284   0.337   0.568  15.377 -0.2610  0.8456  0.2424
  555TMC3    C3 8285   0.434   0.533  15.463  0.0516  0.0914 -0.2136
  555TMC3    C4 8286   0.405   0.393  15.231  0.4524  0.0566 -0.1398
  555TMC3    C5 8287   0.500   0.362  15.323  0.4296 -0.7208  0.1347
  555TMC3    C6 8288   0.523   0.431  15.439 -0.0750  0.0326  0.0806
  555TMC3     C 8289   0.286   0.586  15.141 -0.1175 -0.3376 -0.0145
  555TMC3     O 8290   0.321   0.702  15.148 -0.6700 -0.1113  0.1228
  555TMC3     H 8291   0.283   0.662  15.383 -2.2402 -0.2273 -0.7758
  555TMC3    H1 8292   0.402   0.332  15.141  0.7313 -0.7234  0.3768
  555TMC3    H2 8293   0.583   0.394  15.520 -0.1505  0.9174  0.5361
  555TMC3    C7 8294   0.563   0.224  15.308 -0.3355  1.2507 -1.2537
  555TMC3    C8 8295   0.407   0.592  15.595  0.3841 -0.3807 -0.2809
  555TMC3    O1 8296   0.499   0.149  15.232 -0.1667 -0.3625  0.1147
  555TMC3    O2 8297   0.315   0.671  15.599 -0.4148  0.0419  0.5336
  556MPD2     C 8298   3.319   2.206  10.382  0.2678  0.2173  0.3720
  556MPD2    C1 8299   3.302   2.117  10.482 -0.3759  0.0340 -0.0588
  556MPD2    C2 8300   3.326   1.986  10.445  0.0129  0.5407  0.2837
  556MPD2    C3 8301   3.366   1.947  10.322 -0.3459  0.0720 -0.2112
  556MPD2    C4 8302   3.373   2.042  10.225 -0.0579  0.0008  0.1522
  556MPD2    C5 8303   3.344   2.169  10.256  0.1424 -0.5300 -0.3553
  556MPD2     H 8304   3.314   1.909  10.521  2.8331 -1.5006 -1.3622
  556MPD2    H1 8305   3.396   2.006  10.125  0.3831  1.5900 -0.3169
  556MPD2    H2 8306   3.294   2.311  10.385  1.1334  0.4452 -0.5546
  556MPD2    H3 8307   3.343   2.242  10.177 -0.2881  1.2593  1.3023
  556MPD2     N 8308   3.410   1.815  10.301  0.3060  0.3886 -0.1098
  556MPD2    H5 8309   3.411   1.755  10.383  1.7814  0.7115  0.1022
  556MPD2    N1 8310   3.270   2.152  10.613  0.1542 -0.2423 -0.3333
  556MPD2    H7 8311   3.263   2.074  10.677 -0.4414 -0.3044 -0.4797
  557TMC3    C1 8312   3.520   1.639  10.211 -0.3864 -0.6057  0.6988
  557TMC3    C2 8313   3.608   1.578  10.124  0.1036  0.5127  0.2833
  557TMC3    C3 8314   3.641   1.447  10.136  0.6619  0.3406 -0.0890
  557TMC3    C4 8315   3.439   1.555  10.288  0.0458 -0.3556  0.3118
  557TMC3    C5 8316   3.481   1.422  10.300 -0.1914 -0.0008 -0.6809
  557TMC3    C6 8317   3.580   1.362  10.226 -0.3178  0.1331 -0.4377
  557TMC3     C 8318   3.494   1.774  10.206 -0.4916 -0.2530 -0.7656
  557TMC3     O 8319   3.557   1.835  10.122  0.0861 -0.6920  0.2041
  557TMC3     H 8320   3.670   1.639  10.059 -0.0844  0.8603  0.4307
  557TMC3    H1 8321   3.362   1.589  10.357  0.0340 -3.0415  1.6190
  557TMC3    H2 8322   3.606   1.259  10.241 -0.9728  0.0664  0.2661
  557TMC3    C7 8323   3.418   1.352  10.398  0.3984  0.3111 -0.8825
  557TMC3    C8 8324   3.726   1.396  10.029 -0.3465  0.5268  0.8307
  557TMC3    O1 8325   3.293   1.341  10.387 -0.3333  0.3662  0.2794
  557TMC3    O2 8326   3.806   1.476   9.980 -0.0861  0.5425 -0.0021
  558TMC3    C1 8327   1.048   4.389  10.151 -0.6600 -0.1775  0.4930
  558TMC3    C2 8328   0.967   4.302  10.220  0.0766 -0.6291  0.1893
  558TMC3    C3 8329   0.891   4.219  10.143  0.2241 -0.3796  0.4209
  558TMC3    C4 8330   1.064   4.385  10.016 -0.6028  0.0002 -0.0533
  558TMC3    C5 8331   0.996   4.295   9.940  0.1962 -0.6824 -1.0370
  558TMC3    C6 8332   0.905   4.214  10.005  0.7845  0.0634  0.0463
  558TMC3     C 8333   1.116   4.492  10.219 -0.1418 -0.3739  0.0693
  558TMC3     O 8334   1.212   4.544  10.162  0.0355 -0.4364  0.1852
  558TMC3     H 8335   0.960   4.307  10.328  1.4026  2.9344  0.1015
  558TMC3    H1 8336   1.149   4.436   9.973 -0.8700  0.7781  0.3202
  558TMC3    H2 8337   0.855   4.136   9.949  1.5201 -1.2748  1.2364
  558TMC3    C7 8338   0.988   4.309   9.796 -0.0667  0.0009  0.5183
  558TMC3    C8 8339   0.790   4.133  10.201 -0.0689  0.0980 -0.2064
  558TMC3    O1 8340   1.072   4.371   9.731 -0.4291 -0.4646 -0.1900
  558TMC3    O2 8341   0.732   4.041  10.145  0.6183 -0.1649  0.3450
  559MPD2     C 8342   1.277   0.266  10.387  0.0338 -0.4848 -0.0174
  559MPD2    C1 8343   1.221   0.224  10.512  0.0088  0.0295  0.4604
  559MPD2    C2 8344   1.303   0.210  10.621  0.4213 -0.3662 -1.1445
  559MPD2    C3 8345   1.433   0.249  10.619 -0.2222 -1.1539 -0.0468
  559MPD2    C4 8346   1.483   0.309  10.507  0.5070 -0.6609  0.6206
  559MPD2    C5 8347   1.406   0.313  10.390 -0.0271  0.7641 -0.1463
  559MPD2     H 8348   1.266   0.167  10.714 -0.9366 -0.3292 -1.6649
  559MPD2    H1 8349   1.587   0.340  10.502  0.4624 -0.1168  2.9224
  559MPD2    H2 8350   1.212   0.276  10.300 -0.1206  0.6905  0.2458
  559MPD2    H3 8351   1.437   0.366  10.301 -1.4988  1.6637 -0.1310
  559MPD2     N 8352   1.493   0.248  10.746 -0.4934  0.4520 -1.1599
  559MPD2    H5 8353   1.433   0.214  10.821  0.1391  1.1461 -0.3458
  559MPD2    N1 8354   1.081   0.199  10.530 -0.2629 -0.7666  0.8663
  559MPD2    H7 8355   1.046   0.167  10.619 -0.4402  1.3421  1.5480
  560TMC3    C1 8356   1.649   0.238  10.912  0.5558  0.2010 -0.4009
  560TMC3    C2 8357   1.561   0.144  10.968  0.1998 -0.1502  0.1491
  560TMC3    C3 8358   1.554   0.139  11.102  0.0096 -0.3854  0.2258
  560TMC3    C4 8359   1.701   0.340  10.991 -0.1052  0.1909  0.6382
  560TMC3    C5 8360   1.676   0.337  11.124  0.5365 -0.2545 -0.7344
  560TMC3    C6 8361   1.599   0.241  11.183 -0.4741  0.1344 -0.1388
  560TMC3     C 8362   1.623   0.275  10.775  0.2640 -0.3076  0.4398
  560TMC3     O 8363   1.716   0.329  10.713  0.7801 -0.0939 -0.1380
  560TMC3     H 8364   1.527   0.059  10.910 -0.5058 -1.1588  2.0481
  560TMC3    H1 8365   1.739   0.435  10.955 -1.4132  0.9690  1.3163
  560TMC3    H2 8366   1.582   0.240  11.290  0.9807  3.4168  0.1311
  560TMC3    C7 8367   1.756   0.422  11.210  0.0731 -0.1907  0.2653
  560TMC3    C8 8368   1.442   0.062  11.153  0.8757 -0.3749 -0.6157
  560TMC3    O1 8369   1.695   0.441  11.312 -0.1211 -0.3444 -0.3087
  560TMC3    O2 8370   1.352   0.029  11.073  0.5646  0.0111  0.5530
  561TMC3    C1 8371   3.987   4.172  11.350  0.0303 -0.6753  0.1590
  561TMC3    C2 8372   3.882   4.100  11.399  0.1913  0.1856  0.2784
  561TMC3    C3 8373   3.770   4.157  11.443  0.1732  0.4832  0.7533
  561TMC3    C4 8374   3.977   4.305  11.332  0.2909 -0.0523  0.0940
  561TMC3    C5 8375   3.857   4.355  11.367 -0.1918  0.5071 -0.1373
  561TMC3    C6 8376   3.751   4.292  11.422  0.7224  0.0109 -0.7446
  561TMC3     C 8377   4.105   4.096  11.313  0.0986  0.4441  0.5467
  561TMC3     O 8378   4.091   3.975  11.310  0.3069  0.1033 -0.4189
  561TMC3     H 8379   3.868   3.993  11.396  1.5295  0.0247 -0.0964
  561TMC3    H1 8380   4.062   4.360  11.292 -0.3290  1.9226  1.4997
  561TMC3    H2 8381   3.654   4.338  11.432  0.2803 -1.4135  1.4035
  561TMC3    C7 8382   3.836   4.500  11.371  0.1653  0.6248  0.6780
  561TMC3    C8 8383   3.655   4.079  11.479  0.6588 -0.7102 -0.4024
  561TMC3    O1 8384   3.737   4.541  11.433  0.7751 -0.0896 -0.1077
  561TMC3    O2 8385   3.659   3.958  11.452 -0.1709  0.2992 -0.0266
  562TMC3    C1 8386   0.384   0.891  16.660  0.5639  0.1146  0.2293
  562TMC3    C2 8387   0.334   1.015  16.640 -0.1484 -1.1162 -0.2176
  562TMC3    C3 8388   0.277   1.044  16.522  0.4173 -0.5529  0.2381
  562TMC3    C4 8389   0.398   0.796  16.558  0.0228  0.4271  0.3358
  562TMC3    C5 8390   0.335   0.836  16.443 -0.2892 -0.7326  0.4826
  562TMC3    C6 8391   0.267   0.955  16.428 -0.1209  0.2565 -0.1907
  562TMC3     C 8392   0.439   0.853  16.786  0.0208 -0.3253 -0.1390
  562TMC3     O 8393   0.529   0.772  16.777  0.1941  0.1132 -0.3327
  562TMC3     H 8394   0.326   1.082  16.725  1.6887  0.1975 -1.0873
  562TMC3    H1 8395   0.415   0.692  16.585 -0.8974  0.8368  2.4755
  562TMC3    H2 8396   0.200   0.963  16.343  0.1127  1.1526 -0.2866
  562TMC3    C7 8397   0.342   0.746  16.331  0.0958  0.3150  0.2632
  562TMC3    C8 8398   0.203   1.161  16.518 -1.3042  0.2528  0.5951
  562TMC3    O1 8399   0.279   0.776  16.229 -0.4950  0.1170  0.9440
  562TMC3    O2 8400   0.192   1.223  16.622 -0.5399 -0.3358  0.0009
  563MPD2     C 8401   2.772   2.132  15.579 -0.1060 -0.1948 -0.3976
  563MPD2    C1 8402   2.845   2.182  15.680  0.2471  0.3519 -0.0034
  563MPD2    C2 8403   2.934   2.089  15.735  0.2634 -0.0266  0.2418
  563MPD2    C3 8404   2.921   1.956  15.715 -0.9587 -0.1413 -0.3417
  563MPD2    C4 8405   2.831   1.909  15.626 -0.3068 -0.4274  0.0772
  563MPD2    C5 8406   2.762   1.996  15.555 -0.3172  0.3368 -0.1639
  563MPD2     H 8407   2.984   2.119  15.826  1.3071  0.0203 -0.3446
  563MPD2    H1 8408   2.824   1.805  15.596  1.4709 -1.1973  2.3280
  563MPD2    H2 8409   2.707   2.195  15.519 -0.4602 -0.7551 -0.6012
  563MPD2    H3 8410   2.688   1.960  15.485  0.2651  1.6528 -1.4776
  563MPD2     N 8411   2.980   1.871  15.808  0.5777 -0.6583  0.1273
  563MPD2    H5 8412   3.047   1.915  15.869 -0.5530  0.6780  0.4071
  563MPD2    N1 8413   2.831   2.311  15.733 -0.4229 -0.2792 -0.7919
  563MPD2    H7 8414   2.746   2.364  15.717 -0.9104 -0.4743  1.1345
  564TMC3    C1 8415   2.826   2.419  15.934  0.1600 -0.8552 -0.2651
  564TMC3    C2 8416   2.693   2.427  15.898  0.3629 -0.3751 -0.2015
  564TMC3    C3 8417   2.599   2.386  15.987  0.1678 -0.6414  0.2662
  564TMC3    C4 8418   2.861   2.386  16.059 -0.3144 -0.0536  0.1304
  564TMC3    C5 8419   2.764   2.327  16.136  0.1259  0.1420  0.5883
  564TMC3    C6 8420   2.632   2.329  16.103 -0.2419 -0.1930  0.5460
  564TMC3     C 8421   2.911   2.359  15.836  0.4966  0.2557 -0.2864
  564TMC3     O 8422   3.028   2.327  15.865  0.5418  0.1206  0.0214
  564TMC3     H 8423   2.661   2.498  15.823 -0.5926 -2.3577 -1.6733
  564TMC3    H1 8424   2.963   2.376  16.094 -1.4202 -0.4280  3.2393
  564TMC3    H2 8425   2.560   2.300  16.179 -0.5423  1.7293  0.9985
  564TMC3    C7 8426   2.810   2.188  16.180  0.2366  0.1249  0.3361
  564TMC3    C8 8427   2.515   2.288  15.925 -0.1321 -0.5956  0.3883
  564TMC3    O1 8428   2.902   2.166  16.253  0.2249  0.0980  0.0520
  564TMC3    O2 8429   2.507   2.180  15.982  0.7346  0.6317  0.0616
  565TMC3    C1 8430   3.009   3.928   9.867 -0.4073  0.5309  0.0167
  565TMC3    C2 8431   3.015   3.889   9.992  0.2256  0.3377  0.0980
  565TMC3    C3 8432   2.959   3.770  10.018 -0.3106  0.3900  0.0373
  565TMC3    C4 8433   2.936   3.869   9.761  0.1666  0.1617 -0.3840
  565TMC3    C5 8434   2.882   3.751   9.793 -0.0291 -0.5699 -0.1888
  565TMC3    C6 8435   2.892   3.694   9.919 -0.7229  0.0956 -0.7129
  565TMC3     C 8436   3.045   4.069   9.843  0.5246  0.7104  0.2633
  565TMC3     O 8437   3.146   4.110   9.893 -0.0173 -0.1974  0.3375
  565TMC3     H 8438   3.074   3.951  10.058  1.2926 -0.6735  0.0977
  565TMC3    H1 8439   2.936   3.899   9.657  3.0183  0.1382 -0.3738
  565TMC3    H2 8440   2.837   3.605   9.948  2.3742 -1.6168  0.0101
  565TMC3    C7 8441   2.826   3.675   9.686  0.4374  0.4745 -0.4121
  565TMC3    C8 8442   2.977   3.710  10.150 -0.0499  0.2583 -0.1107
  565TMC3    O1 8443   2.789   3.736   9.588 -0.1953  0.8717 -0.4555
  565TMC3    O2 8444   3.015   3.785  10.240 -0.3190  0.3034  0.1779
  566MPD2     C 8445   4.665   4.433  14.105 -0.6237 -0.3804 -0.2252
  566MPD2    C1 8446   4.733   4.549  14.058  0.1341  0.6633 -0.0703
  566MPD2    C2 8447   4.652   4.654  14.015 -0.4456 -0.6696  0.0291
  566MPD2    C3 8448   4.509   4.639  14.017  0.1218 -0.0541  0.2627
  566MPD2    C4 8449   4.446   4.534  14.085  0.4306  0.3238 -0.4374
  566MPD2    C5 8450   4.529   4.431  14.129  0.6247 -0.3237 -0.3049
  566MPD2     H 8451   4.699   0.007  13.978 -0.3913 -0.6197  0.2196
  566MPD2    H1 8452   4.339   4.521  14.090  0.5942 -0.4449  0.8226
  566MPD2    H2 8453   4.724   4.348  14.137  0.8667  0.1908 -1.5251
  566MPD2    H3 8454   4.489   4.339  14.169 -1.0320  0.6664  0.3340
  566MPD2     N 8455   4.423   4.736  13.953  0.2282  0.3333  0.6668
  566MPD2    H5 8456   4.324   4.723  13.967  0.6233 -1.9413  1.3020
  566MPD2    N1 8457   0.138   4.536  14.045 -0.3087  0.1599 -0.2343
  566MPD2    H7 8458   0.177   4.451  14.085 -2.6723 -0.0885  1.5499
  567TMC3    C1 8459   0.354   4.598  14.017  0.9455 -0.1066  0.7568
  567TMC3    C2 8460   0.440   4.673  13.942 -0.5519 -0.1527  0.3792
  567TMC3    C3 8461   0.570   4.689  13.980  0.5923  0.3029  0.1412
  567TMC3    C4 8462   0.387   4.536  14.135 -0.2964 -0.0743 -0.7864
  567TMC3    C5 8463   0.516   4.559  14.169  0.2401  0.3196  0.3790
  567TMC3    C6 8464   0.607   4.629  14.094 -0.2829  0.0925 -0.3757
  567TMC3     C 8465   0.213   4.631  13.985  0.1626 -0.4667  0.2278
  567TMC3     O 8466   0.183   0.009  13.959  0.5089 -0.4929  0.5179
  567TMC3     H 8467   0.402   4.724  13.854 -0.0972  0.2812  0.4337
  567TMC3    H1 8468   0.325   4.465  14.189 -0.6536  1.1791  0.4507
  567TMC3    H2 8469   0.705   4.644  14.139 -2.4145  0.2651  4.1053
  567TMC3    C7 8470   0.567   4.531  14.303  0.4596 -0.4520 -0.1522
  567TMC3    C8 8471   0.652   0.026  13.891 -0.0726 -0.5219  1.2587
  567TMC3    O1 8472   0.683   4.494  14.314 -0.8908 -0.2149 -0.1688
  567TMC3    O2 8473   0.593   0.099  13.812  0.4163 -0.0468 -0.4729
  568MPD2     C 8474   2.179   0.862  15.671 -0.4857  0.1716  0.1610
  568MPD2    C1 8475   2.190   0.903  15.804  0.3112  0.6048  0.3757
  568MPD2    C2 8476   2.147   1.033  15.829  0.6005  0.6428 -0.1354
  568MPD2    C3 8477   2.099   1.117  15.730  0.3075 -0.4208 -0.5639
  568MPD2    C4 8478   2.087   1.075  15.596 -0.5136  0.3299 -0.2278
  568MPD2    C5 8479   2.129   0.946  15.575  1.1525 -0.9523 -0.3734
  568MPD2     H 8480   2.164   1.076  15.927  3.0088 -0.6243  0.0158
  568MPD2    H1 8481   2.036   1.124  15.513 -0.0137 -2.1018 -1.9754
  568MPD2    H2 8482   2.221   0.766  15.644 -1.1249  0.1435 -0.7024
  568MPD2    H3 8483   2.133   0.914  15.472 -0.3161 -0.9670 -0.4275
  568MPD2     N 8484   2.067   1.251  15.769  0.1826 -0.3432 -0.0577
  568MPD2    H5 8485   2.081   1.275  15.866 -1.6648  1.2379 -0.1719
  568MPD2    N1 8486   2.243   0.815  15.900 -0.5589 -0.7992  0.2907
  568MPD2    H7 8487   2.269   0.720  15.876  0.5142 -0.0480 -1.5433
  569TMC3    C1 8488   2.028   1.482  15.750 -0.5759 -0.4922 -0.0154
  569TMC3    C2 8489   2.032   1.474  15.888  0.4699 -0.4214  0.0175
  569TMC3    C3 8490   2.081   1.583  15.957 -0.0561 -0.4098 -0.1306
  569TMC3    C4 8491   2.055   1.596  15.678 -0.5741  0.0145 -0.5525
  569TMC3    C5 8492   2.111   1.699  15.748 -0.0978 -0.2003 -0.3390
  569TMC3    C6 8493   2.129   1.696  15.891  0.7874  0.3110 -0.1415
  569TMC3     C 8494   2.038   1.359  15.680  0.3217 -0.7886 -0.5829
  569TMC3     O 8495   2.040   1.361  15.556 -0.2295 -0.1388  0.1991
  569TMC3     H 8496   1.986   1.395  15.947  1.8313  2.2009  4.6596
  569TMC3    H1 8497   2.075   1.585  15.572  1.4933 -3.4940  0.1921
  569TMC3    H2 8498   2.138   1.793  15.938  1.9128 -1.2781  2.9450
  569TMC3    C7 8499   2.134   1.814  15.669 -0.6726  0.5575 -0.3766
  569TMC3    C8 8500   2.105   1.566  16.100 -0.1337 -0.4552  0.5960
  569TMC3    O1 8501   2.089   1.823  15.552  0.1929 -0.0177  0.0568
  569TMC3    O2 8502   2.070   1.458  16.147 -0.1648  0.5972  0.5693
  570TMC3    C1 8503   1.822   4.258  16.316 -0.6024  0.2436 -0.0323
  570TMC3    C2 8504   1.904   4.320  16.222  0.7047  0.3180 -0.4585
  570TMC3    C3 8505   1.910   4.454  16.209  0.4802 -0.3578 -0.0123
  570TMC3    C4 8506   1.732   4.331  16.389  1.1293 -0.1427 -0.3752
  570TMC3    C5 8507   1.739   4.472  16.365  0.4100 -0.3706  0.5037
  570TMC3    C6 8508   1.829   4.532  16.289  0.4307 -0.2262 -0.9080
  570TMC3     C 8509   1.859   4.123  16.358 -0.6216 -0.2886  0.1862
  570TMC3     O 8510   1.929   4.058  16.284 -0.3143  0.3925  0.2484
  570TMC3     H 8511   1.993   4.266  16.191 -0.7301 -2.1816 -0.2148
  570TMC3    H1 8512   1.664   4.280  16.457  0.1955  0.3410 -0.9423
  570TMC3    H2 8513   1.834   4.640  16.284 -1.9275 -0.0847 -0.3158
  570TMC3    C7 8514   1.652   4.565  16.442 -0.0572 -0.2973  0.4736
  570TMC3    C8 8515   1.985   4.522  16.103  0.2255  0.2086 -0.3712
  570TMC3    O1 8516   1.705   4.666  16.485 -0.2645  0.4530 -0.9044
  570TMC3    O2 8517   1.977   4.646  16.097 -0.1516 -0.1416 -0.1109
  571MPD2     C 8518   0.020   1.891   0.117  0.9606  0.0485  0.1536
  571MPD2    C1 8519   0.114   1.880   0.215  0.9014  0.6376 -0.7087
  571MPD2    C2 8520   0.123   1.970   0.320 -0.3354  0.4562 -0.3607
  571MPD2    C3 8521   0.018   2.062   0.329 -0.2578 -0.8804  0.2884
  571MPD2    C4 8522   4.654   2.079   0.235 -0.4746  0.1868  0.0066
  571MPD2    C5 8523   4.661   1.991   0.130 -0.0346  0.0593  0.4834
  571MPD2     H 8524   0.205   1.963   0.390 -2.1060  1.5964  1.8296
  571MPD2    H1 8525   4.577   2.155   0.244  1.1325  1.6280  1.4486
  571MPD2    H2 8526   0.010   1.819   0.037  0.2448 -1.0753  1.2631
  571MPD2    H3 8527   4.582   1.999   0.057  1.1205 -0.0256 -0.7716
  571MPD2     N 8528   0.021   2.153   0.439 -0.0934 -0.1555 -0.2880
  571MPD2    H5 8529   4.688   2.226   0.431 -1.2479 -1.2954 -0.3410
  571MPD2    N1 8530   0.217   1.782   0.191  0.2903  0.1747  0.0208
  571MPD2    H7 8531   0.208   1.727   0.107 -0.9002 -0.4753  0.5795
  572TMC3    C1 8532   0.115   2.264   0.621 -0.4943 -0.5595  0.6717
  572TMC3    C2 8533   0.204   2.256   0.727 -0.3873 -0.0449  0.5496
  572TMC3    C3 8534   0.243   2.375   0.776  0.2558  0.1388  0.2339
  572TMC3    C4 8535   0.076   2.385   0.566  0.5633 -0.1457  0.3230
  572TMC3    C5 8536   0.103   2.497   0.635  0.2784 -0.6932  0.6556
  572TMC3    C6 8537   0.191   2.498   0.743  0.5488  0.3970 -0.2105
  572TMC3     C 8538   0.098   2.138   0.548 -0.2794  0.0836  0.1707
  572TMC3     O 8539   0.155   2.035   0.579  0.2257 -0.6096  0.1814
  572TMC3     H 8540   0.248   2.160   0.750 -0.3087  0.2572  1.6464
  572TMC3    H1 8541   0.015   2.392   0.476  1.2693 -0.7124 -0.2040
  572TMC3    H2 8542   0.236   2.584   0.790  0.5626 -0.3142  1.0786
  572TMC3    C7 8543   0.066   2.619   0.569  0.1719 -0.1557 -0.2264
  572TMC3    C8 8544   0.350   2.369   0.874  0.2992 -0.1846 -0.1924
  572TMC3    O1 8545   0.019   2.608   0.457 -1.0350  0.0230  0.4042
  572TMC3    O2 8546   0.377   2.479   0.930 -0.0717  0.3111 -0.1640
  573MPD2     C 8547   0.663   2.004   0.754  0.3588 -0.0295 -0.8273
  573MPD2    C1 8548   0.661   2.135   0.712  0.6657 -0.8726 -0.1569
  573MPD2    C2 8549   0.586   2.180   0.601 -0.2994 -0.4089 -0.0871
  573MPD2    C3 8550   0.513   2.083   0.538  0.2759  0.9966  0.2905
  573MPD2    C4 8551   0.517   1.953   0.573  0.4687 -0.0167  0.2237
  573MPD2    C5 8552   0.590   1.913   0.680 -0.2679  0.8656  0.1243
  573MPD2     H 8553   0.582   2.281   0.562 -0.5862 -0.7250 -0.8744
  573MPD2    H1 8554   0.444   1.885   0.530  0.1972  0.2721  0.2317
  573MPD2    H2 8555   0.715   1.970   0.843  0.5636  1.4196 -0.3786
  573MPD2    H3 8556   0.587   1.811   0.714  2.1123  0.9083  0.4974
  573MPD2     N 8557   0.424   2.120   0.427 -0.2134  0.2018  0.7391
  573MPD2    H5 8558   0.382   2.042   0.378 -1.7452  2.2721 -1.2415
  573MPD2    N1 8559   0.739   2.224   0.793 -0.0085  0.2948 -0.0448
  573MPD2    H7 8560   0.774   2.187   0.880 -1.3772 -1.1007 -0.0741
  574TMC3    C1 8561   0.328   2.227   0.243  0.1691  0.2284  0.1387
  574TMC3    C2 8562   0.228   2.326   0.229  0.6509  0.5840 -0.3443
  574TMC3    C3 8563   0.163   2.327   0.110  0.1239 -0.3044 -0.4995
  574TMC3    C4 8564   0.354   2.129   0.141 -0.0328 -1.5993 -0.1395
  574TMC3    C5 8565   0.283   2.138   0.033  0.8433 -0.2031  0.0287
  574TMC3    C6 8566   0.185   2.231   0.011  0.6174 -0.5907 -0.2273
  574TMC3     C 8567   0.407   2.237   0.371 -0.0204  0.1571 -0.1700
  574TMC3     O 8568   0.408   2.343   0.433 -0.6555  0.4873 -0.6768
  574TMC3     H 8569   0.194   2.386   0.313  0.3969  0.6879 -0.5208
  574TMC3    H1 8570   0.436   2.062   0.164  1.1454 -0.7838 -1.9634
  574TMC3    H2 8571   0.150   2.245  17.659  1.3676 -0.3466 -0.4475
  574TMC3    C7 8572   0.297   2.035  17.676 -0.0894  0.5783  0.1086
  574TMC3    C8 8573   0.070   2.428   0.070 -0.0535  0.3449  0.6499
  574TMC3    O1 8574   0.389   1.954  17.682 -0.1595  0.2576  0.1770
  574TMC3    O2 8575   4.719   2.387  17.747  0.2391  0.3494 -0.0960
  575TMC3    C1 8576   2.826   3.835  11.004  0.2582  0.9685  0.0764
  575TMC3    C2 8577   2.744   3.742  11.056  0.4581 -0.3622 -0.2979
  575TMC3    C3 8578   2.699   3.641  10.974  0.2028 -0.5572 -0.1213
  575TMC3    C4 8579   2.860   3.840  10.874 -0.0181 -0.3095  0.1589
  575TMC3    C5 8580   2.832   3.721  10.803  0.3145 -0.2575 -0.8343
  575TMC3    C6 8581   2.742   3.626  10.846  0.5589 -0.2189  0.1401
  575TMC3     C 8582   2.838   3.962  11.081  0.1538  0.2020 -0.3186
  575TMC3     O 8583   2.833   3.953  11.201  0.3628  0.1384 -0.1227
  575TMC3     H 8584   2.710   3.751  11.158  2.3462 -1.5502  0.4340
  575TMC3    H1 8585   2.937   3.909  10.842 -0.3713 -0.0972 -0.2496
  575TMC3    H2 8586   2.700   3.552  10.779 -0.1563  0.8760 -0.6244
  575TMC3    C7 8587   2.898   3.701  10.672  0.8986 -0.0606  0.7547
  575TMC3    C8 8588   2.641   3.511  11.024 -0.3441 -0.9264  0.2742
  575TMC3    O1 8589   2.928   3.797  10.605 -0.7153  0.2350  0.0989
  575TMC3    O2 8590   2.577   3.436  10.950 -0.0158  0.2795 -0.5317
  576MPD2     C 8591   3.318   4.174  12.704 -0.6846 -0.2073  0.1311
  576MPD2    C1 8592   3.201   4.232  12.676  0.6054  0.9117  0.5914
  576MPD2    C2 8593   3.100   4.233  12.764  1.1751  0.2779  0.2704
  576MPD2    C3 8594   3.113   4.177  12.887 -0.2314 -0.0028  0.1185
  576MPD2    C4 8595   3.228   4.104  12.914  0.3694  0.3469  0.2707
  576MPD2    C5 8596   3.329   4.101  12.820 -0.0590 -0.0852  0.2830
  576MPD2     H 8597   3.005   4.274  12.730  2.0589  1.4451 -0.7768
  576MPD2    H1 8598   3.233   4.033  12.996  1.4493 -1.0142 -0.9872
  576MPD2    H2 8599   3.398   4.155  12.633  0.0116  3.0225  0.0751
  576MPD2    H3 8600   3.424   4.054  12.842  1.5572  1.7918 -2.5315
  576MPD2     N 8601   2.999   4.167  12.972 -0.5134  0.4449  1.1364
  576MPD2    H5 8602   2.919   4.212  12.928 -0.5989 -1.9200 -1.0950
  576MPD2    N1 8603   3.171   4.279  12.546 -0.8348  0.2721 -0.1212
  576MPD2    H7 8604   3.092   4.342  12.540 -0.2391  1.0155 -0.0600
  577TMC3    C1 8605   3.170   4.288  12.310 -0.1870  0.4253 -0.0894
  577TMC3    C2 8606   3.236   4.285  12.196 -0.2354 -0.0142 -0.0046
  577TMC3    C3 8607   3.166   4.248  12.081  0.4073 -0.5764 -0.5489
  577TMC3    C4 8608   3.035   4.283  12.323  0.5358  0.2600  0.5823
  577TMC3    C5 8609   2.966   4.279  12.200  0.5563 -1.2336  0.0029
  577TMC3    C6 8610   3.028   4.263  12.080  0.1258 -0.3528  0.1032
  577TMC3     C 8611   3.238   4.242  12.431 -0.4684 -0.3278  0.3255
  577TMC3     O 8612   3.329   4.163  12.409 -0.0656 -0.0735  0.9368
  577TMC3     H 8613   3.344   4.273  12.197  0.0352  2.1748 -2.2732
  577TMC3    H1 8614   2.981   4.277  12.417  3.0453  0.9793  2.0660
  577TMC3    H2 8615   2.974   4.244  11.988 -0.7973  0.1923  0.5309
  577TMC3    C7 8616   2.821   4.295  12.207 -0.2967 -0.5664 -0.6866
  577TMC3    C8 8617   3.249   4.224  11.959 -0.2984  0.4166  0.1758
  577TMC3    O1 8618   2.765   4.276  12.313 -0.0905 -0.0447  0.0628
  577TMC3    O2 8619   3.358   4.280  11.950  0.3622 -0.1288  0.4352
  578MPD2     C 8620   1.324   0.513   1.857  0.1060  0.6354 -0.8580
  578MPD2    C1 8621   1.338   0.440   1.746 -0.3253  0.7852  0.4065
  578MPD2    C2 8622   1.465   0.388   1.716  0.6140  0.1657 -0.2246
  578MPD2    C3 8623   1.575   0.416   1.794 -0.3870 -0.1612  0.6623
  578MPD2    C4 8624   1.554   0.479   1.918 -0.6882 -0.5563 -0.3930
  578MPD2    C5 8625   1.428   0.530   1.947  0.6920 -1.1388  0.3985
  578MPD2     H 8626   1.483   0.326   1.629 -1.0451 -1.5960  0.6684
  578MPD2    H1 8627   1.633   0.513   1.985 -0.6669 -0.7119 -0.3404
  578MPD2    H2 8628   1.229   0.554   1.890  0.7338  1.2138  0.2558
  578MPD2    H3 8629   1.403   0.579   2.040  0.3804  0.1122 -0.3404
  578MPD2     N 8630   1.699   0.351   1.764 -0.6409  0.9493  0.2597
  578MPD2    H5 8631   1.701   0.300   1.676 -0.2668  1.4295 -0.0072
  578MPD2    N1 8632   1.230   0.410   1.663  0.3242 -0.0525 -0.3617
  578MPD2    H7 8633   1.146   0.461   1.689  0.2510 -1.7024  2.6323
  579TMC3    C1 8634   1.929   0.308   1.777  0.2103  0.0401 -0.1540
  579TMC3    C2 8635   2.056   0.356   1.808  0.2956  0.7131 -0.1362
  579TMC3    C3 8636   2.162   0.279   1.780 -0.2618  1.0799 -0.4751
  579TMC3    C4 8637   1.917   0.185   1.715 -0.1565 -0.1630  0.2780
  579TMC3    C5 8638   2.029   0.116   1.674  0.0565 -0.6120  0.1662
  579TMC3    C6 8639   2.153   0.166   1.709  0.2257 -0.1827 -0.7496
  579TMC3     C 8640   1.811   0.364   1.844 -0.6180  0.2085  0.0923
  579TMC3     O 8641   1.833   0.451   1.929  0.9817 -0.4444 -0.2385
  579TMC3     H 8642   2.074   0.456   1.845 -1.0338  0.0376  2.3567
  579TMC3    H1 8643   1.818   0.147   1.692  0.2574 -0.8689 -0.3672
  579TMC3    H2 8644   2.244   0.110   1.695 -0.3367 -1.1010 -0.7485
  579TMC3    C7 8645   2.020   4.717   1.621  0.4648  0.3141  0.6561
  579TMC3    C8 8646   2.289   0.314   1.834  0.1063 -0.2823  0.6514
  579TMC3    O1 8647   2.124   4.655   1.627 -0.0375  0.4805 -0.0766
  579TMC3    O2 8648   2.300   0.368   1.941  0.6201  0.6031  0.2545
  580TMC3    C1 8649   0.616   3.006  11.820 -0.1860 -0.0255  0.1411
  580TMC3    C2 8650   0.666   3.008  11.693 -0.8336  0.4404  0.8510
  580TMC3    C3 8651   0.722   2.892  11.647  0.0293 -0.7476 -0.2182
  580TMC3    C4 8652   0.613   2.899  11.898 -0.1552 -0.1344 -0.3049
  580TMC3    C5 8653   0.668   2.786  11.854  0.7594 -0.1917  0.3890
  580TMC3    C6 8654   0.726   2.782  11.727  0.4491 -0.0600  0.4823
  580TMC3     C 8655   0.658   3.132  11.885  0.1509  0.5411  0.0395
  580TMC3     O 8656   0.647   3.233  11.815 -0.6214 -0.0943  0.8506
  580TMC3     H 8657   0.658   3.090  11.623  4.1577  0.0011 -0.2535
  580TMC3    H1 8658   0.580   2.914  12.000  3.1642  1.7440  0.5296
  580TMC3    H2 8659   0.789   2.696  11.708  0.9252  0.2011  0.8871
  580TMC3    C7 8660   0.758   2.733  11.950  0.3054 -0.0613  0.4036
  580TMC3    C8 8661   0.813   2.900  11.530 -0.2729 -0.1950  0.5313
  580TMC3    O1 8662   0.785   2.813  12.033 -0.9981 -0.0132 -0.4094
  580TMC3    O2 8663   0.844   2.790  11.487 -0.4938 -0.3533  0.4090
  581MPD2     C 8664   3.829   3.329  14.556 -0.7968 -0.0157  1.5370
  581MPD2    C1 8665   3.830   3.353  14.692  0.2849  0.0324  0.6254
  581MPD2    C2 8666   3.717   3.403  14.757 -0.6886  0.1143  0.4169
  581MPD2    C3 8667   3.598   3.413  14.680 -0.2237  0.0171 -0.7192
  581MPD2    C4 8668   3.608   3.402  14.542 -0.1791  0.2512 -0.4728
  581MPD2    C5 8669   3.724   3.368  14.485 -0.1815 -0.2095 -0.7751
  581MPD2     H 8670   3.723   3.427  14.863  0.0740 -1.6806  0.7947
  581MPD2    H1 8671   3.520   3.408  14.479 -0.1356 -0.7248 -0.6264
  581MPD2    H2 8672   3.914   3.283  14.507 -1.5504  0.0598  0.1648
  581MPD2    H3 8673   3.736   3.369  14.377 -0.6567 -1.0687 -0.8434
  581MPD2     N 8674   3.479   3.432  14.753 -0.1039  0.5843  0.4519
  581MPD2    H5 8675   3.490   3.440  14.854  0.4165  2.0885  0.2703
  581MPD2    N1 8676   3.956   3.332  14.746 -0.0873  0.2354 -0.0130
  581MPD2    H7 8677   4.032   3.348  14.680 -1.4668  1.2149 -1.3598
  582TMC3    C1 8678   3.905   3.262  14.977  0.0070 -0.2522  0.0453
  582TMC3    C2 8679   3.927   3.273  15.110  0.3588 -0.9512  0.2125
  582TMC3    C3 8680   3.865   3.185  15.191  0.3202  0.0563 -0.2324
  582TMC3    C4 8681   3.803   3.178  14.926  0.3071 -0.0600 -0.1250
  582TMC3    C5 8682   3.734   3.111  15.017 -0.1029 -0.7681 -0.0411
  582TMC3    C6 8683   3.764   3.108  15.151 -0.1520 -0.3137 -0.0151
  582TMC3     C 8684   3.991   3.331  14.882 -0.3839 -0.0829  0.4101
  582TMC3     O 8685   4.091   3.374  14.932  0.5157 -0.1671 -0.3433
  582TMC3     H 8686   3.986   3.354  15.151 -1.2287 -0.9640  2.5430
  582TMC3    H1 8687   3.781   3.163  14.821  0.1511  1.7929 -0.3685
  582TMC3    H2 8688   3.702   3.056  15.223  0.1653  0.7842  1.0541
  582TMC3    C7 8689   3.596   3.093  14.991  0.0765 -0.2079 -0.1290
  582TMC3    C8 8690   3.884   3.210  15.341  0.3555 -0.5526  0.3229
  582TMC3    O1 8691   3.560   3.057  14.882 -0.1118 -0.1658 -0.0872
  582TMC3    O2 8692   3.814   3.143  15.418  0.1503 -0.5343 -0.4147
  583MPD2     C 8693   3.388   0.186  16.531 -0.6231  0.6048  0.0973
  583MPD2    C1 8694   3.416   0.297  16.452  0.0969  0.0215  0.1204
  583MPD2    C2 8695   3.395   0.429  16.505 -0.0475 -0.6216  0.0898
  583MPD2    C3 8696   3.362   0.442  16.643 -0.0524 -0.6943  0.2069
  583MPD2    C4 8697   3.352   0.329  16.725  0.5061 -1.0883 -0.5294
  583MPD2    C5 8698   3.357   0.204  16.666  0.0374 -0.4113  0.7639
  583MPD2     H 8699   3.432   0.506  16.438 -1.0013  0.1222  0.4054
  583MPD2    H1 8700   3.328   0.334  16.831  2.3645 -0.8687 -0.1099
  583MPD2    H2 8701   3.406   0.087  16.491  1.8832  1.1453 -0.1185
  583MPD2    H3 8702   3.347   0.113  16.725  0.3198 -1.2738 -0.5181
  583MPD2     N 8703   3.365   0.576  16.698 -0.2572  0.4264 -0.4757
  583MPD2    H5 8704   3.399   0.648  16.635 -0.7837  1.5316  0.5137
  583MPD2    N1 8705   3.455   0.285  16.318 -0.0780 -0.6455 -0.1412
  583MPD2    H7 8706   3.502   0.365  16.276 -1.6697  0.3095 -0.1150
  584TMC3    C1 8707   3.385   0.750  16.870  0.2364 -0.5187 -0.6027
  584TMC3    C2 8708   3.504   0.798  16.818 -0.6987  0.1008 -0.1785
  584TMC3    C3 8709   3.569   0.895  16.890  1.0373 -0.5314 -0.4547
  584TMC3    C4 8710   3.330   0.807  16.985 -0.1950 -0.1145  0.1843
  584TMC3    C5 8711   3.409   0.895  17.053  0.8035  0.0572  0.6410
  584TMC3    C6 8712   3.531   0.940  17.011  0.5871  0.6192 -0.0673
  584TMC3     C 8713   3.345   0.606  16.831 -0.2785 -0.1165  0.2523
  584TMC3     O 8714   3.296   0.534  16.919 -0.1807  0.3107  0.3107
  584TMC3     H 8715   3.538   0.766  16.720 -2.4320 -0.1972 -0.6840
  584TMC3    H1 8716   3.250   0.756  17.038  1.3725  0.9850  3.6207
  584TMC3    H2 8717   3.580   1.020  17.067  1.8895 -0.2931  0.1049
  584TMC3    C7 8718   3.375   0.921  17.190  0.7000 -0.0617 -0.0273
  584TMC3    C8 8719   3.672   0.976  16.819 -0.0814 -0.0799 -0.0283
  584TMC3    O1 8720   3.307   0.835  17.240  0.0682 -0.0189 -0.2623
  584TMC3    O2 8721   3.710   0.934  16.708  0.0643 -0.6069  0.2116
  585MPD2     C 8722   2.631   4.471   0.555  1.4726  0.0412 -0.2488
  585MPD2    C1 8723   2.639   4.501   0.424  0.3075 -0.9109 -0.0826
  585MPD2    C2 8724   2.688   4.407   0.328 -0.2093 -0.0808  0.0886
  585MPD2    C3 8725   2.726   4.283   0.370 -0.3078 -0.6700 -0.1938
  585MPD2    C4 8726   2.713   4.255   0.512  0.3632 -0.2772  0.6589
  585MPD2    C5 8727   2.669   4.349   0.605 -0.7384 -0.4315 -0.1023
  585MPD2     H 8728   2.689   4.423   0.221 -2.8599 -0.3742  0.0150
  585MPD2    H1 8729   2.754   4.162   0.550  1.3987  1.4241  3.6998
  585MPD2    H2 8730   2.612   4.548   0.629  0.2154  1.2091 -1.7997
  585MPD2    H3 8731   2.674   4.322   0.710 -1.3464 -0.1700 -0.0054
  585MPD2     N 8732   2.756   4.168   0.294  0.4399 -0.1696 -0.4182
  585MPD2    H5 8733   2.771   4.078   0.339  1.9007 -0.7054 -2.0018
  585MPD2    N1 8734   2.595   4.632   0.384  0.3614  0.2230 -0.3535
  585MPD2    H7 8735   2.565   4.696   0.456 -1.0039 -1.7421  0.8200
  586TMC3    C1 8736   2.803   4.034   0.104  0.4437  0.0161  0.0171
  586TMC3    C2 8737   2.881   4.025  17.745  0.1916  0.0465  0.1418
  586TMC3    C3 8738   2.920   3.898  17.712  0.1180  0.2488 -0.4729
  586TMC3    C4 8739   2.747   3.921   0.163 -0.5586 -0.2992  0.1231
  586TMC3    C5 8740   2.779   3.797   0.110  0.1989 -0.7043  0.0534
  586TMC3    C6 8741   2.878   3.786   0.016  0.2042 -0.0636  0.9560
  586TMC3     C 8742   2.778   4.167   0.162  0.1118  0.1854 -0.7299
  586TMC3     O 8743   2.791   4.265   0.091  0.0720 -0.3217 -0.8876
  586TMC3     H 8744   2.914   4.119  17.703 -0.0550 -0.5153 -1.3247
  586TMC3    H1 8745   2.681   3.939   0.247 -2.4114  1.4554 -1.7171
  586TMC3    H2 8746   2.919   3.700  17.715 -0.9020  0.7050 -1.2027
  586TMC3    C7 8747   2.685   3.691   0.124  0.4814  0.3683 -0.3796
  586TMC3    C8 8748   3.053   3.882  17.646 -0.4272  0.6508 -0.4074
  586TMC3    O1 8749   2.570   3.725   0.164  0.0005 -0.1552  0.2024
  586TMC3    O2 8750   3.105   3.775  17.673  0.2453  0.3539  0.0871
  587TMC3    C1 8751   0.368   2.972  16.345 -0.2187 -0.1675  0.0425
  587TMC3    C2 8752   0.356   2.958  16.488  0.2022 -0.3244  0.5168
  587TMC3    C3 8753   0.475   2.985  16.556  0.1907 -0.3565 -0.0474
  587TMC3    C4 8754   0.482   3.017  16.283 -0.5954  0.5254 -0.3650
  587TMC3    C5 8755   0.593   3.028  16.356  0.3705 -0.4217 -0.5085
  587TMC3    C6 8756   0.595   3.015  16.492 -0.0416  0.0103 -0.2919
  587TMC3     C 8757   0.263   2.942  16.251 -0.6860  0.1670  0.3701
  587TMC3     O 8758   0.263   2.984  16.137 -0.0275 -0.4269  0.1313
  587TMC3     H 8759   0.257   2.944  16.531  0.3827 -1.0717  0.6879
  587TMC3    H1 8760   0.482   3.027  16.175 -1.4246 -2.0208 -0.6018
  587TMC3    H2 8761   0.677   3.021  16.563  0.1849 -0.5892 -0.4973
  587TMC3    C7 8762   0.711   3.085  16.297 -0.0264  0.5089  0.0351
  587TMC3    C8 8763   0.473   3.022  16.697  0.3954 -0.0619 -0.1091
  587TMC3    O1 8764   0.793   3.116  16.381 -0.2069  0.3916  0.0873
  587TMC3    O2 8765   0.582   3.021  16.750 -0.2067 -0.4917 -0.2461
  588TMC3    C1 8766   2.757   1.018   9.944 -0.5297 -0.0303 -0.4081
  588TMC3    C2 8767   2.694   0.901   9.928  0.4656  0.0471 -0.4386
  588TMC3    C3 8768   2.765   0.788   9.917  0.0895 -0.5097  0.3745
  588TMC3    C4 8769   2.893   1.028   9.953 -0.3260 -0.7244 -0.1400
  588TMC3    C5 8770   2.964   0.913   9.930 -0.1330  0.6044 -0.1229
  588TMC3    C6 8771   2.906   0.792   9.919 -0.4591  0.2834 -0.3528
  588TMC3     C 8772   2.682   1.145   9.938 -0.2657 -0.0255 -0.7052
  588TMC3     O 8773   2.571   1.145   9.886  0.1234  0.1291  0.8315
  588TMC3     H 8774   2.586   0.895   9.921  0.5036  0.6083 -1.5215
  588TMC3    H1 8775   2.943   1.123   9.940 -1.8809 -0.1210 -1.6251
  588TMC3    H2 8776   2.968   0.706   9.898 -1.4566 -0.4931 -0.0807
  588TMC3    C7 8777   3.113   0.915   9.917  0.2780  0.1445 -0.1024
  588TMC3    C8 8778   2.693   0.665   9.897 -0.8903  0.0680 -0.3627
  588TMC3    O1 8779   3.161   0.839   9.833 -0.1392  0.1463 -0.1091
  588TMC3    O2 8780   2.577   0.680   9.860  0.2901 -0.0391  0.2652
  589TMC3    C1 8781   1.727   2.079   0.620 -0.9420  0.1896 -0.8318
  589TMC3    C2 8782   1.778   2.104   0.742  0.5885 -0.4251 -0.3647
  589TMC3    C3 8783   1.900   2.050   0.776  0.3272  0.0531  0.6137
  589TMC3    C4 8784   1.797   2.002   0.527  0.5076  0.1958 -0.4030
  589TMC3    C5 8785   1.923   1.963   0.559  0.4645  0.7876 -0.3489
  589TMC3    C6 8786   1.967   1.975   0.683  0.2510 -0.4119 -0.8114
  589TMC3     C 8787   1.629   2.175   0.573 -0.1308  0.1181  0.5030
  589TMC3     O 8788   1.534   2.132   0.512 -0.4874 -0.2242 -0.0149
  589TMC3     H 8789   1.716   2.156   0.814 -0.8709 -0.2365 -1.7689
  589TMC3    H1 8790   1.750   1.995   0.430  0.8314 -0.3044 -0.5222
  589TMC3    H2 8791   2.041   1.909   0.727  0.9870  0.7359 -0.3265
  589TMC3    C7 8792   1.976   1.852   0.486  0.3011 -0.1197 -0.1376
  589TMC3    C8 8793   1.964   2.078   0.899  0.3022  0.5959  0.1074
  589TMC3    O1 8794   1.888   1.785   0.441 -0.1696  0.1857 -0.3281
  589TMC3    O2 8795   1.889   2.095   0.997 -0.1821 -0.1500  0.1557
  590MPD2     C 8796   1.078   1.341  16.658 -0.6705  0.0852  0.7136
  590MPD2    C1 8797   1.055   1.465  16.602 -0.5553  0.0799 -0.3757
  590MPD2    C2 8798   1.154   1.522  16.522 -0.0713  0.4353  0.8189
  590MPD2    C3 8799   1.279   1.464  16.513 -0.0453 -0.7018  0.1707
  590MPD2    C4 8800   1.305   1.353  16.580 -0.0321  0.5454  0.8905
  590MPD2    C5 8801   1.197   1.283  16.637  1.0678  0.2932 -0.5400
  590MPD2     H 8802   1.129   1.609  16.463 -1.3123 -0.7362 -0.3830
  590MPD2    H1 8803   1.403   1.309  16.590  0.1727  0.7092 -0.4228
  590MPD2    H2 8804   1.012   1.275  16.714  0.1129 -0.6418  0.7695
  590MPD2    H3 8805   1.215   1.189  16.688  0.0122 -0.3686 -1.4143
  590MPD2     N 8806   1.379   1.538  16.446 -0.1169 -0.1854 -0.6428
  590MPD2    H5 8807   1.355   1.635  16.428  1.0921 -0.2180 -2.4209
  590MPD2    N1 8808   0.922   1.522  16.609 -0.2113  0.5658  0.1430
  590MPD2    H7 8809   0.851   1.463  16.652  1.3810 -0.2343  1.6479
  591TMC3    C1 8810   1.577   1.598  16.333 -0.2552  0.9077 -0.1429
  591TMC3    C2 8811   1.651   1.554  16.226 -0.6739  0.2887  0.2491
  591TMC3    C3 8812   1.701   1.645  16.141 -0.1088 -0.2769 -0.2389
  591TMC3    C4 8813   1.567   1.730  16.358  0.5195  0.1308  0.8266
  591TMC3    C5 8814   1.628   1.819  16.268  0.2649  0.2334  1.3192
  591TMC3    C6 8815   1.687   1.774  16.155  0.4092  0.4347  0.6984
  591TMC3     C 8816   1.508   1.494  16.412 -0.4649  0.6452  0.2276
  591TMC3     O 8817   1.549   1.381  16.416  0.0904  0.0686  0.1115
  591TMC3     H 8818   1.659   1.448  16.209  1.7403  1.0037 -3.0195
  591TMC3    H1 8819   1.524   1.772  16.449 -0.7256 -0.0937  0.3454
  591TMC3    H2 8820   1.748   1.844  16.099 -2.4133  1.7048 -0.8395
  591TMC3    C7 8821   1.668   1.944  16.321 -0.6466 -0.0183  0.2909
  591TMC3    C8 8822   1.722   1.588  16.012  1.2779  0.3346 -0.5479
  591TMC3    O1 8823   1.685   1.941  16.444 -0.0285 -0.1984 -0.1779
  591TMC3    O2 8824   1.746   1.467  16.014  0.3220  0.2218  0.3209
  592MPD2     C 8825   1.550   2.912  11.595  0.1732 -0.2454  0.5519
  592MPD2    C1 8826   1.560   2.969  11.723  0.1133  0.4474 -0.2026
  592MPD2    C2 8827   1.566   2.883  11.828  0.2314  0.8193  0.6290
  592MPD2    C3 8828   1.577   2.748  11.814 -0.1371  0.5899  0.2360
  592MPD2    C4 8829   1.550   2.692  11.692  0.5350  0.7848  0.4018
  592MPD2    C5 8830   1.548   2.775  11.587  0.1512  0.1616  0.0915
  592MPD2     H 8831   1.572   2.920  11.929 -0.8553 -0.3693  1.1281
  592MPD2    H1 8832   1.519   2.590  11.670  0.0330  1.6385 -2.8375
  592MPD2    H2 8833   1.541   2.977  11.508  1.2944 -0.7393  0.0804
  592MPD2    H3 8834   1.528   2.724  11.493  0.8443  1.6047 -0.8396
  592MPD2     N 8835   1.592   2.675  11.929  0.0971  0.5533 -0.2970
  592MPD2    H5 8836   1.595   2.725  12.018 -1.7344  2.8652 -1.5456
  592MPD2    N1 8837   1.550   3.105  11.753 -0.4543  0.0556 -0.1120
  592MPD2    H7 8838   1.529   3.165  11.674 -1.2049 -2.2434 -1.6595
  593TMC3    C1 8839   1.569   3.313  11.862  0.0265  0.2285  0.9713
  593TMC3    C2 8840   1.589   3.375  11.981  0.7144 -0.2193  0.4908
  593TMC3    C3 8841   1.649   3.498  11.979  0.0009  0.5774 -0.3062
  593TMC3    C4 8842   1.623   3.369  11.745 -0.3907  0.0937 -0.2888
  593TMC3    C5 8843   1.670   3.492  11.754  0.0470  0.4290  0.0023
  593TMC3    C6 8844   1.696   3.557  11.870  0.1734  0.1689 -0.2032
  593TMC3     C 8845   1.563   3.163  11.875 -0.1381 -0.5071  0.2872
  593TMC3     O 8846   1.607   3.120  11.980 -0.1163  0.3447 -0.8057
  593TMC3     H 8847   1.567   3.338  12.081 -1.2449 -0.8442 -0.1800
  593TMC3    H1 8848   1.627   3.315  11.651  0.0901 -0.1088 -0.1533
  593TMC3    H2 8849   1.710   3.663  11.886 -0.6131 -0.0945  2.3331
  593TMC3    C7 8850   1.679   3.572  11.636  0.0855  0.2422  0.4303
  593TMC3    C8 8851   1.672   3.558  12.111  0.2235 -0.2651 -0.9928
  593TMC3    O1 8852   1.680   3.690  11.653  0.8728  0.1526  0.6725
  593TMC3    O2 8853   1.575   3.552  12.184  0.4083 -0.0247 -0.2932
  594MPD2     C 8854   0.478   1.987  14.461 -0.1717 -0.2348 -0.5313
  594MPD2    C1 8855   0.485   1.987  14.597 -0.4300 -0.3789 -0.0448
  594MPD2    C2 8856   0.597   2.025  14.666  0.0404  0.5356  0.0601
  594MPD2    C3 8857   0.708   2.061  14.587  0.2746  0.3752 -0.5242
  594MPD2    C4 8858   0.701   2.055  14.452 -0.2295 -0.7129 -0.3409
  594MPD2    C5 8859   0.586   2.014  14.385 -0.0006  0.0110 -1.1701
  594MPD2     H 8860   0.617   2.024  14.773  1.5980  0.2990 -0.2344
  594MPD2    H1 8861   0.785   2.073  14.384 -1.4675  1.7887 -1.1940
  594MPD2    H2 8862   0.380   1.977  14.416 -1.1459 -0.1555  1.6008
  594MPD2    H3 8863   0.579   2.016  14.277 -0.6086 -1.8155 -1.1716
  594MPD2     N 8864   0.830   2.088  14.651  0.6504  0.1246  0.2414
  594MPD2    H5 8865   0.826   2.085  14.752 -1.7376  0.2850  0.1685
  594MPD2    N1 8866   0.358   1.966  14.657 -0.3397  0.2201 -0.0848
  594MPD2    H7 8867   0.281   1.946  14.594 -0.5217  1.9954 -0.4107
  595TMC3    C1 8868   1.226   2.324  14.741 -0.1242  0.2645  0.2830
  595TMC3    C2 8869   1.155   2.226  14.671  0.0134 -0.1283 -0.3460
  595TMC3    C3 8870   1.024   2.199  14.698 -0.2363 -0.1594 -1.0577
  595TMC3    C4 8871   1.162   2.406  14.825  0.0513 -0.0466  0.3662
  595TMC3    C5 8872   1.019   2.393  14.832  0.6090 -0.5977  0.4710
  595TMC3    C6 8873   0.954   2.287  14.772  0.0588 -0.1468  0.1161
  595TMC3     C 8874   1.364   2.363  14.710  0.5544 -0.8057 -0.5853
  595TMC3     O 8875   1.427   2.426  14.795 -0.1957 -0.1855 -0.4632
  595TMC3     H 8876   1.213   2.148  14.624  0.0234 -0.4515  0.2002
  595TMC3    H1 8877   1.219   2.479  14.881  0.4419 -0.8723  1.0464
  595TMC3    H2 8878   0.848   2.303  14.757 -0.0069 -0.6613  0.0557
  595TMC3    C7 8879   0.942   2.513  14.850  0.5274 -0.3158 -0.0856
  595TMC3    C8 8880   0.950   2.131  14.600 -0.0189  0.1995  0.2812
  595TMC3    O1 8881   0.820   2.494  14.857 -0.5044  0.7146 -0.3679
  595TMC3    O2 8882   0.997   2.126  14.488  0.0192  0.4006  0.7447
  596MPD2     C 8883   4.102   4.555  16.569  0.3275  0.3298  0.2479
  596MPD2    C1 8884   4.091   4.670  16.502  0.1286  0.0023 -0.0917
  596MPD2    C2 8885   4.102   4.674  16.366 -0.1438  0.4408 -0.1175
  596MPD2    C3 8886   4.128   4.556  16.290  0.0843  1.1750 -0.1009
  596MPD2    C4 8887   4.122   4.435  16.357 -0.2937 -0.2891 -0.1417
  596MPD2    C5 8888   4.111   4.439  16.497  0.2460 -0.1721  0.6824
  596MPD2     H 8889   4.103   0.037  16.326 -0.8923 -0.0446 -1.3380
  596MPD2    H1 8890   4.126   4.337  16.311  1.1147 -0.2482 -0.0943
  596MPD2    H2 8891   4.102   4.557  16.677 -1.1658 -2.0301  0.3176
  596MPD2    H3 8892   4.115   4.341  16.542  0.4918 -0.3929  0.1829
  596MPD2     N 8893   4.161   4.551  16.157  0.6159  0.0752  0.0101
  596MPD2    H5 8894   4.157   4.459  16.114  2.3529 -0.4574  1.0162
  596MPD2    N1 8895   4.091   0.065  16.556  0.2847  0.2112 -0.9981
  596MPD2    H7 8896   4.105   0.144  16.494 -0.7570 -0.1778 -1.7219
  597TMC3    C1 8897   4.147   0.217  16.729 -0.5397  1.0738  0.4541
  597TMC3    C2 8898   4.250   0.269  16.647  0.2499  0.3816  0.5034
  597TMC3    C3 8899   4.313   0.379  16.684 -0.5852  0.4966 -0.1795
  597TMC3    C4 8900   4.105   0.277  16.842 -0.2842  0.0244 -0.0559
  597TMC3    C5 8901   4.172   0.393  16.867  0.6047 -0.2522  0.0650
  597TMC3    C6 8902   4.271   0.450  16.794  0.4423 -0.7330 -0.4432
  597TMC3     C 8903   4.088   0.091  16.693 -0.4157  0.4662  0.9689
  597TMC3     O 8904   4.032   0.025  16.780  0.4027  0.0658 -0.5766
  597TMC3     H 8905   4.288   0.206  16.567  4.1099  1.1511  1.7584
  597TMC3    H1 8906   4.024   0.248  16.907 -0.2500  0.1631  0.0487
  597TMC3    H2 8907   4.335   0.527  16.837  0.2523 -1.0242  0.3587
  597TMC3    C7 8908   4.112   0.473  16.970  0.3098  0.3509 -0.1122
  597TMC3    C8 8909   4.412   0.446  16.600 -0.4996  0.5991  0.0341
  597TMC3    O1 8910   4.050   0.427  17.066  0.0797  0.2837 -0.4670
  597TMC3    O2 8911   4.433   0.565  16.617  1.0745  0.4844  0.2036
  598TMC3    C1 8912   2.365   1.546  15.081 -0.5520  0.1727 -0.5103
  598TMC3    C2 8913   2.294   1.430  15.068 -0.3688  0.0609 -0.8219
  598TMC3    C3 8914   2.271   1.393  14.942 -0.7599 -0.0359 -0.4590
  598TMC3    C4 8915   2.426   1.608  14.978 -0.3489 -0.4899 -0.1374
  598TMC3    C5 8916   2.404   1.555  14.856  0.6517 -0.5584  0.3117
  598TMC3    C6 8917   2.318   1.450  14.833  0.2096  0.0756 -0.0091
  598TMC3     C 8918   2.388   1.596  15.216  0.5775 -0.3158  0.4847
  598TMC3     O 8919   2.440   1.708  15.222 -0.5348  0.1885  0.0074
  598TMC3     H 8920   2.222   1.408  15.147  0.9922 -1.5954 -0.0439
  598TMC3    H1 8921   2.469   1.707  14.991 -0.1068 -0.6135 -0.0111
  598TMC3    H2 8922   2.300   1.405  14.736  0.7187  0.3712 -0.2447
  598TMC3    C7 8923   2.441   1.638  14.737 -0.4684 -0.5329  0.3129
  598TMC3    C8 8924   2.236   1.251  14.934  0.2530 -0.0931  0.7260
  598TMC3    O1 8925   2.400   1.588  14.634  0.0053 -0.6419  0.0323
  598TMC3    O2 8926   2.244   1.206  14.825  0.0529 -0.0078  0.4863
  599MPD2     C 8927   3.143   4.333  16.345 -0.5068 -0.0241  0.3567
  599MPD2    C1 8928   3.095   4.205  16.352  0.6155 -0.5548 -0.3824
  599MPD2    C2 8929   2.967   4.174  16.379 -0.7441  0.0986 -0.3077
  599MPD2    C3 8930   2.874   4.280  16.407 -0.2576 -0.5545 -0.0748
  599MPD2    C4 8931   2.925   4.404  16.408 -0.4353 -0.4049  0.1179
  599MPD2    C5 8932   3.056   4.435  16.381 -0.3686 -0.6377 -0.0694
  599MPD2     H 8933   2.938   4.072  16.399  1.5020 -0.8703 -2.0803
  599MPD2    H1 8934   2.859   4.483  16.440 -0.4947 -0.4922  0.2123
  599MPD2    H2 8935   3.248   4.349  16.323 -0.3445  0.7304  1.6763
  599MPD2    H3 8936   3.085   4.539  16.384  0.2126 -0.7909 -0.3827
  599MPD2     N 8937   2.735   4.253  16.433  0.1252 -0.5416  0.8469
  599MPD2    H5 8938   2.678   4.333  16.459 -0.2550 -0.5648  0.0763
  599MPD2    N1 8939   3.195   4.108  16.330  0.4613 -0.7824  0.4694
  599MPD2    H7 8940   3.293   4.135  16.334 -0.4313  2.2071  1.5561
  600TMC3    C1 8941   2.527   4.137  16.392 -0.4327 -0.0263  0.6215
  600TMC3    C2 8942   2.472   4.015  16.351  0.3312  0.2611  0.9730
  600TMC3    C3 8943   2.336   4.011  16.331  0.2951 -0.2527 -0.1412
  600TMC3    C4 8944   2.451   4.245  16.391 -0.5583  0.2086  0.1298
  600TMC3    C5 8945   2.313   4.240  16.367  0.6425  0.0523  0.1547
  600TMC3    C6 8946   2.252   4.123  16.340 -0.3295  0.5364 -0.4358
  600TMC3     C 8947   2.671   4.136  16.404  0.1569  0.4526 -0.1534
  600TMC3     O 8948   2.724   4.028  16.379 -0.4194  0.0909 -0.3066
  600TMC3     H 8949   2.527   3.921  16.353 -0.7900 -0.4393 -0.4886
  600TMC3    H1 8950   2.494   4.339  16.426  0.8599 -0.4460  0.1733
  600TMC3    H2 8951   2.145   4.125  16.324 -0.4818 -2.2648  0.3798
  600TMC3    C7 8952   2.232   4.338  16.440 -0.0465  0.0040  0.4724
  600TMC3    C8 8953   2.290   3.890  16.272 -1.5055  0.0638  0.2175
  600TMC3    O1 8954   2.133   4.298  16.503  0.5322  0.5854 -0.6155
  600TMC3    O2 8955   2.375   3.813  16.233  0.3819 -0.1266  0.6064
  601MPD2     C 8956   4.602   3.082   0.632 -0.1141  0.2458 -0.2910
  601MPD2    C1 8957   4.603   2.996   0.520 -0.1684 -0.6119 -0.4363
  601MPD2    C2 8958   4.678   2.883   0.531 -0.1331 -0.4857  0.8200
  601MPD2    C3 8959   4.735   2.846   0.650 -0.4809 -0.4239  0.3321
  601MPD2    C4 8960   4.726   2.925   0.764 -0.1840 -0.2130  0.3045
  601MPD2    C5 8961   4.674   3.050   0.742  0.7217  0.3059  0.0109
  601MPD2     H 8962   4.682   2.825   0.439  0.7741 -1.8906  1.7462
  601MPD2    H1 8963   0.036   2.911   0.860 -1.4119 -1.2085  0.7748
  601MPD2    H2 8964   4.539   3.170   0.638  0.4442  0.4598  2.5955
  601MPD2    H3 8965   4.669   3.116   0.827  0.8650  2.6071 -1.7777
  601MPD2     N 8966   0.053   2.719   0.665  0.1140  0.0280 -0.0241
  601MPD2    H5 8967   0.079   2.691   0.759  0.7168  1.2421  0.1752
  601MPD2    N1 8968   4.526   3.018   0.408  0.1192  0.8575 -0.7634
  601MPD2    H7 8969   4.505   2.942   0.345  0.3748  0.4347 -0.3362
  602TMC3    C1 8970   4.395   3.139   0.259 -0.0585 -0.2880  0.0324
  602TMC3    C2 8971   4.381   3.257   0.192  0.2212 -0.1528 -1.0787
  602TMC3    C3 8972   4.319   3.252   0.066  0.0546 -0.0264 -0.2065
  602TMC3    C4 8973   4.349   3.021   0.207  0.1689  0.0691  0.5203
  602TMC3    C5 8974   4.280   3.021   0.090  0.9158  0.3959  0.1402
  602TMC3    C6 8975   4.258   3.138   0.025 -0.1133 -0.4530 -0.4351
  602TMC3     C 8976   4.465   3.137   0.381  0.2012  0.1649 -0.1181
  602TMC3     O 8977   4.486   3.246   0.430  0.5253 -0.3122 -0.3886
  602TMC3     H 8978   4.438   3.343   0.225 -0.2276 -0.6488  1.0281
  602TMC3    H1 8979   4.334   2.933   0.268  1.2568 -0.6635 -0.2678
  602TMC3    H2 8980   4.175   3.142  17.706  0.2599 -1.4617 -0.9461
  602TMC3    C7 8981   4.242   2.898   0.036 -0.5595 -0.1272 -0.2103
  602TMC3    C8 8982   4.310   3.372  17.729 -0.4939 -0.7678 -0.4819
  602TMC3    O1 8983   4.212   2.804   0.107  0.2008 -0.2407 -0.3336
  602TMC3    O2 8984   4.317   3.481   0.028 -0.5452  0.0107  0.1747
  603TMC3    C1 8985   3.028   3.003  10.979  0.3363 -0.1842 -0.2893
  603TMC3    C2 8986   3.062   2.982  11.113  0.6081  0.2910 -0.1708
  603TMC3    C3 8987   2.956   2.998  11.201 -1.1993  0.7906  0.2344
  603TMC3    C4 8988   2.901   3.038  10.942 -0.7093  0.1203  0.5323
  603TMC3    C5 8989   2.800   3.047  11.036 -0.2761 -0.5754 -0.6275
  603TMC3    C6 8990   2.830   3.025  11.166 -0.5002  0.1286  0.0628
  603TMC3     C 8991   3.130   3.004  10.878  0.0572  0.2750  0.2011
  603TMC3     O 8992   3.228   2.933  10.896  0.2895 -0.0130 -0.6116
  603TMC3     H 8993   3.162   2.952  11.143  0.6270  0.1783 -0.3441
  603TMC3    H1 8994   2.881   3.048  10.836 -0.8600 -0.4413  0.5076
  603TMC3    H2 8995   2.755   3.042  11.243 -0.7271  1.2331 -0.4012
  603TMC3    C7 8996   2.664   3.068  10.994  0.2996 -0.2448  0.0580
  603TMC3    C8 8997   2.977   2.966  11.341  0.6634 -1.3159 -0.4822
  603TMC3    O1 8998   2.659   3.137  10.893 -0.5003 -0.3658  0.0347
  603TMC3    O2 8999   2.873   2.957  11.401 -0.3991 -0.1879 -0.9546
  604MPD2     C 9000   3.542   1.294  16.583 -0.4152  0.3659 -1.1150
  604MPD2    C1 9001   3.434   1.277  16.496  0.4661 -0.4638  0.2810
  604MPD2    C2 9002   3.461   1.246  16.366  0.0193  0.1391 -0.0325
  604MPD2    C3 9003   3.584   1.237  16.313  0.3046  0.3680  0.5163
  604MPD2    C4 9004   3.687   1.263  16.395 -0.2897  0.2642 -1.0357
  604MPD2    C5 9005   3.668   1.287  16.535  0.2532  0.1196  0.1709
  604MPD2     H 9006   3.378   1.231  16.298  0.9401  0.3554 -1.2006
  604MPD2    H1 9007   3.791   1.265  16.363 -0.5076  0.1147 -1.7672
  604MPD2    H2 9008   3.533   1.324  16.687  3.7601 -0.5331 -0.5077
  604MPD2    H3 9009   3.752   1.305  16.600 -0.0971 -1.4300  1.0652
  604MPD2     N 9010   3.594   1.212  16.173 -0.0651  0.1939 -0.1394
  604MPD2    H5 9011   3.511   1.196  16.118 -0.6631  0.7834  0.5883
  604MPD2    N1 9012   3.305   1.314  16.540 -0.2092 -0.5786 -0.1692
  604MPD2    H7 9013   3.303   1.345  16.637 -3.3878 -0.9903 -0.1004
  605TMC3    C1 9014   3.101   1.422  16.546  0.5551  0.1366  1.0656
  605TMC3    C2 9015   3.134   1.448  16.680  0.8862 -0.0489  0.7825
  605TMC3    C3 9016   3.111   1.580  16.718 -0.3166 -0.1933  0.2295
  605TMC3    C4 9017   3.017   1.502  16.473  0.2643  0.0298  0.2120
  605TMC3    C5 9018   2.974   1.614  16.529  0.5890 -0.3884  0.0789
  605TMC3    C6 9019   3.030   1.658  16.645  0.6401 -0.0889  0.4871
  605TMC3     C 9020   3.195   1.342  16.469 -1.0069 -0.3885  0.1508
  605TMC3     O 9021   3.167   1.316  16.352 -0.4798  0.1880  0.5682
  605TMC3     H 9022   3.193   1.383  16.743  1.1086 -0.9344 -0.3335
  605TMC3    H1 9023   3.005   1.482  16.367 -1.4735  1.6280  0.1095
  605TMC3    H2 9024   3.018   1.759  16.683  0.5469  0.2116 -0.3347
  605TMC3    C7 9025   2.907   1.718  16.448 -0.4761  0.1269 -0.2863
  605TMC3    C8 9026   3.231   1.637  16.774  0.0505 -0.2712  0.4166
  605TMC3    O1 9027   2.943   1.829  16.486 -0.5985 -0.1910  0.2367
  605TMC3    O2 9028   3.329   1.566  16.759  0.5359 -0.0332  0.0649
  606TMC3    C1 9029   4.422   0.749  17.254 -0.3975  0.4229  0.1532
  606TMC3    C2 9030   4.473   0.712  17.374 -0.5659 -0.2327 -0.0131
  606TMC3    C3 9031   4.565   0.615  17.372 -0.5804  0.2760 -1.3311
  606TMC3    C4 9032   4.458   0.689  17.137 -0.2772 -0.0417 -0.2237
  606TMC3    C5 9033   4.556   0.599  17.141  0.0047 -0.0657 -0.0757
  606TMC3    C6 9034   4.614   0.555  17.256  0.1835 -0.4483 -0.3897
  606TMC3     C 9035   4.360   0.882  17.245 -0.2787 -0.2670  0.3403
  606TMC3     O 9036   4.305   0.920  17.350  0.3603 -0.1578  0.2279
  606TMC3     H 9037   4.448   0.765  17.465 -0.6780  0.5427 -0.4980
  606TMC3    H1 9038   4.417   0.725  17.044  2.8412 -1.2138 -2.0546
  606TMC3    H2 9039   4.707   0.500  17.253  0.8791  0.6941 -0.0141
  606TMC3    C7 9040   4.579   0.517  17.024 -0.0758  0.3823  0.7230
  606TMC3    C8 9041   4.635   0.575  17.498  0.4777  0.1843 -0.2471
  606TMC3    O1 9042   4.571   0.562  16.911  0.3809 -0.3313 -0.4129
  606TMC3    O2 9043   0.004   0.521  17.482 -0.0653 -0.2263 -0.7900
  607MPD2     C 9044   1.957   2.933  11.596 -0.0915  0.0111 -0.2978
  607MPD2    C1 9045   1.994   3.034  11.674 -0.4890  0.8356 -0.1897
  607MPD2    C2 9046   1.982   3.019  11.810  0.4837 -0.0835  0.3249
  607MPD2    C3 9047   1.943   2.898  11.864 -0.6487  0.0621 -0.0797
  607MPD2    C4 9048   1.901   2.798  11.786 -0.4118  0.3464  0.5628
  607MPD2    C5 9049   1.906   2.818  11.650 -0.8751  0.3646 -0.0415
  607MPD2     H 9050   2.019   3.100  11.872 -0.1443  1.7285 -1.6455
  607MPD2    H1 9051   1.864   2.705  11.829  1.5259 -0.8904 -0.4798
  607MPD2    H2 9052   1.961   2.938  11.488  0.9374  1.3261 -0.1936
  607MPD2    H3 9053   1.863   2.739  11.590 -0.6162  0.3734 -0.2354
  607MPD2     N 9054   1.946   2.889  12.005  0.6702  0.7363  0.4395
  607MPD2    H5 9055   1.968   2.980  12.043 -1.0663  0.8698  1.1154
  607MPD2    N1 9056   2.045   3.162  11.626  0.3600 -0.7745  0.6799
  607MPD2    H7 9057   2.068   3.239  11.688 -1.8396  1.4655 -1.2569
  608TMC3    C1 9058   2.178   3.304  11.489 -0.2952 -1.0033  0.0099
  608TMC3    C2 9059   2.276   3.297  11.580 -0.9640  0.5834 -0.6786
  608TMC3    C3 9060   2.364   3.403  11.589  0.3669  0.5378 -0.4837
  608TMC3    C4 9061   2.165   3.409  11.409 -1.0244 -0.9352 -0.3402
  608TMC3    C5 9062   2.254   3.514  11.413  0.5247 -0.3730  0.2051
  608TMC3    C6 9063   2.352   3.511  11.505  0.0962 -0.2639 -0.2995
  608TMC3     C 9064   2.071   3.198  11.495  0.4433  0.7320  0.0576
  608TMC3     O 9065   2.031   3.142  11.397 -0.3418 -0.4250  0.3043
  608TMC3     H 9066   2.282   3.213  11.648 -1.4776  0.6346 -0.5702
  608TMC3    H1 9067   2.093   3.407  11.328 -1.1971  2.4039 -0.2813
  608TMC3    H2 9068   2.436   3.580  11.504 -0.0467 -0.0320  1.8397
  608TMC3    C7 9069   2.270   3.598  11.295  0.9224  0.2968 -0.1174
  608TMC3    C8 9070   2.440   3.410  11.709 -0.1442  0.5808  0.5002
  608TMC3    O1 9071   2.220   3.553  11.193 -0.2244  0.0229 -0.1238
  608TMC3    O2 9072   2.550   3.461  11.712  0.8191  0.3075  0.1527
  609TMC3    C1 9073   0.760   2.245   9.032  0.4208  0.1058  0.1529
  609TMC3    C2 9074   0.753   2.275   8.898 -0.4676  0.2875 -0.5370
  609TMC3    C3 9075   0.806   2.185   8.809  0.2143  1.0622 -0.2485
  609TMC3    C4 9076   0.792   2.120   9.075  0.1027 -0.0305 -0.4642
  609TMC3    C5 9077   0.840   2.029   8.986 -0.2206 -1.0194  0.0057
  609TMC3    C6 9078   0.851   2.063   8.850 -0.0990 -0.2296  0.1467
  609TMC3     C 9079   0.684   2.329   9.129  0.0627  0.1654 -0.6519
  609TMC3     O 9080   0.662   2.445   9.102  0.0483  0.3958 -0.0001
  609TMC3     H 9081   0.718   2.375   8.875 -0.4758  0.0782 -1.4694
  609TMC3    H1 9082   0.814   2.104   9.180 -1.4325 -0.5476 -0.2145
  609TMC3    H2 9083   0.879   1.992   8.773  0.7329 -0.1357  0.3628
  609TMC3    C7 9084   0.903   1.907   9.032  0.0118  0.2418 -0.3111
  609TMC3    C8 9085   0.846   2.225   8.675  0.2149  0.2738 -0.1841
  609TMC3    O1 9086   0.917   1.896   9.151  0.2751 -0.1620 -0.3517
  609TMC3    O2 9087   0.919   2.149   8.615  0.5074  0.1414 -0.8938
  610TMC3    C1 9088   2.791   2.734  12.818 -0.2360  0.2201  0.4279
  610TMC3    C2 9089   2.871   2.767  12.715  0.0727 -0.4134  0.2963
  610TMC3    C3 9090   2.888   2.670  12.620  0.4326  0.4933  0.4395
  610TMC3    C4 9091   2.716   2.619  12.818 -0.4260 -0.0412 -0.4993
  610TMC3    C5 9092   2.730   2.532  12.713  0.6811 -0.1242 -0.1893
  610TMC3    C6 9093   2.813   2.558  12.607 -0.0796 -0.5696  0.2747
  610TMC3     C 9094   2.781   2.831  12.924 -0.1024  0.2765 -0.3355
  610TMC3     O 9095   2.839   2.936  12.906 -0.5198 -0.7743  0.1685
  610TMC3     H 9096   2.930   2.858  12.716 -1.4429  0.5576  0.9489
  610TMC3    H1 9097   2.667   2.581  12.906 -0.7015 -0.5593 -0.8786
  610TMC3    H2 9098   2.840   2.498  12.521 -0.9263 -1.9830  1.0075
  610TMC3    C7 9099   2.737   2.399  12.768  0.7419  0.5064  0.1460
  610TMC3    C8 9100   2.970   2.702  12.503  0.6990  0.1758  0.5588
  610TMC3    O1 9101   2.845   2.341  12.749 -0.3622 -0.0219 -0.3107
  610TMC3    O2 9102   2.928   2.665  12.393  0.0888 -0.0393  0.8768
  611MPD2     C 9103   1.532   2.794  10.658 -0.3689 -0.2059 -0.2544
  611MPD2    C1 9104   1.470   2.688  10.722  0.1897  0.7484 -0.1387
  611MPD2    C2 9105   1.505   2.655  10.851 -0.4261 -0.3650 -0.0829
  611MPD2    C3 9106   1.608   2.727  10.911  0.4289 -0.6092 -0.1187
  611MPD2    C4 9107   1.649   2.848  10.859  0.4495 -0.4338 -0.1547
  611MPD2    C5 9108   1.606   2.878  10.730 -0.0512 -0.5199 -0.1413
  611MPD2     H 9109   1.462   2.573  10.907  0.0683  1.0120  2.2907
  611MPD2    H1 9110   1.709   2.918  10.915 -0.8626  0.0728  0.6207
  611MPD2    H2 9111   1.497   2.834  10.563  1.0136 -3.1823 -2.0203
  611MPD2    H3 9112   1.624   2.981  10.701 -0.5756  0.3926  2.8162
  611MPD2     N 9113   1.675   2.680  11.029  0.7001  0.1657 -0.4407
  611MPD2    H5 9114   1.757   2.735  11.052 -1.6997  3.5587  0.0073
  611MPD2    N1 9115   1.371   2.614  10.653  0.3271 -0.5615 -0.4878
  611MPD2    H7 9116   1.355   2.647  10.558 -0.9550 -0.3070 -0.1781
  612TMC3    C1 9117   1.780   2.522  11.162 -0.0906  0.1193  0.6200
  612TMC3    C2 9118   1.841   2.640  11.192  0.3947 -0.5301 -0.5620
  612TMC3    C3 9119   1.972   2.652  11.177 -0.6131 -0.4151  0.0345
  612TMC3    C4 9120   1.854   2.414  11.124  0.2289  0.0320 -0.3069
  612TMC3    C5 9121   1.981   2.436  11.090  0.8119  0.6522  0.4554
  612TMC3    C6 9122   2.055   2.547  11.125  0.3269 -0.1839  0.2282
  612TMC3     C 9123   1.674   2.552  11.074  0.1577 -0.7171 -0.1146
  612TMC3     O 9124   1.621   2.455  11.025 -0.6068  0.2021 -1.1551
  612TMC3     H 9125   1.789   2.731  11.219 -0.0875 -1.5099  1.8570
  612TMC3    H1 9126   1.810   2.320  11.095  3.2552 -1.6682  0.6447
  612TMC3    H2 9127   2.157   2.561  11.091  0.4122 -1.2555  0.0471
  612TMC3    C7 9128   2.056   2.342  11.010 -0.5919 -0.1537  0.7274
  612TMC3    C8 9129   2.015   2.778  11.136  0.1309  0.0298  0.7393
  612TMC3    O1 9130   2.001   2.275  10.925 -0.1671 -0.5897  0.7972
  612TMC3    O2 9131   1.929   2.851  11.087 -0.1735  0.2506  0.0981
  613MPD2     C 9132   1.545   0.418  16.448  0.2054 -0.6597 -0.2497
  613MPD2    C1 9133   1.414   0.471  16.458 -0.1858  0.1738  0.2204
  613MPD2    C2 9134   1.314   0.377  16.472  0.3984 -0.1287 -0.0574
  613MPD2    C3 9135   1.339   0.238  16.449  0.3705 -0.3407 -0.4767
  613MPD2    C4 9136   1.467   0.194  16.436  0.0072 -0.6035  0.0459
  613MPD2    C5 9137   1.567   0.286  16.438  0.3033 -1.0942 -0.2100
  613MPD2     H 9138   1.213   0.416  16.481  0.0284 -1.1658  0.3361
  613MPD2    H1 9139   1.497   0.091  16.419 -0.0032 -0.5595 -0.2401
  613MPD2    H2 9140   1.629   0.486  16.441  0.5108 -1.0894 -0.6991
  613MPD2    H3 9141   1.666   0.244  16.432 -0.2415 -2.4101  0.1654
  613MPD2     N 9142   1.241   0.137  16.439  0.1905 -0.2815 -0.0917
  613MPD2    H5 9143   1.267   0.042  16.415 -0.6896 -0.3124 -0.8923
  613MPD2    N1 9144   1.401   0.612  16.442  0.1321 -0.4869 -0.4436
  613MPD2    H7 9145   1.479   0.675  16.462  0.3719 -0.5839 -1.0727
  614TMC3    C1 9146   1.210   0.608  16.292 -0.0266 -0.2560 -0.2885
  614TMC3    C2 9147   1.253   0.508  16.210 -0.1711  0.0708  0.4328
  614TMC3    C3 9148   1.159   0.438  16.138 -0.2987  0.4786  0.7272
  614TMC3    C4 9149   1.077   0.650  16.280 -0.5434 -0.2699 -0.7716
  614TMC3    C5 9150   0.990   0.586  16.198  0.6341  0.2738  0.7678
  614TMC3    C6 9151   1.030   0.479  16.127  0.0161  0.1053 -0.0830
  614TMC3     C 9152   1.288   0.673  16.394 -0.0678 -0.2455  0.0204
  614TMC3     O 9153   1.269   0.795  16.394  0.0063  0.3163  0.0117
  614TMC3     H 9154   1.351   0.464  16.219 -0.4690 -0.9889 -1.4118
  614TMC3    H1 9155   1.052   0.738  16.339 -1.4616 -0.8401 -0.3083
  614TMC3    H2 9156   0.954   0.425  16.072  0.4612  1.6838 -2.2383
  614TMC3    C7 9157   0.856   0.638  16.175 -0.4075 -0.1216  0.0840
  614TMC3    C8 9158   1.186   0.305  16.084 -0.1648 -0.0669 -0.7800
  614TMC3    O1 9159   0.806   0.716  16.250 -0.2323  0.3723 -0.0715
  614TMC3    O2 9160   1.085   0.248  16.039  0.0253  0.1092 -0.5756
  615MPD2     C 9161   0.414   1.937  15.666  0.3296 -0.1293 -0.6601
  615MPD2    C1 9162   0.434   1.968  15.804 -0.2039  0.1388  0.4619
  615MPD2    C2 9163   0.436   2.098  15.845 -0.4250  0.9390 -0.0279
  615MPD2    C3 9164   0.395   2.197  15.761 -0.4127 -0.1654 -0.5006
  615MPD2    C4 9165   0.367   2.167  15.634 -0.4416 -1.1893  0.3917
  615MPD2    C5 9166   0.393   2.044  15.585  0.6824 -0.2782  0.1361
  615MPD2     H 9167   0.471   2.115  15.946  0.1147  0.6184 -0.1607
  615MPD2    H1 9168   0.311   2.238  15.574  0.8124 -0.3678  0.1764
  615MPD2    H2 9169   0.420   1.839  15.621  0.8257 -0.6056  0.4399
  615MPD2    H3 9170   0.372   2.036  15.479 -2.1960 -3.6418  0.9548
  615MPD2     N 9171   0.369   2.322  15.812  0.3145  0.3735  0.2035
  615MPD2    H5 9172   0.329   2.384  15.741  2.9345  0.1450 -1.4536
  615MPD2    N1 9173   0.458   1.867  15.901 -0.1460  0.1889  0.1140
  615MPD2    H7 9174   0.478   1.895  15.996  0.2753 -1.7666  0.6101
  616TMC3    C1 9175   0.519   1.667  15.997 -1.4066 -0.1521 -0.1186
  616TMC3    C2 9176   0.503   1.737  16.107 -0.4924 -0.1848  0.4367
  616TMC3    C3 9177   0.604   1.748  16.195  0.6350  0.0395 -0.1888
  616TMC3    C4 9178   0.626   1.590  15.974  0.8201  0.4031  0.0798
  616TMC3    C5 9179   0.724   1.592  16.071 -0.4358 -0.3273 -0.1604
  616TMC3    C6 9180   0.724   1.686  16.177 -0.1057 -0.8961 -0.1827
  616TMC3     C 9181   0.468   1.728  15.876 -0.2032  0.4442 -0.2245
  616TMC3     O 9182   0.479   1.666  15.776  0.2909  1.4119 -0.0870
  616TMC3     H 9183   0.408   1.786  16.124 -0.4977 -1.3598  3.7386
  616TMC3    H1 9184   0.621   1.520  15.891  0.1596  0.1341  0.3520
  616TMC3    H2 9185   0.810   1.687  16.244  0.6794  2.1958 -1.2400
  616TMC3    C7 9186   0.794   1.471  16.106  0.3526 -0.3679  0.7216
  616TMC3    C8 9187   0.601   1.884  16.246 -0.7469 -0.7169 -0.3550
  616TMC3    O1 9188   0.862   1.471  16.211  0.4376  0.1666  0.2845
  616TMC3    O2 9189   0.493   1.934  16.270 -0.2526  0.1970  0.0521
  617MPD2     C 9190   2.996   4.510  13.903 -0.4768 -0.6505 -0.7250
  617MPD2    C1 9191   3.061   4.477  14.020 -0.3637  0.0117  0.1921
  617MPD2    C2 9192   2.997   4.486  14.149  0.0945 -0.0230  0.0362
  617MPD2    C3 9193   2.865   4.529  14.145 -0.5317  0.2691 -0.2170
  617MPD2    C4 9194   2.812   4.575  14.024  0.5701  0.7479 -0.1843
  617MPD2    C5 9195   2.874   4.558  13.908  0.1897  0.0902  0.1787
  617MPD2     H 9196   3.035   4.456  14.246  2.1328 -1.2715 -1.1478
  617MPD2    H1 9197   2.712   4.617  14.030  1.0726  1.2505  4.8935
  617MPD2    H2 9198   3.039   4.488  13.806 -1.0313 -2.0837 -0.6461
  617MPD2    H3 9199   2.815   4.584  13.821 -0.3714  0.2947  0.6177
  617MPD2     N 9200   2.773   4.523  14.251 -0.0687 -0.1017 -0.5025
  617MPD2    H5 9201   2.677   4.552  14.237 -0.9928 -1.5192  2.7452
  617MPD2    N1 9202   3.198   4.447  14.007 -0.0861 -0.3241 -0.1386
  617MPD2    H7 9203   3.238   4.439  13.914 -0.4796 -2.9047 -0.0658
  618TMC3    C1 9204   3.421   4.401  14.062  1.0407  0.5359  0.6803
  618TMC3    C2 9205   3.430   4.288  13.984 -0.4545 -0.3558  0.1008
  618TMC3    C3 9206   3.556   4.240  13.951 -0.5964  1.2583 -0.5466
  618TMC3    C4 9207   3.533   4.468  14.099 -0.3015 -0.7798  0.4648
  618TMC3    C5 9208   3.654   4.426  14.059 -0.2988 -0.8593 -0.5888
  618TMC3    C6 9209   3.673   4.305  13.993 -0.8236 -0.3310 -0.4358
  618TMC3     C 9210   3.292   4.447  14.110 -0.3291  0.0673 -0.2445
  618TMC3     O 9211   3.279   4.465  14.232  0.1612  0.9432  0.7806
  618TMC3     H 9212   3.344   4.227  13.961 -2.1111  1.9137  0.2489
  618TMC3    H1 9213   3.530   4.564  14.150  0.8731 -0.2784 -0.4135
  618TMC3    H2 9214   3.777   4.275  13.980 -0.7559  0.5178 -1.8453
  618TMC3    C7 9215   3.771   4.488  14.122  1.0781  0.7665  0.4996
  618TMC3    C8 9216   3.558   4.155  13.829 -0.3223 -0.0417 -0.5363
  618TMC3    O1 9217   3.755   4.509  14.240  0.2041 -0.1306  0.0223
  618TMC3    O2 9218   3.456   4.116  13.781  0.1623  0.1667  0.8693
  619MPD2     C 9219   4.462   0.632  13.675 -0.4766  0.1565 -0.0058
  619MPD2    C1 9220   4.417   0.749  13.618  0.4978  0.2724  0.2841
  619MPD2    C2 9221   4.296   0.811  13.657  0.2692  0.0165  0.1076
  619MPD2    C3 9222   4.219   0.747  13.750  0.4900 -0.4721  0.1413
  619MPD2    C4 9223   4.275   0.646  13.826  0.6740 -0.6542  0.5575
  619MPD2    C5 9224   4.398   0.589  13.787 -0.6971 -0.4086  0.1521
  619MPD2     H 9225   4.273   0.900  13.599 -1.2243  0.0570  0.7755
  619MPD2    H1 9226   4.230   0.596  13.910 -3.6157 -0.4399 -1.6280
  619MPD2    H2 9227   4.546   0.577  13.636 -1.5720 -1.8827  0.5313
  619MPD2    H3 9228   4.437   0.510  13.850 -0.8636 -0.7635 -0.1966
  619MPD2     N 9229   4.085   0.783  13.779  0.1194  0.5569  0.6543
  619MPD2    H5 9230   4.029   0.724  13.839  0.2602 -0.7510 -0.4929
  619MPD2    N1 9231   4.481   0.809  13.512  0.0555 -0.2421  0.5608
  619MPD2    H7 9232   4.427   0.880  13.463 -1.4164 -1.4433  0.4286
  620TMC3    C1 9233   4.603   0.845  13.323 -0.5450 -0.6022 -0.4536
  620TMC3    C2 9234   4.486   0.888  13.261  0.0333  0.2686 -0.3013
  620TMC3    C3 9235   4.485   1.010  13.193 -0.2472  0.1887  0.0792
  620TMC3    C4 9236   4.719   0.919  13.316 -0.7100  0.6354 -0.5490
  620TMC3    C5 9237   4.713   1.051  13.267 -0.6897 -0.5626 -0.0899
  620TMC3    C6 9238   4.602   1.087  13.194 -0.4005  0.0706  0.3443
  620TMC3     C 9239   4.590   0.770  13.447  0.5638  0.5586  0.8317
  620TMC3     O 9240   4.696   0.742  13.504 -0.1777 -0.0610  0.5945
  620TMC3     H 9241   4.399   0.824  13.275  0.5102 -0.7944 -2.3584
  620TMC3    H1 9242   0.069   0.887  13.370 -1.2220  1.9658  1.0418
  620TMC3    H2 9243   4.602   1.186  13.150 -1.9903  0.5633  1.4521
  620TMC3    C7 9244   0.009   1.150  13.372 -0.7724  0.2216 -0.0811
  620TMC3    C8 9245   4.372   1.078  13.257 -0.3253  0.0910 -0.1437
  620TMC3    O1 9246   0.067   1.104  13.469 -0.1106  0.0173 -0.3581
  620TMC3    O2 9247   4.333   1.031  13.366  0.0346  0.1124 -0.6473
  621MPD2     C 9248   0.187   0.643  10.420  0.3747 -0.2541 -0.0705
  621MPD2    C1 9249   0.279   0.623  10.318  0.5694  0.3970 -0.1754
  621MPD2    C2 9250   0.362   0.728  10.277 -1.0363  0.0572 -0.4649
  621MPD2    C3 9251   0.364   0.843  10.351  0.4631 -0.1962 -1.0859
  621MPD2    C4 9252   0.284   0.847  10.464  0.6451  0.4866  0.4780
  621MPD2    C5 9253   0.188   0.753  10.493 -0.5384 -0.0969 -0.1155
  621MPD2     H 9254   0.440   0.706  10.205 -0.9554 -0.3562 -0.2479
  621MPD2    H1 9255   0.281   0.936  10.526 -0.2204  1.3476 -0.8130
  621MPD2    H2 9256   0.120   0.566  10.458  0.0306 -0.5758 -1.3398
  621MPD2    H3 9257   0.131   0.768  10.584  1.5252 -0.3518  1.2446
  621MPD2     N 9258   0.461   0.942  10.319 -0.6067  0.7753 -0.4575
  621MPD2    H5 9259   0.518   0.925  10.236  1.1277  3.4522  0.1697
  621MPD2    N1 9260   0.294   0.505  10.245 -0.0457  0.3842 -0.0007
  621MPD2    H7 9261   0.347   0.505  10.159  0.3320 -1.1371  0.2214
  622TMC3    C1 9262   0.257   0.283  10.171 -0.1593 -0.0619 -0.7999
  622TMC3    C2 9263   0.186   0.172  10.211 -0.1938 -0.0028  0.6273
  622TMC3    C3 9264   0.091   0.118  10.133  0.1126 -0.5983  0.1308
  622TMC3    C4 9265   0.255   0.330  10.040  0.5354 -0.0455  0.6124
  622TMC3    C5 9266   0.178   0.261   9.958 -0.2825 -0.3387 -0.2212
  622TMC3    C6 9267   0.095   0.158  10.002  0.2886 -0.1075 -0.2225
  622TMC3     C 9268   0.241   0.386  10.276  0.7356  0.4729 -0.2286
  622TMC3     O 9269   0.175   0.357  10.373  0.0384  0.5424 -0.0342
  622TMC3     H 9270   0.196   0.139  10.314  1.6226 -2.5953 -0.3614
  622TMC3    H1 9271   0.319   0.416  10.021  0.3398  0.1964  1.0244
  622TMC3    H2 9272   0.036   0.109   9.925  0.6334  0.3022 -0.7533
  622TMC3    C7 9273   0.178   0.299   9.822  0.1201 -0.0810 -0.0957
  622TMC3    C8 9274   4.689   0.125  10.174 -0.5321  0.7217  0.0094
  622TMC3    O1 9275   0.158   0.214   9.735  0.1599  0.4237  0.2358
  622TMC3    O2 9276   4.595   0.086  10.105 -0.4526 -0.1740  0.0904
  623MPD2     C 9277   3.586   1.526  15.956  0.8806 -0.3522  0.0276
  623MPD2    C1 9278   3.520   1.526  16.078 -1.2280  0.1212 -0.4538
  623MPD2    C2 9279   3.589   1.552  16.196 -0.0341  0.4182  0.1030
  623MPD2    C3 9280   3.721   1.590  16.186  0.3767  0.4970  0.4041
  623MPD2    C4 9281   3.796   1.576  16.071  0.6252  0.8501  0.9127
  623MPD2    C5 9282   3.724   1.543  15.957 -0.0198 -0.1693 -0.5477
  623MPD2     H 9283   3.529   1.571  16.285  0.4649  1.0863  0.2878
  623MPD2    H1 9284   3.904   1.582  16.071  0.6596  0.0975  2.6389
  623MPD2    H2 9285   3.537   1.507  15.861 -0.7221 -0.7464  0.9295
  623MPD2    H3 9286   3.778   1.529  15.864  3.1086  0.3123  1.1934
  623MPD2     N 9287   3.776   1.642  16.306  0.1698 -0.4268  0.2876
  623MPD2    H5 9288   3.715   1.634  16.386 -0.4899  0.0190 -0.1669
  623MPD2    N1 9289   3.381   1.502  16.088 -0.4608  0.4965  0.4787
  623MPD2    H7 9290   3.353   1.497  16.185 -0.3223  0.9992  0.5453
  624TMC3    C1 9291   4.042   1.906  16.557 -0.3862 -0.0709 -0.8113
  624TMC3    C2 9292   3.943   1.894  16.656 -0.5718  0.5460  0.2004
  624TMC3    C3 9293   3.857   1.784  16.649  0.5998  0.1310 -0.4929
  624TMC3    C4 9294   4.047   1.827  16.449  0.6446 -0.1804  0.8999
  624TMC3    C5 9295   3.949   1.730  16.443 -0.1756 -0.2629  0.1553
  624TMC3    C6 9296   3.860   1.702  16.538  0.4319  0.3210  0.0867
  624TMC3     C 9297   4.125   2.024  16.570 -0.7172 -0.1092 -0.8885
  624TMC3     O 9298   4.148   2.050  16.687  0.1206  0.2176  0.9377
  624TMC3     H 9299   3.948   1.942  16.753  1.5861 -0.5706  0.6312
  624TMC3    H1 9300   4.130   1.827  16.379 -1.0741 -0.6943 -1.1698
  624TMC3    H2 9301   3.798   1.613  16.541 -3.0476  2.6661 -1.6419
  624TMC3    C7 9302   3.904   1.701  16.308  0.0387  0.6114  0.7762
  624TMC3    C8 9303   3.740   1.763  16.737  0.2683 -0.0293  0.1532
  624TMC3    O1 9304   3.968   1.749  16.216  0.3756  0.0136  0.0466
  624TMC3    O2 9305   3.689   1.654  16.732  0.0361  0.3978  0.3149
  625MPD2     C 9306   4.447   3.745   0.402 -0.9273  0.3134 -0.3547
  625MPD2    C1 9307   4.425   3.844   0.494  0.1324  0.3796  0.0154
  625MPD2    C2 9308   4.527   3.888   0.571  0.3118  0.4109 -0.0848
  625MPD2    C3 9309   4.658   3.832   0.552 -0.0919  0.4024 -0.2700
  625MPD2    C4 9310   4.683   3.737   0.453  0.0398 -0.3024 -0.4322
  625MPD2    C5 9311   4.574   3.691   0.384  0.2091  0.9813 -0.4435
  625MPD2     H 9312   4.521   3.967   0.645  0.5208 -0.8991  1.3323
  625MPD2    H1 9313   0.042   3.689   0.446  0.1457  0.2742 -2.6848
  625MPD2    H2 9314   4.367   3.708   0.340 -1.6070 -0.0866  0.7597
  625MPD2    H3 9315   4.598   3.612   0.313 -1.3176  0.2461 -0.1383
  625MPD2     N 9316   0.022   3.889   0.643 -0.5813  0.1667  0.3753
  625MPD2    H5 9317   0.001   3.979   0.684 -0.4634 -0.4428  1.7793
  625MPD2    N1 9318   4.288   3.894   0.495  0.7025 -0.0805  0.2091
  625MPD2    H7 9319   4.223   3.870   0.420  0.2248 -0.5009  0.7613
  626TMC3    C1 9320   4.122   4.072   0.553  0.2341  0.0010  1.0909
  626TMC3    C2 9321   4.053   4.051   0.435  0.6202  0.1803  0.7084
  626TMC3    C3 9322   3.950   4.134   0.409  0.8950  0.3839  0.6333
  626TMC3    C4 9323   4.075   4.158   0.651 -0.2945  0.1758  0.1212
  626TMC3    C5 9324   3.950   4.223   0.630  1.1237  0.8771  0.5226
  626TMC3    C6 9325   3.891   4.211   0.506 -0.1396 -0.7578  0.0648
  626TMC3     C 9326   4.237   3.988   0.588 -0.3829 -0.4168 -0.2360
  626TMC3     O 9327   4.296   4.033   0.685 -0.0101 -0.0646 -0.0323
  626TMC3     H 9328   4.083   3.976   0.363 -0.1752  0.7601 -0.2168
  626TMC3    H1 9329   4.135   4.176   0.740  0.7309  0.5359 -0.6520
  626TMC3    H2 9330   3.814   4.285   0.487 -1.0407 -1.6747  0.2019
  626TMC3    C7 9331   3.913   4.329   0.724 -1.0618 -0.4495 -0.1380
  626TMC3    C8 9332   3.880   4.125   0.279  0.7826  0.4110  1.0242
  626TMC3    O1 9333   3.977   4.337   0.828 -0.0523  0.0414  0.1793
  626TMC3    O2 9334   3.942   4.071   0.186  0.3740  0.4263 -0.1908
  627MPD2     C 9335   2.678   3.372  14.611  0.1643 -0.0067 -0.2497
  627MPD2    C1 9336   2.767   3.275  14.648  0.1704  0.7176 -0.3141
  627MPD2    C2 9337   2.751   3.150  14.596  0.5588 -0.7124  0.4312
  627MPD2    C3 9338   2.642   3.113  14.525 -0.4041 -0.2327 -0.2055
  627MPD2    C4 9339   2.550   3.208  14.490 -0.0272 -0.4485  0.0327
  627MPD2    C5 9340   2.569   3.340  14.529  0.4554  0.0871 -0.2129
  627MPD2     H 9341   2.825   3.071  14.600  1.1649  0.0369  3.6788
  627MPD2    H1 9342   2.464   3.182  14.430 -0.0382 -1.5526  0.5274
  627MPD2    H2 9343   2.684   3.472  14.652 -1.3209  0.5931 -1.4908
  627MPD2    H3 9344   2.485   3.407  14.512 -0.9949 -0.8577  3.0667
  627MPD2     N 9345   2.644   2.984  14.474  0.4617  0.2417  0.2326
  627MPD2    H5 9346   2.705   2.911  14.508 -0.5950 -0.4408  0.6630
  627MPD2    N1 9347   2.876   3.304  14.729  0.6078  0.1604 -0.2754
  627MPD2    H7 9348   2.944   3.229  14.738  2.8609  2.0530 -1.5392
  628TMC3    C1 9349   3.023   3.436  14.848 -0.7403  0.6734 -0.5099
  628TMC3    C2 9350   3.127   3.403  14.764 -0.5896  1.0540  0.3168
  628TMC3    C3 9351   3.248   3.446  14.802 -0.4049  0.8796 -0.3716
  628TMC3    C4 9352   3.035   3.541  14.931  0.3058  0.0335  0.8004
  628TMC3    C5 9353   3.157   3.583  14.965  0.6292  0.5649 -0.7396
  628TMC3    C6 9354   3.270   3.527  14.907  0.1398 -0.6352 -0.5455
  628TMC3     C 9355   2.890   3.420  14.795  0.3853  0.4968 -0.1075
  628TMC3     O 9356   2.804   3.494  14.842 -0.1548  0.5537 -0.0458
  628TMC3     H 9357   3.126   3.337  14.679 -0.3385  0.9809  0.3694
  628TMC3    H1 9358   2.945   3.572  14.982  0.1155  0.6470  0.0805
  628TMC3    H2 9359   3.363   3.579  14.923 -0.1918  0.0297 -0.7990
  628TMC3    C7 9360   3.161   3.726  14.987  0.0447  0.8156  0.2064
  628TMC3    C8 9361   3.348   3.443  14.700  0.4910  0.1576 -0.0760
  628TMC3    O1 9362   3.232   3.775  15.072 -0.2797  0.5111  0.4183
  628TMC3    O2 9363   3.319   3.438  14.580 -0.2405 -0.0357  0.1566
  629MPD2     C 9364   0.821   2.284  16.484  0.1948 -0.4600 -0.3409
  629MPD2    C1 9365   0.925   2.200  16.440  0.3996  0.0587 -0.7591
  629MPD2    C2 9366   0.886   2.086  16.365  1.0027 -0.2564  0.5727
  629MPD2    C3 9367   0.758   2.059  16.343 -0.7400 -0.1454  0.0233
  629MPD2    C4 9368   0.655   2.149  16.371 -0.2909 -0.1052 -1.0125
  629MPD2    C5 9369   0.691   2.262  16.443 -0.1725 -0.9350 -0.6312
  629MPD2     H 9370   0.962   2.018  16.328  0.8577  0.7885 -1.6303
  629MPD2    H1 9371   0.549   2.146  16.347 -0.9911  1.2172  1.7947
  629MPD2    H2 9372   0.822   2.370  16.550 -0.5474  0.4654 -1.5479
  629MPD2    H3 9373   0.612   2.331  16.470  2.1511  0.5288  2.3973
  629MPD2     N 9374   0.725   1.937  16.273 -0.1170 -0.6873  0.0894
  629MPD2    H5 9375   0.810   1.894  16.239  0.8954  2.4163 -1.2904
  629MPD2    N1 9376   1.060   2.231  16.466 -0.6443  0.0803 -0.2881
  629MPD2    H7 9377   1.088   2.319  16.507 -0.8592  1.0073 -2.1298
  630TMC3    C1 9378   1.294   2.190  16.501 -0.6858 -0.4358  0.4047
  630TMC3    C2 9379   1.332   2.316  16.471 -0.0151 -0.7872  0.3210
  630TMC3    C3 9380   1.458   2.354  16.514  0.1945 -0.5557  0.0911
  630TMC3    C4 9381   1.364   2.110  16.591  1.1610  0.2900 -0.0706
  630TMC3    C5 9382   1.484   2.162  16.638  0.6081  0.3155  0.3756
  630TMC3    C6 9383   1.533   2.283  16.602  0.4539 -1.0784  0.3818
  630TMC3     C 9384   1.165   2.141  16.452  1.5634  0.7627  0.4192
  630TMC3     O 9385   1.158   2.018  16.448 -0.3721 -0.0025 -0.1150
  630TMC3     H 9386   1.262   2.382  16.421  0.7731 -0.8280 -0.8335
  630TMC3    H1 9387   1.316   2.033  16.649 -1.4797  0.7124 -1.7148
  630TMC3    H2 9388   1.623   2.330  16.641  0.5993 -1.6855  0.7705
  630TMC3    C7 9389   1.552   2.084  16.740  0.0100 -0.4009  0.1573
  630TMC3    C8 9390   1.510   2.475  16.462  0.6462  0.1015  1.1325
  630TMC3    O1 9391   1.497   1.985  16.786  0.3793 -0.3496 -0.3306
  630TMC3    O2 9392   1.602   2.534  16.524  0.6001 -0.2732  0.0654
  631MPD2     C 9393   4.521   2.612  15.335  0.1556 -0.3504  0.4297
  631MPD2    C1 9394   4.482   2.712  15.425  0.3654 -0.1433 -0.0135
  631MPD2    C2 9395   4.576   2.749  15.526 -0.3632 -0.4825  0.1566
  631MPD2    C3 9396   4.692   2.670  15.537 -0.7856 -0.5181 -0.6158
  631MPD2    C4 9397   4.719   2.569  15.447 -0.3155 -0.4790 -0.5263
  631MPD2    C5 9398   4.637   2.543  15.341  0.3127 -0.8573  0.1473
  631MPD2     H 9399   4.555   2.833  15.590  0.1595  0.9895 -1.6247
  631MPD2    H1 9400   0.064   2.501  15.464  1.4370  1.9039  0.4867
  631MPD2    H2 9401   4.454   2.585  15.254  1.2362 -2.5708  0.2863
  631MPD2    H3 9402   4.668   2.472  15.265  1.4996 -0.1974  0.0215
  631MPD2     N 9403   0.041   2.696  15.648 -0.5749 -0.6348  0.2961
  631MPD2    H5 9404   0.025   2.782  15.700 -0.5819  0.6277 -1.8217
  631MPD2    N1 9405   4.362   2.778  15.409 -0.3145 -0.7043 -0.3161
  631MPD2    H7 9406   4.298   2.742  15.338 -0.3277  2.9023 -2.1249
  632TMC3    C1 9407   4.207   2.944  15.393  0.0119  0.3400 -0.2961
  632TMC3    C2 9408   4.112   2.848  15.401  0.2510  0.1040  0.3125
  632TMC3    C3 9409   4.021   2.834  15.301 -0.0770  0.0949 -0.6692
  632TMC3    C4 9410   4.239   3.005  15.280  0.6536 -0.5379 -0.2456
  632TMC3    C5 9411   4.160   2.976  15.172 -0.3645  0.1733 -0.6117
  632TMC3    C6 9412   4.035   2.908  15.182 -0.4745 -0.9252 -0.2358
  632TMC3     C 9413   4.321   2.895  15.468 -0.0600 -0.1741  0.0936
  632TMC3     O 9414   4.370   2.963  15.556 -0.3264 -0.0870 -0.6669
  632TMC3     H 9415   4.110   2.794  15.495  2.4833  1.2390  1.0106
  632TMC3    H1 9416   4.331   3.060  15.268  0.4741 -0.7836 -2.6436
  632TMC3    H2 9417   3.974   2.897  15.094 -0.0389  1.2265 -0.7957
  632TMC3    C7 9418   4.233   2.950  15.050 -0.2936  0.2001  0.6789
  632TMC3    C8 9419   3.896   2.757  15.326  0.3073  0.3338 -0.4223
  632TMC3    O1 9420   4.172   2.943  14.942 -0.0563 -0.3395  0.7524
  632TMC3    O2 9421   3.892   2.694  15.435  0.0363  0.2857 -0.0579
  633MPD2     C 9422   3.724   4.480  17.128  0.1982  0.4536  0.6114
  633MPD2    C1 9423   3.770   4.422  17.021 -0.8569  0.2102  0.0953
  633MPD2    C2 9424   3.892   4.358  17.017 -0.5739 -0.2760 -0.1072
  633MPD2    C3 9425   3.982   4.381  17.118  0.1481 -0.1386 -0.5796
  633MPD2    C4 9426   3.939   4.451  17.230  0.7710 -0.3088 -0.0005
  633MPD2    C5 9427   3.804   4.492  17.239  0.3910  0.3618 -0.2599
  633MPD2     H 9428   3.924   4.298  16.933 -2.2151 -2.2639  0.6806
  633MPD2    H1 9429   4.004   4.464  17.316  0.4825  1.5143 -0.0610
  633MPD2    H2 9430   3.621   4.511  17.142 -0.0209  0.3320 -0.6857
  633MPD2    H3 9431   3.781   4.557  17.321  0.0839 -0.9497  0.6921
  633MPD2     N 9432   4.110   4.330  17.108 -0.5436  0.1120  0.0853
  633MPD2    H5 9433   4.132   4.265  17.033  3.1530 -0.5356  1.7091
  633MPD2    N1 9434   3.705   4.419  16.893 -0.2850 -0.1395  0.2064
  633MPD2    H7 9435   3.761   4.378  16.819  1.1162 -0.3095  1.3631
  634TMC3    C1 9436   3.606   4.543  16.717 -1.1942 -0.4089  0.2867
  634TMC3    C2 9437   3.668   4.451  16.637  0.3346 -0.4121  0.0184
  634TMC3    C3 9438   3.718   4.505  16.521  0.1102 -0.7855 -0.5692
  634TMC3    C4 9439   3.613   4.679  16.691 -1.2707  0.2974 -0.7803
  634TMC3    C5 9440   3.676   4.722  16.580 -0.0082  0.6181 -0.6717
  634TMC3    C6 9441   3.719   4.634  16.486  0.2346 -0.6596  0.3232
  634TMC3     C 9442   3.601   4.509  16.860  0.0040  0.9767 -0.1053
  634TMC3     O 9443   3.533   4.590  16.930 -0.3631  0.2005  0.1903
  634TMC3     H 9444   3.662   4.343  16.647  3.5040 -0.6520 -0.7606
  634TMC3    H1 9445   3.559   0.011  16.753 -1.0236  0.3839 -0.6629
  634TMC3    H2 9446   3.766   4.673  16.397  0.6286  0.1794  0.8968
  634TMC3    C7 9447   3.712   0.122  16.562  0.6603 -0.1821  0.3907
  634TMC3    C8 9448   3.759   4.404  16.426  0.0037  0.3293 -0.9869
  634TMC3    O1 9449   3.740   0.164  16.449  0.1995 -0.2959  0.0097
  634TMC3    O2 9450   3.793   4.303  16.476 -0.2130 -0.0066  0.4169
  635TMC3    C1 9451   0.413   1.657   0.191 -0.6450  0.0209  0.0463
  635TMC3    C2 9452   0.486   1.699   0.085 -0.7251  1.2676 -0.1172
  635TMC3    C3 9453   0.508   1.617  17.733  0.1835  0.1697 -0.2074
  635TMC3    C4 9454   0.352   1.536   0.195 -0.0586 -0.2784  0.3584
  635TMC3    C5 9455   0.395   1.454   0.094 -0.4677 -0.6976  0.0194
  635TMC3    C6 9456   0.468   1.493  17.730 -0.1058 -0.5857  0.3629
  635TMC3     C 9457   0.340   1.773   0.249 -0.3313 -0.1471  0.5283
  635TMC3     O 9458   0.410   1.863   0.298 -0.2939 -0.3454  0.6868
  635TMC3     H 9459   0.524   1.800   0.081  2.5996  0.0510  0.7990
  635TMC3    H1 9460   0.298   1.499   0.282  0.2018 -0.6210  0.3732
  635TMC3    H2 9461   0.474   1.425  17.646  1.6885 -0.4664  0.3857
  635TMC3    C7 9462   0.343   1.313   0.089  0.0444 -0.4968  0.1952
  635TMC3    C8 9463   0.581   1.666  17.616 -0.6180  0.5684  1.0888
  635TMC3    O1 9464   0.350   1.259  17.730 -0.1408  0.6680  0.3769
  635TMC3    O2 9465   0.602   1.574  17.539 -0.6169  0.0932  0.1270
  636MPD2     C 9466   0.386   0.513  16.147 -0.2313 -0.1503 -0.7236
  636MPD2    C1 9467   0.451   0.527  16.264 -0.0342  0.9325 -0.0529
  636MPD2    C2 9468   0.541   0.428  16.309 -0.1220 -0.6619  0.1602
  636MPD2    C3 9469   0.584   0.330  16.222  0.6176  0.7446 -0.2123
  636MPD2    C4 9470   0.530   0.319  16.092 -0.3362  0.1359 -0.4724
  636MPD2    C5 9471   0.433   0.413  16.061  0.4977 -0.0778  0.3558
  636MPD2     H 9472   0.586   0.443  16.407 -0.8723  2.2441  0.0754
  636MPD2    H1 9473   0.550   0.245  16.015 -0.4669  0.8067 -1.1538
  636MPD2    H2 9474   0.308   0.578  16.108 -1.2537 -1.7728 -1.3440
  636MPD2    H3 9475   0.398   0.402  15.959 -0.8625 -0.9161  0.9122
  636MPD2     N 9476   0.698   0.253  16.260  0.0047  0.1688 -0.0167
  636MPD2    H5 9477   0.738   0.273  16.351 -1.1672  0.9557  0.3262
  636MPD2    N1 9478   0.417   0.635  16.354  0.1332  0.1203  0.9504
  636MPD2    H7 9479   0.462   0.642  16.444  3.6590 -2.5788 -0.6237
  637TMC3    C1 9480   0.837   0.063  16.266  0.7002  0.1275  0.2205
  637TMC3    C2 9481   0.886   0.110  16.387  0.8638 -0.0647  0.2349
  637TMC3    C3 9482   1.010   0.062  16.416  0.0148  0.0879  0.9889
  637TMC3    C4 9483   0.891   4.701  16.192 -0.0248 -0.2190  1.3639
  637TMC3    C5 9484   1.006   4.641  16.234 -0.1145 -0.4706  0.5985
  637TMC3    C6 9485   1.063   4.690  16.345 -0.4879  0.5027 -0.2999
  637TMC3     C 9486   0.741   0.142  16.192 -1.0903 -1.2398 -0.8288
  637TMC3     O 9487   0.699   0.092  16.087 -0.3067 -0.0479  0.3592
  637TMC3     H 9488   0.832   0.176  16.452 -3.9002 -0.8874 -2.8993
  637TMC3    H1 9489   0.842   4.664  16.102 -0.1705  1.3126  0.8186
  637TMC3    H2 9490   1.166   4.662  16.366 -1.5598 -3.6763 -0.5765
  637TMC3    C7 9491   1.054   4.539  16.143 -0.5283  0.3545 -0.6970
  637TMC3    C8 9492   1.103   0.168  16.438  0.2291 -0.1099  0.4296
  637TMC3    O1 9493   0.973   4.461  16.094  0.2864 -0.0151 -0.8788
  637TMC3    O2 9494   1.051   0.271  16.476  0.1011 -0.3069  0.4330
  638MPD2     C 9495   0.467   4.098  14.499 -0.3038  0.0903  0.1098
  638MPD2    C1 9496   0.443   3.972  14.453 -0.1815  0.4676 -0.1316
  638MPD2    C2 9497   0.364   3.887  14.528 -0.1740 -0.1932 -0.0766
  638MPD2    C3 9498   0.327   3.922  14.656  0.4069  0.4169 -0.4471
  638MPD2    C4 9499   0.348   4.046  14.701  0.3384  0.4374  0.2243
  638MPD2    C5 9500   0.416   4.137  14.621  0.2124 -0.5261  0.5551
  638MPD2     H 9501   0.337   3.788  14.493  1.1393  0.2394 -2.3273
  638MPD2    H1 9502   0.314   4.083  14.797 -1.5730 -0.6966 -0.0242
  638MPD2    H2 9503   0.536   4.163  14.446 -0.8015  2.4524  2.3335
  638MPD2    H3 9504   0.447   4.235  14.655 -2.7377  0.8715 -0.8257
  638MPD2     N 9505   0.256   3.828  14.728  0.0370 -0.1786  0.1227
  638MPD2    H5 9506   0.221   3.742  14.687 -2.3654  1.5466 -1.4021
  638MPD2    N1 9507   0.509   3.935  14.342  0.8673  0.0231  0.5970
  638MPD2    H7 9508   0.564   4.004  14.290  0.2508  0.4314  0.4902
  639TMC3    C1 9509   0.204   3.699  14.915 -0.0190 -0.0373  0.0834
  639TMC3    C2 9510   0.095   3.642  14.863 -0.0843 -0.2108  0.3122
  639TMC3    C3 9511   0.036   3.540  14.936 -0.1045  0.6605 -0.2491
  639TMC3    C4 9512   0.266   3.648  15.025 -0.5439 -0.0821 -0.3786
  639TMC3    C5 9513   0.206   3.549  15.089 -0.2046 -0.3591  0.2951
  639TMC3    C6 9514   0.086   3.501  15.054  0.5889  0.7945 -0.7046
  639TMC3     C 9515   0.267   3.825  14.864  0.5329 -0.8258  0.0294
  639TMC3     O 9516   0.335   3.897  14.941  0.3380 -0.1361 -0.3376
  639TMC3     H 9517   0.056   3.686  14.772  1.3287 -0.4502 -0.4087
  639TMC3    H1 9518   0.353   3.698  15.067  0.4541 -1.0461 -1.2908
  639TMC3    H2 9519   0.052   3.417  15.113 -1.4773  1.0184 -1.5913
  639TMC3    C7 9520   0.299   3.450  15.141  0.2126 -0.0397 -0.0116
  639TMC3    C8 9521   4.732   3.419  14.866  0.4534  0.0752  0.0847
  639TMC3    O1 9522   0.251   3.344  15.181 -0.1330  0.6169  0.0381
  639TMC3    O2 9523   0.070   3.360  14.791  0.4399 -0.1043  0.0782
  640MPD2     C 9524   1.184   2.952  10.131  1.2315  0.1070 -0.4047
  640MPD2    C1 9525   1.164   2.821  10.095  0.6055  0.0144 -0.0061
  640MPD2    C2 9526   1.045   2.759  10.119 -0.5267 -0.6752  0.3056
  640MPD2    C3 9527   0.946   2.828  10.189 -0.2319  0.4862 -0.2791
  640MPD2    C4 9528   0.976   2.956  10.239 -0.2157  0.0950 -0.1255
  640MPD2    C5 9529   1.091   3.022  10.199 -0.0282 -0.2018  0.3540
  640MPD2     H 9530   1.029   2.656  10.089  2.3496 -0.6691 -1.2892
  640MPD2    H1 9531   0.903   3.013  10.296 -0.0636  0.4742 -0.3076
  640MPD2    H2 9532   1.284   2.995  10.123  0.6728  1.5197  0.0951
  640MPD2    H3 9533   1.108   3.126  10.224 -0.9386  0.2568 -0.9405
  640MPD2     N 9534   0.816   2.782  10.217  0.1176 -0.2663 -0.9398
  640MPD2    H5 9535   0.762   2.842  10.279  1.0245 -0.4803  0.0670
  640MPD2    N1 9536   1.271   2.760  10.028 -0.0059  0.0362  0.3205
  640MPD2    H7 9537   1.359   2.809  10.013  0.5543 -1.0381  0.0636
  641TMC3    C1 9538   1.396   2.576   9.937  0.2845  0.0240 -0.4022
  641TMC3    C2 9539   1.408   2.440   9.943  0.3310 -0.4804 -0.5397
  641TMC3    C3 9540   1.486   2.377   9.853  0.2482 -0.1533 -0.4205
  641TMC3    C4 9541   1.463   2.650   9.849  0.1249  0.8864 -1.0038
  641TMC3    C5 9542   1.555   2.587   9.768 -0.4445 -0.3153  0.2832
  641TMC3    C6 9543   1.576   2.450   9.774 -0.1778  0.4778  0.8084
  641TMC3     C 9544   1.269   2.628   9.989  0.0227  0.5212 -0.3813
  641TMC3     O 9545   1.188   2.540  10.004 -0.0726 -0.0487 -0.2461
  641TMC3     H 9546   1.345   2.381  10.008  0.2909 -0.6883 -0.7674
  641TMC3    H1 9547   1.443   2.756   9.835 -0.4426  0.6732 -1.8109
  641TMC3    H2 9548   1.644   2.398   9.708 -1.0841 -0.6690  0.7711
  641TMC3    C7 9549   1.668   2.661   9.723  0.0614 -0.4618 -0.1194
  641TMC3    C8 9550   1.484   2.230   9.838 -0.2982  0.3129 -0.2536
  641TMC3    O1 9551   1.765   2.590   9.696  0.1793 -0.3100  0.1067
  641TMC3    O2 9552   1.511   2.188   9.731 -0.4576  0.1132  0.2421
  642TMC3    C1 9553   1.998   3.492  12.667 -0.2578  0.0696 -0.4570
  642TMC3    C2 9554   2.101   3.539  12.586  0.9968 -0.1348 -0.0759
  642TMC3    C3 9555   2.110   3.483  12.458  0.5245  0.2860 -0.1134
  642TMC3    C4 9556   1.910   3.395  12.618 -0.1351 -0.1054 -0.0895
  642TMC3    C5 9557   1.925   3.344  12.495 -0.4925  0.3977  0.6093
  642TMC3    C6 9558   2.029   3.380  12.413  0.0131  0.3321 -0.2449
  642TMC3     C 9559   1.959   3.578  12.773  0.7844  0.2513 -0.5078
  642TMC3     O 9560   2.049   3.651  12.814 -0.0871  0.0035  0.2492
  642TMC3     H 9561   2.163   3.624  12.613  0.0513  0.6503 -0.3736
  642TMC3    H1 9562   1.837   3.359  12.689  0.2322 -1.3077 -0.3266
  642TMC3    H2 9563   2.041   3.343  12.312 -0.2661  2.1488 -0.9336
  642TMC3    C7 9564   1.859   3.219  12.464 -0.7234  0.0960 -0.0383
  642TMC3    C8 9565   2.215   3.526  12.370 -0.1753 -0.0655  0.1823
  642TMC3    O1 9566   1.836   3.192  12.349  0.3821  0.4281  0.2898
  642TMC3    O2 9567   2.195   3.528  12.250 -0.1356 -0.0978 -0.7693
  643TMC3    C1 9568   0.900   3.687   0.414 -0.0097  0.0909 -0.0915
  643TMC3    C2 9569   0.781   3.677   0.351 -0.0259 -0.1037  0.6015
  643TMC3    C3 9570   0.733   3.553   0.311 -0.7026 -0.0252 -0.1656
  643TMC3    C4 9571   0.973   3.574   0.438  0.3937 -0.9023  0.0553
  643TMC3    C5 9572   0.922   3.448   0.398  0.3478  0.4111 -0.4900
  643TMC3    C6 9573   0.804   3.440   0.328  0.0283 -0.0182  0.3243
  643TMC3     C 9574   0.972   3.810   0.371 -0.0761 -0.2239  0.3247
  643TMC3     O 9575   0.922   3.868   0.278 -0.1409  0.5410 -0.0684
  643TMC3     H 9576   0.721   3.766   0.337 -0.2944 -0.8635 -3.1312
  643TMC3    H1 9577   1.073   3.593   0.473 -0.0164 -2.1865  1.9151
  643TMC3    H2 9578   0.774   3.346   0.283  1.7414 -0.6603  0.5290
  643TMC3    C7 9579   1.013   3.348   0.354  0.7099 -0.5952 -0.5058
  643TMC3    C8 9580   0.688   3.556   0.174 -0.6578  0.0898  0.4092
  643TMC3    O1 9581   0.981   3.261   0.272 -0.6028 -0.2793  0.0175
  643TMC3    O2 9582   0.638   3.455   0.129  0.4198 -0.3898  0.1081
  644MPD2     C 9583   1.548   3.347   9.894 -0.0982  0.9338 -0.5977
  644MPD2    C1 9584   1.519   3.219   9.918 -0.3061 -0.1113  0.1603
  644MPD2    C2 9585   1.384   3.174   9.915  0.0186 -0.4781 -0.3130
  644MPD2    C3 9586   1.277   3.267   9.901  0.3424  0.0341 -0.3367
  644MPD2    C4 9587   1.309   3.398   9.900  0.4929 -0.9680 -0.3552
  644MPD2    C5 9588   1.442   3.434   9.891 -0.2008 -0.2437  0.7110
  644MPD2     H 9589   1.360   3.069   9.924 -2.0733  0.2433  2.5586
  644MPD2    H1 9590   1.237   3.480   9.894  2.0758  0.6315  2.2921
  644MPD2    H2 9591   1.650   3.380   9.879 -0.5278  1.5631 -2.1153
  644MPD2    H3 9592   1.456   3.540   9.871 -0.2625  0.2312  3.1105
  644MPD2     N 9593   1.146   3.210   9.902 -0.2217 -0.2809 -0.6817
  644MPD2    H5 9594   1.143   3.112   9.874 -1.4543 -0.7543  1.1281
  644MPD2    N1 9595   1.626   3.142   9.961 -0.1398 -0.1860 -0.4367
  644MPD2    H7 9596   1.714   3.191   9.965  0.2945 -0.6761 -4.0830
  645TMC3    C1 9597   0.910   3.205   9.879  0.2343  0.3786 -0.5950
  645TMC3    C2 9598   0.800   3.291   9.867 -0.4495 -0.2100 -0.5418
  645TMC3    C3 9599   0.677   3.226   9.875 -0.1233  0.7720  0.0315
  645TMC3    C4 9600   0.907   3.072   9.898  0.4382  0.3048 -0.3362
  645TMC3    C5 9601   0.789   3.012   9.890  0.2073  0.1223  1.0421
  645TMC3    C6 9602   0.671   3.087   9.888 -0.4151  0.3403 -0.1321
  645TMC3     C 9603   1.031   3.277   9.904  0.5839  0.0883  0.4850
  645TMC3     O 9604   1.022   3.398   9.935 -0.3639 -0.1381  0.1037
  645TMC3     H 9605   0.805   3.399   9.861 -0.1059 -0.2230 -0.4820
  645TMC3    H1 9606   0.994   3.012   9.918  1.1388  0.8986 -1.6095
  645TMC3    H2 9607   0.571   3.045   9.882  0.1862 -0.9582 -1.1200
  645TMC3    C7 9608   0.783   2.871   9.871 -0.1068 -0.6920  0.0879
  645TMC3    C8 9609   0.549   3.268   9.825  0.1112 -0.2360  0.8379
  645TMC3    O1 9610   0.671   2.830   9.895  0.5628  0.6206 -0.3992
  645TMC3    O2 9611   0.472   3.196   9.759 -0.4601  0.2846  0.4529
  646MPD2     C 9612   0.602   2.693  14.610 -0.0701 -0.0658 -0.2132
  646MPD2    C1 9613   0.502   2.620  14.674 -0.3092 -0.0918 -0.3974
  646MPD2    C2 9614   0.371   2.646  14.631  0.7635 -0.3198 -0.2811
  646MPD2    C3 9615   0.356   2.730  14.518  0.2972  0.0067  0.0404
  646MPD2    C4 9616   0.457   2.804  14.464 -1.3738 -0.0191 -0.7493
  646MPD2    C5 9617   0.580   2.789  14.520 -0.0741  0.1659  0.1010
  646MPD2     H 9618   0.279   2.601  14.667 -0.3061  2.0672 -0.0211
  646MPD2    H1 9619   0.443   2.879  14.387 -1.7205 -0.9430 -1.5887
  646MPD2    H2 9620   0.708   2.677  14.628 -0.5990 -2.5650  0.6038
  646MPD2    H3 9621   0.665   2.847  14.483  0.3344 -0.9309 -0.6964
  646MPD2     N 9622   0.227   2.737  14.458  0.2676 -0.4560 -0.3910
  646MPD2    H5 9623   0.154   2.687  14.507 -2.4026  3.5908 -0.1507
  646MPD2    N1 9624   0.537   2.522  14.774 -0.0687 -0.3570  0.7072
  646MPD2    H7 9625   0.630   2.517  14.814  1.3024 -1.3701 -2.5762
  647TMC3    C1 9626   0.499   2.382  14.959 -0.5343 -0.1994 -0.1767
  647TMC3    C2 9627   0.437   2.270  14.990 -1.1745 -0.2904  0.2557
  647TMC3    C3 9628   0.493   2.219  15.109  0.3773  0.6271  0.7869
  647TMC3    C4 9629   0.593   2.458  15.032 -0.5837  0.0078 -0.4101
  647TMC3    C5 9630   0.647   2.395  15.141 -0.5413  0.1231 -0.3260
  647TMC3    C6 9631   0.593   2.274  15.178  0.0141  0.1765 -0.7607
  647TMC3     C 9632   0.444   2.447  14.837  0.4359 -0.2816  0.8196
  647TMC3     O 9633   0.334   2.404  14.802  0.8786  0.3203  0.5718
  647TMC3     H 9634   0.377   2.212  14.922  1.3394 -0.1847 -2.0726
  647TMC3    H1 9635   0.627   2.558  15.006 -0.9912  0.9651  2.7021
  647TMC3    H2 9636   0.631   2.219  15.264  0.5477 -2.4384 -2.6852
  647TMC3    C7 9637   0.774   2.438  15.199  0.0732  0.1930 -0.8917
  647TMC3    C8 9638   0.437   2.092  15.162 -0.4572 -0.1237  0.1354
  647TMC3    O1 9639   0.844   2.370  15.274 -0.0446  0.3075  0.3276
  647TMC3    O2 9640   0.512   2.032  15.239 -0.6107 -0.4921  0.1482
  648TMC3    C1 9641   4.195   4.650  15.935 -0.1570 -0.1794  0.5683
  648TMC3    C2 9642   4.182   4.535  15.860 -0.8527 -0.0867 -0.9128
  648TMC3    C3 9643   4.201   4.541  15.728 -0.2349  0.1338  1.0842
  648TMC3    C4 9644   4.213   0.032  15.876  0.7022  0.0961  0.3388
  648TMC3    C5 9645   4.217   0.034  15.745  0.2236 -0.3370 -0.4919
  648TMC3    C6 9646   4.229   4.657  15.670 -0.6178 -0.1608  0.3367
  648TMC3     C 9647   4.196   4.663  16.083  0.8395 -0.1931 -0.1681
  648TMC3     O 9648   4.254   0.017  16.134  0.1534  0.1495 -0.3531
  648TMC3     H 9649   4.161   4.441  15.910 -1.4570  0.9084  0.6987
  648TMC3    H1 9650   4.208   0.124  15.933  3.4595 -0.0905  0.8775
  648TMC3    H2 9651   4.229   4.659  15.561  1.4081  2.3099  0.3738
  648TMC3    C7 9652   4.201   0.157  15.681 -0.0456  0.1310  0.8164
  648TMC3    C8 9653   4.227   4.414  15.656 -0.9535  0.6724 -0.0885
  648TMC3    O1 9654   4.243   0.176  15.567  0.4635 -0.0127  0.6208
  648TMC3    O2 9655   4.151   4.322  15.670 -0.4989 -0.6011 -0.0110
  649TMC3    C1 9656   3.002   0.956  12.815 -0.0344  0.0920  0.0479
  649TMC3    C2 9657   3.101   1.052  12.814 -0.3063 -0.6594 -0.3609
  649TMC3    C3 9658   3.132   1.112  12.937  0.4072  0.3036  0.3351
  649TMC3    C4 9659   2.956   0.906  12.941 -0.1999 -0.0158  0.3924
  649TMC3    C5 9660   2.993   0.962  13.057 -0.2580  0.6484 -0.7901
  649TMC3    C6 9661   3.081   1.069  13.057 -0.4653  0.6879  0.2434
  649TMC3     C 9662   2.903   0.947  12.715 -0.6112  0.1591 -0.2145
  649TMC3     O 9663   2.792   0.909  12.757 -0.1748 -0.4283  0.1240
  649TMC3     H 9664   3.146   1.082  12.720  1.8618 -0.5937  0.7016
  649TMC3    H1 9665   2.885   0.824  12.943  0.6734 -0.8430 -3.1102
  649TMC3    H2 9666   3.099   1.111  13.155  0.1260  0.7284  0.1219
  649TMC3    C7 9667   2.925   0.941  13.183  0.8018 -0.1924  0.6422
  649TMC3    C8 9668   3.264   1.184  12.938 -0.2296  0.2451  0.3132
  649TMC3    O1 9669   2.944   1.024  13.273  0.0646 -0.2028 -0.2156
  649TMC3    O2 9670   3.325   1.184  12.834 -0.1432  0.1342 -0.2812
  650TMC3    C1 9671   1.338   2.645  12.696 -0.6624  0.2700  0.5745
  650TMC3    C2 9672   1.278   2.767  12.708 -0.3759  0.2034  0.6390
  650TMC3    C3 9673   1.155   2.794  12.641 -0.7076  0.3806  0.3018
  650TMC3    C4 9674   1.291   2.550  12.614  0.4349  0.4225  0.8422
  650TMC3    C5 9675   1.190   2.588  12.538  0.3686 -0.7105  0.3266
  650TMC3    C6 9676   1.112   2.702  12.555  0.1402 -1.3533 -0.8100
  650TMC3     C 9677   1.437   2.601  12.794  0.6351 -0.3444  0.1973
  650TMC3     O 9678   1.500   2.694  12.844 -0.1103  0.4702 -0.0146
  650TMC3     H 9679   1.317   2.845  12.772 -2.8954  1.7967  0.2578
  650TMC3    H1 9680   1.346   2.463  12.581 -3.0083 -1.0122 -1.1269
  650TMC3    H2 9681   1.022   2.724  12.498  0.1307 -0.7959 -0.5812
  650TMC3    C7 9682   1.138   2.485  12.444  1.0308 -1.2830  0.2296
  650TMC3    C8 9683   1.097   2.933  12.670  0.5107 -0.1048  0.2652
  650TMC3    O1 9684   1.176   2.370  12.464  0.7666 -0.4228  0.2753
  650TMC3    O2 9685   1.169   3.009  12.729  0.3164  0.0886 -0.4198
  651MPD2     C 9686   0.042   4.694  10.493  0.0815 -0.6327  0.0051
  651MPD2    C1 9687   0.063   0.074  10.568  0.5061  0.3716 -0.3342
  651MPD2    C2 9688   0.191   0.115  10.597  0.0133  0.0343 -0.2182
  651MPD2    C3 9689   0.296   0.048  10.542  0.5287  0.0087  0.0362
  651MPD2    C4 9690   0.277   4.673  10.469  0.2579 -0.2038  0.3895
  651MPD2    C5 9691   0.150   4.635  10.437 -0.6882  0.2647 -0.1811
  651MPD2     H 9692   0.212   0.190  10.671 -1.6616  0.1295  0.1701
  651MPD2    H1 9693   0.356   4.624  10.412 -1.0468 -1.7698 -0.0840
  651MPD2    H2 9694   4.685   4.648  10.469  0.3620 -0.6617 -1.0516
  651MPD2    H3 9695   0.132   4.552  10.370 -1.5173 -1.5471  2.2577
  651MPD2     N 9696   0.422   0.097  10.571  0.0827 -0.7437  0.1028
  651MPD2    H5 9697   0.425   0.174  10.636  0.8263 -1.7290  1.2254
  651MPD2    N1 9698   4.692   0.149  10.622  0.6057 -0.6236 -0.1165
  651MPD2    H7 9699   4.713   0.241  10.660 -1.8020  0.8978 -2.4741
  652TMC3    C1 9700   0.856   0.201  10.490  0.1162 -0.2684 -0.4661
  652TMC3    C2 9701   0.767   0.096  10.486 -0.1591 -0.6521 -0.1141
  652TMC3    C3 9702   0.657   0.117  10.566 -0.3447 -0.1398  0.0436
  652TMC3    C4 9703   0.847   0.301  10.578  0.5087  0.4450 -0.3998
  652TMC3    C5 9704   0.742   0.317  10.661 -0.7886  0.6183 -0.3347
  652TMC3    C6 9705   0.642   0.226  10.652 -0.3821  0.0697  0.0296
  652TMC3     C 9706   0.985   0.185  10.433 -0.3598 -0.5135  0.0766
  652TMC3     O 9707   0.989   0.166  10.313 -0.6776 -0.1334 -0.3386
  652TMC3     H 9708   0.773   0.019  10.409 -1.6770 -0.8092 -0.0807
  652TMC3    H1 9709   0.922   0.379  10.569 -0.4551  1.1224 -2.4579
  652TMC3    H2 9710   0.554   0.248  10.711  0.0459  1.2173  0.2269
  652TMC3    C7 9711   0.745   0.405  10.769  0.0392  0.1168 -0.4812
  652TMC3    C8 9712   0.543   0.039  10.537 -0.1555 -0.4209 -0.3124
  652TMC3    O1 9713   0.671   0.374  10.863 -0.3824  0.2483  0.7325
  652TMC3    O2 9714   0.564   4.671  10.477 -0.4657  0.5712  0.5598
  653MPD2     C 9715   3.238   0.473  17.504  0.0752  0.3362  0.1275
  653MPD2    C1 9716   3.312   0.525  17.399  0.0893 -0.5570 -0.1635
  653MPD2    C2 9717   3.267   0.520  17.271 -0.1211 -0.3211 -0.0705
  653MPD2    C3 9718   3.154   0.441  17.242  0.7234 -1.0333 -1.3019
  653MPD2    C4 9719   3.077   0.395  17.349 -0.0622  0.6910 -0.0441
  653MPD2    C5 9720   3.121   0.412  17.474  0.3875 -0.3822  0.3287
  653MPD2     H 9721   3.330   0.566  17.195 -1.1757  0.9846 -0.1587
  653MPD2    H1 9722   2.987   0.336  17.338  1.5332 -1.8036  0.2389
  653MPD2    H2 9723   3.272   0.471  17.607 -1.9719  1.0314  0.8226
  653MPD2    H3 9724   3.062   0.373  17.556 -1.6252 -0.7787 -1.2960
  653MPD2     N 9725   3.136   0.398  17.108  0.6520 -0.1627  0.6484
  653MPD2    H5 9726   3.190   0.449  17.039  0.5538 -1.5124 -0.4298
  653MPD2    N1 9727   3.418   0.611  17.425 -0.2152  0.0712 -0.3483
  653MPD2    H7 9728   3.463   0.655  17.345  1.4688  1.5430  1.3864
  654TMC3    C1 9729   3.057   0.241  16.938 -0.6810 -0.4909  0.6062
  654TMC3    C2 9730   3.036   0.332  16.837 -1.3700 -0.4447 -0.3822
  654TMC3    C3 9731   3.027   0.277  16.710 -0.9332 -1.0244  1.0028
  654TMC3    C4 9732   3.061   0.105  16.912 -0.1767 -0.0377 -0.6255
  654TMC3    C5 9733   3.031   0.060  16.786 -0.2417  0.1431  0.1194
  654TMC3    C6 9734   3.002   0.148  16.679  0.0282 -0.0634 -0.0169
  654TMC3     C 9735   3.059   0.280  17.079 -0.0498  0.8231  0.2799
  654TMC3     O 9736   3.015   0.198  17.160 -0.8344 -0.1169  0.1383
  654TMC3     H 9737   3.034   0.440  16.845 -1.5692 -0.4111 -0.8739
  654TMC3    H1 9738   3.096   0.034  16.986  1.2337  1.6262  0.2875
  654TMC3    H2 9739   3.010   0.117  16.576  0.8635 -0.0331  0.0413
  654TMC3    C7 9740   3.056   4.659  16.746 -0.2362  0.8511  0.9823
  654TMC3    C8 9741   3.005   0.373  16.604  0.8851  0.0846 -0.4497
  654TMC3    O1 9742   2.998   4.628  16.642 -0.1304  0.8661 -0.0774
  654TMC3    O2 9743   2.924   0.463  16.622  0.1154  0.0799 -0.3431
  655MPD2     C 9744   0.275   0.219  15.632  0.0697  0.3927  0.4316
  655MPD2    C1 9745   0.173   0.287  15.576 -0.3728  0.2173  0.0616
  655MPD2    C2 9746   0.142   0.273  15.446  0.6557  0.8937  0.2783
  655MPD2    C3 9747   0.197   0.168  15.372  0.2588  0.2233 -0.3818
  655MPD2    C4 9748   0.291   0.085  15.432 -0.3747 -0.1428  0.1657
  655MPD2    C5 9749   0.330   0.115  15.558 -0.3381 -0.2291  0.4748
  655MPD2     H 9750   0.064   0.336  15.405 -0.0061 -0.1253 -0.0343
  655MPD2    H1 9751   0.334   0.001  15.377 -0.4206  0.0996 -0.2381
  655MPD2    H2 9752   0.310   0.241  15.732 -0.7113  1.3748  0.4883
  655MPD2    H3 9753   0.421   0.073  15.600 -0.6109 -0.3908  0.9091
  655MPD2     N 9754   0.161   0.136  15.235 -0.5717  0.7713 -0.1190
  655MPD2    H5 9755   0.195   0.047  15.201  2.2049  1.9672 -0.5681
  655MPD2    N1 9756   0.097   0.375  15.647  0.6020 -0.1052 -0.3425
  655MPD2    H7 9757   0.033   0.427  15.587 -2.4358 -2.7059  0.6254
  656TMC3    C1 9758   4.717   0.465  15.834  0.0650  0.1131  0.4205
  656TMC3    C2 9759   4.633   0.412  15.924  0.7937  0.4307  0.4348
  656TMC3    C3 9760   4.511   0.473  15.938  0.1603 -0.3015 -0.4731
  656TMC3    C4 9761   4.683   0.575  15.762 -0.3690  0.0388  0.4184
  656TMC3    C5 9762   4.558   0.633  15.781 -0.3111 -0.1526 -0.3072
  656TMC3    C6 9763   4.479   0.594  15.885  0.0281 -0.1061 -0.5246
  656TMC3     C 9764   0.084   0.377  15.788  0.2651 -0.3726  0.2986
  656TMC3     O 9765   0.130   0.298  15.868 -0.7578  0.6584  0.7087
  656TMC3     H 9766   4.643   0.310  15.959  0.5479 -0.6107 -2.5057
  656TMC3    H1 9767   0.008   0.601  15.678 -0.5973  0.3767  0.3534
  656TMC3    H2 9768   4.374   0.621  15.882 -0.0161  0.0833  2.7963
  656TMC3    C7 9769   4.539   0.765  15.712  0.4081 -0.3059  0.2697
  656TMC3    C8 9770   4.415   0.402  16.016  0.8063 -0.1430 -0.0897
  656TMC3    O1 9771   4.623   0.797  15.631 -0.4420  0.0559 -0.2014
  656TMC3    O2 9772   4.384   0.288  15.986  0.3465 -0.3626 -0.2158
  657TMC3    C1 9773   3.522   4.562  14.819  0.0932 -0.3663 -0.0924
  657TMC3    C2 9774   3.585   4.627  14.926  0.3278  0.5472 -0.0138
  657TMC3    C3 9775   3.561   0.020  14.944 -0.3288  0.1846  0.3351
  657TMC3    C4 9776   3.418   4.623  14.748 -0.2674  0.0693  0.3473
  657TMC3    C5 9777   3.395   0.019  14.771  0.1230 -0.1219 -0.1067
  657TMC3    C6 9778   3.461   0.086  14.871  0.4546  0.9764  0.0642
  657TMC3     C 9779   3.547   4.424  14.783 -0.1406  0.7357 -0.0713
  657TMC3     O 9780   3.465   4.373  14.706 -0.7753  0.0542  0.1540
  657TMC3     H 9781   3.676   4.587  14.970 -0.8594  0.6560  2.5475
  657TMC3    H1 9782   3.376   4.570  14.664  2.3082 -2.4464  0.6583
  657TMC3    H2 9783   3.441   0.190  14.893  0.4014  0.2130  3.6192
  657TMC3    C7 9784   3.300   0.091  14.692 -0.2199 -0.1926  0.5991
  657TMC3    C8 9785   3.611   0.087  15.065  0.2507  0.0474 -0.2552
  657TMC3    O1 9786   3.252   0.183  14.756  0.3214  0.5422 -0.3780
  657TMC3    O2 9787   3.578   0.204  15.084 -0.0131 -0.1142  0.0504
  658MPD2     C 9788   0.497   4.573  14.805  0.4039 -0.1875 -0.1467
  658MPD2    C1 9789   0.376   4.593  14.748  0.1481 -0.1768 -0.1393
  658MPD2    C2 9790   0.366   4.589  14.611 -0.4924 -0.1498 -0.4261
  658MPD2    C3 9791   0.476   4.561  14.533 -0.0510  0.2436 -0.0803
  658MPD2    C4 9792   0.598   4.544  14.595  0.0448  0.6310 -0.1175
  658MPD2    C5 9793   0.604   4.544  14.733 -0.4290  0.2812 -0.1366
  658MPD2     H 9794   0.275   4.609  14.556 -0.0270  1.7869 -0.4868
  658MPD2    H1 9795   0.691   4.513  14.548  0.4910 -0.1493  1.2875
  658MPD2    H2 9796   0.505   4.573  14.913 -0.7654 -0.3863 -0.0708
  658MPD2    H3 9797   0.694   4.526  14.791 -0.6126  1.3633  0.4926
  658MPD2     N 9798   0.470   4.560  14.392  0.0421 -0.1607  0.2430
  658MPD2    H5 9799   0.386   4.598  14.350 -0.7421  1.1618  3.0704
  658MPD2    N1 9800   0.266   4.625  14.833 -0.1282 -0.8208  0.4769
  658MPD2    H7 9801   0.283   4.636  14.932 -3.4359  2.3749  0.7143
  659TMC3    C1 9802   0.059   4.715  14.877  0.0975  0.2682 -0.2305
  659TMC3    C2 9803   0.117   0.065  14.967 -0.0255  0.3397 -0.7482
  659TMC3    C3 9804   0.031   0.146  15.037  0.4789 -0.0827  0.5789
  659TMC3    C4 9805   4.664   4.730  14.846  0.1480 -0.0208 -0.1468
  659TMC3    C5 9806   4.585   0.086  14.911 -0.3956  0.4151  0.3532
  659TMC3    C6 9807   4.637   0.161  15.003 -0.0918  0.8058 -0.6646
  659TMC3     C 9808   0.141   4.653  14.786 -0.3344  0.0570 -0.7491
  659TMC3     O 9809   0.086   4.603  14.687 -0.0857  0.0835 -0.0560
  659TMC3     H 9810   0.224   0.066  14.986 -0.3092 -0.5973  0.9408
  659TMC3    H1 9811   4.629   4.663  14.768  0.2473 -0.8452  0.5104
  659TMC3    H2 9812   4.578   0.242  15.045  0.3029  1.5415 -1.5191
  659TMC3    C7 9813   4.439   0.102  14.882 -0.0400  0.2871 -0.1877
  659TMC3    C8 9814   0.074   0.212  15.155  0.5230  0.2523 -0.1451
  659TMC3    O1 9815   4.375   0.197  14.926  0.3386  0.1566 -0.4701
  659TMC3    O2 9816   0.022   0.321  15.176  0.1091 -0.6015  0.1344
  660MPD2     C 9817   2.895   3.968  12.558  0.6022 -0.2284 -0.1662
  660MPD2    C1 9818   2.761   3.961  12.559  0.3602  0.1803  0.0441
  660MPD2    C2 9819   2.691   3.897  12.658  0.2873  0.4611  0.5259
  660MPD2    C3 9820   2.752   3.866  12.780  0.5823  0.5425 -0.1310
  660MPD2    C4 9821   2.892   3.886  12.784  0.4145  0.1070  0.2321
  660MPD2    C5 9822   2.962   3.934  12.674  0.0052  0.3398 -0.2990
  660MPD2     H 9823   2.584   3.881  12.656  0.1999  1.1603 -0.1421
  660MPD2    H1 9824   2.942   3.868  12.878 -1.3764 -0.1568  1.1155
  660MPD2    H2 9825   2.955   3.998  12.474 -1.9340 -2.5803 -2.8307
  660MPD2    H3 9826   3.067   3.950  12.693 -0.3619  1.2714  0.9203
  660MPD2     N 9827   2.675   3.819  12.891 -0.3857  0.4336 -0.1176
  660MPD2    H5 9828   2.576   3.803  12.876 -0.2969  0.5557 -0.8160
  660MPD2    N1 9829   2.695   4.005  12.439 -0.2356 -0.1866 -0.3262
  660MPD2    H7 9830   2.748   4.041  12.360  0.5515 -1.2109 -0.2626
  661TMC3    C1 9831   2.515   4.030  12.283  0.6236  0.2169 -0.0823
  661TMC3    C2 9832   2.594   4.028  12.175 -0.6158 -0.3448  0.9882
  661TMC3    C3 9833   2.541   4.000  12.051  0.3041  0.6739 -0.4212
  661TMC3    C4 9834   2.381   4.015  12.266  0.1947 -0.4811  0.8190
  661TMC3    C5 9835   2.327   3.979  12.144  1.0066  0.1134  0.2484
  661TMC3    C6 9836   2.407   3.971  12.036 -0.5678  0.3226 -0.1845
  661TMC3     C 9837   2.556   3.995  12.418 -0.8856 -0.3326 -0.4460
  661TMC3     O 9838   2.465   3.982  12.501  0.4114  0.2419 -0.5525
  661TMC3     H 9839   2.702   4.037  12.179 -0.5806 -1.1818  1.9261
  661TMC3    H1 9840   2.317   4.054  12.345 -1.5100 -1.0678 -0.2603
  661TMC3    H2 9841   2.351   3.958  11.944 -1.6646 -0.7819  0.6473
  661TMC3    C7 9842   2.206   3.911  12.145 -0.3677 -0.1663 -1.0061
  661TMC3    C8 9843   2.622   4.009  11.932 -0.4010  0.0805 -0.0747
  661TMC3    O1 9844   2.181   3.844  12.046  0.5468 -0.0395 -0.1940
  661TMC3    O2 9845   2.723   4.077  11.943 -0.7809 -0.0264  0.5317
  662MPD2     C 9846   3.310   3.870  17.221 -0.0872  0.0015  0.4063
  662MPD2    C1 9847   3.308   3.789  17.328 -0.6252  0.3156 -0.1007
  662MPD2    C2 9848   3.242   3.825  17.435  0.5893  0.1316  0.7464
  662MPD2    C3 9849   3.174   3.944  17.442 -0.3274  0.2312 -0.3000
  662MPD2    C4 9850   3.185   4.033  17.340  0.0049  0.3006  0.4760
  662MPD2    C5 9851   3.255   3.991  17.234 -0.1183  0.1185  0.2638
  662MPD2     H 9852   3.249   3.753  17.516  0.8713 -0.9173 -0.2162
  662MPD2    H1 9853   3.138   4.130  17.344 -2.1068 -0.8271  2.8193
  662MPD2    H2 9854   3.351   3.849  17.123 -0.7242 -1.9830  0.5763
  662MPD2    H3 9855   3.248   4.060  17.150 -1.7374  0.8452  0.9895
  662MPD2     N 9856   3.094   3.975  17.553  0.1765  0.2692 -0.3908
  662MPD2    H5 9857   3.042   4.062  17.544 -1.2133 -0.3936  1.0523
  662MPD2    N1 9858   3.357   3.655  17.333  0.4531 -0.0021 -0.4855
  662MPD2    H7 9859   3.345   3.607  17.421  0.6385  0.2772 -0.3073
  663TMC3    C1 9860   3.441   3.453  17.270  0.0196  0.3302 -0.1964
  663TMC3    C2 9861   3.396   3.417  17.394  0.6616  0.4065 -0.2156
  663TMC3    C3 9862   3.358   3.289  17.411 -0.2829 -0.4093  0.6020
  663TMC3    C4 9863   3.440   3.363  17.163 -0.1085  0.2411  0.1848
  663TMC3    C5 9864   3.384   3.241  17.187  0.1008 -0.4306 -0.1279
  663TMC3    C6 9865   3.336   3.208  17.310  0.3234  0.4997 -0.4003
  663TMC3     C 9866   3.432   3.591  17.234 -0.4210 -0.4171  0.3703
  663TMC3     O 9867   3.455   3.622  17.117 -0.0687  0.2205  0.2415
  663TMC3     H 9868   3.437   3.472  17.478 -0.4691 -0.3485  0.8302
  663TMC3    H1 9869   3.460   3.404  17.065 -2.6822  1.2732  0.0789
  663TMC3    H2 9870   3.324   3.104  17.340 -2.0068  0.8232 -0.1786
  663TMC3    C7 9871   3.368   3.149  17.084  0.1579 -0.1276 -0.5277
  663TMC3    C8 9872   3.391   3.235  17.539  0.2159  0.1679 -0.1713
  663TMC3    O1 9873   3.434   3.171  16.984  1.2709  0.2098 -0.2918
  663TMC3    O2 9874   3.460   3.134  17.539 -0.2200 -0.0704  0.2742
  664MPD2     C 9875   1.050   1.514  17.304  0.4207 -0.0675  0.8180
  664MPD2    C1 9876   1.125   1.605  17.380 -0.2457 -0.5748  0.4806
  664MPD2    C2 9877   1.087   1.637  17.501  0.3460 -0.2452  0.0960
  664MPD2    C3 9878   0.988   1.567  17.567 -0.4734 -1.3081 -0.0228
  664MPD2    C4 9879   0.924   1.474  17.496 -0.1472 -0.5487 -0.1803
  664MPD2    C5 9880   0.941   1.457  17.359  0.1533 -0.2109  0.1259
  664MPD2     H 9881   1.147   1.708  17.556  1.4026 -0.1875 -1.1340
  664MPD2    H1 9882   0.845   1.422  17.548 -0.4115  0.3639  0.3331
  664MPD2    H2 9883   1.071   1.491  17.201 -1.6115  1.0931  0.1490
  664MPD2    H3 9884   0.882   1.383  17.305 -0.9487  0.6213  0.1867
  664MPD2     N 9885   0.955   1.605  17.702 -0.6501 -0.2207  0.3558
  664MPD2    H5 9886   1.001   1.691  17.732 -0.6060  0.3319 -1.2779
  664MPD2    N1 9887   1.233   1.673  17.317 -0.1723 -0.7233  1.0315
  664MPD2    H7 9888   1.275   1.752  17.366 -2.0158  1.1799 -0.4556
  665TMC3    C1 9889   0.852   1.613   0.156 -0.4503  0.2876  0.2017
  665TMC3    C2 9890   0.857   1.556   0.279  0.3892  0.4319 -0.4134
  665TMC3    C3 9891   0.811   1.630   0.385 -0.6668  0.0036  0.6321
  665TMC3    C4 9892   0.818   1.744   0.136 -0.3741 -0.3182 -0.3109
  665TMC3    C5 9893   0.798   1.818   0.248  0.3378  0.8607 -0.8722
  665TMC3    C6 9894   0.788   1.767   0.377 -0.4526 -0.5353  0.0506
  665TMC3     C 9895   0.870   1.535   0.037 -0.3449  0.0706  0.0124
  665TMC3     O 9896   0.814   1.429   0.020 -0.0057 -0.2491 -0.3057
  665TMC3     H 9897   0.898   1.456   0.290  1.0418  0.5844 -1.4585
  665TMC3    H1 9898   0.821   1.790   0.038 -0.7373  0.4660  0.0434
  665TMC3    H2 9899   0.765   1.831   0.461 -3.2083  0.0575 -1.1573
  665TMC3    C7 9900   0.764   1.960   0.217  0.2447 -0.5097  0.0232
  665TMC3    C8 9901   0.818   1.563   0.509  0.2578  0.4610 -0.0852
  665TMC3    O1 9902   0.725   1.964   0.099  0.1000  0.5926  0.2384
  665TMC3    O2 9903   0.805   1.632   0.606 -0.6116 -0.5809 -0.5916
  666TMC3    C1 9904   0.549   1.161  10.306 -0.6066  0.5869  0.0157
  666TMC3    C2 9905   0.683   1.132  10.291  0.2901  0.0862 -0.4560
  666TMC3    C3 9906   0.769   1.237  10.252 -0.6340  0.4079  0.2441
  666TMC3    C4 9907   0.501   1.290  10.286 -0.0224 -0.1918 -0.2665
  666TMC3    C5 9908   0.590   1.386  10.245  0.6318 -0.1787  0.2226
  666TMC3    C6 9909   0.728   1.366  10.219  0.4191  0.0087 -0.1612
  666TMC3     C 9910   0.457   1.071  10.370 -0.4315  0.7168  0.1379
  666TMC3     O 9911   0.382   1.135  10.445  0.4818  0.5642 -0.0924
  666TMC3     H 9912   0.713   1.028  10.296 -0.7086 -0.0885  1.5189
  666TMC3    H1 9913   0.403   1.320  10.320 -1.0671 -1.0127 -2.5385
  666TMC3    H2 9914   0.799   1.447  10.207 -0.0394  0.4481  0.0980
  666TMC3    C7 9915   0.538   1.521  10.231  0.6947 -0.1954 -0.0032
  666TMC3    C8 9916   0.903   1.185  10.249  0.1547 -0.1322  0.0524
  666TMC3    O1 9917   0.439   1.545  10.300  0.6941  0.5627  0.5564
  666TMC3    O2 9918   0.929   1.088  10.319 -0.2524 -0.9429 -0.1752
  667MPD2     C 9919   1.682   0.458  15.319 -0.2398 -0.2633 -0.2615
  667MPD2    C1 9920   1.623   0.531  15.217 -0.5394 -0.1291 -0.0738
  667MPD2    C2 9921   1.499   0.490  15.187 -0.3146 -0.5736 -0.1101
  667MPD2    C3 9922   1.425   0.400  15.259  0.1206 -0.1018 -0.4309
  667MPD2    C4 9923   1.481   0.337  15.365  0.2578 -0.5089 -0.3103
  667MPD2    C5 9924   1.615   0.366  15.393  0.3621  0.0790  0.0508
  667MPD2     H 9925   1.448   0.549  15.111 -2.2665 -0.6101  1.1760
  667MPD2    H1 9926   1.440   0.257  15.426 -0.9599 -0.0144 -0.4689
  667MPD2    H2 9927   1.787   0.478  15.335 -0.4919  0.8910 -0.0874
  667MPD2    H3 9928   1.662   0.309  15.472 -2.1703 -1.0079  0.7884
  667MPD2     N 9929   1.288   0.365  15.240  0.8982 -0.3462 -0.2975
  667MPD2    H5 9930   1.242   0.316  15.316  1.4352  1.2708  1.0734
  667MPD2    N1 9931   1.685   0.631  15.147  0.6100  0.2675  0.0337
  667MPD2    H7 9932   1.624   0.675  15.079  1.4687  0.8761 -0.3474
  668TMC3    C1 9933   1.805   0.827  15.109  0.6476  0.9190 -0.3987
  668TMC3    C2 9934   1.852   0.937  15.172 -0.9085  0.6966  0.8630
  668TMC3    C3 9935   1.839   1.052  15.099 -0.7032 -0.3270 -0.3745
  668TMC3    C4 9936   1.758   0.826  14.983 -0.5705  0.0940  0.3875
  668TMC3    C5 9937   1.747   0.943  14.917  1.0008  0.0634  0.2342
  668TMC3    C6 9938   1.794   1.055  14.972 -0.0678  0.5176  0.5159
  668TMC3     C 9939   1.788   0.708  15.193 -0.3759 -0.2222  0.1524
  668TMC3     O 9940   1.826   0.713  15.311  0.0204  0.4091  0.4140
  668TMC3     H 9941   1.874   0.941  15.278 -0.3259 -2.5688  0.8850
  668TMC3    H1 9942   1.731   0.731  14.937 -0.2831  0.1680  0.0740
  668TMC3    H2 9943   1.774   1.147  14.919  0.5737  0.5344  0.2955
  668TMC3    C7 9944   1.714   0.950  14.779  0.0317 -0.3471 -0.7372
  668TMC3    C8 9945   1.874   1.184  15.160 -0.0655 -0.5392  0.2333
  668TMC3    O1 9946   1.769   1.037  14.711  0.7656  0.6387 -0.2024
  668TMC3    O2 9947   1.890   1.186  15.279  0.2202 -0.5064 -0.2741
  669TMC3    C1 9948   0.019   1.797  14.943 -0.1714  0.1643 -0.1635
  669TMC3    C2 9949   4.662   1.820  14.847 -0.3286 -0.3803 -0.1707
  669TMC3    C3 9950   4.712   1.864  14.731  0.4337 -0.6661 -0.6776
  669TMC3    C4 9951   0.151   1.834  14.929 -0.1840 -0.2357  0.4761
  669TMC3    C5 9952   0.187   1.901  14.813  0.2937 -0.2356  0.8352
  669TMC3    C6 9953   0.099   1.909  14.711 -1.7136  0.1285  0.2257
  669TMC3     C 9954   4.725   1.710  15.049  0.3059  0.4799 -0.2858
  669TMC3     O 9955   4.611   1.672  15.072 -0.4184 -0.4223  0.1323
  669TMC3     H 9956   4.564   1.794  14.885 -1.3732  1.6117 -1.5412
  669TMC3    H1 9957   0.213   1.837  15.017  0.1695 -2.1617  0.2906
  669TMC3    H2 9958   0.121   1.959  14.618  0.1666 -2.0881 -0.5251
  669TMC3    C7 9959   0.328   1.951  14.791  0.9201  0.8010  0.1668
  669TMC3    C8 9960   4.625   1.847  14.619  0.0109  0.1521  0.9361
  669TMC3    O1 9961   0.408   1.953  14.884 -0.1569 -0.2013  0.0539
  669TMC3    O2 9962   4.675   1.794  14.518  0.3867  0.7793  0.1494
  670MPD2     C 9963   3.007   4.035  13.598  0.1467  0.0674 -0.6116
  670MPD2    C1 9964   3.136   4.039  13.654  0.9254  0.1557  0.6709
  670MPD2    C2 9965   3.155   3.991  13.778  0.2664 -1.2314  0.0804
  670MPD2    C3 9966   3.050   3.931  13.849 -0.2405 -0.0682  0.5021
  670MPD2    C4 9967   2.916   3.937  13.800 -0.4418  0.3461  0.4066
  670MPD2    C5 9968   2.902   3.978  13.673 -0.1754  0.5298  0.1027
  670MPD2     H 9969   3.249   4.007  13.829  0.8747  1.8020 -2.0182
  670MPD2    H1 9970   2.823   3.908  13.849 -0.0580 -0.5956  0.5749
  670MPD2    H2 9971   2.974   4.080  13.506 -1.2342  2.5114  1.0604
  670MPD2    H3 9972   2.803   3.959  13.632 -1.0684  1.6167  1.7585
  670MPD2     N 9973   3.077   3.869  13.970 -0.7005  0.3963 -0.2757
  670MPD2    H5 9974   3.176   3.869  13.995 -1.4439 -0.9141  2.7245
  670MPD2    N1 9975   3.248   4.104  13.593  0.6256  0.4492  0.5785
  670MPD2    H7 9976   3.329   4.108  13.653 -0.6714 -2.4033  2.4893
  671TMC3    C1 9977   3.056   3.765  14.173  0.0506 -0.6141  0.0912
  671TMC3    C2 9978   3.138   3.658  14.149  0.0208 -0.3814  0.0207
  671TMC3    C3 9979   3.173   3.576  14.251  0.3703  0.0855  0.5433
  671TMC3    C4 9980   3.007   3.776  14.299 -0.2666 -0.2325 -0.1381
  671TMC3    C5 9981   3.037   3.691  14.406 -1.1427  0.3587  0.8440
  671TMC3    C6 9982   3.126   3.594  14.387 -0.1851  0.8312  0.3606
  671TMC3     C 9983   2.988   3.820  14.060  0.5460 -0.7029 -0.0418
  671TMC3     O 9984   2.867   3.820  14.069 -0.3380  0.4768  0.2177
  671TMC3     H 9985   3.152   3.630  14.045  1.8855 -2.0062  0.6913
  671TMC3    H1 9986   2.937   3.853  14.327  0.0572 -0.2524  0.7470
  671TMC3    H2 9987   3.116   3.516  14.462  1.9606 -1.7758 -2.0517
  671TMC3    C7 9988   2.979   3.696  14.540 -0.1430 -0.2978  0.1178
  671TMC3    C8 9989   3.226   3.448  14.203 -0.0299 -0.4428  0.6153
  671TMC3    O1 9990   3.051   3.679  14.640  0.1748  0.2074 -0.2405
  671TMC3    O2 9991   3.236   3.420  14.086 -0.2972  0.0106 -0.1701
  672MPD2     C 9992   3.361   0.358   0.834  0.0532 -0.0230 -0.4555
  672MPD2    C1 9993   3.481   0.303   0.792 -0.1214 -0.1298 -0.1744
  672MPD2    C2 9994   3.598   0.364   0.820 -0.1893  0.3424  0.2301
  672MPD2    C3 9995   3.605   0.481   0.889  0.1055  0.0765  0.0269
  672MPD2    C4 9996   3.486   0.530   0.936  0.8010  0.5852 -0.6792
  672MPD2    C5 9997   3.363   0.476   0.906  0.3969 -0.3987  0.1857
  672MPD2     H 9998   3.691   0.322   0.781 -0.3868  1.4490 -1.4103
  672MPD2    H1 9999   3.490   0.615   1.003  0.6738  0.5654 -0.6464
  672MPD2    H210000   3.261   0.321   0.813 -0.9308  1.9760  0.6773
  672MPD2    H310001   3.273   0.520   0.947 -0.7974 -0.9801 -1.8216
  672MPD2     N10002   3.725   0.551   0.914  1.0834 -0.3019 -0.2564
  672MPD2    H510003   3.725   0.642   0.959 -2.1509  0.2872 -1.4504
  672MPD2    N110004   3.484   0.189   0.703  0.1301  0.2632 -0.7540
  672MPD2    H710005   3.577   0.172   0.668  0.1615 -0.5893 -0.2632
  673TMC3    C110006   3.398   0.036   0.540  0.2265  0.1255 -0.0114
  673TMC3    C210007   3.525   4.725   0.511 -0.2535  0.2050 -0.6745
  673TMC3    C310008   3.536   4.656   0.390  0.4834  0.3434 -0.1743
  673TMC3    C410009   3.303   0.033   0.448  0.7798 -0.5764 -0.4599
  673TMC3    C510010   3.327   4.715   0.325 -0.4258  0.2149  0.1239
  673TMC3    C610011   3.443   4.648   0.300  0.5598  0.3108  0.0262
  673TMC3     C10012   3.377   0.124   0.648  0.0980  0.1512 -0.3573
  673TMC3     O10013   3.258   0.139   0.671  0.1986  0.5259 -0.0636
  673TMC3     H10014   3.591   4.711   0.596 -3.3293 -1.6590  1.4052
  673TMC3    H110015   3.205   0.079   0.462 -0.7663 -3.0448 -3.2472
  673TMC3    H210016   3.455   4.606   0.201  0.3288  2.1434 -0.7884
  673TMC3    C710017   3.235   4.723   0.205  0.2649 -1.4254  0.2241
  673TMC3    C810018   3.668   4.630   0.341  0.3601  0.1761 -0.0614
  673TMC3    O110019   3.239   4.634   0.123 -0.0612  0.3185 -0.2672
  673TMC3    O210020   3.681   4.611   0.221  0.2492  0.0718  0.5396
  674MPD2     C10021   2.722   0.220  17.252  0.2555 -0.2333 -0.7996
  674MPD2    C110022   2.738   0.104  17.331 -1.3953 -0.0406 -0.3361
  674MPD2    C210023   2.667   0.092  17.452 -0.6919  0.0408 -0.3936
  674MPD2    C310024   2.589   0.192  17.498 -0.8972 -0.4464  0.0798
  674MPD2    C410025   2.551   0.300  17.410  0.6602  0.0747  0.6901
  674MPD2    C510026   2.620   0.311  17.287  0.4918 -0.4743 -0.3105
  674MPD2     H10027   2.693   0.013  17.521 -0.3462  1.9663  1.7157
  674MPD2    H110028   2.485   0.381  17.441  2.5399  1.6168  0.6766
  674MPD2    H210029   2.783   0.234  17.164 -0.5619  0.0302 -1.3273
  674MPD2    H310030   2.604   0.397  17.223 -1.4209 -0.1243  0.6488
  674MPD2     N10031   2.552   0.190  17.632  0.1822 -0.4523  0.1822
  674MPD2    H510032   2.568   0.099  17.675 -0.6580  0.5378  2.5538
  674MPD2    N110033   2.847   0.022  17.299 -0.4075 -0.3865 -0.6410
  674MPD2    H710034   2.923   0.063  17.246  0.6814  0.3304  1.4745
  675TMC3    C110035   3.011   4.610  17.388  0.4470 -0.6282 -0.1348
  675TMC3    C210036   3.016   4.498  17.468 -0.0868  0.2131  0.1850
  675TMC3    C310037   3.121   4.481  17.549  0.3792 -0.2054  0.9927
  675TMC3    C410038   3.098   4.716  17.405 -0.0730  0.4796 -0.2547
  675TMC3    C510039   3.202   4.697  17.493 -0.0072  0.1014 -0.2723
  675TMC3    C610040   3.214   4.581  17.567  0.1225 -0.3795  0.0383
  675TMC3     C10041   2.866   4.639  17.359 -0.0819 -0.7009  0.3273
  675TMC3     O10042   2.791   4.562  17.411  0.2094 -0.3680 -0.1454
  675TMC3     H10043   2.945   4.417  17.460 -1.9841  1.9385 -0.5327
  675TMC3    H110044   3.095   0.068  17.346  0.8266  1.3608  1.0316
  675TMC3    H210045   3.299   4.574  17.633 -0.2309  1.1421  0.6434
  675TMC3    C710046   3.306   0.060  17.493 -0.2717  0.0958  0.5366
  675TMC3    C810047   3.112   4.367  17.639 -0.0717  0.6066  0.9100
  675TMC3    O110048   3.338   0.101  17.380 -0.5876  0.3285 -0.1892
  675TMC3    O210049   3.093   4.257  17.592 -0.1397  0.2995  0.1599
  676MPD2     C10050   1.307   2.908  11.264  0.5940 -0.1054 -0.1479
  676MPD2    C110051   1.243   2.821  11.348 -0.0545 -0.4235 -0.5538
  676MPD2    C210052   1.218   2.698  11.293 -0.9529 -0.3729  0.3044
  676MPD2    C310053   1.247   2.663  11.162 -0.0916  0.2180  0.8310
  676MPD2    C410054   1.296   2.762  11.081  0.5400  0.7981 -0.2346
  676MPD2    C510055   1.324   2.880  11.133 -0.1451 -0.2805 -0.4831
  676MPD2     H10056   1.154   2.632  11.352 -0.8374  0.0248  0.8751
  676MPD2    H110057   1.308   2.752  10.973  1.7306 -2.2030  0.1888
  676MPD2    H210058   1.329   3.009  11.295 -2.9506  0.7957 -0.5808
  676MPD2    H310059   1.358   2.963  11.072  1.7381 -1.6499 -1.2776
  676MPD2     N10060   1.232   2.533  11.106 -0.6095  0.2233  0.1985
  676MPD2    H510061   1.262   2.525  11.009  1.0535 -0.3428  0.7572
  676MPD2    N110062   1.204   2.840  11.480  0.0214 -0.0213 -0.0357
  676MPD2    H710063   1.159   2.764  11.530  0.2819 -0.7769 -0.9530
  677TMC3    C110064   1.187   2.920  11.694  0.6602 -0.5102  0.2352
  677TMC3    C210065   1.203   2.796  11.747  0.4014  0.1059 -0.3328
  677TMC3    C310066   1.177   2.778  11.876 -0.6888  0.4662  0.8443
  677TMC3    C410067   1.157   3.032  11.766  0.7132  0.3488 -0.0142
  677TMC3    C510068   1.146   3.013  11.903  0.1998  0.4047  0.3296
  677TMC3    C610069   1.164   2.888  11.961 -0.1577  0.1708  0.1823
  677TMC3     C10070   1.224   2.953  11.558 -0.2800 -0.3099  0.6616
  677TMC3     O10071   1.281   3.058  11.537 -0.1035  0.7064  0.5698
  677TMC3     H10072   1.253   2.717  11.690  0.9738  0.0470  0.2508
  677TMC3    H110073   1.142   3.123  11.711  1.5939  1.0129  0.8351
  677TMC3    H210074   1.142   2.876  12.067  1.4298 -2.0720  0.2672
  677TMC3    C710075   1.151   3.125  11.991  0.4887  0.3000  0.3415
  677TMC3    C810076   1.197   2.652  11.940  0.5629 -0.3815  0.0711
  677TMC3    O110077   1.171   3.110  12.112  0.6477 -0.3186 -0.1736
  677TMC3    O210078   1.245   2.658  12.053 -0.0238 -0.1095 -0.8856
  678MPD2     C10079   2.355   2.211   1.201 -0.6621 -0.1569  0.5019
  678MPD2    C110080   2.402   2.206   1.068  0.3646  0.0192  0.5003
  678MPD2    C210081   2.320   2.158   0.975 -0.2566  0.6662 -0.0269
  678MPD2    C310082   2.181   2.130   0.997  0.5450  0.5313 -0.1252
  678MPD2    C410083   2.146   2.126   1.137  0.7767  0.8354  0.7519
  678MPD2    C510084   2.234   2.162   1.237 -0.2992  0.3485 -0.8576
  678MPD2     H10085   2.352   2.158   0.872  1.9187 -0.8102  0.6655
  678MPD2    H110086   2.047   2.093   1.166  1.5600 -2.2942 -0.1919
  678MPD2    H210087   2.416   2.244   1.284  0.3102 -0.9597  0.1017
  678MPD2    H310088   2.200   2.168   1.340  0.7629  1.4491 -0.5664
  678MPD2     N10089   2.097   2.096   0.889  0.1007 -0.2573  0.4522
  678MPD2    H510090   2.138   2.086   0.797 -1.0747 -3.3577  0.2548
  678MPD2    N110091   2.525   2.258   1.033 -0.6714 -0.3035 -0.1343
  678MPD2    H710092   2.555   2.252   0.936 -0.5263 -0.9300 -0.0568
  679TMC3    C110093   2.834   2.371   0.835  0.0252  0.2616  0.5977
  679TMC3    C210094   2.768   2.313   0.942 -0.1441  0.2525 -0.8039
  679TMC3    C310095   2.694   2.398   1.027  0.2889 -0.2094  0.0742
  679TMC3    C410096   2.841   2.506   0.814  0.2747 -0.4071 -0.3844
  679TMC3    C510097   2.778   2.587   0.903 -0.0607  0.0075 -0.7691
  679TMC3    C610098   2.694   2.535   1.003 -0.0732 -0.3776 -0.3419
  679TMC3     C10099   2.875   2.286   0.725  0.2113  0.4528 -0.1236
  679TMC3     O10100   2.967   2.333   0.664  0.9055 -0.3673  0.1631
  679TMC3     H10101   2.765   2.206   0.959 -2.4516 -0.0189 -2.8692
  679TMC3    H110102   2.886   2.547   0.724  2.1203 -0.7903  0.3723
  679TMC3    H210103   2.634   2.610   1.053 -0.3558 -0.2192 -0.9243
  679TMC3    C710104   2.743   2.719   0.848  0.0744 -0.3980 -0.0562
  679TMC3    C810105   2.598   2.340   1.113 -0.6164  0.1693 -0.6319
  679TMC3    O110106   2.833   2.790   0.804 -0.0940  0.7792  0.1647
  679TMC3    O210107   2.563   2.402   1.215 -0.2450 -0.4427 -0.0014
  680MPD2     C10108   2.621   1.399  13.689  0.1180  0.1026  0.4875
  680MPD2    C110109   2.685   1.360  13.806  0.5576  0.2900  0.4415
  680MPD2    C210110   2.787   1.439  13.866 -0.7008  0.0140 -0.1948
  680MPD2    C310111   2.813   1.562  13.813  0.5104  0.1841  0.0589
  680MPD2    C410112   2.729   1.608  13.713  0.0560 -0.6656  0.0851
  680MPD2    C510113   2.645   1.528  13.650  0.3045 -0.3865  0.6634
  680MPD2     H10114   2.840   1.405  13.954  0.0507  1.9270  0.0797
  680MPD2    H110115   2.744   1.704  13.666 -0.3741 -1.0533 -0.8551
  680MPD2    H210116   2.548   1.340  13.635 -1.0364  0.0766  2.0587
  680MPD2    H310117   2.585   1.565  13.568 -0.2216  1.8021  2.0387
  680MPD2     N10118   2.927   1.647  13.857 -1.0951 -0.0871 -0.0889
  680MPD2    H510119   2.931   1.741  13.819  0.7281 -0.9715 -2.0835
  680MPD2    N110120   2.653   1.233  13.850  0.1596 -0.6019  0.4153
  680MPD2    H710121   2.580   1.185  13.798 -0.9456  1.3819  0.1094
  681TMC3    C110122   2.664   1.021  13.958 -0.3662 -0.2640 -0.1695
  681TMC3    C210123   2.637   0.975  14.088 -0.3419  0.0532  0.3344
  681TMC3    C310124   2.621   0.836  14.090 -0.1418  0.1985 -0.6204
  681TMC3    C410125   2.668   0.949  13.841  0.3263  0.1149 -0.0369
  681TMC3    C510126   2.631   0.818  13.854 -0.2739 -0.2571  0.0548
  681TMC3    C610127   2.614   0.757  13.974  0.3797 -0.4854 -0.6495
  681TMC3     C10128   2.714   1.157  13.950 -0.5850  0.1858 -0.7833
  681TMC3     O10129   2.768   1.199  14.048 -0.7508 -0.7399 -0.2977
  681TMC3     H10130   2.635   1.039  14.176  0.8206  0.3309  0.1613
  681TMC3    H110131   2.716   0.994  13.755  1.5483 -2.0540 -0.4869
  681TMC3    H210132   2.599   0.650  13.983 -0.1600 -0.5121 -1.8134
  681TMC3    C710133   2.634   0.726  13.734 -0.1979  0.5207 -0.0349
  681TMC3    C810134   2.622   0.771  14.222 -0.0248  0.8244 -0.1815
  681TMC3    O110135   2.585   0.613  13.747  0.4682  0.0025  0.1236
  681TMC3    O210136   2.550   0.673  14.230 -0.1322  0.8354 -0.2144
  682MPD2     C10137   0.138   2.648  10.749 -0.3054  0.7616 -0.2085
  682MPD2    C110138   0.096   2.518  10.769  0.1579 -0.6800  0.1246
  682MPD2    C210139   0.019   2.495  10.875 -0.5253  0.1125 -1.1295
  682MPD2    C310140   4.716   2.594  10.959  0.0442  0.2551 -0.0566
  682MPD2    C410141   0.014   2.721  10.938  0.0409 -0.3720  0.6219
  682MPD2    C510142   0.095   2.751  10.830 -1.3367  0.1037 -0.3081
  682MPD2     H10143   4.728   2.390  10.881 -1.8282  0.5778  0.7050
  682MPD2    H110144   4.723   2.792  11.015 -1.3478 -0.9446  0.6296
  682MPD2    H210145   0.181   2.678  10.654 -0.2686  0.1685 -0.3786
  682MPD2    H310146   0.123   2.854  10.810  0.0058 -0.2245 -0.0682
  682MPD2     N10147   4.640   2.564  11.071  0.1008  0.7985  0.4534
  682MPD2    H510148   4.616   2.641  11.132 -0.2048 -0.1487  1.5116
  682MPD2    N110149   0.121   2.409  10.677 -0.8424  0.3088 -0.4118
  682MPD2    H710150   0.082   2.321  10.707  1.1703 -0.1824  0.7828
  683TMC3    C110151   4.536   2.512  11.475 -0.3533  0.5588 -0.6938
  683TMC3    C210152   4.462   2.407  11.506  0.5446 -0.5672 -0.8113
  683TMC3    C310153   4.416   2.326  11.407 -0.2700  0.4776  0.2463
  683TMC3    C410154   4.578   2.535  11.345  0.1293 -0.2429 -0.3108
  683TMC3    C510155   4.543   2.444  11.250 -0.7363  0.5208  0.3147
  683TMC3    C610156   4.456   2.339  11.279 -0.4256  0.8313 -0.6076
  683TMC3     C10157   4.607   2.571  11.585 -0.5201  0.6789 -0.2217
  683TMC3     O10158   4.544   2.623  11.673  0.5134 -0.4898 -0.3733
  683TMC3     H10159   4.454   2.381  11.611 -2.0767 -1.6752 -1.2846
  683TMC3    H110160   4.645   2.617  11.326 -0.5393  0.1177 -1.0960
  683TMC3    H210161   4.432   2.271  11.198  1.3888 -0.0667 -0.3868
  683TMC3    C710162   4.600   2.447  11.115 -0.3458  0.0421 -0.7565
  683TMC3    C810163   4.390   2.193  11.446  0.4638 -0.3522  0.0964
  683TMC3    O110164   4.588   2.344  11.052  0.1086  0.1744  0.1233
  683TMC3    O210165   4.466   2.138  11.521  0.1571  0.3880  0.3731
  684MPD2     C10166   3.325   1.951  16.455  0.4349 -0.2972  0.0505
  684MPD2    C110167   3.267   2.001  16.339 -0.4512 -0.1035  0.1969
  684MPD2    C210168   3.291   2.136  16.317 -0.3995 -0.6552 -1.2665
  684MPD2    C310169   3.372   2.209  16.412  0.4233  0.0665  0.2618
  684MPD2    C410170   3.423   2.151  16.524 -0.3961  0.0546  0.2469
  684MPD2    C510171   3.400   2.020  16.544  0.5325  0.2908  0.2163
  684MPD2     H10172   3.248   2.183  16.229 -0.3546 -1.4912 -1.7290
  684MPD2    H110173   3.477   2.210  16.597 -0.4035 -1.6038  1.5825
  684MPD2    H210174   3.281   1.862  16.498 -1.2811  1.9120  2.9645
  684MPD2    H310175   3.438   1.968  16.631 -0.4295  1.4830  1.3459
  684MPD2     N10176   3.401   2.342  16.391 -0.3138 -0.1104 -0.0891
  684MPD2    H510177   3.473   2.386  16.447 -1.0238  0.9835 -0.0492
  684MPD2    N110178   3.199   1.926  16.239  0.5559  0.1385  0.7176
  684MPD2    H710179   3.164   1.974  16.156 -0.1110  0.2955  1.0956
  685TMC3    C110180   3.123   1.710  16.147  0.1850 -0.3367  0.1074
  685TMC3    C210181   3.061   1.768  16.037 -0.4520  0.0545 -0.1444
  685TMC3    C310182   3.043   1.694  15.924  0.4000  0.5983 -0.1673
  685TMC3    C410183   3.161   1.578  16.145 -1.1704 -0.3903  0.5571
  685TMC3    C510184   3.156   1.510  16.021 -0.2432  0.1271 -0.7715
  685TMC3    C610185   3.088   1.566  15.916 -0.0499 -0.0639  0.0649
  685TMC3     C10186   3.192   1.786  16.249 -0.3023  0.7298  0.3752
  685TMC3     O10187   3.251   1.712  16.329  0.1391 -0.6865  0.0600
  685TMC3     H10188   3.032   1.873  16.042 -0.7892  0.0667 -2.2241
  685TMC3    H110189   3.188   1.522  16.234 -0.6744  2.6327  2.3088
  685TMC3    H210190   3.084   1.521  15.818  3.8642 -2.9834  1.2495
  685TMC3    C710191   3.289   1.474  15.983 -0.5477  0.3699 -0.1478
  685TMC3    C810192   2.959   1.741  15.819 -1.0951 -0.3719 -0.2879
  685TMC3    O110193   3.314   1.451  15.865  0.5461 -0.0786 -0.3448
  685TMC3    O210194   2.889   1.656  15.761  0.1289  0.2491 -0.2274
  686MPD2     C10195   4.285   2.434  15.795  0.6364 -0.5533  0.1316
  686MPD2    C110196   4.372   2.346  15.849  0.6093  0.2761 -0.1772
  686MPD2    C210197   4.493   2.388  15.912  0.1281  0.1696 -0.1831
  686MPD2    C310198   4.521   2.524  15.900  0.5377 -0.8088  0.3307
  686MPD2    C410199   4.424   2.610  15.851 -0.6373 -0.1451  0.0343
  686MPD2    C510200   4.311   2.566  15.795  0.6199 -0.2248  0.8783
  686MPD2     H10201   4.556   2.325  15.973  0.6733  1.2595  0.3780
  686MPD2    H110202   4.451   2.715  15.840 -0.1565  0.0194  2.8459
  686MPD2    H210203   4.194   2.402  15.745 -0.5088  1.2382  1.0994
  686MPD2    H310204   4.239   2.634  15.751  1.0264 -0.3391  0.0486
  686MPD2     N10205   4.634   2.588  15.957  0.8472 -0.0726  0.1911
  686MPD2    H510206   4.623   2.687  15.977  0.9840 -0.2551  1.1693
  686MPD2    N110207   4.331   2.204  15.854 -0.1506 -0.5224  0.6541
  686MPD2    H710208   4.233   2.188  15.833 -0.3099  1.5923 -0.1845
  687TMC3    C110209   0.119   2.603  16.025 -0.1051 -0.0422  0.3668
  687TMC3    C210210   0.115   2.684  15.911  0.3337  0.2019 -0.8247
  687TMC3    C310211   0.209   2.658  15.818 -0.3513 -0.4161  0.1323
  687TMC3    C410212   0.221   2.521  16.044  0.3116 -0.0309 -0.3405
  687TMC3    C510213   0.311   2.498  15.944 -0.6005 -0.1557  0.4735
  687TMC3    C610214   0.309   2.568  15.828  0.0896 -0.1557 -0.2524
  687TMC3     C10215   0.001   2.521  16.021 -0.0166  0.8809 -0.6347
  687TMC3     O10216   0.025   2.402  16.011  0.0151 -0.0176 -1.1269
  687TMC3     H10217   0.041   2.761  15.894 -0.0277 -0.7213 -3.4218
  687TMC3    H110218   0.229   2.459  16.132  1.8382  1.4886  0.5820
  687TMC3    H210219   0.385   2.561  15.750  0.0672  2.3596 -0.4916
  687TMC3    C710220   0.363   2.367  15.943  0.3632 -0.1132 -0.5428
  687TMC3    C810221   0.149   2.619  15.690  0.6755 -0.3371  0.9056
  687TMC3    O110222   0.401   2.313  16.046  0.2059 -0.2188 -0.0212
  687TMC3    O210223   0.179   2.507  15.651 -0.0437  0.3164 -0.5176
  688MPD2     C10224   3.966   0.954  17.086 -0.0219 -0.8795  0.0594
  688MPD2    C110225   3.937   0.841  17.158  0.0984 -0.0390  0.3947
  688MPD2    C210226   3.994   0.720  17.113  0.4640 -0.2082 -0.1480
  688MPD2    C310227   4.077   0.721  16.999  0.4085  1.1358  0.3376
  688MPD2    C410228   4.111   0.836  16.931  0.5818  0.1121  0.6896
  688MPD2    C510229   4.045   0.951  16.971 -0.6971 -0.0448  0.0809
  688MPD2     H10230   3.986   0.636  17.181 -0.7346  0.0614  0.0356
  688MPD2    H110231   4.180   0.842  16.848  1.2004 -1.8568  1.0708
  688MPD2    H210232   3.935   1.055  17.112 -2.0383 -1.1993 -1.0811
  688MPD2    H310233   4.052   1.047  16.921  1.5097 -0.1585  0.1638
  688MPD2     N10234   4.129   0.607  16.939  0.5488 -0.2553 -0.3709
  688MPD2    H510235   4.181   0.619  16.852  0.9313 -1.1761 -0.2664
  688MPD2    N110236   3.853   0.833  17.271 -0.7817  0.4796 -0.0078
  688MPD2    H710237   3.847   0.747  17.324 -2.6276 -0.4732 -1.7647
  689TMC3    C110238   3.714   0.908  17.425  0.2059  0.2323 -0.0020
  689TMC3    C210239   3.729   0.997  17.526 -0.2741 -0.7785  0.0598
  689TMC3    C310240   3.659   0.969  17.640 -0.8345  0.0789 -0.2854
  689TMC3    C410241   3.623   0.805  17.432 -0.4778  0.1290  0.1094
  689TMC3    C510242   3.555   0.776  17.549 -0.5310  0.2942  0.1723
  689TMC3    C610243   3.572   0.863  17.654  0.1223  0.2509 -0.3971
  689TMC3     C10244   3.782   0.943  17.314  0.0466  0.3533  0.1420
  689TMC3     O10245   3.776   1.059  17.278 -0.0079 -0.2057  0.2466
  689TMC3     H10246   3.811   1.068  17.516 -2.0858  1.1517 -0.9857
  689TMC3    H110247   3.628   0.730  17.354 -1.7132 -1.3287  1.4506
  689TMC3    H210248   3.523   0.831  17.746  0.1413  0.4402 -0.3213
  689TMC3    C710249   3.453   0.668  17.551  0.3045  0.1163  0.1571
  689TMC3    C810250   3.690   1.053   0.003 -1.1880  0.6112 -0.6974
  689TMC3    O110251   3.406   0.657  17.664  0.0057 -0.5765 -0.2465
  689TMC3    O210252   3.656   1.013   0.115 -0.4741  0.5558 -0.7382
  690MPD2     C10253   1.133   2.736  16.015 -0.5953  0.7097  0.4213
  690MPD2    C110254   1.121   2.706  15.881 -0.4330 -0.0418  0.4214
  690MPD2    C210255   1.195   2.781  15.792  0.4998  0.2563  0.2188
  690MPD2    C310256   1.267   2.892  15.833  0.0438 -0.2377 -0.1396
  690MPD2    C410257   1.272   2.929  15.967 -0.3276 -0.2095  1.0611
  690MPD2    C510258   1.205   2.852  16.052 -0.3460  0.0053  0.6278
  690MPD2     H10259   1.190   2.749  15.689  0.8043  0.4837  0.1329
  690MPD2    H110260   1.328   3.010  16.013  0.3238  1.0049 -1.9248
  690MPD2    H210261   1.077   2.679  16.089 -0.3296  1.0526  0.8834
  690MPD2    H310262   1.196   2.873  16.158  0.1153 -1.7440  1.0185
  690MPD2     N10263   1.333   2.962  15.732  0.6128 -0.3427 -0.4825
  690MPD2    H510264   1.315   2.939  15.635 -0.8137  1.0329 -0.5416
  690MPD2    N110265   1.045   2.602  15.826 -0.3684 -0.0307 -0.5144
  690MPD2    H710266   1.016   2.614  15.729 -0.5726 -0.9925 -0.5713
  691TMC3    C110267   0.952   2.374  15.813 -0.6766 -0.3545 -0.6407
  691TMC3    C210268   0.856   2.404  15.727  0.1879 -0.3546  0.3242
  691TMC3    C310269   0.766   2.313  15.685 -0.6234  0.0043 -0.5856
  691TMC3    C410270   0.950   2.250  15.859  0.1342 -0.2930  0.2831
  691TMC3    C510271   0.874   2.147  15.801 -1.0089  0.3082 -0.1677
  691TMC3    C610272   0.768   2.185  15.721  0.3748 -0.1125 -0.3690
  691TMC3     C10273   1.019   2.485  15.893  0.0471 -0.2190 -0.7810
  691TMC3     O10274   1.074   2.442  15.997  0.3127 -0.1159 -0.9790
  691TMC3     H10275   0.850   2.505  15.689  0.0868 -0.7814 -0.7946
  691TMC3    H110276   1.018   2.236  15.942  1.6889 -1.3822 -1.1786
  691TMC3    H210277   0.691   2.111  15.701 -0.1827  0.4200 -0.1708
  691TMC3    C710278   0.911   2.009  15.816 -0.5074 -1.0581  0.5051
  691TMC3    C810279   0.662   2.341  15.582  0.5593 -0.2870  0.1435
  691TMC3    O110280   1.018   1.985  15.866 -0.7900 -0.5422  0.0484
  691TMC3    O210281   0.628   2.237  15.528  0.2103  0.0698 -0.5857
  692TMC3    C110282   3.275   3.881  16.297  0.0900 -0.3450 -0.0619
  692TMC3    C210283   3.346   3.879  16.412  0.2843  0.1791 -0.3203
  692TMC3    C310284   3.425   3.769  16.444  0.6408 -0.5090 -0.5805
  692TMC3    C410285   3.273   3.776  16.216 -0.4243  0.1090  0.2139
  692TMC3    C510286   3.351   3.665  16.238  0.4889 -0.0525 -1.0329
  692TMC3    C610287   3.419   3.660  16.358 -0.1444 -0.3756 -0.3298
  692TMC3     C10288   3.167   3.978  16.287  0.1993  0.5368 -0.6188
  692TMC3     O10289   3.065   3.950  16.226 -0.6942  0.2081 -0.2343
  692TMC3     H10290   3.300   3.935  16.493  0.4557 -0.2448  0.0697
  692TMC3    H110291   3.220   3.788  16.122  1.8292 -2.0965 -1.3488
  692TMC3    H210292   3.498   3.586  16.364 -0.9327 -1.1461  0.5285
  692TMC3    C710293   3.378   3.574  16.130  0.1610  0.1099  0.1641
  692TMC3    C810294   3.379   3.728  16.575 -0.4565 -0.7984 -0.0217
  692TMC3    O110295   3.365   3.634  16.021  0.2583 -0.1251 -0.1563
  692TMC3    O210296   3.410   3.800  16.665 -0.5829  0.3797 -0.7042
  693MPD2     C10297   2.539   1.744  10.669 -0.0434 -0.2469 -0.2173
  693MPD2    C110298   2.478   1.624  10.681 -0.6023  0.5200  0.2131
  693MPD2    C210299   2.546   1.515  10.730 -0.2236  0.7283  0.1529
  693MPD2    C310300   2.684   1.532  10.754 -0.1917  0.2711 -0.2979
  693MPD2    C410301   2.749   1.648  10.723  0.9280 -0.2857 -0.1140
  693MPD2    C510302   2.674   1.755  10.686  0.4296  0.0062 -0.4248
  693MPD2     H10303   2.494   1.422  10.748 -0.6101  0.3592 -2.7536
  693MPD2    H110304   2.854   1.653  10.752  0.5511 -0.7690  1.3084
  693MPD2    H210305   2.487   1.831  10.630  1.1554  0.7233  0.3728
  693MPD2    H310306   2.726   1.847  10.660  0.4429  0.3525  0.8457
  693MPD2     N10307   2.757   1.427  10.819 -0.1988  0.3953 -0.5582
  693MPD2    H510308   2.854   1.447  10.842 -0.8648  0.2179  2.3310
  693MPD2    N110309   2.340   1.613  10.651 -0.1943  0.1335 -1.0251
  693MPD2    H710310   2.294   1.701  10.633  0.4640  0.8837  0.9325
  694TMC3    C110311   2.139   1.515  10.611  0.0299 -0.1855 -0.1527
  694TMC3    C210312   2.081   1.407  10.554 -0.9116  0.0472  0.0533
  694TMC3    C310313   1.961   1.367  10.604  0.6435  0.4728  0.2249
  694TMC3    C410314   2.084   1.578  10.727  0.2099 -0.1975  0.0618
  694TMC3    C510315   1.962   1.532  10.780  0.3231 -0.2054 -0.1182
  694TMC3    C610316   1.907   1.418  10.720  0.6635 -0.0994  1.3157
  694TMC3     C10317   2.276   1.498  10.630 -0.4648 -0.1751 -0.4667
  694TMC3     O10318   2.321   1.384  10.611  0.2446 -0.2448 -0.0382
  694TMC3     H10319   2.127   1.366  10.465  0.4678  0.7220  0.4661
  694TMC3    H110320   2.144   1.646  10.787  0.9962  1.0550 -2.1172
  694TMC3    H210321   1.807   1.392  10.754  0.0187  0.4641 -0.1362
  694TMC3    C710322   1.962   1.531  10.927 -0.3059  0.6974  0.1694
  694TMC3    C810323   1.886   1.272  10.522  0.2695 -0.3077 -0.2478
  694TMC3    O110324   2.002   1.635  10.980  0.0671  0.1419  0.6912
  694TMC3    O210325   1.797   1.215  10.576 -0.0026  0.4301  0.2086
  695MPD2     C10326   3.528   3.588  13.629 -0.2479  0.0167  0.4445
  695MPD2    C110327   3.493   3.480  13.712  0.5054 -0.0811 -0.3978
  695MPD2    C210328   3.371   3.476  13.777  0.5218  0.4784 -0.3887
  695MPD2    C310329   3.273   3.560  13.744  0.5948 -0.5901 -0.0591
  695MPD2    C410330   3.299   3.663  13.655 -0.5195 -1.1179 -0.2564
  695MPD2    C510331   3.428   3.679  13.609  0.1616  0.6487  0.2695
  695MPD2     H10332   3.343   3.401  13.849  0.1250 -0.7115 -1.7800
  695MPD2    H110333   3.236   3.746  13.623 -0.4497 -0.6533  0.8069
  695MPD2    H210334   3.627   3.609  13.589 -0.2007 -0.3508  0.3648
  695MPD2    H310335   3.463   3.764  13.552  1.1439 -0.5290 -0.8565
  695MPD2     N10336   3.139   3.541  13.785 -0.3528 -0.1010 -0.1561
  695MPD2    H510337   3.115   3.483  13.865  0.2945 -1.6223 -1.0561
  695MPD2    N110338   3.580   3.373  13.735  0.1515 -0.1552 -0.1126
  695MPD2    H710339   3.555   3.298  13.799  0.5122 -0.1874 -0.0093
  696TMC3    C110340   2.899   3.554  13.779  0.1594  0.2466 -0.4605
  696TMC3    C210341   2.896   3.468  13.889 -0.5241  0.3037 -0.0096
  696TMC3    C310342   2.773   3.455  13.944 -0.0007  0.2269  0.3399
  696TMC3    C410343   2.789   3.606  13.724  0.3311 -0.4700  0.1733
  696TMC3    C510344   2.671   3.589  13.774 -0.8316  0.2929  0.5220
  696TMC3    C610345   2.661   3.513  13.885  0.2797  0.2415 -0.3736
  696TMC3     C10346   3.026   3.593  13.725 -0.1534  0.2386 -0.1720
  696TMC3     O10347   3.015   3.655  13.623  0.2155  0.5726 -0.5064
  696TMC3     H10348   2.983   3.430  13.941 -0.5711  0.9311  0.5282
  696TMC3    H110349   2.805   3.675  13.641  1.3232  1.1897  1.7367
  696TMC3    H210350   2.562   3.486  13.919  0.8196 -2.2921 -0.7879
  696TMC3    C710351   2.575   3.694  13.770  0.3090 -0.3119 -0.5786
  696TMC3    C810352   2.773   3.456  14.086 -0.0491  0.0011 -0.2982
  696TMC3    O110353   2.487   3.693  13.687 -0.4338 -0.2322  0.1132
  696TMC3    O210354   2.877   3.424  14.145 -0.2047  0.2212 -0.5042
  697MPD2     C10355   2.484   0.859  15.637  0.1746  0.1053  0.3928
  697MPD2    C110356   2.479   0.774  15.530  0.1667  1.3971  0.5315
  697MPD2    C210357   2.511   0.830  15.407  0.2200 -0.5098  0.0065
  697MPD2    C310358   2.542   0.965  15.388  0.0897  0.4565  0.7655
  697MPD2    C410359   2.537   1.044  15.496 -0.0684  0.2333 -0.2302
  697MPD2    C510360   2.513   0.995  15.623 -0.2403 -0.7464  0.2582
  697MPD2     H10361   2.494   0.780  15.312  1.9958 -0.0866 -0.5297
  697MPD2    H110362   2.552   1.151  15.490  0.7504  0.1441  0.1848
  697MPD2    H210363   2.464   0.825  15.738 -0.4965 -0.9693 -0.1016
  697MPD2    H310364   2.512   1.059  15.710  1.2774 -0.6817  0.2331
  697MPD2     N10365   2.562   1.011  15.261  0.4948  0.1029 -0.3241
  697MPD2    H510366   2.572   0.939  15.191  1.9778  0.6326 -0.6552
  697MPD2    N110367   2.449   0.636  15.533  0.0074  0.1927  0.4285
  697MPD2    H710368   2.464   0.570  15.457 -2.6828 -1.8222  1.6039
  698TMC3    C110369   2.596   1.147  15.066 -0.2441  0.0002  0.3793
  698TMC3    C210370   2.662   1.257  15.018  0.5796  0.3068  0.1230
  698TMC3    C310371   2.663   1.272  14.882  0.1648  0.1401 -0.3783
  698TMC3    C410372   2.537   1.060  14.989  0.3986 -0.3410  0.5762
  698TMC3    C510373   2.547   1.063  14.853  0.1227  0.5033 -0.1089
  698TMC3    C610374   2.604   1.181  14.794  0.5008 -0.4156  0.5479
  698TMC3     C10375   2.579   1.137  15.213  0.4065  0.0671  0.0761
  698TMC3     O10376   2.565   1.246  15.272  0.0925 -0.2152 -0.4613
  698TMC3     H10377   2.690   1.337  15.086  0.3110 -1.7590  2.6664
  698TMC3    H110378   2.484   0.979  15.038  0.5921  0.1971  1.6660
  698TMC3    H210379   2.595   1.190  14.687  3.3658  2.2484  0.5359
  698TMC3    C710380   2.481   0.961  14.774 -1.4734  0.4529 -0.3756
  698TMC3    C810381   2.726   1.384  14.817 -0.8111  0.0119 -0.7317
  698TMC3    O110382   2.477   0.992  14.654 -0.2448  0.6226  0.0118
  698TMC3    O210383   2.683   1.411  14.704 -0.5991 -0.3021 -0.0237
  699TMC3    C110384   2.625   3.675  13.069  0.2862  0.3564 -0.2249
  699TMC3    C210385   2.666   3.578  13.160 -0.5533  0.3196 -0.2085
  699TMC3    C310386   2.580   3.540  13.257  0.1418 -0.1870  0.0405
  699TMC3    C410387   2.506   3.740  13.083 -0.4261  0.4560 -0.0026
  699TMC3    C510388   2.424   3.689  13.181  0.0249 -0.4038  0.2528
  699TMC3    C610389   2.454   3.593  13.269 -0.3102  0.4276  0.2041
  699TMC3     C10390   2.729   3.741  12.991  0.1036  0.7182  0.0452
  699TMC3     O10391   2.844   3.712  13.022 -0.0667  0.6978 -0.0891
  699TMC3     H10392   2.765   3.533  13.156 -1.1769 -1.0926  0.4219
  699TMC3    H110393   2.476   3.825  13.023 -1.4184 -1.5034 -2.3037
  699TMC3    H210394   2.381   3.558  13.341 -1.6130  1.8906 -0.3918
  699TMC3    C710395   2.288   3.716  13.175  0.4596  0.0626  0.0479
  699TMC3    C810396   2.612   3.436  13.354 -0.9927  0.1393 -0.9672
  699TMC3    O110397   2.245   3.832  13.183  0.0427 -0.3273 -0.2173
  699TMC3    O210398   2.512   3.366  13.378  0.1021 -0.0271  0.5770
  700TMC3    C110399   1.602   1.084  16.894  0.5237  0.0004  0.6355
  700TMC3    C210400   1.723   1.064  16.837  0.0723  0.1941 -0.2645
  700TMC3    C310401   1.819   1.014  16.915  0.7702 -0.2458  0.3835
  700TMC3    C410402   1.590   1.066  17.029 -0.1482  0.5387 -0.4306
  700TMC3    C510403   1.695   1.029  17.113  0.0698  0.2113 -0.2342
  700TMC3    C610404   1.812   0.995  17.053 -0.2184  0.5825 -0.4033
  700TMC3     C10405   1.541   1.210  16.862 -0.5279 -0.2146 -0.3530
  700TMC3     O10406   1.424   1.224  16.874 -0.3721 -0.2091  0.1254
  700TMC3     H10407   1.724   1.069  16.729  1.1297  1.2297 -0.2057
  700TMC3    H110408   1.497   1.100  17.072 -0.2724 -0.0391 -0.2354
  700TMC3    H210409   1.897   0.966  17.113 -1.5099 -1.6330  0.3494
  700TMC3    C710410   1.723   1.123  17.216  0.0203 -0.0292  0.9502
  700TMC3    C810411   1.919   0.938  16.832 -0.5923  0.0531  0.2626
  700TMC3    O110412   1.831   1.184  17.217 -0.5498  0.3786  0.1371
  700TMC3    O210413   1.927   0.974  16.718  0.4990  0.1458 -0.1715
  701TMC3    C110414   1.788   4.664  15.645  0.3732 -0.8127  0.0476
  701TMC3    C210415   1.801   4.610  15.521  0.0824 -0.1020 -0.1673
  701TMC3    C310416   1.835   4.692  15.415 -0.1297  0.1557 -0.1409
  701TMC3    C410417   1.831   0.051  15.668  0.4147  0.1558  0.4535
  701TMC3    C510418   1.883   0.125  15.571  0.4389  0.7432 -0.0648
  701TMC3    C610419   1.875   0.085  15.443 -0.4009  0.5029  0.4532
  701TMC3     C10420   1.673   4.623  15.726  0.0839  0.7317  0.0957
  701TMC3     O10421   1.624   4.708  15.799 -0.1197 -0.1838  0.3560
  701TMC3     H10422   1.750   4.516  15.500  0.5313 -0.0828 -1.3035
  701TMC3    H110423   1.827   0.092  15.768  3.0327  0.9841  0.2235
  701TMC3    H210424   1.896   0.163  15.370 -0.4900  0.3685  0.2839
  701TMC3    C710425   1.905   0.267  15.586 -0.2222 -0.0600  0.6075
  701TMC3    C810426   1.784   4.667  15.280  0.6673  0.2019  0.9793
  701TMC3    O110427   1.918   0.336  15.485  0.1496  0.0729  0.3733
  701TMC3    O210428   1.744   4.554  15.261 -0.3874  0.6185  0.2193
  702MPD2     C10429   1.698   2.314  10.747  0.5951  0.7290 -0.1990
  702MPD2    C110430   1.581   2.246  10.726  0.0903 -0.0757 -0.0702
  702MPD2    C210431   1.534   2.231  10.602 -0.8922  0.5864 -0.4425
  702MPD2    C310432   1.590   2.292  10.493  0.2980 -0.3236 -1.2252
  702MPD2    C410433   1.709   2.355  10.512 -0.0902  0.0446  0.2696
  702MPD2    C510434   1.767   2.364  10.637 -0.3300 -0.4116  0.3793
  702MPD2     H10435   1.442   2.176  10.581  0.1110 -1.9760  1.8355
  702MPD2    H110436   1.763   2.402  10.431  3.0321 -1.7316  1.2881
  702MPD2    H210437   1.742   2.321  10.846 -0.4731  1.1463  0.2481
  702MPD2    H310438   1.866   2.408  10.639 -0.3879 -0.1568 -2.2654
  702MPD2     N10439   1.532   2.279  10.363  0.0033  0.5597  0.3150
  702MPD2    H510440   1.606   2.286  10.294  0.2772 -1.1479  0.4494
  702MPD2    N110441   1.505   2.209  10.839 -0.2997 -0.3726 -0.1739
  702MPD2    H710442   1.539   2.238  10.930  0.0946  1.4180 -0.8986
  703TMC3    C110443   1.291   2.303  10.429  0.0874 -0.3363 -0.2936
  703TMC3    C210444   1.192   2.210  10.465 -0.0792  0.5172 -0.5888
  703TMC3    C310445   1.111   2.242  10.572  0.2802 -0.2215 -0.7099
  703TMC3    C410446   1.308   2.419  10.494 -0.0203  0.1101  0.1082
  703TMC3    C510447   1.230   2.438  10.601  0.2653 -0.4603  0.0005
  703TMC3    C610448   1.133   2.353  10.644 -0.3553 -0.2186  0.4461
  703TMC3     C10449   1.394   2.269  10.328 -0.0668 -1.2585  0.2654
  703TMC3     O10450   1.353   2.248  10.214 -0.0711 -0.5307  0.6046
  703TMC3     H10451   1.178   2.121  10.405  1.8358  1.8184 -2.9473
  703TMC3    H110452   1.386   2.486  10.460  0.9874 -2.1527 -2.0430
  703TMC3    H210453   1.076   2.376  10.733 -1.1265  0.7623 -0.2966
  703TMC3    C710454   1.285   2.519  10.707  0.5372 -0.4055 -0.9047
  703TMC3    C810455   1.002   2.156  10.589 -0.0396 -0.1264  0.8515
  703TMC3    O110456   1.250   2.501  10.821  0.1356  0.4343  0.4099
  703TMC3    O210457   0.986   2.060  10.509 -0.2167 -0.1124  0.2312
  704TMC3    C110458   3.768   0.239  13.111  0.2012  0.3125 -0.1085
  704TMC3    C210459   3.819   0.308  13.008  0.2308  0.0009 -0.2083
  704TMC3    C310460   3.952   0.312  12.970 -0.2158  0.8704 -0.1639
  704TMC3    C410461   3.859   0.175  13.189  0.3800  0.4425  0.2475
  704TMC3    C510462   3.996   0.209  13.174 -0.3268  0.0765 -0.3743
  704TMC3    C610463   4.044   0.269  13.057 -1.2010 -0.5196 -0.4148
  704TMC3     C10464   3.643   0.165  13.094 -0.2287  0.5642 -0.4002
  704TMC3     O10465   3.606   0.098  13.190 -0.2966  0.7644 -0.5439
  704TMC3     H10466   3.758   0.365  12.940  0.1153  0.4694  0.2908
  704TMC3    H110467   3.819   0.136  13.282  2.1540  2.6321  1.9593
  704TMC3    H210468   4.146   0.263  13.023 -0.3794  3.3566  1.4438
  704TMC3    C710469   4.098   0.148  13.262  0.2759  0.0268 -0.1552
  704TMC3    C810470   3.981   0.310  12.827  0.7126 -0.1255 -0.5621
  704TMC3    O110471   4.210   0.178  13.235  0.6278 -0.0478 -0.2151
  704TMC3    O210472   3.879   0.295  12.756  0.0607 -0.1429 -0.0266
  705MPD2     C10473   3.610   2.979  16.477 -0.0058 -0.6000  0.4206
  705MPD2    C110474   3.592   3.114  16.480 -0.4640  0.3117 -1.3890
  705MPD2    C210475   3.478   3.163  16.534  0.4672  0.5164  0.3516
  705MPD2    C310476   3.378   3.071  16.583 -0.0988 -0.3543 -0.1870
  705MPD2    C410477   3.396   2.938  16.568 -0.2946  0.4763  0.1408
  705MPD2    C510478   3.511   2.899  16.507 -0.1266  0.1051  0.4892
  705MPD2     H10479   3.467   3.271  16.543  2.2445  0.8452 -1.3214
  705MPD2    H110480   3.327   2.860  16.598 -1.3245  2.3353  2.5716
  705MPD2    H210481   3.705   2.939  16.442  0.8284  0.7342  1.1949
  705MPD2    H310482   3.526   2.792  16.499 -2.4157 -0.1553 -0.1115
  705MPD2     N10483   3.262   3.124  16.640  0.4916  0.3634  0.4400
  705MPD2    H510484   3.266   3.208  16.696  2.2222 -1.0675  2.4540
  705MPD2    N110485   3.693   3.197  16.425 -0.0249 -0.2862 -0.0218
  705MPD2    H710486   3.663   3.292  16.441 -0.5914 -1.1643  4.1713
  706TMC3    C110487   3.959   3.238  16.072  0.2366 -0.0022  0.7518
  706TMC3    C210488   3.885   3.350  16.034 -0.2255 -0.0323 -0.0912
  706TMC3    C310489   3.837   3.426  16.134  0.0280  0.1316 -0.1265
  706TMC3    C410490   3.961   3.204  16.202  0.0554  0.4634 -0.2412
  706TMC3    C510491   3.875   3.263  16.293 -0.5171 -0.4778  0.4728
  706TMC3    C610492   3.820   3.384  16.261 -0.0381  0.3318  0.0587
  706TMC3     C10493   4.047   3.167  15.977 -0.4498 -0.4098  0.4851
  706TMC3     O10494   4.152   3.126  16.019  0.3900  1.0371  0.0050
  706TMC3     H10495   3.892   3.388  15.933 -1.0559  0.7270  0.1337
  706TMC3    H110496   4.010   3.108  16.213  2.7318  1.8719  0.1478
  706TMC3    H210497   3.781   3.444  16.342 -0.7268 -0.0713  0.0225
  706TMC3    C710498   3.787   3.154  16.335 -0.5069  0.8987  0.5794
  706TMC3    C810499   3.800   3.564  16.111 -0.5350 -0.2355  0.2447
  706TMC3    O110500   3.796   3.046  16.277 -0.2883 -0.5332 -0.0371
  706TMC3    O210501   3.732   3.577  16.009  0.0587  0.6094  0.2827
  707TMC3    C110502   0.438   2.295   1.673  0.6135  0.4492  0.0434
  707TMC3    C210503   0.511   2.180   1.695  0.4669  0.0347 -0.1249
  707TMC3    C310504   0.497   2.086   1.593  1.0692  0.3254 -0.8867
  707TMC3    C410505   0.351   2.305   1.569  0.1231  0.1752  0.4075
  707TMC3    C510506   0.333   2.199   1.484  0.9286 -0.7615  0.6446
  707TMC3    C610507   0.405   2.089   1.490  0.3069 -0.0072  0.1856
  707TMC3     C10508   0.504   2.421   1.711 -0.2131  0.0775  1.3868
  707TMC3     O10509   0.576   2.429   1.811  0.3484  0.2581 -0.7245
  707TMC3     H10510   0.602   2.194   1.753  1.6264  0.4390 -2.0460
  707TMC3    H110511   0.283   2.389   1.564  0.9806  0.7178 -2.3072
  707TMC3    H210512   0.386   2.015   1.413  0.4669  0.9608 -0.7685
  707TMC3    C710513   0.232   2.225   1.379  0.3611 -0.0346 -0.0266
  707TMC3    C810514   0.576   1.962   1.603  0.0567  0.2134  0.0317
  707TMC3    O110515   0.229   2.339   1.341 -0.5595 -0.2667 -0.0777
  707TMC3    O210516   0.582   1.903   1.496  0.1341 -0.0716 -0.0797
  708MPD2     C10517   1.600   1.338  14.728 -0.0321  0.1112  0.8679
  708MPD2    C110518   1.657   1.459  14.689 -0.6104  0.2277 -0.3424
  708MPD2    C210519   1.661   1.556  14.791  0.1860 -0.3522  0.3401
  708MPD2    C310520   1.631   1.532  14.922 -0.1109 -1.1011  0.2560
  708MPD2    C410521   1.572   1.410  14.949 -0.2448  0.9340 -0.5660
  708MPD2    C510522   1.558   1.316  14.857 -0.4684  0.2607 -0.0148
  708MPD2     H10523   1.703   1.654  14.773 -2.2871  0.5000 -0.7972
  708MPD2    H110524   1.544   1.385  15.050 -0.3056  0.2336 -0.7577
  708MPD2    H210525   1.575   1.261  14.656  2.4240  0.8600 -0.7647
  708MPD2    H310526   1.519   1.217  14.875 -0.2741  0.1810 -0.0309
  708MPD2     N10527   1.646   1.641  15.008  0.1970 -0.0296 -0.0640
  708MPD2    H510528   1.689   1.724  14.968 -1.4257  0.8506 -0.0045
  708MPD2    N110529   1.690   1.487  14.553 -0.1899  0.0038 -0.0681
  708MPD2    H710530   1.656   1.428  14.478  0.7426 -0.6342  0.0047
  709TMC3    C110531   1.766   1.631  14.380 -0.3680  0.4428 -0.1473
  709TMC3    C210532   1.712   1.539  14.297 -0.2043 -0.2676  0.0340
  709TMC3    C310533   1.634   1.586  14.193 -0.0673  0.6580  0.1024
  709TMC3    C410534   1.749   1.762  14.367  0.0286 -0.0226  0.0361
  709TMC3    C510535   1.651   1.803  14.284  0.4794  0.4102  0.8544
  709TMC3    C610536   1.600   1.716  14.194  1.2032 -0.4361  0.0454
  709TMC3     C10537   1.777   1.591  14.516  0.2014  0.2710 -0.2516
  709TMC3     O10538   1.838   1.664  14.593 -0.0510  0.2127 -0.2974
  709TMC3     H10539   1.742   1.435  14.311  0.1382 -0.3370 -1.1967
  709TMC3    H110540   1.812   1.829  14.424 -1.0392  0.5775  0.5119
  709TMC3    H210541   1.520   1.747  14.127  2.1386  1.5831 -0.1226
  709TMC3    C710542   1.559   1.886  14.366  0.0624 -0.1343 -0.8269
  709TMC3    C810543   1.627   1.504  14.074 -0.7317 -0.2065 -0.7519
  709TMC3    O110544   1.607   1.965  14.446  0.1483 -0.2887  0.4191
  709TMC3    O210545   1.651   1.383  14.084  0.1438 -0.1547 -0.1903
  710TMC3    C110546   2.706   3.544   0.445  0.1160  0.3344  0.0909
  710TMC3    C210547   2.819   3.537   0.373 -0.0311  0.1116  0.2843
  710TMC3    C310548   2.905   3.436   0.402 -0.4706 -1.1136  0.2121
  710TMC3    C410549   2.658   3.437   0.518  0.1172 -0.0652  0.1894
  710TMC3    C510550   2.742   3.323   0.522  0.5069 -0.5170  0.3985
  710TMC3    C610551   2.871   3.326   0.470  0.8581 -0.3511  0.0291
  710TMC3     C10552   2.663   3.673   0.489  0.0101 -0.3947 -0.0400
  710TMC3     O10553   2.727   3.764   0.444 -0.1231  0.2887  0.4443
  710TMC3     H10554   2.871   3.630   0.348 -0.7964  0.6588  0.7343
  710TMC3    H110555   2.554   3.426   0.546  0.5057 -4.3515 -0.1725
  710TMC3    H210556   2.926   3.233   0.468 -0.3628 -1.0780 -0.0180
  710TMC3    C710557   2.723   3.214   0.620 -0.1056  0.1913 -0.3176
  710TMC3    C810558   3.013   3.440   0.308 -0.0823  0.3368  0.1547
  710TMC3    O110559   2.825   3.149   0.648  0.3991  0.1552  0.0833
  710TMC3    O210560   3.000   3.511   0.207 -0.5074 -0.0617  0.1971
  711TMC3    C110561   2.233   4.137  15.324 -0.2738 -0.0020 -0.6597
  711TMC3    C210562   2.232   4.073  15.444 -0.0931  0.1476  0.8550
  711TMC3    C310563   2.306   4.136  15.543 -0.3422 -0.0799 -0.4976
  711TMC3    C410564   2.294   4.262  15.305  0.2473  0.6624  0.4658
  711TMC3    C510565   2.354   4.320  15.409 -0.1554 -0.1734  0.2716
  711TMC3    C610566   2.365   4.258  15.526  0.6062  0.1379  0.2341
  711TMC3     C10567   2.208   4.050  15.213  0.3945  0.5488 -0.1519
  711TMC3     O10568   2.115   3.975  15.223 -0.1363 -0.2094 -0.1946
  711TMC3     H10569   2.195   3.972  15.463 -1.8202  0.4140 -1.1567
  711TMC3    H110570   2.309   4.307  15.208 -2.1896  1.3386  0.4102
  711TMC3    H210571   2.416   4.310  15.606  0.6578  1.9054 -0.9404
  711TMC3    C710572   2.482   4.381  15.374  0.2867  0.0157  0.0774
  711TMC3    C810573   2.390   4.044  15.621 -0.2413 -0.4531 -0.6753
  711TMC3    O110574   2.504   4.496  15.408  0.2463  0.1172  0.7339
  711TMC3    O210575   2.341   3.934  15.639  0.5310  0.1913  1.4275
  712MPD2     C10576   3.624   0.173  13.902 -0.3457  0.3791  0.1315
  712MPD2    C110577   3.524   0.258  13.859  0.3791 -0.4315  0.5500
  712MPD2    C210578   3.544   0.397  13.842 -0.1645 -0.1190  0.1096
  712MPD2    C310579   3.670   0.444  13.873  0.3138  0.6711 -0.9578
  712MPD2    C410580   3.769   0.357  13.909  0.0724 -0.2381  0.3149
  712MPD2    C510581   3.746   0.224  13.929 -0.2988  0.3060  0.7451
  712MPD2     H10582   3.464   0.468  13.825 -1.0262 -0.4860  2.6162
  712MPD2    H110583   3.866   0.399  13.934 -0.9937  2.4219 -0.0250
  712MPD2    H210584   3.594   0.070  13.919  0.8333  0.2174  1.1631
  712MPD2    H310585   3.823   0.163  13.976  0.6252  0.6020 -0.3736
  712MPD2     N10586   3.706   0.585  13.864  0.5667 -0.7908 -0.5730
  712MPD2    H510587   3.803   0.609  13.885  0.2284  0.6069 -0.6255
  712MPD2    N110588   3.399   0.208  13.817  0.5405 -1.1448 -0.0644
  712MPD2    H710589   3.349   0.273  13.758 -1.6375  0.5488  3.6454
  713TMC3    C110590   3.691   0.811  13.819 -0.2687  0.5470  0.2594
  713TMC3    C210591   3.819   0.800  13.787 -0.0356  0.3839 -0.1094
  713TMC3    C310592   3.888   0.915  13.789  0.0419  0.0494 -0.8927
  713TMC3    C410593   3.631   0.932  13.832 -0.0640  0.6213 -0.0486
  713TMC3    C510594   3.702   1.053  13.822  0.0106 -0.3528 -0.4270
  713TMC3    C610595   3.838   1.045  13.808  0.4214 -0.1314 -0.0475
  713TMC3     C10596   3.620   0.689  13.850 -0.6663 -0.7183  0.2533
  713TMC3     O10597   3.502   0.691  13.860  0.3354  0.2803 -0.4772
  713TMC3     H10598   3.865   0.709  13.749  0.3570  0.3605  0.4172
  713TMC3    H110599   3.523   0.943  13.840 -0.1407  1.0747 -1.5581
  713TMC3    H210600   3.913   1.122  13.820  1.7060 -1.2635 -0.7398
  713TMC3    C710601   3.639   1.184  13.814 -0.2475 -0.1159 -0.2041
  713TMC3    C810602   4.025   0.903  13.749 -0.1076 -0.1861  0.0846
  713TMC3    O110603   3.713   1.276  13.852  0.2471  0.4962 -0.1192
  713TMC3    O210604   4.085   1.001  13.710  0.1744 -0.2974  0.2695
  714MPD2     C10605   1.176   0.089   1.871 -0.4882 -0.5582 -0.4431
  714MPD2    C110606   1.168   4.733   1.776 -0.1264  0.1427 -0.4859
  714MPD2    C210607   1.057   4.738   1.689  0.1597  0.1186  0.2478
  714MPD2    C310608   0.960   0.097   1.688  0.4679 -0.0867 -0.7445
  714MPD2    C410609   0.966   0.195   1.788  0.2896  0.0512  0.2245
  714MPD2    C510610   1.077   0.185   1.871  0.3081 -0.2028  0.3326
  714MPD2     H10611   1.047   4.668   1.607 -0.1893 -0.6728  0.9630
  714MPD2    H110612   0.905   0.284   1.798 -0.0748 -0.0719 -0.9257
  714MPD2    H210613   1.253   0.093   1.946 -1.0681 -0.5926  0.1506
  714MPD2    H310614   1.079   0.262   1.947 -1.6104 -0.8647  1.0455
  714MPD2     N10615   0.853   0.100   1.591  0.3597 -0.0650 -0.3860
  714MPD2    H510616   0.873   0.028   1.522  3.0981  0.1242  0.2135
  714MPD2    N110617   1.276   4.636   1.763 -0.4001 -0.7273 -0.4850
  714MPD2    H710618   1.362   4.633   1.817 -0.7297  0.9378  0.1381
  715TMC3    C110619   1.402   4.441   1.699 -0.0733  1.2844  0.0190
  715TMC3    C210620   1.405   4.317   1.634 -0.2831  0.4428  0.5384
  715TMC3    C310621   1.524   4.252   1.626 -0.5772 -0.4006 -0.1825
  715TMC3    C410622   1.509   4.497   1.754 -0.2707  0.4906  0.5055
  715TMC3    C510623   1.623   4.420   1.757 -0.1598  0.0682 -0.1814
  715TMC3    C610624   1.629   4.298   1.690 -0.1394  0.3340 -0.4690
  715TMC3     C10625   1.278   4.515   1.691  0.0670  0.0363  0.0817
  715TMC3     O10626   1.185   4.478   1.615 -0.0928  0.5590 -0.0172
  715TMC3     H10627   1.310   4.284   1.592  0.3243 -1.3097  0.5155
  715TMC3    H110628   1.520   4.603   1.774 -0.5034  0.3130  1.5898
  715TMC3    H210629   1.726   4.249   1.698 -0.2962  0.1469  0.2810
  715TMC3    C710630   1.749   4.468   1.818 -0.3348 -0.4335 -0.1960
  715TMC3    C810631   1.532   4.160   1.520  0.1483 -0.1870  0.1009
  715TMC3    O110632   1.838   4.390   1.834  0.4604 -0.7528 -0.6742
  715TMC3    O210633   1.460   4.182   1.423  0.3787 -0.0611 -0.7408
  716MPD2     C10634   1.365   1.961  10.074 -0.5042 -0.4994 -0.1649
  716MPD2    C110635   1.397   2.021   9.957  1.1882 -1.1802  0.0152
  716MPD2    C210636   1.420   1.932   9.853 -0.6979  0.4967 -0.7753
  716MPD2    C310637   1.389   1.794   9.857  0.1977  0.3425 -0.0171
  716MPD2    C410638   1.362   1.743   9.979  1.0893 -0.4307  0.2314
  716MPD2    C510639   1.354   1.826  10.084  0.2511  0.5162 -0.1112
  716MPD2     H10640   1.451   1.968   9.756  0.7191 -0.4591 -0.6847
  716MPD2    H110641   1.347   1.637   9.999  2.3446 -0.7615 -0.5593
  716MPD2    H210642   1.349   2.024  10.161  0.2447  1.0273 -1.1203
  716MPD2    H310643   1.331   1.768  10.172  0.1022  0.0384 -0.4658
  716MPD2     N10644   1.405   1.711   9.748  0.1246 -0.1774 -0.5271
  716MPD2    H510645   1.404   1.748   9.653 -1.4062  0.3310 -0.3159
  716MPD2    N110646   1.429   2.165   9.949 -0.4189 -0.1188  0.6177
  716MPD2    H710647   1.425   2.218  10.036  1.6473 -1.4935  1.5450
  717TMC3    C110648   1.408   1.517   9.622 -0.3427  0.7444  0.3511
  717TMC3    C210649   1.353   1.584   9.518 -0.1988  0.3253  0.0697
  717TMC3    C310650   1.312   1.513   9.408  0.6151 -0.2978 -0.4371
  717TMC3    C410651   1.459   1.392   9.602  0.7002 -0.3419  0.2492
  717TMC3    C510652   1.440   1.328   9.486  0.2524  0.1377  0.0147
  717TMC3    C610653   1.373   1.388   9.383 -0.3211  0.6909  0.5844
  717TMC3     C10654   1.431   1.578   9.751  0.3371 -0.5583  0.0063
  717TMC3     O10655   1.459   1.509   9.848  0.0401  0.0173  0.2890
  717TMC3     H10656   1.308   1.682   9.527  1.6679  1.4884 -3.4898
  717TMC3    H110657   1.508   1.352   9.691 -1.0608  1.2060  1.9312
  717TMC3    H210658   1.382   1.341   9.286 -1.5982  0.0827  0.7651
  717TMC3    C710659   1.457   1.189   9.472  0.7397 -0.0264 -0.0890
  717TMC3    C810660   1.248   1.578   9.302 -0.0489  0.5827 -0.1088
  717TMC3    O110661   1.390   1.133   9.387  0.0600 -0.5724  0.0780
  717TMC3    O210662   1.220   1.694   9.329  0.2255 -0.2258 -0.1725
  718MPD2     C10663   0.036   0.917  12.318  0.8834 -0.3165  0.2131
  718MPD2    C110664   0.062   0.785  12.336 -0.6471  0.1761 -0.8199
  718MPD2    C210665   0.074   0.739  12.465 -0.7566  0.1162 -0.0564
  718MPD2    C310666   0.053   0.824  12.576  0.2655  0.1284  0.6164
  718MPD2    C410667   0.028   0.963  12.555  1.0019 -0.0663 -1.1007
  718MPD2    C510668   0.026   1.005  12.424 -0.2241  0.4558 -0.2352
  718MPD2     H10669   0.105   0.636  12.480 -0.4034  0.4351  1.4374
  718MPD2    H110670   0.037   1.036  12.635 -3.1427 -1.5145  0.6177
  718MPD2    H210671   0.037   0.956  12.217  0.2938 -2.2985 -0.5370
  718MPD2    H310672   0.014   1.111  12.405  1.3655  0.5835 -0.5514
  718MPD2     N10673   0.078   0.774  12.706 -0.6413  0.0304 -0.1273
  718MPD2    H510674   0.110   0.678  12.699 -2.2234 -0.5544  0.7180
  718MPD2    N110675   0.089   0.695  12.229 -0.0889  0.2986  0.0636
  718MPD2    H710676   0.109   0.599  12.254 -1.4788  0.0887  0.4144
  719TMC3    C110677   0.188   0.610  12.043 -0.3984  0.2343  0.7216
  719TMC3    C210678   0.173   0.494  12.116 -0.2998 -0.7435 -0.1889
  719TMC3    C310679   0.280   0.413  12.143  0.2594  0.1364 -0.3029
  719TMC3    C410680   0.313   0.642  11.995 -0.1444  0.0577  0.2381
  719TMC3    C510681   0.417   0.559  12.021  0.3075 -0.1390  0.3018
  719TMC3    C610682   0.403   0.447  12.098  0.4119 -0.3644 -0.7011
  719TMC3     C10683   0.135   0.733  12.106  1.6347  0.1018  0.2824
  719TMC3     O10684   0.164   0.842  12.060 -0.1714 -0.1077 -0.0493
  719TMC3     H10685   0.072   0.460  12.136 -0.8623  0.9699 -0.1074
  719TMC3    H110686   0.319   0.723  11.924 -0.2766  0.6000  0.8504
  719TMC3    H210687   0.488   0.390  12.132  0.8268  1.6181  1.6073
  719TMC3    C710688   0.553   0.610  12.012 -0.1460  0.3885  0.3768
  719TMC3    C810689   0.268   0.377  12.283 -0.0620  0.2620 -0.2886
  719TMC3    O110690   0.649   0.535  12.034  0.1426 -0.6350 -0.0373
  719TMC3    O210691   0.166   0.419  12.334  0.9926  0.0153  0.5402
  720MPD2     C10692   3.774   2.392  14.148 -0.3181 -0.0465  0.1158
  720MPD2    C110693   3.877   2.419  14.058 -0.6783  0.1213 -0.4997
  720MPD2    C210694   4.005   2.399  14.110 -0.5967  0.3772  0.4610
  720MPD2    C310695   4.031   2.381  14.244 -0.1770 -0.1808 -0.0608
  720MPD2    C410696   3.924   2.382  14.330  0.7757 -0.7004 -0.4554
  720MPD2    C510697   3.801   2.384  14.280  0.0803  0.4686 -0.5813
  720MPD2     H10698   4.095   2.401  14.049  0.2731  0.4891  1.7499
  720MPD2    H110699   3.931   2.364  14.436  0.8872  5.9912  0.6417
  720MPD2    H210700   3.669   2.403  14.122 -0.6781 -0.2451  1.4987
  720MPD2    H310701   3.718   2.371  14.347  1.4708 -0.9563  0.8470
  720MPD2     N10702   4.162   2.379  14.287 -0.4115  0.5838 -0.0691
  720MPD2    H510703   4.235   2.390  14.217 -0.0412 -0.3098  0.1666
  720MPD2    N110704   3.866   2.453  13.917 -0.1708  0.4928 -0.1222
  720MPD2    H710705   3.953   2.478  13.871  0.9864 -2.1980  0.6252
  721TMC3    C110706   4.346   2.377  14.426  0.6185 -0.8425 -0.1890
  721TMC3    C210707   4.398   2.464  14.517 -0.2968  0.4811 -0.6370
  721TMC3    C310708   4.533   2.489  14.505  0.3914  0.5071  0.3987
  721TMC3    C410709   4.426   2.315  14.334  0.5705 -0.0723  0.5619
  721TMC3    C510710   4.557   2.342  14.325 -0.8400 -0.2157 -0.0811
  721TMC3    C610711   4.612   2.430  14.411 -0.3251 -0.2229 -0.4949
  721TMC3     C10712   4.202   2.367  14.419  0.3622  0.6528  0.2673
  721TMC3     O10713   4.138   2.391  14.522 -0.1891  0.6536  0.2645
  721TMC3     H10714   4.348   2.503  14.604 -0.9815 -0.6455 -0.5229
  721TMC3    H110715   4.385   2.252  14.256 -1.0007  0.8164  0.6756
  721TMC3    H210716   4.719   2.447  14.415 -0.4459  0.3053  0.4487
  721TMC3    C710717   4.638   2.316  14.204 -0.0999  0.0890  0.6912
  721TMC3    C810718   4.601   2.578  14.602 -0.4349  0.1215  0.3174
  721TMC3    O110719   0.005   2.372  14.200 -0.5214 -0.3967 -0.1333
  721TMC3    O210720   4.723   2.588  14.603  0.2423 -0.7556 -0.0828
  722MPD2     C10721   2.450   0.945  13.416 -0.3818 -0.6371  0.2937
  722MPD2    C110722   2.441   1.069  13.362 -0.6310  0.3881 -0.8403
  722MPD2    C210723   2.336   1.104  13.280 -0.3119  0.6438  0.4189
  722MPD2    C310724   2.247   1.007  13.239 -0.3921  0.0781  0.0637
  722MPD2    C410725   2.252   0.887  13.300  0.1639 -0.1521  0.2165
  722MPD2    C510726   2.350   0.853  13.386  0.3738 -0.2212  0.2645
  722MPD2     H10727   2.326   1.201  13.232  0.2994  1.0644  1.1517
  722MPD2    H110728   2.171   0.816  13.287 -0.7538  0.2724  3.6324
  722MPD2    H210729   2.530   0.928  13.488 -0.1185  0.1587  0.1829
  722MPD2    H310730   2.348   0.760  13.441  1.7659 -0.9165 -0.8454
  722MPD2     N10731   2.148   1.037  13.142 -0.4758  0.2039 -0.3831
  722MPD2    H510732   2.145   1.133  13.110 -2.8135 -0.0666 -0.9429
  722MPD2    N110733   2.541   1.171  13.383 -0.1470 -0.3120 -0.4881
  722MPD2    H710734   2.519   1.259  13.338 -2.8145  0.0926  1.6007
  723TMC3    C110735   1.968   1.005  12.989 -0.0197  0.3465  0.4000
  723TMC3    C210736   1.872   0.915  12.952 -0.2670 -0.2484  0.4267
  723TMC3    C310737   1.753   0.965  12.909  0.4376 -0.6115  0.8725
  723TMC3    C410738   1.942   1.140  12.981  0.3344 -0.1289  0.2547
  723TMC3    C510739   1.823   1.183  12.928 -0.7835 -0.6139  0.6058
  723TMC3    C610740   1.725   1.097  12.888 -0.7056 -0.9555  0.0880
  723TMC3     C10741   2.063   0.948  13.082 -0.5749  0.0429  0.3336
  723TMC3     O10742   2.062   0.822  13.087 -0.9013 -0.3986 -0.3107
  723TMC3     H10743   1.890   0.808  12.950  0.1778 -0.2077  1.9162
  723TMC3    H110744   2.016   1.216  13.003 -0.2573  0.3558  0.5872
  723TMC3    H210745   1.630   1.131  12.850 -2.6974 -3.6118  2.6703
  723TMC3    C710746   1.800   1.321  12.888 -0.3488  1.0837 -0.3852
  723TMC3    C810747   1.666   0.880  12.844 -0.4497  0.0596  0.1096
  723TMC3    O110748   1.749   1.347  12.780 -0.0295  0.4919 -0.1228
  723TMC3    O210749   1.545   0.887  12.869  0.6416 -0.0354 -0.0686
  724TMC3    C110750   2.791   4.048  10.202  0.2792  0.0269 -0.2356
  724TMC3    C210751   2.773   4.137  10.105 -0.4400 -0.0267 -0.6393
  724TMC3    C310752   2.859   4.245  10.103 -0.7977 -0.2948  0.2066
  724TMC3    C410753   2.900   4.056  10.286  0.4148 -0.0098 -0.4201
  724TMC3    C510754   2.988   4.155  10.269 -0.0544 -0.3983  0.4226
  724TMC3    C610755   2.970   4.253  10.176 -0.3895 -0.0139 -0.4913
  724TMC3     C10756   2.710   3.926  10.203  0.6495 -0.5531 -0.8953
  724TMC3     O10757   2.721   3.860  10.302  0.5008  0.1056 -0.3917
  724TMC3     H10758   2.666   4.156  10.098 -0.5403 -0.5179 -0.4633
  724TMC3    H110759   2.911   3.990  10.372 -0.6043 -1.8761 -1.7184
  724TMC3    H210760   3.041   4.336  10.179 -0.9768  0.4675 -0.0652
  724TMC3    C710761   3.120   4.146  10.314  0.6380  0.1836 -0.3494
  724TMC3    C810762   2.813   4.353  10.010 -0.0623  0.3010 -0.4896
  724TMC3    O110763   3.177   4.249  10.335  0.4468 -0.3623 -0.1071
  724TMC3    O210764   2.689   4.366  10.004  0.3879  0.0951  0.3463
  725TMC3    C110765   4.564   2.651  12.544 -0.3953 -0.1606 -0.1691
  725TMC3    C210766   4.457   2.698  12.469 -0.0880 -0.3495  0.2522
  725TMC3    C310767   4.410   2.606  12.379 -0.6636  0.5557 -0.1162
  725TMC3    C410768   4.610   2.517  12.544 -0.1903 -0.1655 -0.0764
  725TMC3    C510769   4.549   2.430  12.459 -0.2175  0.4403  0.2948
  725TMC3    C610770   4.451   2.472  12.371 -1.1950  0.7294  0.6451
  725TMC3     C10771   4.655   2.746  12.595 -0.6388  0.5925  0.0339
  725TMC3     O10772   4.604   2.853  12.624 -0.3776 -0.6287 -0.3902
  725TMC3     H10773   4.434   2.803  12.457 -0.9503 -0.7731 -1.8631
  725TMC3    H110774   4.682   2.484  12.619 -0.7822 -3.4550 -0.9419
  725TMC3    H210775   4.415   2.411  12.289 -1.6267  2.7241 -0.6248
  725TMC3    C710776   4.599   2.295  12.461 -0.0628 -0.7695  0.6144
  725TMC3    C810777   4.320   2.652  12.278  0.2279  0.0436 -0.5084
  725TMC3    O110778   4.713   2.281  12.505  0.1331  0.4765  0.6405
  725TMC3    O210779   4.265   2.566  12.217  0.4283 -0.8960 -0.5825
  726MPD2     C10780   2.229   4.477  10.470  0.0779 -0.0659  0.7024
  726MPD2    C110781   2.128   4.542  10.403  0.3288 -0.5158  0.2130
  726MPD2    C210782   2.003   4.487  10.416 -0.3808  0.1689 -0.9069
  726MPD2    C310783   1.979   4.373  10.495  0.9589 -0.1466 -0.1551
  726MPD2    C410784   2.083   4.309  10.554  0.1975 -0.4184  0.5035
  726MPD2    C510785   2.203   4.367  10.548 -0.7332  0.2000 -0.1476
  726MPD2     H10786   1.921   4.537  10.365 -1.5434 -1.9068 -1.0634
  726MPD2    H110787   2.071   4.221  10.617 -1.1830  1.1786  2.4719
  726MPD2    H210788   2.332   4.509  10.483  0.4228 -1.1883  0.7736
  726MPD2    H310789   2.283   4.319  10.603 -0.1748  0.9000 -0.3569
  726MPD2     N10790   1.847   4.323  10.516 -0.3499 -0.4202  0.5625
  726MPD2    H510791   1.829   4.246  10.579 -0.1388 -2.0960 -1.4209
  726MPD2    N110792   2.157   4.664  10.339 -0.8615  0.5907  0.2787
  726MPD2    H710793   2.082   4.717  10.296  0.7719  2.6980  0.0170
  727TMC3    C110794   2.272   0.106  10.253 -0.7056  0.5954  0.1033
  727TMC3    C210795   2.366   0.203  10.272 -0.2628  0.1803  0.0793
  727TMC3    C310796   2.377   0.317  10.196 -0.3882 -0.8608  0.3879
  727TMC3    C410797   2.183   0.127  10.154 -0.4817 -0.2401 -0.6167
  727TMC3    C510798   2.209   0.222  10.061  0.8410  0.0646 -0.5489
  727TMC3    C610799   2.307   0.318  10.079 -0.5965 -0.4316  0.1363
  727TMC3     C10800   2.276   4.729  10.342 -0.1051 -0.6853 -0.2177
  727TMC3     O10801   2.379   4.715  10.408 -0.0220 -0.0481 -0.5905
  727TMC3     H10802   2.429   0.203  10.360 -0.3445 -0.9753  0.1411
  727TMC3    H110803   2.098   0.060  10.147 -1.2289  0.7061 -0.5457
  727TMC3    H210804   2.338   0.398  10.012 -1.5647 -0.0002  0.1948
  727TMC3    C710805   2.103   0.257   9.972 -0.0202 -0.0573  0.4763
  727TMC3    C810806   2.469   0.426  10.245 -0.3422 -0.2155 -0.1540
  727TMC3    O110807   2.000   0.197   9.994  0.1396  0.0375 -0.6362
  727TMC3    O210808   2.549   0.393  10.337  0.2164  0.0905  0.7029
  728TMC3    C110809   1.510   3.095  15.645  0.3366 -0.4619  0.7113
  728TMC3    C210810   1.648   3.090  15.653  0.0975  0.1020 -0.2960
  728TMC3    C310811   1.724   3.131  15.542 -0.1367  0.1624 -0.3385
  728TMC3    C410812   1.443   3.124  15.530 -0.8883  0.3958  0.1779
  728TMC3    C510813   1.519   3.158  15.425  0.4509 -0.2298  0.1157
  728TMC3    C610814   1.660   3.165  15.430  0.1641  0.2311 -0.2078
  728TMC3     C10815   1.438   3.049  15.762 -0.9552 -0.2957  0.1812
  728TMC3     O10816   1.493   3.078  15.868 -0.3991  0.4668  0.2285
  728TMC3     H10817   1.699   3.064  15.745 -0.7419  1.7014  0.6244
  728TMC3    H110818   1.336   3.129  15.519 -1.0800 -2.1285  0.7980
  728TMC3    H210819   1.718   3.203  15.346 -1.3836  1.0751 -0.9052
  728TMC3    C710820   1.441   3.203  15.314  0.4118  0.3381  0.2643
  728TMC3    C810821   1.875   3.121  15.543  0.2285 -1.0612 -0.3701
  728TMC3    O110822   1.320   3.215  15.320  0.1187 -0.3870  0.0518
  728TMC3    O210823   1.931   3.136  15.437 -0.5494  0.1210 -0.1607
  729MPD2     C10824   4.733   3.786  16.595  0.2450 -0.0541 -0.0532
  729MPD2    C110825   4.606   3.829  16.594  0.8329  0.0332 -0.5241
  729MPD2    C210826   4.568   3.898  16.703 -0.2865  0.4457  0.6985
  729MPD2    C310827   4.660   3.949  16.799 -0.6404  0.0200  0.2727
  729MPD2    C410828   0.059   3.900  16.794 -0.2335  0.3605 -0.0910
  729MPD2    C510829   0.086   3.808  16.699  0.0827 -0.0959 -0.7033
  729MPD2     H10830   4.463   3.918  16.723 -0.1563  0.9091  0.8974
  729MPD2    H110831   0.133   3.922  16.870 -1.2927  1.4834  0.6274
  729MPD2    H210832   0.027   3.723  16.512  1.2959 -0.9188  1.0133
  729MPD2    H310833   0.177   3.753  16.721  1.6586  2.6740 -0.3035
  729MPD2     N10834   4.622   4.037  16.904 -0.3447 -0.0692 -0.4694
  729MPD2    H510835   4.698   4.055  16.969  0.9943 -0.1167 -2.0396
  729MPD2    N110836   4.520   3.791  16.488  0.0811 -0.2930  0.6281
  729MPD2    H710837   4.567   3.734  16.418 -1.3886 -1.0949  0.2937
  730TMC3    C110838   4.498   4.204  17.021  0.5942 -0.2007 -0.1151
  730TMC3    C210839   4.597   4.302  17.010  0.5219  0.2678 -0.4180
  730TMC3    C310840   4.573   4.424  17.057  0.5478 -0.0823  0.1461
  730TMC3    C410841   4.373   4.237  17.069 -0.2810 -0.1583  0.2274
  730TMC3    C510842   4.352   4.368  17.108 -1.0213  0.4523 -0.5952
  730TMC3    C610843   4.457   4.460  17.113  0.1701  0.1664 -0.3045
  730TMC3     C10844   4.497   4.093  16.927  0.5392 -0.0176  0.1721
  730TMC3     O10845   4.391   4.083  16.860 -0.3737 -0.1835 -0.1459
  730TMC3     H10846   4.686   4.277  16.954 -0.3415  1.8185 -2.5089
  730TMC3    H110847   4.289   4.169  17.056 -1.0738  1.1423 -1.3523
  730TMC3    H210848   4.431   4.560  17.146 -1.0677 -0.9153  2.0132
  730TMC3    C710849   4.216   4.407  17.150 -0.3178 -0.1133  1.3823
  730TMC3    C810850   4.643   4.526  16.986  0.2379  0.3431  0.2541
  730TMC3    O110851   4.213   4.516  17.202  0.0047 -0.4689 -0.2383
  730TMC3    O210852   4.708   4.486  16.888  0.2250 -0.1042  0.8154
  731MPD2     C10853   3.589   2.245  12.190 -0.0706  0.2272 -0.2549
  731MPD2    C110854   3.696   2.163  12.198  0.2743  0.0555 -0.6292
  731MPD2    C210855   3.714   2.070  12.302  0.1005  0.2073  0.6971
  731MPD2    C310856   3.615   2.068  12.404 -0.2317 -0.4898  0.3503
  731MPD2    C410857   3.520   2.160  12.398  0.3344 -0.4978  0.7262
  731MPD2    C510858   3.499   2.249  12.296  0.3248 -0.3823 -0.6058
  731MPD2     H10859   3.800   2.004  12.309 -0.0247  0.0233  0.5049
  731MPD2    H110860   3.448   2.173  12.478 -1.7216 -1.5285 -0.9437
  731MPD2    H210861   3.569   2.301  12.099  3.3914  0.8100 -0.6377
  731MPD2    H310862   3.424   2.327  12.303 -1.4902 -2.1575 -0.1433
  731MPD2     N10863   3.640   1.982  12.513  0.1309 -0.2437 -0.8000
  731MPD2    H510864   3.720   1.922  12.499  0.6811  0.0048  1.2296
  731MPD2    N110865   3.798   2.164  12.094  0.2064 -0.6695 -0.7671
  731MPD2    H710866   3.773   2.224  12.016  0.6443  0.5239  0.0065
  732TMC3    C110867   4.007   2.143  11.982  0.0656 -0.5269 -0.7557
  732TMC3    C210868   3.940   2.159  11.862 -0.7894 -0.5824 -0.1422
  732TMC3    C310869   3.996   2.224  11.759  0.4575 -0.2592  0.2502
  732TMC3    C410870   4.134   2.200  11.999  0.0677 -0.3121  0.5594
  732TMC3    C510871   4.185   2.262  11.891  0.5236  0.0372  0.2321
  732TMC3    C610872   4.124   2.277  11.767 -0.5286  0.2107  0.0381
  732TMC3     C10873   3.925   2.108  12.099  0.1853 -0.1187  0.4314
  732TMC3     O10874   3.986   2.054  12.189  0.4789  0.1487 -0.2587
  732TMC3     H10875   3.844   2.108  11.859 -0.0134 -2.0513 -0.0187
  732TMC3    H110876   4.172   2.200  12.101  0.5743 -0.8287  0.3711
  732TMC3    H210877   4.178   2.325  11.686 -2.2540 -0.6551 -1.6144
  732TMC3    C710878   4.301   2.345  11.916 -1.3668  0.1793 -0.2831
  732TMC3    C810879   3.925   2.206  11.632 -0.0816 -0.0440  0.4316
  732TMC3    O110880   4.314   2.448  11.851 -0.9831  0.3558  0.4207
  732TMC3    O210881   3.993   2.171  11.535 -0.3007 -0.2424  0.4062
  733TMC3    C110882   4.722   0.582  13.088  0.3736  1.0747 -0.4580
  733TMC3    C210883   4.731   0.707  13.030  0.3588  0.4620  0.2305
  733TMC3    C310884   0.089   0.736  12.936 -0.0538  0.4663 -0.3545
  733TMC3    C410885   0.069   0.482  13.057  0.2691  0.0006  0.1277
  733TMC3    C510886   0.165   0.509  12.962  0.2102 -0.1392  0.3047
  733TMC3    C610887   0.169   0.632  12.896  0.7116  0.1531  0.2658
  733TMC3     C10888   4.598   0.549  13.149 -0.6271  0.4147  0.3504
  733TMC3     O10889   4.501   0.618  13.116  0.9560 -0.0386  0.0634
  733TMC3     H10890   4.653   0.780  13.041 -0.9334 -0.9501  0.4103
  733TMC3    H110891   0.059   0.387  13.108 -1.2666 -0.7676 -1.6315
  733TMC3    H210892   0.250   0.655  12.828  2.3556 -1.5007  1.6687
  733TMC3    C710893   0.265   0.411  12.925  0.1645 -0.4018 -0.3615
  733TMC3    C810894   0.052   0.827  12.831 -0.2437 -0.5812  0.1818
  733TMC3    O110895   0.310   0.336  13.008  0.8818 -0.3590  0.0794
  733TMC3    O210896   4.718   0.921  12.860 -0.2989 -0.2895 -0.4368
  734MPD2     C10897   2.505   3.206  12.178 -0.2336 -0.2046 -0.6028
  734MPD2    C110898   2.375   3.188  12.132  0.6394  0.0458  0.5308
  734MPD2    C210899   2.330   3.242  12.016  0.0109 -0.3901 -0.1401
  734MPD2    C310900   2.418   3.313  11.940 -0.1890 -0.2699  0.0025
  734MPD2    C410901   2.547   3.331  11.988 -0.0222 -0.8497 -0.5639
  734MPD2    C510902   2.598   3.277  12.104 -0.2965 -0.3243  0.0545
  734MPD2     H10903   2.228   3.243  11.977  0.5744 -0.7165 -1.6166
  734MPD2    H110904   2.610   3.389  11.921 -0.1636 -1.1653 -0.9745
  734MPD2    H210905   2.528   3.187  12.282 -3.1941 -0.6848 -0.0277
  734MPD2    H310906   2.699   3.300  12.135 -0.5012  1.1875 -0.4187
  734MPD2     N10907   2.372   3.356  11.811  0.3383 -1.1078  0.0688
  734MPD2    H510908   2.271   3.347  11.800  0.3213  0.8739 -1.5212
  734MPD2    N110909   2.297   3.109  12.212  0.3093 -0.0470  0.1007
  734MPD2    H710910   2.338   3.074  12.298  0.6328  0.9150  0.3351
  735TMC3    C110911   2.111   2.984  12.281  0.9330  0.0190 -0.3396
  735TMC3    C210912   1.993   2.934  12.231  0.0908 -0.6449  0.1674
  735TMC3    C310913   1.976   2.801  12.215  0.6113 -0.0489  0.4226
  735TMC3    C410914   2.207   2.904  12.335 -0.1453  0.1093  0.6965
  735TMC3    C510915   2.182   2.772  12.320 -0.0894  0.0768 -0.3417
  735TMC3    C610916   2.076   2.721  12.253 -0.7323  0.1609  0.2965
  735TMC3     C10917   2.161   3.090  12.196 -0.1232 -0.4856 -0.0826
  735TMC3     O10918   2.087   3.155  12.120  0.3365 -0.3815  0.0750
  735TMC3     H10919   1.919   3.008  12.206  0.8394  0.4910  1.3542
  735TMC3    H110920   2.286   2.938  12.401  0.9806  0.8304 -1.0277
  735TMC3    H210921   2.059   2.615  12.241 -1.6741  0.0471  2.5210
  735TMC3    C710922   2.290   2.686  12.324 -0.0523  0.5001  0.6481
  735TMC3    C810923   1.934   2.777  12.080  0.0076 -0.4456  0.4685
  735TMC3    O110924   2.392   2.752  12.304 -0.2549  0.3678  0.4083
  735TMC3    O210925   1.932   2.658  12.043 -0.0260  0.5780 -0.5856
  736MPD2     C10926   2.330   2.349  12.458 -0.6765 -0.4865 -0.1667
  736MPD2    C110927   2.362   2.455  12.379  0.1077  0.0834  0.3038
  736MPD2    C210928   2.475   2.463  12.308  0.3425  0.5321 -0.8643
  736MPD2    C310929   2.573   2.369  12.325 -0.1274  0.6168 -0.1434
  736MPD2    C410930   2.543   2.258  12.401 -0.2790 -0.1876  0.7431
  736MPD2    C510931   2.421   2.244  12.468 -0.5020  0.0508  0.2565
  736MPD2     H10932   2.485   2.549  12.242 -0.2287  1.4735  0.2771
  736MPD2    H110933   2.612   2.176  12.415 -0.7056 -0.9333 -1.4665
  736MPD2    H210934   2.233   2.345  12.506 -1.9350 -0.9242 -2.7380
  736MPD2    H310935   2.408   2.160  12.535  0.1441  1.1287  1.7431
  736MPD2     N10936   2.693   2.372  12.247  0.2713 -0.6321  0.0538
  736MPD2    H510937   2.744   2.286  12.235 -0.5370 -0.6792 -3.2184
  736MPD2    N110938   2.272   2.562  12.375 -0.1966 -0.4464 -0.1572
  736MPD2    H710939   2.178   2.548  12.411 -0.6623 -0.5139 -1.3851
  737TMC3    C110940   2.835   2.451  12.075  0.0605  0.3834  0.1050
  737TMC3    C210941   2.919   2.556  12.054  0.4140 -0.2959  0.4482
  737TMC3    C310942   2.973   2.569  11.928  0.5042  0.1033  0.2460
  737TMC3    C410943   2.793   2.363  11.977 -0.2599 -0.0750 -0.5326
  737TMC3    C510944   2.864   2.365  11.862 -0.1232  0.1098  0.6501
  737TMC3    C610945   2.956   2.468  11.833  0.2772  0.3705 -0.2876
  737TMC3     C10946   2.733   2.485  12.173 -0.2302 -0.2258 -0.5052
  737TMC3     O10947   2.698   2.602  12.197 -0.1429  0.3016 -0.0755
  737TMC3     H10948   2.947   2.627  12.131 -0.3322  1.3464 -0.7843
  737TMC3    H110949   2.719   2.286  11.993  2.6879 -2.5275  1.3571
  737TMC3    H210950   3.006   2.473  11.737  1.1102  1.5806  0.2095
  737TMC3    C710951   2.826   2.269  11.758 -0.4113  0.4758  0.3714
  737TMC3    C810952   3.061   2.674  11.905 -0.1938 -0.1665 -0.2028
  737TMC3    O110953   2.720   2.209  11.770 -0.2711  0.3237 -0.7706
  737TMC3    O210954   3.153   2.686  11.980 -0.5937  0.2434  0.2030
  738MPD2     C10955   2.867   1.629  14.737  0.7686 -0.8576 -1.2661
  738MPD2    C110956   2.915   1.542  14.833  0.3150  0.2231 -0.0357
  738MPD2    C210957   3.040   1.567  14.891 -0.6492 -0.1761 -0.2216
  738MPD2    C310958   3.117   1.686  14.863  0.2495 -0.3164 -0.1580
  738MPD2    C410959   3.059   1.770  14.770  0.4811 -0.1026 -0.7389
  738MPD2    C510960   2.947   1.738  14.699 -0.2104 -0.2244 -0.2345
  738MPD2     H10961   3.077   1.510  14.976  1.0155  0.5500 -0.4497
  738MPD2    H110962   3.104   1.868  14.754 -1.9904  1.1552  0.0608
  738MPD2    H210963   2.775   1.615  14.682  0.4474  0.2271 -0.9978
  738MPD2    H310964   2.918   1.813  14.626 -0.3392 -0.6325 -0.6035
  738MPD2     N10965   3.249   1.719  14.897  0.4519 -0.6968 -0.0515
  738MPD2    H510966   3.287   1.804  14.858  0.9549 -1.7297 -1.7986
  738MPD2    N110967   2.844   1.422  14.871 -0.3953  0.0772 -0.4405
  738MPD2    H710968   2.875   1.381  14.958  0.5586  0.0820 -0.7671
  739TMC3    C110969   3.475   1.694  14.965  0.0630  0.1861  0.1040
  739TMC3    C210970   3.551   1.656  14.853  0.4841  0.2379 -0.0714
  739TMC3    C310971   3.644   1.734  14.801 -0.5583  0.0716  0.0780
  739TMC3    C410972   3.493   1.817  15.021  0.0982 -0.3562  0.5504
  739TMC3    C510973   3.601   1.889  14.970 -0.0296 -0.1279 -0.5355
  739TMC3    C610974   3.679   1.845  14.865 -0.6798  0.3722  0.3347
  739TMC3     C10975   3.335   1.641  14.968  0.7830  0.3698  0.2710
  739TMC3     O10976   3.320   1.527  15.008 -0.0178  0.2466  0.0877
  739TMC3     H10977   3.509   1.572  14.798 -0.1180 -0.3622  1.3102
  739TMC3    H110978   3.422   1.849  15.096  1.2056  0.0509  1.4212
  739TMC3    H210979   3.760   1.914  14.842  0.4823 -1.7949 -2.0070
  739TMC3    C710980   3.669   1.976  15.062  0.1003 -0.1062  0.3343
  739TMC3    C810981   3.644   1.737  14.659  1.0043  0.9865 -0.0618
  739TMC3    O110982   3.745   2.056  15.009  0.2318 -0.3138  0.0484
  739TMC3    O210983   3.566   1.661  14.606 -0.1459 -0.4503 -0.3391
  740TMC3    C110984   3.883   2.771  14.314 -0.0129  0.1841  0.8357
  740TMC3    C210985   3.902   2.721  14.438  0.2898  0.1803  0.0907
  740TMC3    C310986   4.035   2.705  14.474 -0.5943 -0.6775  0.4326
  740TMC3    C410987   3.985   2.781  14.223  0.0031 -0.1508  0.3708
  740TMC3    C510988   4.111   2.752  14.257 -0.0351  0.4029 -0.1674
  740TMC3    C610989   4.143   2.715  14.387  0.8357 -0.5005  0.1013
  740TMC3     C10990   3.751   2.769  14.253  0.0532 -0.2708  0.1233
  740TMC3     O10991   3.733   2.837  14.155  0.5446 -0.2550 -0.0318
  740TMC3     H10992   3.830   2.722  14.520 -0.1830  1.3935 -0.3432
  740TMC3    H110993   3.966   2.797  14.118  1.6704 -0.3085  0.0527
  740TMC3    H210994   4.247   2.700  14.415  1.0201  1.0209  0.2028
  740TMC3    C710995   4.207   2.698  14.155 -0.6169  0.3373 -0.6381
  740TMC3    C810996   4.080   2.664  14.608 -0.9171 -0.2107  0.5008
  740TMC3    O110997   4.293   2.630  14.210  0.6458  0.0604 -0.2513
  740TMC3    O210998   4.197   2.685  14.637  0.7523 -0.4857  0.0424
  741TMC3    C110999   3.277   2.152  14.363 -0.9472 -0.2164 -0.5105
  741TMC3    C211000   3.194   2.049  14.320 -0.2141  0.2141 -0.3118
  741TMC3    C311001   3.200   1.930  14.387  1.4320  0.3024  0.1178
  741TMC3    C411002   3.374   2.131  14.464  0.1529 -0.1747 -0.0954
  741TMC3    C511003   3.377   2.008  14.525  0.1173  0.2519  0.6101
  741TMC3    C611004   3.295   1.907  14.488 -0.6961  0.1099  0.6349
  741TMC3     C11005   3.313   2.258  14.271  0.1953 -0.2855 -0.0785
  741TMC3     O11006   3.431   2.291  14.279  0.1132  0.5473 -0.3487
  741TMC3     H11007   3.136   2.058  14.229  0.7773  0.3108 -0.9292
  741TMC3    H111008   3.450   2.205  14.488  1.6331 -2.0484  0.8952
  741TMC3    H211009   3.306   1.805  14.524 -2.5771 -1.2928 -2.7534
  741TMC3    C711010   3.381   2.022  14.667 -0.5798  0.9224 -0.1448
  741TMC3    C811011   3.097   1.831  14.343 -0.8474 -0.2402  0.7012
  741TMC3    O111012   3.330   1.929  14.730  0.6406  0.7832 -0.3075
  741TMC3    O211013   3.029   1.859  14.246 -0.1453 -0.4416  0.4048
  742TMC3    C111014   3.290   0.769  15.562  0.1604 -0.5271 -0.0165
  742TMC3    C211015   3.177   0.739  15.496  0.0878 -0.1105 -0.6521
  742TMC3    C311016   3.188   0.742  15.354  0.7337  0.1800  0.7588
  742TMC3    C411017   3.405   0.816  15.503  0.0844  0.8568 -0.0005
  742TMC3    C511018   3.403   0.831  15.367  0.4783  0.2449 -0.0298
  742TMC3    C611019   3.294   0.790  15.290 -0.4025 -0.2640  0.0308
  742TMC3     C11020   3.284   0.751  15.705 -0.1371  0.1319  0.9384
  742TMC3     O11021   3.186   0.697  15.763  0.2925 -0.5254  0.3512
  742TMC3     H11022   3.104   0.676  15.546  1.4045 -0.5867  0.6721
  742TMC3    H111023   3.495   0.826  15.564 -1.6451  0.5039  2.6056
  742TMC3    H211024   3.285   0.811  15.184  0.5090  1.5999  0.3161
  742TMC3    C711025   3.527   0.817  15.296 -0.4037  0.2299 -0.6115
  742TMC3    C811026   3.101   0.658  15.275 -0.8229  0.1130  1.0312
  742TMC3    O111027   3.517   0.755  15.192  0.0578 -0.7707  0.0562
  742TMC3    O211028   3.135   0.626  15.165 -0.1929  0.8337  0.3104
  743MPD2     C11029   1.175   0.998   1.600  0.2128 -0.4436  0.0540
  743MPD2    C111030   1.246   1.054   1.498  0.2184  0.1248  0.3845
  743MPD2    C211031   1.334   0.979   1.426 -0.7020  0.6031  0.5415
  743MPD2    C311032   1.350   0.841   1.452  0.0357 -0.2790 -0.0506
  743MPD2    C411033   1.286   0.784   1.560 -0.0011  0.4280 -0.6447
  743MPD2    C511034   1.198   0.865   1.626 -0.8343  0.1555  0.3445
  743MPD2     H11035   1.397   1.022   1.348  0.0270  0.3567  0.9955
  743MPD2    H111036   1.288   0.680   1.591 -0.3409  0.1594 -1.5121
  743MPD2    H211037   1.101   1.058   1.653  2.3760  0.6688  1.8112
  743MPD2    H311038   1.158   0.811   1.712 -0.1668 -1.3059 -0.2518
  743MPD2     N11039   1.449   0.774   1.378  0.0959 -0.0278  0.3895
  743MPD2    H511040   1.503   0.835   1.317 -0.0992 -0.8199 -0.5764
  743MPD2    N111041   1.209   1.190   1.458  0.2301 -0.3734  0.2180
  743MPD2    H711042   1.141   1.243   1.512  2.0075  1.7862  0.3028
  744TMC3    C111043   1.167   1.361   1.307  0.2192 -0.1723  0.3121
  744TMC3    C211044   1.106   1.438   1.404  0.1479 -0.4460 -0.2468
  744TMC3    C311045   1.002   1.515   1.356  0.0308 -0.5514  0.1229
  744TMC3    C411046   1.147   1.368   1.171  0.1262 -0.0913  0.5747
  744TMC3    C511047   1.051   1.445   1.130  0.9258 -0.1195  0.3357
  744TMC3    C611048   0.976   1.522   1.216 -0.3455  0.2575  0.1131
  744TMC3     C11049   1.257   1.250   1.343  0.4952 -0.0095 -0.1642
  744TMC3     O11050   1.354   1.236   1.273 -0.3000  1.1742 -0.1534
  744TMC3     H11051   1.138   1.435   1.508 -3.6285 -0.4557  0.9545
  744TMC3    H111052   1.190   1.288   1.112  1.0699  0.6137  0.2993
  744TMC3    H211053   0.914   1.601   1.174  0.7854  0.9685 -0.2287
  744TMC3    C711054   1.011   1.451   0.993  0.1367  0.1482 -0.8908
  744TMC3    C811055   0.937   1.608   1.448  0.4557  0.7554 -0.5920
  744TMC3    O111056   1.028   1.555   0.935 -0.3972 -0.3351 -0.7333
  744TMC3    O211057   0.905   1.713   1.395  0.2055  0.5812  0.1211
  745TMC3    C111058   3.235   0.058  13.770 -0.9616 -0.1538 -0.3156
  745TMC3    C211059   3.121   0.066  13.849  0.9274 -0.0828 -0.5034
  745TMC3    C311060   3.006   0.112  13.795  0.2903 -0.0683  0.1450
  745TMC3    C411061   3.241   0.094  13.645  0.0481 -0.7271 -0.4716
  745TMC3    C511062   3.122   0.123  13.587 -0.0059 -0.1211 -0.2076
  745TMC3    C611063   3.004   0.136  13.657  0.2475 -0.3303  0.2841
  745TMC3     C11064   3.359   0.078  13.846  0.1516  0.0047 -0.1735
  745TMC3     O11065   3.389   0.010  13.940 -0.0585  0.6228  0.1851
  745TMC3     H11066   3.118   0.036  13.953  1.7641 -1.9157 -1.0137
  745TMC3    H111067   3.330   0.079  13.584  1.6057  1.0095  1.3861
  745TMC3    H211068   2.913   0.163  13.605  0.3430 -2.1363 -0.8004
  745TMC3    C711069   3.129   0.166  13.448  0.1027 -0.3654 -0.3391
  745TMC3    C811070   2.966   0.236  13.863 -0.0398 -0.4157  1.0574
  745TMC3    O111071   3.071   0.109  13.351 -0.0288  0.0639 -0.0450
  745TMC3    O211072   2.867   0.291  13.815  0.2330  0.3524 -0.2491
  746TMC3    C111073   1.201   2.293  11.104  0.0247  0.6501 -0.1311
  746TMC3    C211074   1.303   2.287  11.016  0.0052  0.1210  0.3251
  746TMC3    C311075   1.304   2.166  10.953  0.6172 -0.1235 -0.0124
  746TMC3    C411076   1.123   2.195  11.149  0.1839 -0.5459  0.6274
  746TMC3    C511077   1.136   2.076  11.091  0.1072 -0.5416  0.6793
  746TMC3    C611078   1.221   2.064  10.988 -0.0524  0.6407  0.3218
  746TMC3     C11079   1.184   2.424  11.175  0.4624  0.4002  0.6632
  746TMC3     O11080   1.146   2.415  11.293  0.1288  0.2345 -0.1297
  746TMC3     H11081   1.375   2.365  10.993  0.4300 -0.8210 -1.6202
  746TMC3    H111082   1.051   2.212  11.228 -0.0318 -2.3943  0.8265
  746TMC3    H211083   1.229   1.972  10.931  0.9995 -0.2141  1.8359
  746TMC3    C711084   1.010   1.999  11.081 -0.5893 -0.1148  0.2679
  746TMC3    C811085   1.384   2.150  10.835  0.1478  0.4403  0.5591
  746TMC3    O111086   1.011   1.902  11.002  0.5657  0.3482  0.0489
  746TMC3    O211087   1.341   2.077  10.747  0.2143 -0.0478 -1.1317
  747TMC3    C111088   3.264   2.296  10.797  0.1128 -0.5950 -0.1084
  747TMC3    C211089   3.186   2.204  10.867 -0.1711  0.5525  0.9686
  747TMC3    C311090   3.168   2.231  11.003  0.0278 -0.7364 -0.1808
  747TMC3    C411091   3.337   2.395  10.855  0.4556 -0.0388 -0.5179
  747TMC3    C511092   3.318   2.413  10.987 -0.2763  0.0705 -0.7433
  747TMC3    C611093   3.229   2.343  11.061  0.0546  0.9824  0.5732
  747TMC3     C11094   3.284   2.282  10.655  0.3545  1.0700 -0.9039
  747TMC3     O11095   3.316   2.387  10.595 -0.1121  0.3970 -0.8405
  747TMC3     H11096   3.126   2.130  10.816 -1.0813  1.9498  0.0318
  747TMC3    H111097   3.409   2.461  10.809  0.3833  0.2058 -0.2779
  747TMC3    H211098   3.238   2.339  11.169  0.0116  2.8360  0.6411
  747TMC3    C711099   3.443   2.419  11.055  0.0379 -0.1046  0.2084
  747TMC3    C811100   3.078   2.147  11.074 -0.3340 -0.4582  0.3541
  747TMC3    O111101   3.436   2.485  11.160  0.3768 -0.1295 -0.2424
  747TMC3    O211102   3.038   2.038  11.032  0.0598 -0.1702  0.0182
  748MPD2     C11103   0.083   3.095   1.375 -0.4271 -0.1214 -0.3201
  748MPD2    C111104   0.029   3.142   1.260 -0.8642 -0.4987 -0.0937
  748MPD2    C211105   0.093   3.241   1.193  0.0248 -0.7866 -0.8917
  748MPD2    C311106   0.213   3.297   1.245 -0.0872  0.8674  0.1061
  748MPD2    C411107   0.261   3.245   1.357 -0.5651 -0.1318  0.0481
  748MPD2    C511108   0.193   3.153   1.427  0.1228 -0.1623 -0.4346
  748MPD2     H11109   0.060   3.272   1.095 -2.9098  0.6351  0.5511
  748MPD2    H111110   0.359   3.273   1.395 -0.9709  2.5112 -0.8620
  748MPD2    H211111   0.046   3.000   1.411 -0.6972  0.1053  0.0049
  748MPD2    H311112   0.231   3.111   1.519  0.6624 -1.5900 -1.3176
  748MPD2     N11113   0.282   3.386   1.165 -0.0666  0.0743  0.3168
  748MPD2    H511114   0.238   3.421   1.081 -0.1474  0.4558  0.5150
  748MPD2    N111115   4.656   3.075   1.214 -0.1100 -0.0481  0.7537
  748MPD2    H711116   4.627   3.000   1.275 -2.4349 -1.1006 -1.6232
  749TMC3    C111117   0.447   3.520   1.082  0.8694  0.0519  0.5364
  749TMC3    C211118   0.417   3.478   0.951  0.0628 -0.2139  0.5975
  749TMC3    C311119   0.488   3.536   0.851 -0.1359 -0.1606 -0.1476
  749TMC3    C411120   0.546   3.608   1.109  0.1045  0.0881  0.4055
  749TMC3    C511121   0.627   3.653   1.006  0.1616 -0.1933 -0.1701
  749TMC3    C611122   0.593   3.619   0.878  0.4575  0.3238 -0.5783
  749TMC3     C11123   0.405   3.436   1.194 -0.1722 -0.5597  0.4640
  749TMC3     O11124   0.475   3.439   1.296  0.1357 -0.0062  0.0798
  749TMC3     H11125   0.343   3.404   0.922  1.1543 -0.7213 -0.8695
  749TMC3    H111126   0.579   3.635   1.209  0.8086  1.1145 -0.1147
  749TMC3    H211127   0.649   3.654   0.792  0.0137  1.3357 -0.4533
  749TMC3    C711128   0.717   3.764   1.036  0.2331  0.0350  1.0797
  749TMC3    C811129   0.501   3.464   0.726  0.0069  0.7598  0.0813
  749TMC3    O111130   0.683   3.852   1.113  0.1133  0.5898  0.0920
  749TMC3    O211131   0.500   3.534   0.629 -0.3933 -0.2769 -0.6243
  750MPD2     C11132   1.102   4.053  11.459 -0.3106  0.7894 -0.2564
  750MPD2    C111133   1.038   3.955  11.519 -0.3676  0.2394  0.8263
  750MPD2    C211134   0.985   3.854  11.443 -0.0098 -0.2917 -0.1892
  750MPD2    C311135   1.008   3.848  11.305 -0.0528 -0.4230  0.6082
  750MPD2    C411136   1.085   3.947  11.254 -0.8568 -0.3646  0.4645
  750MPD2    C511137   1.137   4.047  11.331 -0.0127  0.0422  0.4032
  750MPD2     H11138   0.908   3.790  11.486 -0.3516  0.1201 -0.1938
  750MPD2    H111139   1.108   3.948  11.148  0.4351  0.0643  0.7543
  750MPD2    H211140   1.149   4.132  11.517 -0.0097  0.1939  0.3150
  750MPD2    H311141   1.194   4.129  11.290 -1.1544  0.2896 -0.6876
  750MPD2     N11142   0.941   3.761  11.215 -0.1871  0.1844  0.0301
  750MPD2    H511143   0.962   3.787  11.119  0.5259 -3.1960 -0.7201
  750MPD2    N111144   1.046   3.946  11.659 -1.0634 -0.0848 -0.1502
  750MPD2    H711145   1.079   4.028  11.709 -0.0594 -0.1362 -0.7435
  751TMC3    C111146   0.826   3.559  11.154  0.4113  0.0036  0.7209
  751TMC3    C211147   0.727   3.464  11.183 -0.1781 -0.6602 -0.0299
  751TMC3    C311148   0.703   3.363  11.091 -0.2330  0.6856  0.0859
  751TMC3    C411149   0.921   3.530  11.058 -0.5802 -0.0799  0.3535
  751TMC3    C511150   0.904   3.414  10.986 -0.7496  0.1094  0.1931
  751TMC3    C611151   0.792   3.337  10.989  0.3955  0.2203 -1.0357
  751TMC3     C11152   0.863   3.652  11.252 -0.4465  0.4178 -0.7262
  751TMC3     O11153   0.810   3.619  11.358 -0.3124  0.2602  0.0678
  751TMC3     H11154   0.654   3.495  11.256  0.7709  2.1064 -0.2575
  751TMC3    H111155   1.013   3.586  11.044  1.1242 -3.2058 -0.8788
  751TMC3    H211156   0.772   3.251  10.925  1.3083 -2.7202  2.5767
  751TMC3    C711157   1.013   3.379  10.907 -0.0213 -0.2707  0.5318
  751TMC3    C811158   0.625   3.254  11.128 -0.0176 -0.2101 -0.1751
  751TMC3    O111159   1.080   3.469  10.860 -0.1868  0.1616  0.0615
  751TMC3    O211160   0.598   3.186  11.035  0.5173  0.1917 -0.7874
  752TMC3    C111161   0.538   3.950  16.157  0.5544 -0.1081  0.1872
  752TMC3    C211162   0.627   3.883  16.240  0.0037  0.3909  0.0168
  752TMC3    C311163   0.644   3.923  16.372  0.3868 -0.0560 -0.3079
  752TMC3    C411164   0.469   4.060  16.208 -0.0196 -0.1455  0.2167
  752TMC3    C511165   0.482   4.094  16.337  0.3282  0.1660 -0.2582
  752TMC3    C611166   0.577   4.033  16.414  0.3615  0.2182 -0.0648
  752TMC3     C11167   0.456   3.864  16.078 -0.1094 -0.2963  0.5197
  752TMC3     O11168   0.506   3.785  16.002 -0.0466  0.1501  0.0136
  752TMC3     H11169   0.684   3.797  16.210  3.2554  1.8587  1.9719
  752TMC3    H111170   0.401   4.114  16.144 -0.2797 -1.7374 -0.8638
  752TMC3    H211171   0.575   4.062  16.519  2.0684  1.2421 -0.3201
  752TMC3    C711172   0.390   4.190  16.391  0.7337 -0.0077 -0.1221
  752TMC3    C811173   0.754   3.881  16.446 -0.0409 -0.2658 -0.4762
  752TMC3    O111174   0.300   4.214  16.316 -0.2510  0.0057 -0.0471
  752TMC3    O211175   0.852   3.833  16.385  0.8296  0.4419  0.1130
  753TMC3    C111176   1.824   4.724  13.368  0.9935  0.6632  0.1608
  753TMC3    C211177   1.842   4.683  13.498  0.3289  0.1295 -0.0080
  753TMC3    C311178   1.867   4.548  13.520 -0.5460 -0.4157  0.1114
  753TMC3    C411179   1.829   4.639  13.263 -1.1507  0.7867  0.0973
  753TMC3    C511180   1.835   4.504  13.288  0.4933 -0.5773 -0.4556
  753TMC3    C611181   1.864   4.459  13.417 -0.6543 -0.6717 -0.1905
  753TMC3     C11182   1.793   0.132  13.352 -0.4479  0.5222 -0.0436
  753TMC3     O11183   1.821   0.204  13.453  0.1704  0.4813  0.4234
  753TMC3     H11184   1.839   0.023  13.573  1.0909  0.4217 -0.2897
  753TMC3    H111185   1.831   4.668  13.158  0.6143  0.1647 -0.0484
  753TMC3    H211186   1.879   4.355  13.445  1.3942  0.3509  2.5231
  753TMC3    C711187   1.830   4.420  13.168 -0.9296  0.4965 -0.9453
  753TMC3    C811188   1.936   4.510  13.641 -0.4943  0.6103  0.0190
  753TMC3    O111189   1.763   4.475  13.077  0.5075  0.8298 -0.2892
  753TMC3    O211190   1.970   4.394  13.646 -0.0852 -0.1034 -0.3040
  754MPD2     C11191   1.042   3.457  13.036  0.3155 -0.1750 -0.0169
  754MPD2    C111192   0.971   3.351  12.991  0.7931  0.8111 -0.0734
  754MPD2    C211193   0.843   3.373  12.951 -0.4873  0.0556  0.3052
  754MPD2    C311194   0.784   3.494  12.950  0.2756  0.6224  0.9112
  754MPD2    C411195   0.857   3.602  12.991  0.1919 -0.5485 -0.2361
  754MPD2    C511196   0.984   3.579  13.030 -0.8608  0.5228 -0.0650
  754MPD2     H11197   0.792   3.288  12.906  0.9141 -0.0907 -1.0423
  754MPD2    H111198   0.827   3.706  12.988 -0.1358 -0.6741 -1.3255
  754MPD2    H211199   1.142   3.449  13.079  1.1171 -1.0587 -2.0247
  754MPD2    H311200   1.047   3.665  13.048  1.4736 -1.3304  0.5687
  754MPD2     N11201   0.648   3.507  12.912  0.5512  0.1881  0.3384
  754MPD2    H511202   0.612   3.601  12.904  1.1286  0.2556 -1.4995
  754MPD2    N111203   1.023   3.225  13.014  0.6244  0.2965  0.1422
  754MPD2    H711204   1.123   3.236  13.030  0.7368  0.8649 -0.8918
  755MPD2     C11205   0.105   3.972  13.362 -0.1528  0.0040  0.1352
  755MPD2    C111206   0.036   3.854  13.376  0.2133 -0.1039  0.3960
  755MPD2    C211207   0.082   3.749  13.302 -0.1641  0.0891  0.2718
  755MPD2    C311208   0.186   3.772  13.212 -0.3419 -0.4878 -0.1559
  755MPD2    C411209   0.233   3.895  13.189 -0.7043 -0.0460  0.0539
  755MPD2    C511210   0.202   3.996  13.271 -0.0320 -0.1904 -0.1805
  755MPD2     H11211   0.032   3.654  13.312  1.3659 -1.1129 -3.0437
  755MPD2    H111212   0.312   3.902  13.115 -1.0042  0.4769 -0.2229
  755MPD2    H211213   0.084   4.058  13.424 -0.6106  0.8697 -1.2257
  755MPD2    H311214   0.242   4.096  13.261 -1.2808  0.5037  1.8902
  755MPD2     N11215   0.237   3.672  13.127  0.2930  0.4030  0.1710
  755MPD2    H511216   0.300   3.705  13.055 -2.0678 -0.0898 -2.1421
  755MPD2    N111217   4.657   3.831  13.456  0.3710 -0.2736 -0.8075
  755MPD2    H711218   4.620   3.736  13.453 -0.6386  0.1103 -0.1250
  756MPD2     C11219   0.910   4.295   9.508  0.4034  0.2241 -0.0196
  756MPD2    C111220   0.821   4.285   9.616  0.0826  0.3852  0.0264
  756MPD2    C211221   0.687   4.267   9.579  0.1459  0.1843  0.1996
  756MPD2    C311222   0.644   4.267   9.446 -0.0504  0.3718 -0.1223
  756MPD2    C411223   0.735   4.281   9.350  0.3207  0.0681  0.6125
  756MPD2    C511224   0.868   4.287   9.376  0.2161  0.4140  0.5780
  756MPD2     H11225   0.621   4.250   9.663 -3.2350  0.6537 -2.3697
  756MPD2    H111226   0.708   4.277   9.245 -0.1877  2.0595  0.6754
  756MPD2    H211227   1.016   4.302   9.528 -0.1088  0.4440  2.6833
  756MPD2    H311228   0.939   4.291   9.294  0.4289  0.0285  0.7374
  756MPD2     N11229   0.501   4.243   9.431  0.5201  0.1511 -0.0050
  756MPD2    H511230   0.457   4.228   9.521 -0.4422 -1.8686 -0.7947
  756MPD2    N111231   0.862   4.285   9.752  0.0357  0.3556 -0.7567
  756MPD2    H711232   0.793   4.277   9.826 -0.4357  1.0632 -1.1219
  757MPD2     C11233   0.025   4.005  10.089  0.1891 -0.4924 -0.0750
  757MPD2    C111234   4.724   3.936   9.974  0.2475 -1.0081 -0.0439
  757MPD2    C211235   0.007   3.999   9.856 -0.4811  0.2859  0.1221
  757MPD2    C311236   0.076   4.114   9.834 -0.0975  1.3079  0.2677
  757MPD2    C411237   0.113   4.180   9.952 -0.0097 -0.2203  0.1662
  757MPD2    C511238   0.088   4.125  10.073  0.1294 -0.2651 -0.3438
  757MPD2     H11239   4.707   3.946   9.770  0.3710 -0.1093 -0.0093
  757MPD2    H111240   0.170   4.271   9.945  0.3334 -0.6600 -3.1587
  757MPD2    H211241   0.015   3.970  10.191  1.0530 -0.5452 -0.0058
  757MPD2    H311242   0.114   4.184  10.160  0.2403  0.2595 -0.7363
  757MPD2     N11243   0.096   4.165   9.705 -0.3234 -0.1524 -0.0203
  757MPD2    H511244   0.162   4.242   9.705  2.7724 -2.7704 -0.6554
  757MPD2    N111245   4.681   3.801   9.990  0.5204  0.4473 -0.2015
  757MPD2    H711246   4.684   3.764  10.084  0.8091  0.8879 -0.0337
  758MPD2     C11247   0.901   3.607  15.974  0.6016 -0.5510 -0.7249
  758MPD2    C111248   0.995   3.586  16.078 -0.5927 -0.1958 -0.7554
  758MPD2    C211249   0.952   3.528  16.196 -0.2926 -0.5483 -0.2267
  758MPD2    C311250   0.816   3.512  16.218  0.8796 -0.6291  0.1210
  758MPD2    C411251   0.725   3.548  16.118  0.1998  0.1493 -0.1542
  758MPD2    C511252   0.764   3.595  15.998 -0.1155 -1.2421  0.3174
  758MPD2     H11253   1.030   3.491  16.262  1.2805  1.2016 -1.1340
  758MPD2    H111254   0.619   3.525  16.130 -0.3760  1.9074 -1.9339
  758MPD2    H211255   0.930   3.656  15.881 -0.6254  0.3876 -0.6145
  758MPD2    H311256   0.692   3.619  15.921 -1.1098 -1.5970  1.1215
  758MPD2     N11257   0.765   3.462  16.347  0.2191  0.5584 -0.4079
  758MPD2    H511258   0.664   3.454  16.353  0.3313 -0.6674 -0.0628
  758MPD2    N111259   1.136   3.605  16.049  0.3495  0.1176 -0.2415
  758MPD2    H711260   1.154   3.624  15.951  1.3291  0.8573  0.0868
  759MPD2     C11261   0.277   1.131  10.063  0.2176  0.6494 -0.4118
  759MPD2    C111262   0.198   1.216  10.139 -0.9333  0.6368 -0.2791
  759MPD2    C211263   0.203   1.355  10.116 -0.2759  0.2362  0.5607
  759MPD2    C311264   0.281   1.409  10.012 -0.7569 -0.1857 -0.1605
  759MPD2    C411265   0.362   1.324   9.941  0.2126 -0.4564 -0.0398
  759MPD2    C511266   0.358   1.191   9.957  0.3885 -0.2024  0.3218
  759MPD2     H11267   0.141   1.420  10.177 -1.1436 -2.4752  2.5425
  759MPD2    H111268   0.423   1.361   9.859  1.4800 -2.3269  0.0605
  759MPD2    H211269   0.288   1.026  10.089 -0.6964  0.3901 -1.0625
  759MPD2    H311270   0.423   1.134   9.892 -3.1302 -2.3226 -1.3138
  759MPD2     N11271   0.278   1.551   9.992  0.1133  0.3863  0.1210
  759MPD2    H511272   0.228   1.608  10.060  0.1182  0.9380 -0.3368
  759MPD2    N111273   0.096   1.175  10.231  0.7173 -0.9348  0.4453
  759MPD2    H711274   0.043   1.249  10.274 -0.6562 -1.5299 -0.2210
  760MPD2     C11275   3.947   4.015  11.705  0.8475 -0.0024  0.1800
  760MPD2    C111276   4.087   4.013  11.711 -0.2559 -0.3700 -0.0465
  760MPD2    C211277   4.154   3.895  11.702 -0.1950 -0.9856  0.0038
  760MPD2    C311278   4.081   3.777  11.699 -0.7755  0.1649 -0.8925
  760MPD2    C411279   3.939   3.778  11.708 -0.6543  0.1310  0.2319
  760MPD2    C511280   3.872   3.897  11.698 -0.1521  1.0648 -0.3918
  760MPD2     H11281   4.261   3.891  11.690 -0.1344  0.7663 -0.0106
  760MPD2    H111282   3.889   3.683  11.719  0.7983 -0.9455 -2.5274
  760MPD2    H211283   3.886   4.105  11.697  0.5976  0.0403  2.5684
  760MPD2    H311284   3.766   3.906  11.679 -0.3603  3.3614  1.8929
  760MPD2     N11285   4.147   3.654  11.684  0.6113 -0.2473  0.0938
  760MPD2    H511286   4.091   3.573  11.658 -0.5752 -0.2338  2.6236
  760MPD2    N111287   4.162   4.135  11.711  0.1045  0.1105  0.1121
  760MPD2    H711288   4.263   4.123  11.717 -0.0786  0.3596  3.9031
  761MPD2     C11289   0.300   3.008  11.433 -0.7492 -0.1705 -0.4535
  761MPD2    C111290   0.365   2.971  11.316 -0.7451  0.0382 -0.5213
  761MPD2    C211291   0.456   3.056  11.253 -0.2509  0.2496  0.3748
  761MPD2    C311292   0.486   3.177  11.315 -0.0338  0.2934 -0.2954
  761MPD2    C411293   0.417   3.214  11.430  0.0118  0.7909  0.4203
  761MPD2    C511294   0.329   3.130  11.487 -0.7639  0.3993 -0.0602
  761MPD2     H11295   0.505   3.042  11.157  0.1230  1.6040  0.3750
  761MPD2    H111296   0.428   3.305  11.489 -0.3435  1.0597  0.0683
  761MPD2    H211297   0.230   2.947  11.489  0.0041  0.4094  1.1202
  761MPD2    H311298   0.275   3.153  11.578 -2.5042  1.6021 -1.3968
  761MPD2     N11299   0.588   3.262  11.259  0.1412 -0.1869 -0.4266
  761MPD2    H511300   0.621   3.335  11.322  2.1787 -0.0357 -1.6644
  761MPD2    N111301   0.335   2.844  11.265 -0.4781  0.3108  0.7389
  761MPD2    H711302   0.266   2.782  11.305 -4.3636  3.0682 -1.7881
  762MPD2     C11303   0.569   2.053  10.833  0.3895 -0.5235 -0.3213
  762MPD2    C111304   0.609   2.180  10.860  0.3998 -0.0781 -0.4755
  762MPD2    C211305   0.729   2.225  10.819 -0.0886  0.5328  0.4144
  762MPD2    C311306   0.801   2.145  10.739  0.3117  0.3153 -0.1230
  762MPD2    C411307   0.768   2.012  10.714  0.1881  0.3921 -0.7176
  762MPD2    C511308   0.654   1.968  10.766 -0.6723 -0.0564  0.3507
  762MPD2     H11309   0.767   2.325  10.833  1.4087  0.0751 -0.3546
  762MPD2    H111310   0.822   1.945  10.648  0.2367 -0.0483 -0.2239
  762MPD2    H211311   0.472   2.016  10.866  0.5920  0.3657  1.2540
  762MPD2    H311312   0.631   1.862  10.762 -1.3105  0.0784  0.5683
  762MPD2     N11313   0.913   2.206  10.683 -0.0285  0.2412 -0.8047
  762MPD2    H511314   0.937   2.285  10.742  0.4744 -0.9903  0.6422
  762MPD2    N111315   0.523   2.263  10.936  0.5179  0.0397 -0.2129
  762MPD2    H711316   0.427   2.235  10.955  1.3016 -1.0803  2.0862
  763MPD2     C11317   3.020   3.515  15.884  0.5658 -0.4773 -0.2513
  763MPD2    C111318   2.900   3.448  15.873 -1.2198 -0.2081 -0.3251
  763MPD2    C211319   2.793   3.457  15.971 -0.8680 -0.1001 -0.2261
  763MPD2    C311320   2.821   3.538  16.083  0.3559  0.0851 -0.3599
  763MPD2    C411321   2.944   3.608  16.087 -0.0806 -0.2650  0.6268
  763MPD2    C511322   3.032   3.607  15.982  0.2986  0.4361 -0.5849
  763MPD2     H11323   2.705   3.397  15.955  0.0260 -1.0211 -1.6628
  763MPD2    H111324   2.973   3.665  16.174  0.1372  0.0310  0.3604
  763MPD2    H211325   3.098   3.502  15.810  1.1468  0.3803  0.2233
  763MPD2    H311326   3.127   3.652  16.004 -0.3291  1.1679  0.6253
  763MPD2     N11327   2.739   3.546  16.195 -0.2975 -0.1111 -0.4718
  763MPD2    H511328   2.775   3.588  16.280  0.9582 -0.6524 -0.7368
  763MPD2    N111329   2.873   3.354  15.766 -0.8674  0.3261  0.7147
  763MPD2    H711330   2.777   3.323  15.756 -1.3847  1.3237  2.4632
  764MPD2     C11331   0.875   0.410  17.414 -0.1879 -0.1992  0.6570
  764MPD2    C111332   0.744   0.456  17.408 -0.1116  0.1511 -0.1969
  764MPD2    C211333   0.693   0.529  17.520 -0.6922 -0.8018 -0.7437
  764MPD2    C311334   0.760   0.527  17.642 -0.1559 -0.2045 -0.1022
  764MPD2    C411335   0.886   0.481  17.641  0.3203 -0.0880  0.2659
  764MPD2    C511336   0.945   0.437  17.527 -0.2582 -1.0639 -0.3398
  764MPD2     H11337   0.590   0.562  17.517 -0.1027  1.1669  0.8734
  764MPD2    H111338   0.943   0.472  17.733 -0.0818  0.2369  0.5499
  764MPD2    H211339   0.927   0.375  17.325 -0.7938  1.2378 -0.2580
  764MPD2    H311340   1.050   0.414  17.528 -0.3069 -1.2868 -0.3180
  764MPD2     N11341   0.694   0.567   0.008 -0.8756  0.1911 -0.6547
  764MPD2    H511342   0.618   0.632  17.744  1.8261  3.5201  0.3527
  764MPD2    N111343   0.662   0.453  17.294 -0.4329 -0.0737  0.6952
  764MPD2    H711344   0.574   0.500  17.310 -1.4703 -1.5473 -0.7920
  765MPD2     C11345   0.314   2.608  15.325 -0.1631 -0.2315  0.4713
  765MPD2    C111346   0.406   2.698  15.375 -0.1713  0.5272 -0.0354
  765MPD2    C211347   0.507   2.652  15.454 -0.2656  0.5125  0.1070
  765MPD2    C311348   0.523   2.521  15.481 -0.1977  0.3426 -0.0537
  765MPD2    C411349   0.433   2.431  15.426 -0.4239  0.0213 -1.0794
  765MPD2    C511350   0.332   2.475  15.355  0.1499 -0.2335 -0.2097
  765MPD2     H11351   0.582   2.722  15.491 -1.3927  1.2586  0.9963
  765MPD2    H111352   0.430   2.323  15.436 -0.6199  0.2988  1.8530
  765MPD2    H211353   0.224   2.629  15.269  0.3210 -0.8890 -0.5616
  765MPD2    H311354   0.267   2.405  15.304  2.8127 -2.2503 -0.8706
  765MPD2     N11355   0.624   2.473  15.562  0.5549 -0.1703 -0.1645
  765MPD2    H511356   0.677   2.537  15.621  0.7788 -1.0134  0.5577
  765MPD2    N111357   0.378   2.840  15.351 -0.1107 -0.2831  0.6701
  765MPD2    H711358   0.293   2.852  15.297 -0.9339  0.7712  2.2182
  766MPD2     C11359   4.538   3.240  15.396  0.2834 -0.4049  0.5042
  766MPD2    C111360   4.629   3.140  15.435 -0.0843  0.5083  0.0862
  766MPD2    C211361   4.696   3.082  15.329 -0.3841 -0.2336  0.1679
  766MPD2    C311362   4.679   3.124  15.198  0.3695 -0.5276 -0.1524
  766MPD2    C411363   4.584   3.220  15.161  0.6494  0.7297  0.0835
  766MPD2    C511364   4.514   3.282  15.261 -0.4215  0.2866 -0.7068
  766MPD2     H11365   0.028   3.003  15.353 -1.7929 -1.9986 -1.5492
  766MPD2    H111366   4.574   3.236  15.055 -0.6249  0.1399  0.1198
  766MPD2    H211367   4.482   3.298  15.469 -1.0537 -1.3218  0.1811
  766MPD2    H311368   4.442   3.356  15.229 -0.4566  0.5415 -0.0340
  766MPD2     N11369   0.025   3.078  15.090 -0.1086  0.7623  0.2480
  766MPD2    H511370   0.013   3.116  14.996  1.1033  0.5504  0.0048
  766MPD2    N111371   4.649   3.103  15.570  0.0582  0.3847 -0.0854
  766MPD2    H711372   4.570   3.122  15.631 -0.0105 -1.7985  0.4847
  767MPD2     C11373   4.387   3.269  14.827  0.5247  0.4749  0.0371
  767MPD2    C111374   4.527   3.282  14.807 -0.3774 -0.7050  0.6136
  767MPD2    C211375   4.582   3.196  14.704  0.2421  0.4456 -0.4212
  767MPD2    C311376   4.501   3.097  14.638 -0.2192  0.7540 -0.0907
  767MPD2    C411377   4.367   3.086  14.676  0.3299  0.2369  0.7640
  767MPD2    C511378   4.308   3.172  14.761  0.8939  0.2001 -0.1052
  767MPD2     H11379   4.687   3.211  14.680  0.4536  3.4869  2.3716
  767MPD2    H111380   4.299   3.014  14.632  0.1918 -0.1962  1.6915
  767MPD2    H211381   4.342   3.336  14.899 -0.8149  0.3924 -0.7257
  767MPD2    H311382   4.200   3.164  14.774  0.8361 -1.6245 -1.8506
  767MPD2     N11383   4.564   3.011  14.548 -0.2246  0.1269  0.1119
  767MPD2    H511384   4.665   3.012  14.537 -0.1279  3.1106  1.0904
  767MPD2    N111385   4.600   3.387  14.876 -0.4912 -0.5596  0.1460
  767MPD2    H711386   4.548   3.449  14.937  1.4965 -0.6555  1.9671
  768MPD2     C11387   0.996   1.469  10.560 -0.7256  0.3171 -0.5344
  768MPD2    C111388   0.960   1.431  10.690  0.3210  0.2467 -0.0077
  768MPD2    C211389   1.060   1.394  10.778  1.0864 -0.5180 -0.2411
  768MPD2    C311390   1.197   1.414  10.749 -0.1053 -0.0179  0.4214
  768MPD2    C411391   1.229   1.451  10.613  0.2432 -0.9277 -0.6521
  768MPD2    C511392   1.130   1.482  10.524  0.0722 -0.2586 -0.0635
  768MPD2     H11393   1.029   1.367  10.878  2.1486 -1.6265 -0.2163
  768MPD2    H111394   1.333   1.470  10.591  0.3293 -0.1967  0.3898
  768MPD2    H211395   0.928   1.511  10.486 -1.9091  0.1498  0.4649
  768MPD2    H311396   1.168   1.526  10.432 -0.5013  0.8299  0.2260
  768MPD2     N11397   1.299   1.382  10.841  0.1763 -0.0705 -0.4403
  768MPD2    H511398   1.396   1.403  10.820 -0.1706  2.0829  0.1388
  768MPD2    N111399   0.825   1.434  10.737 -0.1215 -0.9257 -0.0861
  768MPD2    H711400   0.812   1.388  10.827  2.6069 -0.1658  0.6854
  769MPD2     C11401   1.557   0.127  14.855 -0.4209  0.5538 -0.5358
  769MPD2    C111402   1.559   4.733  14.899 -0.1021  0.5618  0.3088
  769MPD2    C211403   1.636   4.706  15.014  0.4761 -0.3170  0.1975
  769MPD2    C311404   1.677   0.069  15.100  0.3961  0.2289  0.1372
  769MPD2    C411405   1.670   0.199  15.058 -0.2777 -0.2547 -0.3100
  769MPD2    C511406   1.607   0.223  14.937 -0.4300  0.2420  0.3199
  769MPD2     H11407   1.637   4.605  15.053 -3.4153 -0.2600  0.4471
  769MPD2    H111408   1.710   0.286  15.108 -1.4674 -0.8808  1.7071
  769MPD2    H211409   1.504   0.156  14.766 -1.4503 -1.0848 -0.4700
  769MPD2    H311410   1.598   0.322  14.892  0.3250  1.1513  2.1738
  769MPD2     N11411   1.745   0.047  15.223 -0.2917  0.0688  0.3502
  769MPD2    H511412   1.772   0.134  15.268  0.2764  1.6140 -3.0262
  769MPD2    N111413   1.495   4.631  14.821  0.1353  0.7233  0.3216
  769MPD2    H711414   1.445   4.663  14.738  0.8684  2.0161  0.3682
  770MPD2     C11415   0.833   3.893  14.681 -0.4659  0.1477  0.3560
  770MPD2    C111416   0.952   3.916  14.744 -0.1329 -0.1990 -1.1734
  770MPD2    C211417   1.007   4.041  14.737  0.0083  0.1843 -0.6706
  770MPD2    C311418   0.950   4.145  14.663  0.1758  0.6481 -0.2874
  770MPD2    C411419   0.841   4.110  14.590  0.0932  0.9001 -0.2406
  770MPD2    C511420   0.783   3.986  14.596  0.5027  0.0816  0.7583
  770MPD2     H11421   1.107   4.061  14.776 -0.8022  0.5304  1.2230
  770MPD2    H111422   0.791   4.185  14.530 -1.5265 -1.2285 -1.5627
  770MPD2    H211423   0.778   3.800  14.685  1.4288 -0.9940 -0.1289
  770MPD2    H311424   0.683   3.989  14.554  0.9105  0.2868 -0.1963
  770MPD2     N11425   1.017   4.267  14.638  0.1995  0.2632 -0.6117
  770MPD2    H511426   1.008   4.313  14.547 -1.3259  1.9904  0.4155
  770MPD2    N111427   1.016   3.814  14.815 -0.4359 -0.2590  0.2129
  770MPD2    H711428   0.977   3.720  14.808 -0.1801 -0.3619  0.1787
  771MPD2     C11429   2.615   2.156  13.775 -0.0607 -0.4927 -0.3512
  771MPD2    C111430   2.508   2.229  13.791 -0.3692 -0.2974  0.0596
  771MPD2    C211431   2.383   2.182  13.768 -0.2774 -0.3729 -0.3502
  771MPD2    C311432   2.372   2.049  13.721  0.7457 -0.0562 -0.2389
  771MPD2    C411433   2.482   1.969  13.694 -0.3808  0.7818 -0.4095
  771MPD2    C511434   2.604   2.029  13.722  0.3296  0.7458  0.1287
  771MPD2     H11435   2.299   2.239  13.804  1.7614  2.7345 -0.5196
  771MPD2    H111436   2.470   1.866  13.664  0.3787  1.2319 -2.2322
  771MPD2    H211437   2.716   2.189  13.793  0.0171 -1.3000  0.7255
  771MPD2    H311438   2.690   1.971  13.691  0.7592  1.1778  0.5300
  771MPD2     N11439   2.245   2.001  13.704 -0.2105 -0.1847 -1.0298
  771MPD2    H511440   2.181   2.075  13.730  1.5789  1.1372 -0.3076
  771MPD2    N111441   2.514   2.369  13.818  0.1605  1.0553  0.4463
  771MPD2    H711442   2.425   2.417  13.818  0.3716  1.4397  0.1966
  772MPD2     C11443   2.047   2.815  14.038  0.6701  0.1020 -0.2709
  772MPD2    C111444   2.080   2.720  13.940  0.5709 -0.1725  0.8388
  772MPD2    C211445   1.989   2.620  13.909 -0.4338 -0.4050  0.8513
  772MPD2    C311446   1.861   2.624  13.962 -0.6121 -0.7156  0.1437
  772MPD2    C411447   1.835   2.714  14.063  0.0668  0.1223  0.0376
  772MPD2    C511448   1.932   2.801  14.096  0.3244  0.9019  0.6248
  772MPD2     H11449   2.013   2.541  13.838 -0.3377  0.8997 -0.5676
  772MPD2    H111450   1.738   2.719  14.112 -0.9701  1.4063 -2.1624
  772MPD2    H211451   2.115   2.889  14.080  0.6914  0.3846 -0.7957
  772MPD2    H311452   1.921   2.863  14.184 -0.5985  1.4776  0.1009
  772MPD2     N11453   1.755   2.534  13.931 -0.2386  0.5743  0.5529
  772MPD2    H511454   1.668   2.553  13.980 -1.3778 -1.8566 -0.5118
  772MPD2    N111455   2.208   2.709  13.891 -0.9250  0.1287 -0.2101
  772MPD2    H711456   2.228   2.623  13.842 -0.5289  0.6893 -1.0391
  773MPD2     C11457   1.612   4.032   0.063  0.1644  0.1797  0.0477
  773MPD2    C111458   1.517   3.937   0.052 -0.2191  0.2439 -0.1921
  773MPD2    C211459   1.492   3.862   0.165  0.4120  0.2372 -0.6406
  773MPD2    C311460   1.580   3.869   0.274 -0.1649  1.1554 -0.0635
  773MPD2    C411461   1.678   3.968   0.273  0.5935 -0.2919  0.2034
  773MPD2    C511462   1.690   4.051   0.168 -0.1048  0.0508 -1.0861
  773MPD2     H11463   1.405   3.799   0.155  0.8701 -0.4712 -0.1918
  773MPD2    H111464   1.744   3.981   0.358  0.7466  0.2291  0.0026
  773MPD2    H211465   1.625   4.111  17.739  0.9820 -1.6347 -1.7397
  773MPD2    H311466   1.754   4.139   0.171 -0.9494  0.6411 -0.2106
  773MPD2     N11467   1.559   3.776   0.379 -0.1854  0.2070 -0.5833
  773MPD2    H511468   1.480   3.713   0.373  0.3024 -0.2654 -2.1325
  773MPD2    N111469   1.434   3.923  17.681 -0.2624 -0.0583 -0.0090
  773MPD2    H711470   1.353   3.862  17.685  0.4114 -0.8348  2.4407
  774MPD2     C11471   0.474   2.346  13.094 -0.0195  0.0631  0.3388
  774MPD2    C111472   0.443   2.427  13.199 -0.8759  0.1590  0.1127
  774MPD2    C211473   0.460   2.565  13.175  0.3363  0.4284 -0.3233
  774MPD2    C311474   0.511   2.609  13.048  0.7876 -0.8692 -0.0863
  774MPD2    C411475   0.544   2.517  12.947 -0.2833  0.4066  0.5453
  774MPD2    C511476   0.521   2.383  12.972  0.2987  0.0651  0.1757
  774MPD2     H11477   0.426   2.635  13.249 -0.3133 -0.9457  0.6849
  774MPD2    H111478   0.577   2.543  12.847 -0.1728 -0.5398  0.3370
  774MPD2    H211479   0.455   2.240  13.110 -1.9270  0.1565 -1.3191
  774MPD2    H311480   0.521   2.314  12.889 -0.5389 -0.3108  0.4862
  774MPD2     N11481   0.533   2.746  13.033 -0.1089  0.0791 -0.3035
  774MPD2    H511482   0.506   2.804  13.112 -2.2573  0.1120 -1.0739
  774MPD2    N111483   0.402   2.368  13.319  0.2963 -0.6199 -0.6622
  774MPD2    H711484   0.406   2.267  13.323 -0.0086 -0.6056 -0.0258
  775MPD2     C11485   2.032   4.386  15.760  0.4781  0.6942 -0.5016
  775MPD2    C111486   2.030   4.484  15.862 -0.3054  0.2940 -0.1664
  775MPD2    C211487   2.094   4.604  15.838  0.2297 -0.2531  0.1197
  775MPD2    C311488   2.149   4.633  15.713 -0.2762 -0.8992 -0.1594
  775MPD2    C411489   2.123   4.543  15.609 -0.2261 -0.0465 -0.1405
  775MPD2    C511490   2.069   4.423  15.632 -0.3882 -0.0635 -0.3970
  775MPD2     H11491   2.110   4.674  15.919  0.0108  0.0265 -0.0810
  775MPD2    H111492   2.166   4.573  15.515 -0.5781  2.4066  0.4983
  775MPD2    H211493   2.007   4.281  15.771  0.6657  0.6475 -0.5227
  775MPD2    H311494   2.071   4.357  15.546  0.1415  0.6228 -0.9178
  775MPD2     N11495   2.208   0.015  15.670  0.0885 -0.4611  0.6876
  775MPD2    H511496   2.226   0.013  15.571 -0.2350 -0.1506  0.6195
  775MPD2    N111497   1.997   4.443  15.994 -0.2866 -0.3813 -0.1806
  775MPD2    H711498   1.968   4.347  16.005 -1.2728 -0.3341 -2.3853
  776MPD2     C11499   1.070   4.401  12.221 -0.7387 -0.4135 -0.4442
  776MPD2    C111500   0.988   4.361  12.116 -0.7379  0.2044  1.2081
  776MPD2    C211501   0.919   4.459  12.053  0.6906 -0.2356 -0.2798
  776MPD2    C311502   0.931   4.590  12.078 -0.1386 -0.4857  0.2708
  776MPD2    C411503   1.006   4.629  12.187  0.6527 -0.2713 -0.0647
  776MPD2    C511504   1.087   4.536  12.253  0.0332  0.3918  0.6007
  776MPD2     H11505   0.853   4.427  11.973  1.0151 -1.4489 -0.0710
  776MPD2    H111506   1.020   4.733  12.215 -1.1236 -0.0207 -0.1057
  776MPD2    H211507   1.140   4.341  12.278 -1.4015  0.6323  1.4762
  776MPD2    H311508   1.154   4.573  12.330 -1.1248  1.0651  1.2778
  776MPD2     N11509   0.866   4.696  12.009 -0.3118  0.4765 -0.3719
  776MPD2    H511510   0.886   0.050  12.048  1.2841 -0.0991  0.1911
  776MPD2    N111511   0.956   4.228  12.081  0.5540  0.6897 -0.4497
  776MPD2    H711512   0.889   4.213  12.006 -1.0706 -0.4466  1.2082
  777MPD2     C11513   0.746   2.468   0.243  0.1252 -0.6446  0.4377
  777MPD2    C111514   0.808   2.422   0.362 -0.0777 -0.6853 -0.0242
  777MPD2    C211515   0.816   2.293   0.388 -0.2989  0.1728 -0.0710
  777MPD2    C311516   0.783   2.203   0.286 -0.3036 -0.3930 -0.1771
  777MPD2    C411517   0.711   2.243   0.171  0.2234 -0.3714  0.6996
  777MPD2    C511518   0.689   2.378   0.153 -0.2100  0.2270 -0.2593
  777MPD2     H11519   0.853   2.252   0.482  1.1256  1.9388  0.1419
  777MPD2    H111520   0.661   2.172   0.106 -1.3735  0.9411  0.5044
  777MPD2    H211521   0.730   2.573   0.220 -3.4604 -1.3058 -0.0160
  777MPD2    H311522   0.645   2.420   0.063 -1.3011 -0.7138 -0.1617
  777MPD2     N11523   0.787   2.055   0.313 -0.2665  0.0785 -0.4188
  777MPD2    H511524   0.817   2.022   0.404 -0.9457 -0.4657 -0.3966
  777MPD2    N111525   0.868   2.522   0.441  0.1331 -0.0013  0.5364
  777MPD2    H711526   0.852   2.619   0.419  0.4205 -0.1771 -0.4515
  778MPD2     C11527   1.933   1.473  15.233  0.3807  0.2436  0.3998
  778MPD2    C111528   1.930   1.423  15.107  0.3089  0.5865  0.4021
  778MPD2    C211529   1.962   1.518  15.010 -0.4831  0.0019  0.4570
  778MPD2    C311530   2.013   1.646  15.036 -0.5822  0.1548 -0.6108
  778MPD2    C411531   2.021   1.688  15.164  0.6253  0.4046 -1.1619
  778MPD2    C511532   1.976   1.598  15.259  0.2781  0.5362 -0.3545
  778MPD2     H11533   1.952   1.486  14.907  0.8283  2.4294 -0.4479
  778MPD2    H111534   2.061   1.783  15.199 -2.0882  1.3349 -0.5676
  778MPD2    H211535   1.930   1.411  15.321  0.8466  0.4077  0.5293
  778MPD2    H311536   1.997   1.627  15.361  1.0932  2.4094 -1.0476
  778MPD2     N11537   2.065   1.717  14.919 -0.5244 -0.4699  0.3363
  778MPD2    H511538   2.055   1.675  14.827  1.8173 -1.8582  0.7267
  778MPD2    N111539   1.888   1.292  15.079  0.0720  0.0330 -0.0116
  778MPD2    H711540   1.863   1.272  14.983  0.6425  0.5114 -0.2619
  779MPD2     C11541   2.266   0.877  13.827 -0.0718  0.4707  0.1982
  779MPD2    C111542   2.270   0.900  13.964 -0.2751 -0.1959  0.7209
  779MPD2    C211543   2.291   1.033  14.012  0.1311 -0.6623 -0.1373
  779MPD2    C311544   2.311   1.144  13.927  0.4552  0.0965  0.3067
  779MPD2    C411545   2.308   1.112  13.788 -0.0192 -0.2047 -0.2088
  779MPD2    C511546   2.282   0.987  13.741  0.2424 -1.1744  0.1524
  779MPD2     H11547   2.288   1.042  14.120 -1.6394  0.1331 -0.2597
  779MPD2    H111548   2.308   1.186  13.709  0.2514  0.2523  0.2211
  779MPD2    H211549   2.244   0.780  13.784 -1.1289  1.7704 -2.2401
  779MPD2    H311550   2.267   0.972  13.635  0.9636  0.0409 -0.1201
  779MPD2     N11551   2.322   1.277  13.980  0.2315 -0.0886 -0.2298
  779MPD2    H511552   2.348   1.297  14.077 -1.2082 -3.4502  0.8399
  779MPD2    N111553   2.246   0.786  14.051 -0.0276  0.0917  0.1146
  779MPD2    H711554   2.242   0.810  14.149  0.3500 -0.9515  0.3838
  780MPD2     C11555   2.181   0.739   0.297 -0.2246 -0.3142 -0.3019
  780MPD2    C111556   2.043   0.763   0.320 -0.4415  0.4717 -0.2336
  780MPD2    C211557   1.976   0.815   0.209  0.8374 -0.0348  0.0689
  780MPD2    C311558   2.026   0.857   0.097  0.1040  0.1717  0.2466
  780MPD2    C411559   2.159   0.854   0.081 -1.0164  0.2087  0.1367
  780MPD2    C511560   2.235   0.797   0.183  0.2620 -0.3696 -0.2694
  780MPD2     H11561   1.867   0.817   0.212  0.7650 -2.3112 -0.6559
  780MPD2    H111562   2.209   0.907  17.750  0.4956 -1.3419  0.0606
  780MPD2    H211563   2.242   0.678   0.363  1.9306  2.0110 -0.1262
  780MPD2    H311564   2.340   0.790   0.156  0.1934 -0.7610 -0.4389
  780MPD2     N11565   1.936   0.929   0.008  0.1851  0.4107  0.7395
  780MPD2    H511566   1.842   0.950   0.042 -0.6060  0.9772 -1.8105
  780MPD2    N111567   1.980   0.723   0.438  0.3115 -0.3959  0.2855
  780MPD2    H711568   2.037   0.659   0.491  0.5173 -0.0908  0.4314
  781MPD2     C11569   3.617   3.043  12.058  0.1627 -0.3307  0.1287
  781MPD2    C111570   3.623   2.901  12.070  0.3715  0.6228  0.2391
  781MPD2    C211571   3.662   2.823  11.961 -0.2234 -0.0729 -0.3225
  781MPD2    C311572   3.719   2.894  11.851  0.3874 -0.6903 -0.1588
  781MPD2    C411573   3.714   3.031  11.844  0.4006 -0.3226  0.2117
  781MPD2    C511574   3.658   3.105  11.944  0.0390 -0.0747 -0.1886
  781MPD2     H11575   3.665   2.717  11.979 -1.9185 -0.5157 -2.7304
  781MPD2    H111576   3.768   3.084  11.766 -0.2699  1.7335  1.1577
  781MPD2    H211577   3.572   3.108  12.132  0.8980 -1.7554  1.8258
  781MPD2    H311578   3.668   3.213  11.937  0.4943 -0.1643 -0.9094
  781MPD2     N11579   3.805   2.833  11.752  0.7611  0.4833 -0.0881
  781MPD2    H511580   3.853   2.890  11.683 -0.9406  0.6199 -1.1701
  781MPD2    N111581   3.578   2.833  12.186  0.4719 -0.1442  0.2743
  781MPD2    H711582   3.575   2.732  12.186 -4.1912 -0.0032  1.8655
  782MPD2     C11583   1.210   3.740  10.099 -0.4170 -0.6274 -0.8486
  782MPD2    C111584   1.322   3.732  10.178 -0.3408  0.3106  0.8329
  782MPD2    C211585   1.367   3.843  10.244  0.6571  0.2267 -0.2102
  782MPD2    C311586   1.312   3.967  10.234  0.0818 -0.2345 -0.3061
  782MPD2    C411587   1.193   3.972  10.165 -0.1670 -0.5203  1.0024
  782MPD2    C511588   1.148   3.863  10.097  0.7042  0.3299 -0.7355
  782MPD2     H11589   1.458   3.827  10.302  0.0115 -2.6950 -0.0016
  782MPD2    H111590   1.137   4.065  10.161  2.5781  1.1070  0.6217
  782MPD2    H211591   1.163   3.651  10.058 -3.6415  0.0887  1.3145
  782MPD2    H311592   1.052   3.883  10.050  1.3524  2.2108 -1.2687
  782MPD2     N11593   1.376   4.081  10.293  0.1225 -0.3213 -0.1670
  782MPD2    H511594   1.471   4.071  10.327 -0.5580  0.8391  2.1405
  782MPD2    N111595   1.366   3.598  10.204  0.0132 -0.1968  0.0790
  782MPD2    H711596   1.310   3.522  10.167  3.1008 -1.5583 -1.8537
  783MPD2     C11597   1.081   3.027  10.798  0.1944  0.2295  0.4601
  783MPD2    C111598   1.099   3.168  10.798  0.5007  0.4668  0.0837
  783MPD2    C211599   1.182   3.230  10.704 -0.1019 -0.4839  0.1754
  783MPD2    C311600   1.236   3.141  10.611  0.7195 -0.1534  0.0524
  783MPD2    C411601   1.211   3.003  10.610  0.9200  0.2435 -0.5687
  783MPD2    C511602   1.146   2.948  10.711 -0.6315 -0.0926  0.0040
  783MPD2     H11603   1.197   3.337  10.703  2.1286 -0.7929  1.9316
  783MPD2    H111604   1.235   2.931  10.534  4.0698 -0.4932  1.1308
  783MPD2    H211605   1.014   2.978  10.867  2.1546 -0.8990  1.5535
  783MPD2    H311606   1.119   2.843  10.706 -1.5675  0.2095 -1.0086
  783MPD2     N11607   1.319   3.201  10.511 -0.5519  0.4450  0.0579
  783MPD2    H511608   1.330   3.302  10.514 -0.9541  0.4798  0.5555
  783MPD2    N111609   1.011   3.242  10.888 -0.2535 -0.3090  1.2524
  783MPD2    H711610   0.942   3.184  10.935 -0.8305  0.9153  1.8967
  784MPD2     C11611   4.139   4.458   0.375 -0.2661  0.3717 -0.5673
  784MPD2    C111612   4.105   4.513   0.501 -0.5409 -0.9849 -0.0357
  784MPD2    C211613   3.981   4.579   0.513 -0.7337 -0.1852  0.5291
  784MPD2    C311614   3.888   4.558   0.417 -0.3318 -0.1685  0.1705
  784MPD2    C411615   3.920   4.480   0.307  0.1139 -0.1065  0.3084
  784MPD2    C511616   4.042   4.429   0.285  0.3257  0.1209  0.0868
  784MPD2     H11617   3.952   4.628   0.605  0.7324  1.0527  0.3269
  784MPD2    H111618   3.846   4.468   0.229 -2.3934  1.2766  2.4715
  784MPD2    H211619   4.236   4.413   0.361  0.6914  2.0041  0.8748
  784MPD2    H311620   4.052   4.375   0.191 -1.5553  1.0864 -0.6651
  784MPD2     N11621   3.758   4.617   0.441  0.4164 -0.3985  0.2690
  784MPD2    H511622   3.739   4.655   0.533  0.0854  1.1315 -0.4238
  784MPD2    N111623   4.201   4.525   0.608 -0.4614  0.0424 -0.3018
  784MPD2    H711624   4.174   4.581   0.688 -0.0576  0.8783 -0.7418
  785MPD2     C11625   4.187   1.832  10.877  0.5197  0.3938  0.7059
  785MPD2    C111626   4.131   1.957  10.879  0.5173  0.0654 -0.0833
  785MPD2    C211627   4.002   1.976  10.820 -0.4644 -0.6102 -0.0649
  785MPD2    C311628   3.940   1.871  10.757  0.2630 -1.0714  0.0517
  785MPD2    C411629   3.989   1.745  10.768  0.0003  0.4036  0.4672
  785MPD2    C511630   4.107   1.732  10.830  0.1425  0.1339 -0.4869
  785MPD2     H11631   3.954   2.073  10.813 -0.0225 -0.3680  0.2637
  785MPD2    H111632   3.937   1.661  10.724  0.0269 -0.1616  1.5193
  785MPD2    H211633   4.281   1.815  10.929 -0.6628 -0.9960  2.3634
  785MPD2    H311634   4.149   1.633  10.844 -0.1983 -0.0699 -0.8957
  785MPD2     N11635   3.820   1.897  10.687 -0.2841  0.4670  0.8106
  785MPD2    H511636   3.787   1.991  10.703  0.7204  1.1063 -0.8176
  785MPD2    N111637   4.196   2.064  10.943  0.1771  0.2151  0.3815
  785MPD2    H711638   4.281   2.038  10.991  0.3325  0.3718  0.1936
  786MPD2     C11639   2.655   0.461  15.132 -0.0161  0.0775 -0.2176
  786MPD2    C111640   2.783   0.438  15.086  0.1014  0.0706  0.5769
  786MPD2    C211641   2.884   0.499  15.148 -0.4019 -0.2448 -0.0644
  786MPD2    C311642   2.866   0.581  15.262  0.5034 -0.8158  0.0837
  786MPD2    C411643   2.740   0.600  15.312  0.0168  0.0876 -0.4066
  786MPD2    C511644   2.634   0.544  15.242 -0.5760  0.1224  0.5402
  786MPD2     H11645   2.979   0.457  15.116  0.3924  0.0848  1.8325
  786MPD2    H111646   2.720   0.664  15.397  2.5335 -1.0030  1.0101
  786MPD2    H211647   2.567   0.417  15.087  0.0617  0.6957 -0.9752
  786MPD2    H311648   2.538   0.564  15.287 -0.9530 -2.2255  0.8012
  786MPD2     N11649   2.972   0.643  15.328  0.5080 -0.5274  0.5759
  786MPD2    H511650   2.954   0.683  15.420  1.0568 -1.1644  0.9668
  786MPD2    N111651   2.805   0.345  14.978  0.4843  0.0209  0.1399
  786MPD2    H711652   2.901   0.320  14.957 -0.1315 -1.3893 -0.9192
  787MPD2     C11653   3.190   4.728  15.101  0.3217 -0.7396  0.1182
  787MPD2    C111654   3.136   4.652  15.002 -0.0565  0.0707  0.4248
  787MPD2    C211655   3.166   4.516  14.999 -0.8805  0.2571  0.3097
  787MPD2    C311656   3.256   4.468  15.091  0.0209 -0.1841 -0.3530
  787MPD2    C411657   3.315   4.545  15.187  0.5283 -0.2199  0.2531
  787MPD2    C511658   3.267   4.674  15.199 -0.2155  0.6273 -0.2122
  787MPD2     H11659   3.123   4.449  14.925  1.0135 -0.3674 -0.2244
  787MPD2    H111660   3.393   4.495  15.244 -0.2153  0.6888  2.0344
  787MPD2    H211661   3.169   0.096  15.101 -2.3507 -1.2607  0.2308
  787MPD2    H311662   3.306   0.011  15.266  0.7405  0.1581 -0.2429
  787MPD2     N11663   3.293   4.336  15.059  0.3263  0.4297 -0.8174
  787MPD2    H511664   3.257   4.308  14.968  0.8994 -2.3168 -0.2025
  787MPD2    N111665   3.047   4.717  14.908  0.3003  0.3855  0.5451
  787MPD2    H711666   3.032   0.079  14.923  0.6297  0.4030  0.7707
  788MPD2     C11667   0.105   4.548   0.880 -0.1195 -0.2060 -0.1270
  788MPD2    C111668   0.098   4.457   0.774 -0.1906  0.8725 -0.4465
  788MPD2    C211669   0.032   4.496   0.662 -0.0178  0.1298  0.6528
  788MPD2    C311670   4.725   4.628   0.645  0.0723 -0.0768  0.2718
  788MPD2    C411671   4.732   4.717   0.743 -0.0307  0.1366 -0.2214
  788MPD2    C511672   0.048   4.671   0.863  0.2672  0.1062  0.0756
  788MPD2     H11673   0.040   4.432   0.575 -1.7648 -0.7463  1.1308
  788MPD2    H111674   4.697   0.082   0.739 -1.2768 -0.2207  1.8186
  788MPD2    H211675   0.150   4.529   0.977 -1.8747 -1.7226  0.3860
  788MPD2    H311676   0.061   0.008   0.941  0.0141 -0.5155  0.7162
  788MPD2     N11677   4.664   4.661   0.527  0.8956  0.2385  0.6873
  788MPD2    H511678   4.645   0.022   0.521  0.3492 -0.0865 -2.7575
  788MPD2    N111679   0.140   4.323   0.781 -0.1011  0.2232  0.1812
  788MPD2    H711680   0.128   4.263   0.699  1.0771  1.5713 -0.9616
  789MPD2     C11681   0.409   3.147  16.963  0.2364 -0.1697 -0.0006
  789MPD2    C111682   0.329   3.145  16.848 -0.0557  0.4823  0.1273
  789MPD2    C211683   0.201   3.194  16.861  0.3338  0.5389  0.2872
  789MPD2    C311684   0.148   3.243  16.981 -0.1886  0.2309 -0.0303
  789MPD2    C411685   0.235   3.259  17.084 -0.3945  0.3573 -1.0019
  789MPD2    C511686   0.364   3.213  17.072 -0.3297  0.1038  0.5528
  789MPD2     H11687   0.137   3.206  16.774  0.0005 -0.1449  0.4345
  789MPD2    H111688   0.204   3.297  17.180 -2.0905 -0.8193 -1.0864
  789MPD2    H211689   0.511   3.113  16.952 -0.5513 -2.4879 -0.2257
  789MPD2    H311690   0.424   3.228  17.160 -0.6390 -3.4353  1.3812
  789MPD2     N11691   0.016   3.284  17.010  0.0793 -0.5818  0.0513
  789MPD2    H511692   4.731   3.346  17.087  1.8344 -1.2733  1.1340
  789MPD2    N111693   0.361   3.088  16.726  0.0850 -0.3995 -0.0670
  789MPD2    H711694   0.291   3.084  16.653  0.9800  2.5374 -1.0926
  790MPD2     C11695   1.454   0.103  13.498 -0.0333 -0.5177  0.4711
  790MPD2    C111696   1.497   4.715  13.530 -0.2676  0.9412 -0.4787
  790MPD2    C211697   1.517   4.622  13.420  0.0678 -1.1020  0.4399
  790MPD2    C311698   1.481   4.666  13.291 -1.1224 -0.4423 -0.4183
  790MPD2    C411699   1.430   0.054  13.268 -0.2824 -0.1614 -0.4214
  790MPD2    C511700   1.415   0.139  13.373 -0.3640 -0.0771  0.0837
  790MPD2     H11701   1.524   4.515  13.435 -0.1858 -1.2951 -0.8054
  790MPD2    H111702   1.399   0.096  13.173 -0.0980 -0.9879 -0.8451
  790MPD2    H211703   1.452   0.174  13.580 -3.1228 -0.2492  0.1379
  790MPD2    H311704   1.372   0.239  13.366  0.1887  0.1969  0.5967
  790MPD2     N11705   1.496   4.575  13.189 -0.4971 -0.0620 -0.1626
  790MPD2    H511706   1.522   4.480  13.211 -0.1870  0.0960  0.1543
  790MPD2    N111707   1.512   4.682  13.663 -0.2142 -0.1777  0.3445
  790MPD2    H711708   1.490   0.018  13.729 -0.4752  0.6391 -0.6551
  791MPD2     C11709   1.068   4.013  13.025  0.0736 -0.0188 -0.1726
  791MPD2    C111710   1.070   4.152  12.987 -0.2161 -0.2683 -0.1814
  791MPD2    C211711   0.944   4.215  12.962 -0.6605  0.4676 -0.4242
  791MPD2    C311712   0.827   4.139  12.973 -0.4629  0.3375 -0.1078
  791MPD2    C411713   0.830   4.010  13.023  0.0464  0.4919  0.7902
  791MPD2    C511714   0.948   3.949  13.053  0.4061  0.0237 -0.2571
  791MPD2     H11715   0.939   4.320  12.936 -1.0913  0.2545 -1.1833
  791MPD2    H111716   0.744   3.946  13.041  1.0807 -0.8818  0.8114
  791MPD2    H211717   1.152   3.956  13.063 -0.3244 -1.0862 -0.8755
  791MPD2    H311718   0.958   3.847  13.088  0.5546 -0.3396 -1.3610
  791MPD2     N11719   0.699   4.198  12.943  0.0148  0.2396  0.1124
  791MPD2    H511720   0.697   4.295  12.914 -0.0759 -0.3838 -1.9576
  791MPD2    N111721   1.193   4.216  12.977 -0.2086 -0.4575 -0.2557
  791MPD2    H711722   1.197   4.314  12.949 -1.0543 -0.5169 -0.5611
  792MPD2     C11723   1.441   4.592  11.463 -0.2447 -0.0040  0.1526
  792MPD2    C111724   1.398   4.640  11.341 -0.6390 -0.2190  0.7157
  792MPD2    C211725   1.283   4.582  11.285  0.3793 -0.3637 -0.4782
  792MPD2    C311726   1.222   4.469  11.339 -0.0415  0.5423 -0.3087
  792MPD2    C411727   1.261   4.433  11.467 -0.1827 -0.0412 -0.4679
  792MPD2    C511728   1.378   4.484  11.517  0.0728 -0.1161  0.1494
  792MPD2     H11729   1.243   4.618  11.191  2.6926  0.3265 -1.1967
  792MPD2    H111730   1.214   4.348  11.516 -1.6847  1.2675  0.3389
  792MPD2    H211731   1.534   4.632  11.502 -1.6086  2.3598  0.9338
  792MPD2    H311732   1.418   4.444  11.610 -0.6428 -1.6604 -0.2071
  792MPD2     N11733   1.102   4.412  11.284 -0.0187 -0.0633  0.2070
  792MPD2    H511734   1.052   4.338  11.332  2.5395 -0.7790  1.7781
  792MPD2    N111735   1.472   0.004  11.275  0.0067 -0.1618 -0.1651
  792MPD2    H711736   1.561   0.029  11.317  0.2947  0.3037 -1.0436
  793MPD2     C11737   0.642   3.971  10.423 -0.3741  0.4645 -0.8014
  793MPD2    C111738   0.707   4.089  10.433  0.0633  0.5213  0.0117
  793MPD2    C211739   0.718   4.140  10.560 -0.2211 -0.8424 -0.0753
  793MPD2    C311740   0.659   4.076  10.673 -0.0419 -0.3357 -0.4956
  793MPD2    C411741   0.582   3.960  10.650 -0.2832  0.2364  0.5516
  793MPD2    C511742   0.576   3.908  10.524  0.1017 -0.7713  0.3333
  793MPD2     H11743   0.776   4.231  10.571  0.7234 -1.2226 -1.9299
  793MPD2    H111744   0.540   3.897  10.728 -0.0328 -0.7067 -0.0729
  793MPD2    H211745   0.619   3.917  10.332  0.9460  0.6885 -1.2597
  793MPD2    H311746   0.530   3.810  10.511 -0.7431 -0.4268  0.7384
  793MPD2     N11747   0.691   4.113  10.806 -0.3792  0.3755  0.4604
  793MPD2    H511748   0.657   4.050  10.878 -1.2479 -0.3446 -0.5815
  793MPD2    N111749   0.774   4.162  10.330  0.5255  0.6378 -0.1373
  793MPD2    H711750   0.827   4.242  10.363  3.3070 -0.1337 -2.6875
  794MPD2     C11751   1.434   3.970  16.785 -0.0202  0.5986  0.2201
  794MPD2    C111752   1.325   4.020  16.848 -0.3152 -0.0141  0.1553
  794MPD2    C211753   1.223   4.072  16.774 -0.3404  0.2725  0.4960
  794MPD2    C311754   1.225   4.072  16.635  0.3064 -0.0603  0.4258
  794MPD2    C411755   1.327   4.005  16.571  0.9563 -0.2811  0.1726
  794MPD2    C511756   1.434   3.964  16.648 -0.1057 -0.1180  0.3251
  794MPD2     H11757   1.138   4.099  16.836 -0.2337  2.5648 -0.3502
  794MPD2    H111758   1.319   3.982  16.465  0.5115 -0.7479  0.3035
  794MPD2    H211759   1.517   3.928  16.839  0.8088 -0.0602 -1.5458
  794MPD2    H311760   1.524   3.928  16.598  0.3175  0.9749  0.3029
  794MPD2     N11761   1.117   4.118  16.555 -0.1850  0.1360 -0.1956
  794MPD2    H511762   1.136   4.116  16.456  2.5429 -0.7018  0.3395
  794MPD2    N111763   1.304   4.014  16.988 -0.3010  0.0015  0.5107
  794MPD2    H711764   1.210   4.034  17.021  0.1104  1.5619  0.7082
  795MPD2     C11765   3.261   1.504  13.683 -0.4297  0.3066  0.8347
  795MPD2    C111766   3.227   1.378  13.644 -0.0606 -0.0988  0.4880
  795MPD2    C211767   3.304   1.266  13.673  0.4521  0.0535 -0.2981
  795MPD2    C311768   3.420   1.279  13.749 -0.0032  0.2199  0.2035
  795MPD2    C411769   3.456   1.412  13.782 -0.2376  0.2301  0.1615
  795MPD2    C511770   3.374   1.519  13.756  0.0344  0.0727 -0.7754
  795MPD2     H11771   3.271   1.169  13.638  0.8100  0.0592 -0.6534
  795MPD2    H111772   3.549   1.437  13.831 -0.1084  0.9622 -0.4614
  795MPD2    H211773   3.228   1.598  13.641 -0.3294 -0.3511 -0.7192
  795MPD2    H311774   3.401   1.621  13.779  0.6173 -0.3103  0.2493
  795MPD2     N11775   3.501   1.176  13.780 -0.6008  0.4153 -0.4468
  795MPD2    H511776   3.468   1.092  13.734 -0.2677  0.5079 -0.8517
  795MPD2    N111777   3.113   1.357  13.566  0.6012 -0.2224 -0.5421
  795MPD2    H711778   3.096   1.262  13.534  1.3318 -0.5086 -0.0978
  796MPD2     C11779   3.543   3.150  15.905 -0.0498  0.6668 -0.0302
  796MPD2    C111780   3.503   3.109  16.031 -0.5346 -0.2338 -0.0679
  796MPD2    C211781   3.456   3.208  16.123  0.4124 -0.0774 -0.2302
  796MPD2    C311782   3.447   3.338  16.082 -0.1905  0.2163 -0.1532
  796MPD2    C411783   3.496   3.382  15.957  0.2908 -1.0249 -0.1532
  796MPD2    C511784   3.540   3.283  15.871  0.3586  0.5798  0.0339
  796MPD2     H11785   3.425   3.178  16.223  0.1500  0.9259 -0.0060
  796MPD2    H111786   3.508   3.483  15.917  0.2005 -1.3567 -1.0241
  796MPD2    H211787   3.576   3.078  15.831  3.6810  0.4992  1.7549
  796MPD2    H311788   3.574   3.301  15.770 -0.8366  0.1000 -0.4605
  796MPD2     N11789   3.408   3.442  16.168 -0.3258  0.2181  0.3042
  796MPD2    H511790   3.377   3.418  16.262  0.5494 -2.6663 -0.1519
  796MPD2    N111791   3.511   2.969  16.056  0.3853  0.3029  0.0747
  796MPD2    H711792   3.559   2.910  15.989 -0.9060 -0.4107 -0.2197
  797MPD2     C11793   4.127   2.711  17.596  0.2828  0.5467  0.9297
  797MPD2    C111794   4.191   2.826  17.562  0.2608 -0.7661 -0.2514
  797MPD2    C211795   4.197   2.854  17.426  0.9514 -0.6729  0.9324
  797MPD2    C311796   4.136   2.780  17.330 -1.0133  0.2173 -0.4800
  797MPD2    C411797   4.060   2.672  17.367 -0.0005  0.2566  0.6542
  797MPD2    C511798   4.055   2.639  17.500 -0.4316 -0.1343 -0.2913
  797MPD2     H11799   4.258   2.935  17.387  2.0595 -1.0826  1.8011
  797MPD2    H111800   3.993   2.633  17.290  0.8362  1.2416 -0.5778
  797MPD2    H211801   4.121   2.675  17.698 -1.5910  0.3905  0.7731
  797MPD2    H311802   3.991   2.561  17.538  1.0202 -1.1821 -0.0332
  797MPD2     N11803   4.123   2.855  17.211  0.2179 -0.5996  0.2354
  797MPD2    H511804   4.171   2.943  17.195 -1.0460  0.1551  0.5603
  797MPD2    N111805   4.242   2.914  17.655 -0.5317  0.1105 -0.0915
  797MPD2    H711806   4.287   2.998  17.621  1.5560 -1.0044 -0.0830
  798MPD2     C11807   4.219   3.557  17.252 -0.6560  0.3886  0.2724
  798MPD2    C111808   4.241   3.418  17.245  0.4890  0.0123 -0.0451
  798MPD2    C211809   4.281   3.356  17.359  0.5924  0.2212  0.0259
  798MPD2    C311810   4.297   3.423  17.482 -0.3997 -0.3126 -0.3244
  798MPD2    C411811   4.275   3.561  17.491  0.2159  0.4724 -0.9368
  798MPD2    C511812   4.233   3.620  17.372  0.4125 -0.0949 -0.9044
  798MPD2     H11813   4.281   3.248  17.370  3.2831  0.1751 -0.2246
  798MPD2    H111814   4.278   3.627  17.577 -0.2729 -0.7104 -0.0219
  798MPD2    H211815   4.175   3.606  17.167  0.7352  0.5657 -0.3368
  798MPD2    H311816   4.212   3.727  17.369  0.6374 -0.0226  0.1154
  798MPD2     N11817   4.307   3.338  17.595 -0.4384 -0.9325 -0.1899
  798MPD2    H511818   4.333   3.243  17.569 -1.2343 -0.3922 -2.9664
  798MPD2    N111819   4.200   3.358  17.122  0.4071  1.0873 -0.0676
  798MPD2    H711820   4.151   3.414  17.053  0.5836  0.1529 -0.9562
  799MPD2     C11821   3.059   4.001  15.036 -0.0571 -0.2032 -0.1756
  799MPD2    C111822   3.036   3.927  14.921 -0.4366 -0.3476 -0.3468
  799MPD2    C211823   2.942   3.974  14.832 -0.6562  0.1037  0.4653
  799MPD2    C311824   2.890   4.099  14.848 -0.2324  0.2863 -0.3714
  799MPD2    C411825   2.933   4.174  14.953 -0.2299  0.3283 -1.2952
  799MPD2    C511826   3.011   4.127  15.047  0.2823 -0.3561 -0.2006
  799MPD2     H11827   2.916   3.912  14.746 -0.9759 -0.5241  1.0134
  799MPD2    H111828   2.895   4.274  14.973 -0.3120 -0.2773  1.6155
  799MPD2    H211829   3.123   3.969  15.117 -1.5992  0.2703  1.2145
  799MPD2    H311830   3.035   4.194  15.129  1.1295 -2.8959  1.6118
  799MPD2     N11831   2.805   4.172  14.758 -0.1359 -0.0579 -0.3869
  799MPD2    H511832   2.784   4.268  14.784 -1.5163 -0.2364 -0.8530
  799MPD2    N111833   3.072   3.794  14.908  0.4744 -0.3983  0.1008
  799MPD2    H711834   3.029   3.741  14.833 -0.4746 -1.0053  1.0813
  800MPD2     C11835   3.093   0.629  14.162 -0.5706  0.3078 -0.0775
  800MPD2    C111836   3.190   0.539  14.158  0.5350  0.9033 -0.2710
  800MPD2    C211837   3.178   0.417  14.089  0.8444 -0.0291  0.5342
  800MPD2    C311838   3.064   0.397  14.015  0.1557  0.7874 -0.5514
  800MPD2    C411839   2.965   0.495  14.017  0.8378  0.5841 -0.3671
  800MPD2    C511840   2.980   0.607  14.086  0.3641 -1.0047  0.7671
  800MPD2     H11841   3.244   0.331  14.100  0.5202 -0.4275 -0.7079
  800MPD2    H111842   2.869   0.488  13.966  0.2599  1.4385  0.5837
  800MPD2    H211843   3.087   0.719  14.222  4.2338  0.3834  0.3311
  800MPD2    H311844   2.892   0.670  14.096 -0.4995 -2.2460  0.9928
  800MPD2     N11845   3.052   0.271  13.956  0.2640  0.1849  0.6558
  800MPD2    H511846   3.133   0.212  13.968 -0.7209 -1.3486 -0.2138
  800MPD2    N111847   3.313   0.584  14.213 -0.7460 -0.8183  0.6025
  800MPD2    H711848   3.308   0.651  14.289  0.9189  0.5661 -0.5178
  801MPD2     C11849   3.657   1.180  14.418 -0.1847  0.1373 -0.0389
  801MPD2    C111850   3.561   1.080  14.435  0.4593  0.1914  0.0490
  801MPD2    C211851   3.457   1.102  14.520 -0.1080 -0.3372  0.0255
  801MPD2    C311852   3.447   1.216  14.598 -0.3383  0.2827  0.0735
  801MPD2    C411853   3.542   1.314  14.578  0.0852 -0.4422 -0.0488
  801MPD2    C511854   3.643   1.295  14.489 -0.7862  0.2072  0.1387
  801MPD2     H11855   3.395   1.017  14.548  0.1909 -0.3258  0.7215
  801MPD2    H111856   3.543   1.405  14.639  4.2704 -1.0768  0.8631
  801MPD2    H211857   3.736   1.169  14.345  0.8256 -1.7962  1.3364
  801MPD2    H311858   3.711   1.378  14.472 -0.0811 -0.1895  1.0870
  801MPD2     N11859   3.343   1.236  14.691 -0.0053  0.1516  0.2976
  801MPD2    H511860   3.366   1.290  14.773  1.2089 -0.8743  0.6359
  801MPD2    N111861   3.578   0.951  14.377 -0.1204  0.1604  0.7301
  801MPD2    H711862   3.494   0.895  14.383  0.1009 -0.0753  1.6395
  802MPD2     C11863   2.333   2.128   0.280  0.3639 -0.3845  0.4343
  802MPD2    C111864   2.278   2.028   0.200 -1.1051 -0.1526  0.2417
  802MPD2    C211865   2.360   1.953   0.125 -0.6333 -0.2234  0.3764
  802MPD2    C311866   2.494   1.980   0.115  0.0216 -0.4789  0.3493
  802MPD2    C411867   2.552   2.076   0.192  0.1522  0.2891 -0.5783
  802MPD2    C511868   2.473   2.151   0.271  0.0069 -0.6649 -0.3427
  802MPD2     H11869   2.313   1.862   0.087 -3.6725  0.6271  2.1382
  802MPD2    H111870   2.658   2.098   0.194  0.1246  0.6475 -2.4762
  802MPD2    H211871   2.283   2.189   0.354  1.1110  0.7737 -0.0216
  802MPD2    H311872   2.524   2.222   0.334  0.6091 -1.2031 -0.2254
  802MPD2     N11873   2.576   1.905   0.025 -0.0936  0.1537  0.1359
  802MPD2    H511874   2.535   1.834  17.715  2.6285 -0.1751 -1.3446
  802MPD2    N111875   2.141   2.005   0.192 -0.2411 -0.4388 -0.5587
  802MPD2    H711876   2.099   1.926   0.144 -1.9642  0.5519 -0.6896
  803MPD2     C11877   3.622   4.446  12.495 -0.5269  0.1251 -0.0292
  803MPD2    C111878   3.759   4.438  12.474 -1.2476  0.3378 -0.6318
  803MPD2    C211879   3.838   4.404  12.581  0.0326  0.0751  0.3753
  803MPD2    C311880   3.781   4.392  12.706  0.0555  0.1253  0.3362
  803MPD2    C411881   3.646   4.406  12.725  0.0177 -0.1869  0.1072
  803MPD2    C511882   3.568   4.428  12.620  0.3840  0.4144  0.7845
  803MPD2     H11883   3.942   4.379  12.566 -0.3665  0.1751 -2.5947
  803MPD2    H111884   3.608   4.395  12.826 -0.8963  1.7291 -0.0356
  803MPD2    H211885   3.552   4.473  12.417 -1.3441  1.1518  1.0537
  803MPD2    H311886   3.461   4.430  12.637  0.4622 -2.3660  1.7592
  803MPD2     N11887   3.851   4.340  12.814  0.1863  0.2663  0.5818
  803MPD2    H511888   3.793   4.325  12.896  0.7812  0.8539  1.1040
  803MPD2    N111889   3.823   4.461  12.353  0.5065  0.4934 -0.1006
  803MPD2    H711890   3.925   4.456  12.353  0.4825  0.1414  2.6011
  804MPD2     C11891   3.901   1.161  16.746  0.0012 -0.5989  0.0144
  804MPD2    C111892   3.806   1.186  16.841  0.3709 -1.1210  0.4708
  804MPD2    C211893   3.813   1.307  16.911 -0.5188 -0.9916 -0.2840
  804MPD2    C311894   3.903   1.403  16.882 -0.0137  0.5997 -0.4984
  804MPD2    C411895   3.998   1.381  16.783  0.6777  0.1357  0.3129
  804MPD2    C511896   3.997   1.254  16.723  0.1250 -0.3584 -0.4512
  804MPD2     H11897   3.743   1.334  16.988 -2.3848 -1.4772 -1.8061
  804MPD2    H111898   4.075   1.454  16.762 -0.1449  1.1550  0.8244
  804MPD2    H211899   3.923   1.070  16.691 -0.7666 -0.3365 -0.7124
  804MPD2    H311900   4.081   1.233  16.658 -0.9128 -0.4165 -1.7843
  804MPD2     N11901   3.899   1.521  16.958  0.3056  0.4950 -0.2418
  804MPD2    H511902   3.825   1.527  17.027  0.2598 -1.5215 -0.1186
  804MPD2    N111903   3.709   1.090  16.884 -0.0752  0.1290  0.2784
  804MPD2    H711904   3.646   1.116  16.960 -0.4260 -0.5938  0.2303
  805MPD2     C11905   2.622   3.876  15.702  0.1571  0.4650 -0.4678
  805MPD2    C111906   2.625   4.014  15.700 -0.1204  0.4273  0.1601
  805MPD2    C211907   2.746   4.080  15.741 -0.7825  0.2827  0.1063
  805MPD2    C311908   2.856   4.010  15.788  0.0451 -0.1568  0.4638
  805MPD2    C411909   2.845   3.880  15.786 -0.5951  0.1677 -0.1477
  805MPD2    C511910   2.733   3.810  15.742 -0.4692  0.0012 -0.1861
  805MPD2     H11911   2.752   4.187  15.727 -0.4273  0.0469 -1.5997
  805MPD2    H111912   2.918   3.809  15.823 -0.9763  0.3376  0.9069
  805MPD2    H211913   2.538   3.809  15.688  0.9504 -0.3603 -1.2631
  805MPD2    H311914   2.738   3.703  15.755  2.0944  0.3515  1.7887
  805MPD2     N11915   2.969   4.086  15.825  0.0433  0.7509 -0.0617
  805MPD2    H511916   2.955   4.186  15.811 -0.3484  0.7718  0.5085
  805MPD2    N111917   2.517   4.091  15.650 -0.2418 -0.3596  0.8848
  805MPD2    H711918   2.528   4.192  15.641 -2.7510 -0.1730 -0.1126
  806MPD2     C11919   3.125   4.158   0.365 -0.0221  0.2047  0.0787
  806MPD2    C111920   3.097   4.291   0.365  0.4183 -0.5606  0.4158
  806MPD2    C211921   3.104   4.365   0.253  0.3174 -0.2564  0.1075
  806MPD2    C311922   3.128   4.307   0.129  0.4048 -0.0570  0.6676
  806MPD2    C411923   3.156   4.174   0.127  0.1101 -0.2580 -0.2962
  806MPD2    C511924   3.160   4.099   0.247 -0.0290  0.2948 -0.2274
  806MPD2     H11925   3.084   4.472   0.252  1.3947 -0.0627  0.1763
  806MPD2    H111926   3.191   4.127   0.036  0.1832  3.2038 -2.0499
  806MPD2    H211927   3.122   4.097   0.454  1.8315 -1.7397 -1.1722
  806MPD2    H311928   3.194   3.996   0.253  2.1753  1.0433  0.1471
  806MPD2     N11929   3.129   4.397   0.021 -0.1979  0.5135  0.0962
  806MPD2    H511930   3.136   4.497   0.038 -2.3028  0.8160 -0.7781
  806MPD2    N111931   3.071   4.347   0.489  0.2122  0.0667  0.6600
  806MPD2    H711932   3.079   4.289   0.572  1.1196  0.2614  0.7085
  807MPD2     C11933   2.662   4.201   1.094  0.2338 -0.6709 -0.0009
  807MPD2    C111934   2.736   4.163   0.985  0.0115 -0.5709  0.3758
  807MPD2    C211935   2.732   4.030   0.951  0.4651  0.1608  0.2687
  807MPD2    C311936   2.660   3.936   1.020 -0.6401 -0.6338  0.0469
  807MPD2    C411937   2.583   3.983   1.124  0.2336  0.4769 -0.0008
  807MPD2    C511938   2.584   4.112   1.157  1.1359  0.2339 -0.1580
  807MPD2     H11939   2.794   3.991   0.871 -0.9932 -1.2020 -0.1989
  807MPD2    H111940   2.510   3.924   1.179  0.3076 -0.2826 -0.7237
  807MPD2    H211941   2.659   4.306   1.122 -1.1366 -0.4391 -1.0427
  807MPD2    H311942   2.521   4.139   1.241  1.8574  0.5975  0.2701
  807MPD2     N11943   2.667   3.802   0.977  0.0036  0.1998 -0.0481
  807MPD2    H511944   2.739   3.785   0.908  2.4778 -1.3977  2.9086
  807MPD2    N111945   2.823   4.241   0.912  0.0165  0.7269 -0.3111
  807MPD2    H711946   2.860   4.193   0.831 -1.5180  0.0684 -0.6158
  808MPD2     C11947   3.843   0.474  10.173 -0.3932 -0.1368 -0.9680
  808MPD2    C111948   3.740   0.563  10.153 -0.2349  0.7639 -0.2738
  808MPD2    C211949   3.766   0.698  10.161 -0.1510 -0.5093 -0.4218
  808MPD2    C311950   3.891   0.734  10.205  0.2776  0.0537  0.3524
  808MPD2    C411951   3.996   0.648  10.232  0.3623  0.5264  0.2216
  808MPD2    C511952   3.966   0.519  10.220 -0.1215  0.4482  0.3571
  808MPD2     H11953   3.693   0.773  10.131 -0.2715 -0.3421  0.3037
  808MPD2    H111954   4.095   0.670  10.269  1.2752  0.9513 -2.4090
  808MPD2    H211955   3.835   0.367  10.162 -0.4105 -0.3035  0.6497
  808MPD2    H311956   4.038   0.445  10.254  1.7175  1.9593 -0.2937
  808MPD2     N11957   3.928   0.870  10.223 -0.0382  0.6775  0.1365
  808MPD2    H511958   4.027   0.892  10.230  0.2396 -1.2757  2.5511
  808MPD2    N111959   3.610   0.521  10.099 -0.0483  0.2413  0.1103
  808MPD2    H711960   3.541   0.594  10.089  0.3357  0.7634  1.3245
  809MPD2     C11961   4.613   1.512  10.004 -0.1906  0.4661  0.1712
  809MPD2    C111962   4.569   1.393   9.953 -1.0116  0.5797 -0.2539
  809MPD2    C211963   4.456   1.339  10.007  0.3631  0.6095  0.2373
  809MPD2    C311964   4.384   1.407  10.102 -0.5202 -0.4607 -0.4267
  809MPD2    C411965   4.435   1.516  10.161  0.1113 -0.3165  0.8392
  809MPD2    C511966   4.553   1.568  10.117 -0.3942 -0.3966  0.1252
  809MPD2     H11967   4.421   1.244   9.968  3.1700 -0.2242 -0.2528
  809MPD2    H111968   4.379   1.570  10.236  0.4978  0.8915  0.2623
  809MPD2    H211969   4.706   1.560   9.977 -0.5989  0.5035 -1.2146
  809MPD2    H311970   4.589   1.657  10.167  0.6070  0.2485 -1.7359
  809MPD2     N11971   4.258   1.364  10.138 -0.0467 -0.0486  0.2062
  809MPD2    H511972   4.207   1.427  10.200  1.0691 -0.8103  1.9090
  809MPD2    N111973   4.645   1.330   9.855  0.5472  0.4113  0.2270
  809MPD2    H711974   4.618   1.235   9.833 -0.9957  1.1822 -1.2184
  810MPD2     C11975   3.405   0.068  10.577 -0.2046 -0.2665  0.3259
  810MPD2    C111976   3.283   0.114  10.532 -0.8283  0.5623 -0.2237
  810MPD2    C211977   3.261   0.252  10.524  0.2577 -0.1895 -0.2399
  810MPD2    C311978   3.353   0.341  10.579  0.0826 -0.5061 -0.1256
  810MPD2    C411979   3.465   0.290  10.644  0.1136 -0.1971 -0.3455
  810MPD2    C511980   3.492   0.157  10.635 -0.3794  0.3259 -0.0465
  810MPD2     H11981   3.177   0.278  10.462  0.9965 -0.8357 -1.5032
  810MPD2    H111982   3.527   0.358  10.701 -0.7630  0.8790 -0.6708
  810MPD2    H211983   3.431   4.701  10.565 -0.7160 -0.3433 -0.0873
  810MPD2    H311984   3.581   0.111  10.676 -0.7867 -0.8029 -0.4385
  810MPD2     N11985   3.326   0.481  10.584 -0.2881 -0.5348  0.0621
  810MPD2    H511986   3.392   0.542  10.630  1.6742 -1.6197 -1.3399
  810MPD2    N111987   3.181   0.034  10.481  0.0722 -0.5785 -0.0455
  810MPD2    H711988   3.094   0.083  10.465  0.3291  0.0488  0.4822
  811MPD2     C11989   2.606   0.169   9.954 -0.3633 -0.0313  0.3728
  811MPD2    C111990   2.704   0.209  10.046  0.4701 -0.8108  0.0259
  811MPD2    C211991   2.761   0.336  10.034 -0.3704 -0.1009 -0.3849
  811MPD2    C311992   2.702   0.427   9.953 -0.1341 -0.2497  0.6583
  811MPD2    C411993   2.601   0.389   9.866  0.0069 -0.0934  0.0507
  811MPD2    C511994   2.554   0.258   9.867  0.1368 -0.0227 -0.4998
  811MPD2     H11995   2.851   0.370  10.086 -0.8997  0.7059  0.0075
  811MPD2    H111996   2.556   0.451   9.789  2.5471 -0.3260 -1.6287
  811MPD2    H211997   2.573   0.066   9.950 -0.5087  0.0668 -0.9778
  811MPD2    H311998   2.475   0.229   9.798  0.7255 -2.0509 -0.3330
  811MPD2     N11999   2.751   0.561   9.956  0.6433 -0.3158 -0.9538
  811MPD2    H512000   2.831   0.577  10.016 -0.5541  0.7294  0.3854
  811MPD2    N112001   2.756   0.103  10.129 -0.2873 -0.0399  0.0714
  811MPD2    H712002   2.714   0.015  10.103 -0.7163 -0.7673  3.2370
  812MPD2     C12003   1.792   4.197  12.178 -0.0608  0.2066  0.5807
  812MPD2    C112004   1.867   4.316  12.176  0.2835 -1.2198 -0.7749
  812MPD2    C212005   1.943   4.347  12.292 -1.0227  0.1155 -1.0053
  812MPD2    C312006   1.967   4.255  12.391 -0.2992  0.2918 -0.0466
  812MPD2    C412007   1.903   4.135  12.379 -0.8075 -0.4492  0.3703
  812MPD2    C512008   1.812   4.100  12.278  0.2205 -0.0650  0.3228
  812MPD2     H12009   1.993   4.442  12.300  0.4421 -0.6806 -0.8091
  812MPD2    H112010   1.914   4.063  12.459  1.0919  0.8917  1.3103
  812MPD2    H212011   1.741   4.163  12.089  0.7480  1.5501 -0.4017
  812MPD2    H312012   1.761   4.006  12.289  1.7071 -1.3125 -3.5940
  812MPD2     N12013   2.054   4.287  12.499 -0.4238 -0.4891 -0.1755
  812MPD2    H512014   2.068   4.387  12.505 -0.5201 -0.5696  1.3474
  812MPD2    N112015   1.872   4.390  12.053 -0.1021  0.4013  0.0512
  812MPD2    H712016   1.805   4.369  11.980 -0.3296  1.0420  0.0770
  813MPD2     C12017   0.886   1.612  12.991 -0.9285 -0.4860 -0.4999
  813MPD2    C112018   0.965   1.650  13.098 -0.4578 -0.6219  0.2319
  813MPD2    C212019   0.899   1.689  13.216 -0.8165 -0.9823 -0.0086
  813MPD2    C312020   0.765   1.716  13.220 -0.1057 -0.3633  0.2070
  813MPD2    C412021   0.686   1.680  13.117 -0.7602 -0.5687  0.3201
  813MPD2    C512022   0.746   1.620  13.009  0.1061  0.4681  0.2035
  813MPD2     H12023   0.961   1.721  13.299 -1.7210 -2.4631  1.2362
  813MPD2    H112024   0.578   1.694  13.121 -0.5281  1.1402  0.7426
  813MPD2    H212025   0.923   1.574  12.897 -2.4633  0.2889 -1.4289
  813MPD2    H312026   0.683   1.595  12.924 -1.7882  1.5480  1.2784
  813MPD2     N12027   0.722   1.790  13.330 -0.5963  0.4214 -0.2763
  813MPD2    H512028   0.789   1.825  13.398 -1.1537  3.2536 -1.2211
  813MPD2    N112029   1.108   1.639  13.085  0.6762  0.0140  0.0773
  813MPD2    H712030   1.146   1.638  12.991  0.9834  1.1118  0.1898
  814MPD2     C12031   1.761   2.736  12.629 -0.2299  1.0422  0.5310
  814MPD2    C112032   1.736   2.793  12.507 -0.3765  0.0273  0.6530
  814MPD2    C212033   1.776   2.927  12.483 -0.4734  0.0582 -0.6320
  814MPD2    C312034   1.836   3.002  12.583  0.0894 -0.0692  0.5645
  814MPD2    C412035   1.851   2.945  12.708  0.0067 -0.2758 -0.3643
  814MPD2    C512036   1.816   2.815  12.726 -0.0155  0.9152  0.7143
  814MPD2     H12037   1.756   2.975  12.388  0.3868 -0.0323 -0.8593
  814MPD2    H112038   1.895   2.995  12.793  0.6157  0.3506 -1.0461
  814MPD2    H212039   1.738   2.635  12.659  0.0302  1.3917  1.9097
  814MPD2    H312040   1.845   2.770  12.820  1.4203 -1.0268 -0.6578
  814MPD2     N12041   1.875   3.138  12.576 -0.1765 -0.0594  0.2962
  814MPD2    H512042   1.932   3.180  12.648  0.0302  0.8614 -0.4047
  814MPD2    N112043   1.680   2.720  12.400  0.1652 -0.2908 -0.2966
  814MPD2    H712044   1.670   2.767  12.311 -1.5716 -0.8247 -0.3870
  815MPD2     C12045   1.834   1.474  11.978 -0.1925 -0.1423 -0.0367
  815MPD2    C112046   1.877   1.344  11.948 -0.4719  0.2114 -0.5972
  815MPD2    C212047   1.793   1.236  11.994  0.6709  0.0457 -0.2659
  815MPD2    C312048   1.685   1.261  12.071 -0.6796 -0.0364 -0.4934
  815MPD2    C412049   1.651   1.393  12.112 -0.1714  0.3739  1.0067
  815MPD2    C512050   1.723   1.497  12.057 -0.1513  0.6492  0.2399
  815MPD2     H12051   1.811   1.136  11.956  0.4171 -1.5656  3.8627
  815MPD2    H112052   1.561   1.417  12.168  0.5886  0.6191  2.1199
  815MPD2    H212053   1.883   1.566  11.947  0.7668 -1.2601 -1.8302
  815MPD2    H312054   1.690   1.599  12.074 -0.7770  0.6626 -1.0915
  815MPD2     N12055   1.621   1.139  12.110  0.4568 -0.1206 -0.6265
  815MPD2    H512056   1.646   1.060  12.052  2.2403  1.2485 -1.7030
  815MPD2    N112057   1.997   1.324  11.875  0.2583  0.6687 -0.0888
  815MPD2    H712058   2.035   1.409  11.835  3.5136 -0.9462 -0.3997
  816MPD2     C12059   2.056   0.605  16.899  0.0082 -0.1545 -0.2766
  816MPD2    C112060   2.029   0.724  16.834 -0.0965 -0.5978  0.3548
  816MPD2    C212061   2.090   0.737  16.708  0.1761 -0.0402 -0.1823
  816MPD2    C312062   2.159   0.637  16.646  0.3281 -0.5582 -0.8852
  816MPD2    C412063   2.179   0.518  16.715  0.3045 -0.1469  0.3973
  816MPD2    C512064   2.135   0.507  16.841 -0.1014  0.1014  0.1282
  816MPD2     H12065   2.070   0.820  16.641 -2.8807  0.3948  1.2371
  816MPD2    H112066   2.225   0.432  16.668  0.3907 -0.4562  1.0544
  816MPD2    H212067   2.012   0.581  16.995  0.5191 -0.4595 -0.1196
  816MPD2    H312068   2.153   0.416  16.897 -0.3915  0.5956  1.0246
  816MPD2     N12069   2.210   0.651  16.515  0.2804 -0.0640 -0.4192
  816MPD2    H512070   2.196   0.744  16.478 -0.8771 -0.2402 -0.4372
  816MPD2    N112071   1.954   0.826  16.900 -0.4059 -0.5551  0.4430
  816MPD2    H712072   1.934   0.815  16.999 -1.4387 -0.1360  0.2806
  817MPD2     C12073   2.087   2.591  10.745 -0.5655  0.1162  0.1012
  817MPD2    C112074   2.171   2.580  10.636 -0.4863 -0.5724  0.2343
  817MPD2    C212075   2.116   2.610  10.510  0.3935 -0.2879  0.1508
  817MPD2    C312076   1.996   2.672  10.490  0.2696 -0.6265  0.6074
  817MPD2    C412077   1.913   2.694  10.600 -0.5017  0.7195 -0.3757
  817MPD2    C512078   1.967   2.655  10.720 -0.2376  0.3142  0.3838
  817MPD2     H12079   2.183   2.587  10.428 -0.1079  1.3556 -0.7157
  817MPD2    H112080   1.811   2.729  10.591 -0.8240  0.2419  1.4093
  817MPD2    H212081   2.114   2.576  10.849 -1.4951 -3.2394 -0.1473
  817MPD2    H312082   1.907   2.677  10.808  2.1300  2.0156  1.5703
  817MPD2     N12083   1.950   2.707  10.360  0.1629  0.7187 -0.1555
  817MPD2    H512084   2.012   2.686  10.282  0.7954  1.1897  0.2201
  817MPD2    N112085   2.299   2.526  10.651  0.1022  0.7857  0.1636
  817MPD2    H712086   2.334   2.495  10.561 -0.7754 -0.2142  0.1706
  818MPD2     C12087   0.528   1.989  10.032  0.6609  0.0297 -0.3201
  818MPD2    C112088   0.450   1.935  10.134  0.3343 -0.0850  0.3366
  818MPD2    C212089   0.474   1.803  10.167 -0.4511 -0.4090 -0.1467
  818MPD2    C312090   0.569   1.722  10.101  0.3034  0.8620 -0.7584
  818MPD2    C412091   0.647   1.780  10.009 -0.4252  0.4027  0.0057
  818MPD2    C512092   0.629   1.912   9.980 -0.1758 -0.9349 -0.0178
  818MPD2     H12093   0.414   1.764  10.248  0.2463 -2.7942 -0.7888
  818MPD2    H112094   0.730   1.727   9.964 -1.3295  0.9015 -2.3100
  818MPD2    H212095   0.526   2.094  10.007 -2.8878  1.1374  4.6229
  818MPD2    H312096   0.693   1.967   9.912  0.6680 -1.9469 -0.0398
  818MPD2     N12097   0.601   1.590  10.132  0.1715  0.1119  0.1465
  818MPD2    H512098   0.672   1.541  10.079  0.8698  1.1944  0.0695
  818MPD2    N112099   0.348   2.009  10.200 -0.0758  0.6310 -0.3951
  818MPD2    H712100   0.271   1.968  10.252  1.1421 -1.1312 -0.0002
  819MPD2     C12101   3.490   4.057  15.728 -0.3470  0.2581 -0.3305
  819MPD2    C112102   3.481   3.925  15.702  0.4109 -0.7653 -0.3864
  819MPD2    C212103   3.590   3.843  15.722 -0.0898 -0.4403 -0.0054
  819MPD2    C312104   3.715   3.895  15.768  0.8082 -0.2774  0.2576
  819MPD2    C412105   3.719   4.022  15.806  0.2152  0.1465  0.4626
  819MPD2    C512106   3.609   4.105  15.780  0.1964 -0.2629  0.4444
  819MPD2     H12107   3.579   3.737  15.703  0.5805 -0.4148 -0.5506
  819MPD2    H112108   3.809   4.070  15.844  0.5232 -1.2204  1.4774
  819MPD2    H212109   3.414   4.133  15.715  0.3390  1.3846  2.2600
  819MPD2    H312110   3.625   4.212  15.789 -0.0079 -0.2957  1.1898
  819MPD2     N12111   3.818   3.799  15.785 -0.5176  0.0183 -0.3521
  819MPD2    H512112   3.801   3.700  15.771 -2.0560 -0.0424  1.8999
  819MPD2    N112113   3.357   3.866  15.655 -0.5792 -0.5220  0.5352
  819MPD2    H712114   3.276   3.927  15.650 -0.2339  0.0165  1.5558
  820MPD2     C12115   2.784   4.395  15.345 -0.3922 -0.3851 -0.0263
  820MPD2    C112116   2.708   4.280  15.372 -0.5125 -0.5905  0.6993
  820MPD2    C212117   2.779   4.162  15.403 -0.7751 -0.2216 -0.0772
  820MPD2    C312118   2.915   4.161  15.413 -0.4685 -0.5447 -0.3811
  820MPD2    C412119   2.979   4.280  15.389  0.4069 -0.8022  0.0252
  820MPD2    C512120   2.921   4.396  15.373 -0.4142  0.7664  0.0533
  820MPD2     H12121   2.719   4.073  15.420 -0.8816 -0.2327 -0.5101
  820MPD2    H112122   3.087   4.280  15.392  0.3713 -1.3048  1.4016
  820MPD2    H212123   2.740   4.493  15.327 -1.6235 -0.9922 -0.3031
  820MPD2    H312124   2.984   4.484  15.368  1.0570 -0.2136  1.5469
  820MPD2     N12125   2.987   4.044  15.441 -0.4869 -0.1981 -0.0571
  820MPD2    H512126   3.088   4.054  15.453 -0.1330 -1.8889 -1.5250
  820MPD2    N112127   2.571   4.275  15.362  0.1694  0.4949  0.1050
  820MPD2    H712128   2.526   4.184  15.369  0.6294  0.2363 -0.2767
  821MPD2     C12129   3.222   0.280  13.187 -0.1041  0.2109  0.4034
  821MPD2    C112130   3.279   0.312  13.314  0.5276 -0.3306 -0.0331
  821MPD2    C212131   3.399   0.387  13.322  0.3515 -0.2359  0.0267
  821MPD2    C312132   3.458   0.437  13.207 -0.5322  0.3738 -0.0424
  821MPD2    C412133   3.399   0.413  13.089  0.4065 -0.3349 -0.0024
  821MPD2    C512134   3.282   0.336  13.077 -0.3487  0.1014  0.4980
  821MPD2     H12135   3.431   0.417  13.421 -0.7122 -0.2400  0.3705
  821MPD2    H112136   3.451   0.450  13.001 -1.4611 -2.9412 -2.1717
  821MPD2    H212137   3.126   0.231  13.176 -0.0601  0.1263  0.4003
  821MPD2    H312138   3.242   0.308  12.981 -1.4695 -2.7189  1.8111
  821MPD2     N12139   3.581   0.516  13.219  0.1588 -0.2748  0.4954
  821MPD2    H512140   3.617   0.565  13.137  1.7070 -1.2691  0.5778
  821MPD2    N112141   3.223   0.265  13.437  0.3107 -0.0086  0.2560
  821MPD2    H712142   3.267   0.299  13.522  0.1045 -2.9322  1.5303
  822MPD2     C12143   4.158   0.448  15.633  0.3992  0.0727 -0.1894
  822MPD2    C112144   4.107   0.379  15.745 -0.3989  0.0367  0.0182
  822MPD2    C212145   4.033   0.451  15.842  0.1100  0.2528 -0.3180
  822MPD2    C312146   4.029   0.592  15.836  0.1233 -0.0911  0.0462
  822MPD2    C412147   4.086   0.660  15.725  0.3319  0.0346 -0.4245
  822MPD2    C512148   4.143   0.587  15.625 -0.0257 -0.2445  0.2335
  822MPD2     H12149   3.985   0.405  15.928 -1.9649  0.9496 -1.0904
  822MPD2    H112150   4.087   0.768  15.730  0.6704 -0.1136  2.7799
  822MPD2    H212151   4.219   0.401  15.557 -0.2035 -1.0279  0.0079
  822MPD2    H312152   4.182   0.628  15.532 -1.7358 -0.0983 -0.4314
  822MPD2     N12153   3.987   0.656  15.954 -1.1839 -0.0592 -0.0012
  822MPD2    H512154   3.979   0.597  16.036 -1.3876 -0.2525 -0.1603
  822MPD2    N112155   4.123   0.242  15.760 -0.4348 -0.9463 -0.9899
  822MPD2    H712156   4.094   0.200  15.848  0.2185 -3.0366 -1.7818
  823MPD2     C12157   3.813   0.590  16.776  0.2550  0.0382 -0.0514
  823MPD2    C112158   3.796   0.550  16.645  0.1274  0.3192 -0.1969
  823MPD2    C212159   3.757   0.423  16.614  0.1150  0.2414 -0.7870
  823MPD2    C312160   3.744   0.325  16.707  0.2342 -0.2420 -0.2987
  823MPD2    C412161   3.755   0.363  16.838  0.1352 -0.1972  0.7558
  823MPD2    C512162   3.796   0.491  16.868  0.5577  0.0254  0.7839
  823MPD2     H12163   3.729   0.401  16.511  0.6937  1.1715 -1.1509
  823MPD2    H112164   3.737   0.295  16.921  1.1669  0.6387  1.6563
  823MPD2    H212165   3.849   0.689  16.800 -0.5437 -0.2110  2.2247
  823MPD2    H312166   3.811   0.515  16.972 -0.5606  0.7370  0.7852
  823MPD2     N12167   3.725   0.191  16.678 -0.0776  0.2834  0.6129
  823MPD2    H512168   3.726   0.136  16.763 -1.1401 -0.7616 -0.0485
  823MPD2    N112169   3.813   0.660  16.551  0.3806  0.0385 -0.0420
  823MPD2    H712170   3.847   0.749  16.586  2.1686 -0.4245 -0.6098
  824MPD2     C12171   4.374   4.181  15.538  0.0620 -0.3729  0.0549
  824MPD2    C112172   4.428   4.305  15.562 -0.4851  0.5380 -0.1798
  824MPD2    C212173   4.564   4.332  15.532 -0.6437  0.4276  0.2253
  824MPD2    C312174   4.648   4.230  15.493 -0.4466 -0.0881  0.5320
  824MPD2    C412175   4.591   4.113  15.450 -0.5056  0.2513  0.3586
  824MPD2    C512176   4.455   4.090  15.471  0.4016 -0.2539 -1.1726
  824MPD2     H12177   4.604   4.432  15.547 -3.2172  1.2539  1.6188
  824MPD2    H112178   4.642   4.032  15.399  3.3363  2.0209  1.3867
  824MPD2    H212179   4.273   4.154  15.566 -0.0972 -0.3484 -0.5025
  824MPD2    H312180   4.417   3.990  15.454  1.4110 -0.2778 -3.2510
  824MPD2     N12181   0.051   4.242  15.483 -0.0725 -0.7302 -0.7417
  824MPD2    H512182   0.090   4.323  15.529  0.3639 -0.9721 -0.6823
  824MPD2    N112183   4.359   4.411  15.617  1.1492  0.0377  0.6178
  824MPD2    H712184   4.424   4.488  15.629 -0.5127  1.3007  1.4652
  825MPD2     C12185   0.851   4.576  15.473 -0.4656 -0.5008 -0.7650
  825MPD2    C112186   0.714   4.585  15.441  0.8327  0.5701  0.0544
  825MPD2    C212187   0.661   4.704  15.406  0.9280 -0.7304 -0.7935
  825MPD2    C312188   0.738   0.083  15.408  0.2438  0.3658 -0.6324
  825MPD2    C412189   0.872   0.068  15.429 -0.0966  0.1461  1.1584
  825MPD2    C512190   0.930   4.688  15.461 -0.6748 -0.2934  0.1590
  825MPD2     H12191   0.554   4.719  15.395  0.3591 -3.2813  1.1963
  825MPD2    H112192   0.935   0.156  15.434 -1.6543  1.3530 -0.6680
  825MPD2    H212193   0.894   4.479  15.497 -1.3897 -0.5027  0.8883
  825MPD2    H312194   1.035   4.681  15.487 -0.0652  1.4353 -1.7654
  825MPD2     N12195   0.680   0.210  15.386 -0.0295  0.3346 -0.0879
  825MPD2    H512196   0.735   0.291  15.411 -0.0047  0.2175  0.2377
  825MPD2    N112197   0.639   4.466  15.451 -0.0421 -0.6272 -0.1607
  825MPD2    H712198   0.681   4.385  15.496  2.1444  0.9927  0.6668
  826MPD2     C12199   0.186   4.096  13.665  0.5009  0.0240  0.1895
  826MPD2    C112200   0.268   4.201  13.613  0.1165 -0.1233 -1.3212
  826MPD2    C212201   0.229   4.332  13.634 -0.2101  0.2065 -0.0299
  826MPD2    C312202   0.099   4.359  13.677  0.3516  0.1945 -0.0684
  826MPD2    C412203   0.023   4.249  13.723  0.7955  0.5035 -0.4057
  826MPD2    C512204   0.070   4.123  13.722 -0.1574 -0.5857  0.8481
  826MPD2     H12205   0.290   4.420  13.614 -2.0968  1.6231  0.4018
  826MPD2    H112206   4.654   4.255  13.738  1.0200  0.8555  1.0443
  826MPD2    H212207   0.197   3.990  13.644  2.3401  0.1395  0.4974
  826MPD2    H312208   0.003   4.040  13.746 -0.3705 -0.6254  0.0963
  826MPD2     N12209   0.039   4.485  13.673 -0.1947  0.1457 -0.1623
  826MPD2    H512210   4.678   4.485  13.694 -0.4475 -1.1613 -1.3076
  826MPD2    N112211   0.394   4.163  13.548 -0.6338 -0.1857 -0.2355
  826MPD2    H712212   0.415   4.065  13.561 -0.1266 -0.3000 -1.8930
  827MPD2     C12213   1.039   0.977  10.014 -0.4621  0.1426  0.2354
  827MPD2    C112214   1.056   0.845  10.029  0.2592  0.1344  0.6037
  827MPD2    C212215   0.994   0.762   9.940  0.0642 -0.0119  0.0878
  827MPD2    C312216   0.907   0.819   9.851  0.0140  0.0371 -0.8943
  827MPD2    C412217   0.890   0.958   9.838 -0.7961 -0.3035 -0.3880
  827MPD2    C512218   0.960   1.039   9.921  1.2217 -0.9293  0.2958
  827MPD2     H12219   0.993   0.654   9.951 -1.1839 -0.1431 -1.3388
  827MPD2    H112220   0.825   1.008   9.768 -0.4437 -2.3235 -2.1425
  827MPD2    H212221   1.079   1.050  10.084  0.4602 -0.0104 -0.1239
  827MPD2    H312222   0.943   1.146   9.912  0.1955 -1.0218  1.1545
  827MPD2     N12223   0.843   0.727   9.762  0.2491 -0.0055 -0.4929
  827MPD2    H512224   0.841   0.630   9.793 -0.1416 -0.7785 -2.9708
  827MPD2    N112225   1.131   0.813  10.139 -0.0761  0.1886  0.0746
  827MPD2    H712226   1.164   0.891  10.196  0.4304 -1.7540  2.4751
  828MPD2     C12227   4.025   0.632  12.953  0.4219 -0.4159  0.1673
  828MPD2    C112228   3.956   0.672  12.840 -1.2325 -0.2768 -0.1719
  828MPD2    C212229   4.030   0.663  12.717 -1.0138 -0.4014 -0.3513
  828MPD2    C312230   4.159   0.611  12.706 -0.3281 -0.1415 -0.3010
  828MPD2    C412231   4.225   0.578  12.822 -0.4741 -0.1070  0.1793
  828MPD2    C512232   4.161   0.587  12.950  0.3441  0.3653  0.2150
  828MPD2     H12233   3.974   0.686  12.627  0.3045  1.8056 -0.6071
  828MPD2    H112234   4.327   0.545  12.829 -0.0763  1.1575  0.4403
  828MPD2    H212235   3.971   0.621  13.046  0.9492 -0.5351  0.4535
  828MPD2    H312236   4.219   0.559  13.037  2.1734 -1.4513 -1.5788
  828MPD2     N12237   4.213   0.588  12.580  0.4580 -0.4081 -0.6326
  828MPD2    H512238   4.312   0.565  12.577  0.4493 -0.3717 -1.1746
  828MPD2    N112239   3.824   0.709  12.828  0.1586  0.0076 -0.2043
  828MPD2    H712240   3.803   0.739  12.733 -2.8279 -0.8491  0.1651
  829MPD2     C12241   3.774   0.735  12.055  0.0405  0.0486 -0.1125
  829MPD2    C112242   3.646   0.686  12.066  0.1811  0.3621 -0.1924
  829MPD2    C212243   3.582   0.683  12.192  0.4538 -0.3624  0.7591
  829MPD2    C312244   3.661   0.719  12.303 -0.0549  0.5421  0.5027
  829MPD2    C412245   3.793   0.750  12.286  0.1883 -1.0389  0.3461
  829MPD2    C512246   3.847   0.772  12.161 -0.3686  0.4334 -0.2431
  829MPD2     H12247   3.484   0.637  12.199 -0.2469  0.9501 -0.4708
  829MPD2    H112248   3.843   0.779  12.378 -0.5800  3.0644 -0.5465
  829MPD2    H212249   3.823   0.746  11.959 -1.5502  0.8981 -0.8209
  829MPD2    H312250   3.947   0.811  12.171 -1.2799  2.4264  0.9871
  829MPD2     N12251   3.617   0.734  12.439  0.9022  0.1943  0.2282
  829MPD2    H512252   3.687   0.767  12.504  0.8257  1.5088 -0.3464
  829MPD2    N112253   3.590   0.631  11.949 -0.7267 -0.4645  0.6984
  829MPD2    H712254   3.649   0.620  11.867 -1.8854  0.6583 -0.2982
  830MPD2     C12255   4.611   3.578  15.539  0.3376 -0.2851 -0.5817
  830MPD2    C112256   4.480   3.621  15.518 -1.0328  0.4485  0.4447
  830MPD2    C212257   4.447   3.690  15.409  0.3865 -1.1087 -0.6174
  830MPD2    C312258   4.536   3.730  15.316  0.2172 -0.0898  0.1546
  830MPD2    C412259   4.668   3.686  15.336 -0.0898 -0.0223  0.0796
  830MPD2    C512260   4.703   3.601  15.440 -0.2234 -0.5493  0.2847
  830MPD2     H12261   4.342   3.716  15.398  0.2795 -1.3275 -0.0973
  830MPD2    H112262   0.003   3.709  15.259 -0.9571  1.1416 -0.3986
  830MPD2    H212263   4.638   3.513  15.622 -0.3772 -2.6145 -2.1902
  830MPD2    H312264   0.062   3.552  15.446  0.0067 -0.2359 -0.9361
  830MPD2     N12265   4.513   3.811  15.203 -0.1889 -0.3817  0.0467
  830MPD2    H512266   4.594   3.852  15.159  1.3417 -0.7741  2.4920
  830MPD2    N112267   4.386   3.589  15.623 -0.5425  0.0039 -0.1014
  830MPD2    H712268   4.433   3.551  15.705 -0.1448  1.9251  0.5746
  831MPD2     C12269   4.246   0.536  16.314 -0.1667  0.4868 -0.3277
  831MPD2    C112270   4.258   0.462  16.205 -0.1564  0.3120  0.6585
  831MPD2    C212271   4.159   0.364  16.174  0.1310 -0.4362 -0.4409
  831MPD2    C312272   4.048   0.350  16.259 -0.4786  0.1242  0.0645
  831MPD2    C412273   4.044   0.421  16.378 -0.1612  0.0558 -0.5075
  831MPD2    C512274   4.143   0.515  16.400 -0.4520  0.3175  0.1549
  831MPD2     H12275   4.167   0.296  16.091 -0.7680 -0.7319 -0.2769
  831MPD2    H112276   3.980   0.405  16.465  1.1751 -3.2484 -0.1061
  831MPD2    H212277   4.313   0.618  16.338 -0.0425  0.7363 -1.5232
  831MPD2    H312278   4.138   0.575  16.490  2.7052  0.1225  0.4391
  831MPD2     N12279   3.937   0.266  16.230 -0.7348 -0.7320 -0.3893
  831MPD2    H512280   3.865   0.267  16.301 -0.4166 -0.6978 -0.0662
  831MPD2    N112281   4.370   0.488  16.112  1.2154  0.3540  0.1173
  831MPD2    H712282   4.420   0.575  16.126 -0.7347  1.4799 -0.0278
  832MPD2     C12283   2.566   1.934  17.186  0.7193 -0.1575 -0.2061
  832MPD2    C112284   2.557   2.038  17.096 -0.6405 -0.8480 -0.1719
  832MPD2    C212285   2.492   2.016  16.972 -0.5851 -0.9126  0.8831
  832MPD2    C312286   2.423   1.897  16.951  0.1119 -0.1602  0.5545
  832MPD2    C412287   2.439   1.796  17.041  0.7364 -0.0321  0.6135
  832MPD2    C512288   2.507   1.816  17.163  0.6369  0.4898  0.0180
  832MPD2     H12289   2.493   2.099  16.902  0.9509  0.4691  2.5651
  832MPD2    H112290   2.401   1.696  17.021  0.6777  0.9806 -4.2777
  832MPD2    H212291   2.609   1.951  17.284 -3.6475  1.3888  1.4398
  832MPD2    H312292   2.515   1.732  17.232 -1.8058 -0.5629 -0.9610
  832MPD2     N12293   2.340   1.869  16.842 -0.0011 -0.0906  0.7581
  832MPD2    H512294   2.319   1.771  16.830  0.8117 -0.1475 -0.1832
  832MPD2    N112295   2.614   2.158  17.140 -0.1192 -0.2950  0.6866
  832MPD2    H712296   2.669   2.151  17.225 -0.8611  0.9965  1.2804
  833MPD2     C12297   0.282   3.725  12.572  0.2219  0.7597 -0.4322
  833MPD2    C112298   0.157   3.669  12.578  0.1384  0.0689  0.5027
  833MPD2    C212299   0.142   3.546  12.530  0.7990 -0.6736  0.2194
  833MPD2    C312300   0.241   3.476  12.463  1.0388 -0.0927  0.5571
  833MPD2    C412301   0.368   3.524  12.459  0.5667  0.1423 -0.2693
  833MPD2    C512302   0.388   3.649  12.519  0.3320 -0.0718  0.8872
  833MPD2     H12303   0.042   3.512  12.510  0.6412  0.0363 -0.1867
  833MPD2    H112304   0.452   3.468  12.421  1.1249  0.8974 -0.1467
  833MPD2    H212305   0.300   3.824  12.612 -1.0738  0.0139  1.9661
  833MPD2    H312306   0.492   3.678  12.514  0.7940 -2.3712 -2.7105
  833MPD2     N12307   0.205   3.354  12.395 -0.2174  0.0335  0.1225
  833MPD2    H512308   0.107   3.328  12.400 -0.0336 -0.7342 -0.2472
  833MPD2    N112309   0.053   3.755  12.610  0.0213 -0.2970 -0.3091
  833MPD2    H712310   0.071   3.855  12.602 -0.3516 -0.2746 -0.8856
  834MPD2     C12311   0.236   2.628  11.610 -0.6669  0.5918 -0.1788
  834MPD2    C112312   0.100   2.646  11.636 -0.7308 -0.2011 -0.0502
  834MPD2    C212313   0.069   2.734  11.734 -0.0635  0.7209 -0.1640
  834MPD2    C312314   0.167   2.814  11.793 -0.1925 -0.3952  0.0201
  834MPD2    C412315   0.300   2.806  11.754 -0.0951  0.2092  0.1715
  834MPD2    C512316   0.332   2.711  11.661 -0.0840  0.0920  0.0548
  834MPD2     H12317   4.704   2.758  11.756 -0.9901 -1.3255 -2.3024
  834MPD2    H112318   0.377   2.870  11.797 -0.9145  0.6334  1.0219
  834MPD2    H212319   0.263   2.556  11.534 -3.1352 -0.0933 -0.4021
  834MPD2    H312320   0.433   2.687  11.628 -1.0856 -1.9104 -1.5136
  834MPD2     N12321   0.120   2.903  11.887  0.0911  0.1121  0.6755
  834MPD2    H512322   0.020   2.906  11.905  0.2785  0.7184  1.6434
  834MPD2    N112323   0.007   2.571  11.563  0.1573  0.0407  0.1274
  834MPD2    H712324   0.041   2.514  11.487  1.2304  1.8811 -0.7674
  835MPD2     C12325   4.612   1.116  11.026 -0.4906  0.0332 -0.1394
  835MPD2    C112326   4.491   1.155  11.081 -0.2334 -0.4960 -0.3371
  835MPD2    C212327   4.455   1.118  11.209 -0.6075 -0.2656  0.7340
  835MPD2    C312328   4.536   1.026  11.279 -0.0483  0.7969  0.7644
  835MPD2    C412329   4.649   0.972  11.211 -0.5200  0.0650  0.0640
  835MPD2    C512330   4.684   1.019  11.086 -0.2688  0.1692 -0.4271
  835MPD2     H12331   4.358   1.150  11.245 -0.1681  0.7124  1.0557
  835MPD2    H112332   4.715   0.898  11.254 -0.7065  1.2290  2.3759
  835MPD2    H212333   4.641   1.137  10.924 -2.0986 -1.9776 -1.0123
  835MPD2    H312334   0.026   0.975  11.027  0.1092 -2.9689  2.4188
  835MPD2     N12335   4.522   0.990  11.414  0.1937  0.1061  0.0411
  835MPD2    H512336   4.592   0.935  11.463 -1.7002  0.7007  3.3534
  835MPD2    N112337   4.398   1.247  11.018  0.5094  1.0791  0.4813
  835MPD2    H712338   4.325   1.284  11.077 -0.2024  0.0561  0.2385
  836MPD2     C12339   3.844   1.146  11.724 -0.1025  0.3729 -0.0363
  836MPD2    C112340   3.912   1.083  11.824 -0.0740 -0.2464 -0.1125
  836MPD2    C212341   3.851   1.053  11.945  0.0242 -0.0770  0.0206
  836MPD2    C312342   3.725   1.095  11.974  0.2732 -0.3325  0.6089
  836MPD2    C412343   3.656   1.158  11.871 -0.3650 -0.0379 -0.6566
  836MPD2    C512344   3.714   1.179  11.746  0.6049  0.0710 -0.4337
  836MPD2     H12345   3.919   1.015  12.020 -1.1791 -0.9954  0.6503
  836MPD2    H112346   3.557   1.201  11.878 -0.4704 -0.2118 -1.0962
  836MPD2    H212347   3.894   1.172  11.632 -2.4426  0.1451 -1.3500
  836MPD2    H312348   3.664   1.236  11.669 -0.1144  0.7897  0.5525
  836MPD2     N12349   3.660   1.088  12.102  0.4850  0.0246 -0.0306
  836MPD2    H512350   3.563   1.117  12.110  0.6294  0.2343  0.9432
  836MPD2    N112351   4.047   1.042  11.797  0.3435 -0.2105  0.1381
  836MPD2    H712352   4.070   1.064  11.701  1.3781 -0.1726  0.3997
  837MPD2     C12353   3.361   1.063   9.835 -0.2190 -0.0739 -0.1822
  837MPD2    C112354   3.271   1.106   9.932  0.4983 -0.2231 -0.1614
  837MPD2    C212355   3.271   1.237   9.961 -0.2609 -0.0805 -0.8190
  837MPD2    C312356   3.351   1.330   9.889  0.3622  0.8171  0.3420
  837MPD2    C412357   3.439   1.278   9.793 -0.0335 -0.2121 -0.4529
  837MPD2    C512358   3.434   1.150   9.758 -0.1068  0.3930  0.2318
  837MPD2     H12359   3.193   1.275  10.025 -0.1104  0.5979 -1.0470
  837MPD2    H112360   3.495   1.337   9.722  0.0490 -0.0117 -0.2189
  837MPD2    H212361   3.373   0.959   9.811  1.8260  0.7739 -2.8131
  837MPD2    H312362   3.496   1.107   9.679  0.3462  0.5649  0.4936
  837MPD2     N12363   3.330   1.462   9.920  0.5782 -0.3687 -0.6175
  837MPD2    H512364   3.252   1.474   9.983  2.1583 -0.7864  1.4358
  837MPD2    N112365   3.158   1.027   9.978 -0.2379 -0.1309 -0.2158
  837MPD2    H712366   3.091   1.071  10.041  0.1488 -0.2608  0.2898
  838MPD2     C12367   1.091   3.149  11.197  0.2541  0.0415  0.2688
  838MPD2    C112368   1.052   3.240  11.297 -0.1556  0.1427 -1.6583
  838MPD2    C212369   0.951   3.203  11.386 -0.4929 -0.3816  0.1568
  838MPD2    C312370   0.904   3.072  11.380  0.0652 -0.4593  0.5673
  838MPD2    C412371   0.930   2.986  11.276  0.3929 -0.1900  0.3446
  838MPD2    C512372   1.029   3.027  11.182  1.1276  0.3677  0.0229
  838MPD2     H12373   0.912   3.269  11.463 -1.3013 -1.6237  0.8228
  838MPD2    H112374   0.886   2.887  11.271 -2.3421  1.0617 -0.5151
  838MPD2    H212375   1.168   3.175  11.125 -0.1196  2.2251  0.6734
  838MPD2    H312376   1.068   2.956  11.110  0.2092  3.2626 -3.3463
  838MPD2     N12377   0.846   3.032  11.497  0.3837 -0.2834  0.2779
  838MPD2    H512378   0.829   3.109  11.560  1.4939 -0.6995  1.0732
  838MPD2    N112379   1.115   3.366  11.325  0.1731 -0.2175 -0.0056
  838MPD2    H712380   1.075   3.407  11.409 -0.0761  0.7703 -0.6177
  839MPD2     C12381   1.219   3.412  12.061 -0.4658 -1.0175  0.4702
  839MPD2    C112382   1.161   3.366  11.944 -0.5601 -0.0407  0.0774
  839MPD2    C212383   1.160   3.440  11.830 -0.2660 -0.7252  1.0342
  839MPD2    C312384   1.236   3.555  11.818  0.2356 -0.1338 -0.0513
  839MPD2    C412385   1.300   3.602  11.929 -0.1053 -0.2826  0.9663
  839MPD2    C512386   1.297   3.529  12.045  0.4424 -0.5635  0.5698
  839MPD2     H12387   1.121   3.391  11.742  0.5694  1.2487 -0.4200
  839MPD2    H112388   1.352   3.697  11.930  0.6382 -0.7028  2.3099
  839MPD2    H212389   1.236   3.360  12.155  3.4949 -0.1120  0.2481
  839MPD2    H312390   1.344   3.559  12.138 -1.2629  2.2011  0.5376
  839MPD2     N12391   1.229   3.604  11.687 -0.7347 -0.3161  0.2189
  839MPD2    H512392   1.186   3.544  11.617 -1.5166  0.1813  0.2725
  839MPD2    N112393   1.121   3.233  11.915  0.1019 -0.0786  0.3611
  839MPD2    H712394   1.077   3.216  11.825  0.7855 -0.2925  0.0624
  840MPD2     C12395   1.729   1.024  10.113 -0.8894 -0.2328  0.6643
  840MPD2    C112396   1.688   1.017  10.242 -0.0008 -0.1009 -0.5008
  840MPD2    C212397   1.757   1.091  10.334 -0.1270  0.2574  0.0589
  840MPD2    C312398   1.861   1.177  10.299 -1.0908 -0.2822 -0.2548
  840MPD2    C412399   1.904   1.184  10.171 -0.4519  0.0982  0.1620
  840MPD2    C512400   1.834   1.105  10.084  0.0991 -0.5929 -0.1714
  840MPD2     H12401   1.723   1.082  10.437  0.6862 -0.2358  0.2852
  840MPD2    H112402   1.974   1.254  10.127 -0.1676  1.5696  2.9506
  840MPD2    H212403   1.691   0.963  10.031 -0.1317 -0.2575  0.3324
  840MPD2    H312404   1.850   1.107   9.977 -2.0469  0.8359 -0.4697
  840MPD2     N12405   1.920   1.268  10.389 -0.7094  0.4907  0.0272
  840MPD2    H512406   1.988   1.329  10.344  0.3635 -0.0866  0.8657
  840MPD2    N112407   1.584   0.928  10.275  0.3205  0.0557 -0.1188
  840MPD2    H712408   1.529   0.894  10.197 -0.0451 -1.7807  0.9608
  841MPD2     C12409   0.678   0.162  14.466 -0.6307 -0.6199  0.0176
  841MPD2    C112410   0.803   0.219  14.463  0.0141 -0.4758 -0.4747
  841MPD2    C212411   0.856   0.265  14.576 -0.2408 -0.8157  0.1421
  841MPD2    C312412   0.784   0.265  14.697  0.0904 -0.2094  0.8598
  841MPD2    C412413   0.652   0.222  14.691  0.2343  0.2298 -0.9533
  841MPD2    C512414   0.602   0.176  14.577 -0.0899 -0.0933  0.2406
  841MPD2     H12415   0.957   0.303  14.563  0.7502 -2.9898  1.5326
  841MPD2    H112416   0.579   0.231  14.771  3.2743 -0.5867  1.9154
  841MPD2    H212417   0.643   0.112  14.377  0.9993  0.2251 -1.1000
  841MPD2    H312418   0.496   0.153  14.569 -0.1594  0.1775  0.3646
  841MPD2     N12419   0.833   0.326  14.814 -0.2771 -0.0124  0.3523
  841MPD2    H512420   0.924   0.369  14.801  0.2477 -0.3045  3.1006
  841MPD2    N112421   0.882   0.236  14.342 -0.1418  0.2503  0.4551
  841MPD2    H712422   0.968   0.288  14.355  0.4177 -0.4682 -0.3684
  842MPD2     C12423   1.895   2.130  16.846 -0.2714 -0.0504  0.4015
  842MPD2    C112424   1.776   2.061  16.837  0.0943  0.4634 -0.0683
  842MPD2    C212425   1.766   1.934  16.900  0.0838 -0.1685  0.2138
  842MPD2    C312426   1.873   1.884  16.975 -1.0444 -0.1072 -0.0990
  842MPD2    C412427   1.993   1.950  16.964 -0.0070  0.5560 -0.6612
  842MPD2    C512428   2.001   2.071  16.897  0.3238  0.1592 -0.1942
  842MPD2     H12429   1.666   1.892  16.900  0.0027  0.0265  0.2352
  842MPD2    H112430   2.081   1.914  17.016 -2.5738 -4.1536  0.4935
  842MPD2    H212431   1.908   2.234  16.817  2.3517 -1.1073 -2.2313
  842MPD2    H312432   2.094   2.127  16.911 -0.2202  0.3448  2.7999
  842MPD2     N12433   1.860   1.766  17.051  0.3453 -1.0391  0.5342
  842MPD2    H512434   1.944   1.712  17.069  0.6228 -1.4220 -1.9025
  842MPD2    N112435   1.677   2.133  16.769  0.0677  0.1020 -0.3643
  842MPD2    H712436   1.712   2.219  16.727 -0.0810  0.9513  1.2684
  843MPD2     C12437   3.810   3.414  17.020 -0.5942  0.1019 -0.4590
  843MPD2    C112438   3.799   3.338  17.137 -0.2906  0.2146  0.4420
  843MPD2    C212439   3.838   3.392  17.257  0.2585  1.1290  0.2182
  843MPD2    C312440   3.882   3.524  17.268 -0.5447 -0.0492  0.6193
  843MPD2    C412441   3.874   3.596  17.155  0.1566 -0.4494 -0.0172
  843MPD2    C512442   3.843   3.546  17.039  0.3840 -0.2452 -0.0057
  843MPD2     H12443   3.846   3.339  17.352  2.8728  1.3280  0.1087
  843MPD2    H112444   3.907   3.699  17.152  1.0133 -0.7790 -1.6362
  843MPD2    H212445   3.778   3.380  16.921  1.3119  0.9100 -1.3421
  843MPD2    H312446   3.843   3.615  16.955 -3.2995 -1.9003 -1.3357
  843MPD2     N12447   3.913   3.591  17.389 -0.5277  0.5556 -0.0542
  843MPD2    H512448   3.908   3.691  17.378 -0.6992  0.1492 -3.6248
  843MPD2    N112449   3.741   3.208  17.135  0.6366 -0.5084 -0.3233
  843MPD2    H712450   3.726   3.166  17.044 -0.2564 -3.2307  1.0973
  844MPD2     C12451   2.193   1.564  16.381  0.6987 -0.4234  0.0817
  844MPD2    C112452   2.253   1.646  16.286  0.6000  0.4848 -0.5580
  844MPD2    C212453   2.354   1.734  16.319  1.0704  0.3617  0.1473
  844MPD2    C312454   2.409   1.726  16.444  0.4864  0.2674  0.0836
  844MPD2    C412455   2.377   1.623  16.533 -0.0039  0.0754 -0.5387
  844MPD2    C512456   2.263   1.548  16.497  0.6950  0.5080 -0.5445
  844MPD2     H12457   2.397   1.803  16.248  1.3661  1.6802  1.5965
  844MPD2    H112458   2.410   1.622  16.636  0.2916  0.8056 -0.6250
  844MPD2    H212459   2.103   1.506  16.367  0.4047  0.2540 -0.8597
  844MPD2    H312460   2.222   1.477  16.569  2.6296  3.0974  3.1170
  844MPD2     N12461   2.503   1.822  16.487  0.5576  0.1678 -0.2195
  844MPD2    H512462   2.543   1.803  16.578 -2.2735  1.6460  1.3298
  844MPD2    N112463   2.201   1.658  16.155  0.5398  0.7092  0.2624
  844MPD2    H712464   2.239   1.738  16.106  0.0716  0.5600 -0.3467
  845MPD2     C12465   2.444   2.834  16.759  0.1402 -0.1412  0.2231
  845MPD2    C112466   2.487   2.746  16.858 -0.2494  0.1991 -0.6512
  845MPD2    C212467   2.531   2.618  16.824 -0.0679  0.1710 -0.4983
  845MPD2    C312468   2.546   2.581  16.690 -0.4555 -0.1690  0.1446
  845MPD2    C412469   2.503   2.667  16.592 -0.4084 -0.2138  0.0941
  845MPD2    C512470   2.448   2.784  16.631  0.0455  0.0307  0.2862
  845MPD2     H12471   2.573   2.552  16.899  1.5485  2.6733  0.7932
  845MPD2    H112472   2.504   2.631  16.489  0.0963 -1.0236  0.3773
  845MPD2    H212473   2.394   2.929  16.772  3.8684  1.9333 -0.5801
  845MPD2    H312474   2.411   2.846  16.550 -0.0989  1.1246  1.1932
  845MPD2     N12475   2.595   2.452  16.668  0.0351  0.1019  0.3802
  845MPD2    H512476   2.635   2.404  16.748  1.9749  0.0878 -0.5995
  845MPD2    N112477   2.476   2.796  16.991 -0.2424  0.5488 -0.1000
  845MPD2    H712478   2.432   2.887  17.003  1.0096  1.2442 -0.6577
  846MPD2     C12479   4.256   2.444  13.725  0.1584 -0.1010  0.0791
  846MPD2    C112480   4.181   2.557  13.691 -0.2236  0.2096  0.1112
  846MPD2    C212481   4.162   2.649  13.791 -0.4004 -0.7272  0.6830
  846MPD2    C312482   4.213   2.630  13.919 -0.0060 -0.2844  0.4470
  846MPD2    C412483   4.298   2.523  13.939  0.1031 -0.4850 -0.6527
  846MPD2    C512484   4.312   2.428  13.848 -0.0847 -0.9397 -0.1791
  846MPD2     H12485   4.111   2.739  13.759 -0.7162 -1.5147 -1.0407
  846MPD2    H112486   4.363   2.523  14.026 -2.0469  0.9832  0.9700
  846MPD2    H212487   4.269   2.360  13.658  2.8738 -0.2328  0.7731
  846MPD2    H312488   4.372   2.338  13.855  1.7139  0.3312  0.6795
  846MPD2     N12489   4.171   2.719  14.020  0.6720 -0.1616 -0.0038
  846MPD2    H512490   4.105   2.792  13.995  2.8243  0.4779 -3.7341
  846MPD2    N112491   4.150   2.579  13.552 -0.0320 -0.3629  0.5181
  846MPD2    H712492   4.109   2.668  13.527  0.7514 -0.3691 -0.7475
  847MPD2     C12493   3.834   3.278  14.124 -0.0259  0.0766 -0.3622
  847MPD2    C112494   3.890   3.358  14.022  0.0533 -0.4061 -0.0467
  847MPD2    C212495   4.026   3.347  14.002  0.5573 -0.1177  0.0304
  847MPD2    C312496   4.103   3.263  14.089  0.3126 -0.3705  0.0356
  847MPD2    C412497   4.040   3.168  14.165 -0.3590 -0.4319  0.0392
  847MPD2    C512498   3.904   3.181  14.184 -0.1939 -0.1526  0.7038
  847MPD2     H12499   4.072   3.417  13.932 -2.2818  0.0559 -1.6749
  847MPD2    H112500   4.097   3.096  14.224  0.4995  0.8340  0.7619
  847MPD2    H212501   3.726   3.275  14.140 -0.3218  2.3100 -1.9711
  847MPD2    H312502   3.848   3.114  14.249  2.6954 -3.6193 -0.3719
  847MPD2     N12503   4.246   3.282  14.073 -0.2949  0.9031 -0.4258
  847MPD2    H512504   4.282   3.362  14.023 -0.9170  2.1490  1.1208
  847MPD2    N112505   3.821   3.459  13.955  0.1210 -0.2691 -0.3734
  847MPD2    H712506   3.861   3.510  13.877  0.3097 -0.3207 -0.3107
  848MPD2     C12507   2.138   2.212  16.105 -0.3482 -0.2196  0.6311
  848MPD2    C112508   2.161   2.245  16.234  0.8459  0.2643  0.0906
  848MPD2    C212509   2.173   2.377  16.268  0.0751 -0.1975 -0.5990
  848MPD2    C312510   2.186   2.471  16.172 -0.3835  0.0776 -0.7701
  848MPD2    C412511   2.185   2.431  16.044  0.0457 -0.2232 -0.6042
  848MPD2    C512512   2.166   2.303  16.008  0.1586 -0.2728  0.0725
  848MPD2     H12513   2.173   2.409  16.372 -1.7039 -0.8411 -0.4087
  848MPD2    H112514   2.196   2.509  15.969 -0.7672 -0.1268 -0.6275
  848MPD2    H212515   2.110   2.110  16.080 -1.0732 -0.8503  4.0031
  848MPD2    H312516   2.154   2.276  15.904 -1.2652  2.0247 -0.3748
  848MPD2     N12517   2.181   2.612  16.184  0.2906 -0.3111  0.0664
  848MPD2    H512518   2.200   2.662  16.098 -2.8757  1.3069  0.3240
  848MPD2    N112519   2.139   2.152  16.340  0.5372 -0.9066 -0.0142
  848MPD2    H712520   2.155   2.184  16.435 -2.0808 -1.6313  0.6629
  849MPD2     C12521   1.213   1.812  14.457  0.2394 -0.7353 -0.4533
  849MPD2    C112522   1.341   1.854  14.480 -0.4474 -0.1824  0.2482
  849MPD2    C212523   1.386   1.902  14.607 -0.5443  0.2549  0.5278
  849MPD2    C312524   1.296   1.906  14.714  0.2355  0.2118  0.2120
  849MPD2    C412525   1.170   1.852  14.691  0.7384 -0.3625  0.1681
  849MPD2    C512526   1.130   1.824  14.558  0.2979 -0.4804 -0.1109
  849MPD2     H12527   1.492   1.921  14.617 -0.5339  1.1118 -1.2344
  849MPD2    H112528   1.088   1.867  14.762 -0.2083 -0.8100 -0.8318
  849MPD2    H212529   1.174   1.785  14.359  2.3744 -1.1712 -1.1767
  849MPD2    H312530   1.024   1.818  14.539 -0.2165  0.6974  2.4595
  849MPD2     N12531   1.326   1.947  14.849  0.8724 -0.0335  0.5989
  849MPD2    H512532   1.269   1.921  14.928 -0.3625 -0.3485 -0.4039
  849MPD2    N112533   1.430   1.837  14.373  0.4387 -0.5731 -0.7157
  849MPD2    H712534   1.401   1.774  14.299 -2.8746  2.1086 -1.7008
  850MPD2     C12535   4.006   4.615  14.737  0.4507 -0.4589  0.0852
  850MPD2    C112536   4.023   0.011  14.773 -0.5075  0.3216 -0.7249
  850MPD2    C212537   4.153   0.051  14.802  0.1533 -0.0837  0.0963
  850MPD2    C312538   4.259   4.701  14.786  0.2133 -0.2476 -0.5207
  850MPD2    C412539   4.234   4.570  14.757  0.6823 -0.6282 -0.2693
  850MPD2    C512540   4.111   4.522  14.726 -0.1762  0.4309  0.3557
  850MPD2     H12541   4.173   0.154  14.829  2.2048 -0.0978 -1.4290
  850MPD2    H112542   4.311   4.493  14.750  0.8697 -0.4956  0.3533
  850MPD2    H212543   3.904   4.584  14.720  0.5518  0.8493 -3.0460
  850MPD2    H312544   4.096   4.420  14.691  0.4926  0.3802  0.2084
  850MPD2     N12545   4.394   4.725  14.824  0.5307  0.4011  0.0748
  850MPD2    H512546   4.466   4.664  14.789 -0.1289  0.4883 -1.4035
  850MPD2    N112547   3.910   0.098  14.783  0.0674  0.4069  0.2435
  850MPD2    H712548   3.835   0.062  14.724  2.3831 -0.3475 -2.3044
  851MPD2     C12549   4.480   0.026  15.308 -0.7721  0.2822  0.5190
  851MPD2    C112550   4.363   4.723  15.245 -0.1726 -0.0950  0.4486
  851MPD2    C212551   4.360   4.596  15.181 -0.7687 -0.4824  0.1595
  851MPD2    C312552   4.470   4.520  15.173 -0.6300  0.1789 -0.5810
  851MPD2    C412553   4.587   4.562  15.225 -0.2237 -0.2018 -0.4317
  851MPD2    C512554   4.590   4.679  15.294  0.2574 -0.8973  0.5917
  851MPD2     H12555   4.270   4.554  15.139 -0.4069  1.4065 -2.4702
  851MPD2    H112556   4.679   4.505  15.214  0.4422  0.7649  0.0943
  851MPD2    H212557   4.479   0.123  15.357 -0.3416 -0.3311  1.7476
  851MPD2    H312558   4.686   4.706  15.336  0.4301  1.8347 -1.5371
  851MPD2     N12559   4.447   4.394  15.109 -0.1440  0.7938  0.5701
  851MPD2    H512560   4.361   4.376  15.058  0.7687 -0.6393 -0.4398
  851MPD2    N112561   4.249   0.073  15.252  0.0274 -0.6003 -0.7207
  851MPD2    H712562   4.254   0.167  15.291 -3.0428 -0.7315 -0.0030
  852MPD2     C12563   3.873   1.921   9.937  0.6013  0.2575  0.0208
  852MPD2    C112564   3.893   2.014  10.029  0.9181 -0.3296 -0.1252
  852MPD2    C212565   4.013   2.088  10.025 -1.0888 -0.7142 -0.5701
  852MPD2    C312566   4.114   2.071   9.932  0.1813  0.2716  0.4271
  852MPD2    C412567   4.088   1.972   9.838 -0.9053 -0.0956  0.5313
  852MPD2    C512568   3.969   1.899   9.844  0.2288 -0.1999 -0.0610
  852MPD2     H12569   4.025   2.156  10.108  1.5386 -1.1138 -0.6179
  852MPD2    H112570   4.154   1.943   9.756 -0.5060 -0.2459  0.9058
  852MPD2    H212571   3.780   1.866   9.927 -0.8565  2.3343  2.1389
  852MPD2    H312572   3.951   1.820   9.772 -1.9389  1.5525 -1.4319
  852MPD2     N12573   4.238   2.149   9.935 -0.2464  0.2823  0.6168
  852MPD2    H512574   4.266   2.214  10.008 -1.3990  0.6967  0.6887
  852MPD2    N112575   3.791   2.016  10.129  0.0046 -0.3908 -0.3395
  852MPD2    H712576   3.728   1.937  10.118  0.1386 -0.7717  1.7051
  853MPD2     C12577   1.166   1.957  12.448  0.3173 -0.1095  0.1771
  853MPD2    C112578   1.040   1.997  12.420  0.3656 -0.1562  0.2473
  853MPD2    C212579   0.974   1.935  12.316 -0.8479 -0.2424  0.2119
  853MPD2    C312580   1.040   1.858  12.223  0.9869 -0.9081 -0.7677
  853MPD2    C412581   1.173   1.834  12.245 -0.3491 -0.6491  0.1927
  853MPD2    C512582   1.238   1.884  12.356 -0.2741 -0.0622  0.5482
  853MPD2     H12583   0.871   1.964  12.299 -0.8106 -0.2162  0.0375
  853MPD2    H112584   1.231   1.780  12.171  0.8460 -0.6192  1.0960
  853MPD2    H212585   1.226   2.001  12.527  1.2303 -1.5813  0.3073
  853MPD2    H312586   1.343   1.863  12.366 -0.4033 -0.3813  1.1815
  853MPD2     N12587   0.974   1.812  12.105  0.6122  0.2613  0.0412
  853MPD2    H512588   1.037   1.759  12.045  1.4689  0.3886  0.8269
  853MPD2    N112589   0.982   2.089  12.512  0.1654  0.0539 -0.8428
  853MPD2    H712590   1.046   2.117  12.585  2.5005  0.5953 -3.0792
  854MPD2     C12591   2.560   2.254  13.050 -0.4274  0.1019  0.6107
  854MPD2    C112592   2.641   2.249  12.932  0.6105 -0.4921 -0.4330
  854MPD2    C212593   2.726   2.142  12.914 -0.0953  0.0976 -0.5080
  854MPD2    C312594   2.718   2.036  13.003 -0.5159  0.9349 -0.1094
  854MPD2    C412595   2.631   2.033  13.113  0.1394 -0.9683 -0.5345
  854MPD2    C512596   2.553   2.147  13.135 -0.0190 -0.0223 -1.0067
  854MPD2     H12597   2.794   2.141  12.829  0.5451 -0.5116  0.0130
  854MPD2    H112598   2.628   1.958  13.190 -0.2319 -0.3856  0.0243
  854MPD2    H212599   2.493   2.332  13.084 -0.4262  0.6528 -0.6533
  854MPD2    H312600   2.486   2.156  13.220  0.0379  0.4443 -1.0137
  854MPD2     N12601   2.794   1.921  12.987 -0.2814  0.0746  0.1349
  854MPD2    H512602   2.818   1.868  13.071 -1.5433 -1.8483 -0.7429
  854MPD2    N112603   2.634   2.362  12.849 -0.0032  0.0210 -0.2522
  854MPD2    H712604   2.556   2.427  12.856 -1.3436 -1.4483 -1.4264
  855MPD2     C12605   3.435   1.764  13.443 -0.0031  0.1194  0.1284
  855MPD2    C112606   3.300   1.800  13.464 -0.6114  0.1400  0.6553
  855MPD2    C212607   3.203   1.764  13.378 -0.2427  0.5394 -0.2202
  855MPD2    C312608   3.245   1.705  13.258 -0.7031  0.1590  0.2551
  855MPD2    C412609   3.375   1.663  13.239  0.0692 -0.2422 -0.0239
  855MPD2    C512610   3.470   1.692  13.327 -0.1021 -0.1613 -0.3868
  855MPD2     H12611   3.098   1.785  13.392 -0.0007  1.4180  0.2674
  855MPD2    H112612   3.405   1.625  13.142  2.8739 -1.2166  1.2398
  855MPD2    H212613   3.508   1.788  13.519 -1.2283  0.3538  1.2137
  855MPD2    H312614   3.572   1.672  13.296 -0.1106  0.6154 -0.9099
  855MPD2     N12615   3.150   1.683  13.162  0.0627 -0.0919 -0.2027
  855MPD2    H512616   3.058   1.721  13.183  0.4321  0.5301  0.3016
  855MPD2    N112617   3.257   1.851  13.589  0.3222  0.4122  0.7457
  855MPD2    H712618   3.160   1.875  13.605 -0.3038 -0.7319 -1.3175
  856MPD2     C12619   0.869   2.493  14.428 -0.5577 -0.7094  0.0375
  856MPD2    C112620   0.890   2.607  14.346  0.3342  0.5617 -0.1060
  856MPD2    C212621   0.795   2.656  14.260 -0.7444  0.3725 -0.7852
  856MPD2    C312622   0.679   2.587  14.241  0.5585  0.0740 -0.1534
  856MPD2    C412623   0.670   2.466  14.310 -0.1172 -0.4956  0.1359
  856MPD2    C512624   0.755   2.422  14.407  0.0729  0.2036 -0.7843
  856MPD2     H12625   0.818   2.744  14.201  1.5137 -0.8624 -1.7440
  856MPD2    H112626   0.594   2.392  14.286 -0.1221 -0.2308 -0.6675
  856MPD2    H212627   0.934   2.468  14.511 -0.4037  0.8745  0.3860
  856MPD2    H312628   0.730   2.335  14.467 -1.0732  1.0173 -0.0711
  856MPD2     N12629   0.572   2.624  14.155  0.3770 -0.0115  0.9559
  856MPD2    H512630   0.492   2.561  14.151  0.0355  0.3621  1.8671
  856MPD2    N112631   1.007   2.687  14.353  0.3853  0.4892  1.1592
  856MPD2    H712632   1.009   2.761  14.283  0.4274 -2.0323 -1.5158
  857MPD2     C12633   1.610   0.457  12.560 -0.2690 -0.5547 -0.3290
  857MPD2    C112634   1.726   0.519  12.522  0.5625  0.0731 -0.5710
  857MPD2    C212635   1.768   0.637  12.591  0.0345  0.0622 -0.0251
  857MPD2    C312636   1.690   0.685  12.694  0.3468 -0.1364 -0.7116
  857MPD2    C412637   1.570   0.623  12.721 -0.4107  0.3519  0.0551
  857MPD2    C512638   1.532   0.501  12.662 -0.1687  0.5725  0.7639
  857MPD2     H12639   1.863   0.680  12.563  0.9570 -2.0653 -0.1263
  857MPD2    H112640   1.504   0.656  12.800 -0.3762  0.5400  0.0058
  857MPD2    H212641   1.583   0.372  12.498 -0.8931 -0.6406  0.0537
  857MPD2    H312642   1.446   0.442  12.693  0.2489  0.3781  1.5545
  857MPD2     N12643   1.735   0.802  12.756 -0.3722 -0.6881 -0.7795
  857MPD2    H512644   1.830   0.829  12.734 -0.1747  0.5136  1.6288
  857MPD2    N112645   1.776   0.467  12.403 -0.1138  0.6660 -0.1527
  857MPD2    H712646   1.743   0.376  12.373  2.6376 -1.1519  2.3548
  858MPD2     C12647   2.200   3.916  16.634  0.5465  0.3639 -0.0007
  858MPD2    C112648   2.333   3.877  16.642 -0.1981  0.4803 -0.1718
  858MPD2    C212649   2.428   3.965  16.685 -0.5436 -0.0396  0.3188
  858MPD2    C312650   2.402   4.088  16.734  0.0953 -0.6803 -0.0673
  858MPD2    C412651   2.269   4.113  16.751  0.1671  0.4704  0.0237
  858MPD2    C512652   2.169   4.028  16.700 -0.2981  0.2404  0.0472
  858MPD2     H12653   2.531   3.931  16.681 -0.3827  0.8197 -3.0568
  858MPD2    H112654   2.235   4.205  16.797  0.8128  0.1975  1.0590
  858MPD2    H212655   2.120   3.856  16.592  0.2389 -0.9064  2.4457
  858MPD2    H312656   2.064   4.057  16.704 -0.3300  0.0671  0.5371
  858MPD2     N12657   2.506   4.179  16.775  0.2075 -0.0631  0.1829
  858MPD2    H512658   2.471   4.265  16.817  1.4904  0.1456  0.8274
  858MPD2    N112659   2.382   3.748  16.590  0.0764  1.3440 -0.8864
  858MPD2    H712660   2.480   3.729  16.610 -0.0749 -0.1667 -1.5897
  859MPD2     C12661   1.412   1.968  15.654  0.3027  0.3070  0.0596
  859MPD2    C112662   1.388   1.973  15.521  0.2980  0.6328  0.1051
  859MPD2    C212663   1.295   1.885  15.468  0.1413  0.1006 -0.4392
  859MPD2    C312664   1.238   1.785  15.544  0.0113 -0.2114  0.6106
  859MPD2    C412665   1.268   1.779  15.681 -0.6767  0.3493  0.0265
  859MPD2    C512666   1.356   1.872  15.734 -0.5180 -0.2314 -0.0384
  859MPD2     H12667   1.275   1.880  15.361  1.5213 -1.7977 -0.6265
  859MPD2    H112668   1.217   1.711  15.748 -0.8426  1.6982  1.2813
  859MPD2    H212669   1.480   2.039  15.701 -0.7671  1.1591  0.3263
  859MPD2    H312670   1.375   1.872  15.840  0.8540 -3.3689 -0.2975
  859MPD2     N12671   1.152   1.679  15.506 -0.0897 -0.2459 -0.2162
  859MPD2    H512672   1.133   1.611  15.578 -2.3419  1.1557  0.5046
  859MPD2    N112673   1.460   2.073  15.442 -0.5811 -0.1630 -0.2868
  859MPD2    H712674   1.524   2.134  15.491 -0.4070  0.4045 -1.2205
  860MPD2     C12675   3.704   2.091  11.450 -0.2994  0.2343  0.1254
  860MPD2    C112676   3.691   2.146  11.575  0.3164 -0.1893 -0.1251
  860MPD2    C212677   3.568   2.140  11.638  0.0999 -0.1209 -0.1184
  860MPD2    C312678   3.463   2.080  11.570  0.2558  0.1654  0.1399
  860MPD2    C412679   3.473   2.029  11.443  0.5997  0.1225  0.9008
  860MPD2    C512680   3.597   2.039  11.384  0.6478  0.5301 -0.3592
  860MPD2     H12681   3.559   2.177  11.739  0.7997  0.8719 -0.4213
  860MPD2    H112682   3.391   1.980  11.392  0.4637  0.1076  1.1296
  860MPD2    H212683   3.795   2.104  11.391 -1.0773 -1.0567 -1.3567
  860MPD2    H312684   3.615   2.015  11.280  1.7452 -0.1399 -0.0173
  860MPD2     N12685   3.343   2.065  11.646  0.0667  0.0228 -0.1109
  860MPD2    H512686   3.356   2.112  11.736  0.8641  0.3344 -0.3850
  860MPD2    N112687   3.787   2.204  11.655 -0.0148 -0.9973 -0.0797
  860MPD2    H712688   3.754   2.244  11.743  0.5807 -0.9549  0.1229
  861MPD2     C12689   2.755   0.147  11.059 -0.9033 -0.6553 -0.4696
  861MPD2    C112690   2.629   0.183  11.102  0.8723 -0.4265 -0.4293
  861MPD2    C212691   2.554   0.275  11.030  1.1633 -0.2379 -0.2502
  861MPD2    C312692   2.596   0.328  10.909 -0.0668 -0.6381  0.2660
  861MPD2    C412693   2.716   0.287  10.863  0.0693 -0.7862  0.2464
  861MPD2    C512694   2.789   0.204  10.941  0.2276 -0.8370 -0.9045
  861MPD2     H12695   2.456   0.293  11.074  1.8688 -1.5800  1.8888
  861MPD2    H112696   2.753   0.314  10.764 -0.3060 -0.1989  0.2694
  861MPD2    H212697   2.822   0.085  11.117  0.2303 -0.2947 -1.3853
  861MPD2    H312698   2.882   0.173  10.893 -0.0143 -2.2011 -0.4784
  861MPD2     N12699   2.524   0.426  10.837 -0.2504 -1.0710 -0.5053
  861MPD2    H512700   2.571   0.467  10.757  2.3257  0.8553  2.0007
  861MPD2    N112701   2.582   0.160  11.236  0.0409 -0.3864 -0.0422
  861MPD2    H712702   2.490   0.196  11.257  1.4338  2.7650  0.6507
  862MPD2     C12703   2.133   0.596  10.324 -0.3514 -0.3155 -0.0455
  862MPD2    C112704   2.173   0.543  10.447  0.0616 -0.0485  0.0098
  862MPD2    C212705   2.121   0.426  10.490 -0.2735  0.7075 -0.6644
  862MPD2    C312706   2.052   0.340  10.410  0.3564  0.1095  0.4524
  862MPD2    C412707   2.007   0.393  10.293 -0.8020 -0.4246  0.3566
  862MPD2    C512708   2.052   0.511  10.249 -0.3937 -0.1449 -0.1043
  862MPD2     H12709   2.153   0.394  10.589  1.9816 -2.0266 -2.2503
  862MPD2    H112710   1.948   0.331  10.227  1.0394 -1.8521  0.0643
  862MPD2    H212711   2.164   0.693  10.287 -2.1761  0.2109 -0.1641
  862MPD2    H312712   2.006   0.549  10.158  0.5966  1.5438  0.0837
  862MPD2     N12713   2.006   0.224  10.475  0.5834 -0.3255  0.0971
  862MPD2    H512714   2.043   0.210  10.568  0.4570 -0.5000  0.1220
  862MPD2    N112715   2.257   0.604  10.540 -0.6271  0.0212 -0.3034
  862MPD2    H712716   2.268   0.554  10.628 -1.0686  0.4452 -0.0006
  863MPD2     C12717   0.734   2.974  17.108 -0.4384  0.0349 -0.0761
  863MPD2    C112718   0.824   3.062  17.056  0.1251  0.1181 -0.0285
  863MPD2    C212719   0.946   3.084  17.122  0.6475 -0.1047  0.0873
  863MPD2    C312720   0.985   3.008  17.230  0.7170 -0.1156  0.3461
  863MPD2    C412721   0.896   2.917  17.274 -0.6635  0.0674 -0.4532
  863MPD2    C512722   0.774   2.900  17.213 -0.3970  0.4137 -0.4568
  863MPD2     H12723   1.027   3.149  17.091 -1.6368  1.9260 -1.7173
  863MPD2    H112724   0.924   2.847  17.353 -0.9109  1.6323  1.0162
  863MPD2    H212725   0.638   2.959  17.060 -0.4868 -1.0168  0.3425
  863MPD2    H312726   0.708   2.827  17.259  0.5906  0.4329  1.0017
  863MPD2     N12727   1.112   3.010  17.305 -0.1271 -0.2080  0.2955
  863MPD2    H512728   1.115   2.949  17.387 -0.1307 -0.0121  0.4430
  863MPD2    N112729   0.788   3.134  16.938  0.0025 -0.5712  0.5561
  863MPD2    H712730   0.706   3.107  16.884 -1.8191 -0.7414  3.4205
  864MPD2     C12731   1.614   4.322  17.463 -0.2191  0.7575 -0.0063
  864MPD2    C112732   1.699   4.298  17.357  0.0858 -0.9315 -0.5607
  864MPD2    C212733   1.709   4.391  17.257 -0.0080 -0.5054  0.1143
  864MPD2    C312734   1.626   4.499  17.242  0.4841 -0.0895 -0.0772
  864MPD2    C412735   1.529   4.516  17.337 -0.2035 -0.1679  0.4216
  864MPD2    C512736   1.522   4.426  17.447 -0.2381  0.2666 -0.9119
  864MPD2     H12737   1.779   4.379  17.176  3.6762 -2.7804  3.6212
  864MPD2    H112738   1.451   4.591  17.337 -0.0513 -0.0104  1.4017
  864MPD2    H212739   1.600   4.262  17.552 -1.2661  2.4467  0.9877
  864MPD2    H312740   1.446   4.447  17.522  0.4316 -0.4469 -0.0392
  864MPD2     N12741   1.638   4.593  17.135  0.6117 -0.1264  0.1657
  864MPD2    H512742   1.571   4.669  17.142  1.1391  0.3267  0.3171
  864MPD2    N112743   1.774   4.181  17.361 -0.6229 -0.1437 -0.2833
  864MPD2    H712744   1.739   4.114  17.429  0.8756 -0.3769  0.2705
  865MPD2     C12745   1.309   4.489  16.540 -0.1677 -0.4649  0.0760
  865MPD2    C112746   1.427   4.552  16.543 -0.4481 -0.1126  0.4696
  865MPD2    C212747   1.448   4.648  16.639 -0.1382 -0.2624 -0.3621
  865MPD2    C312748   1.341   4.707  16.704  0.2145  0.0416 -0.1196
  865MPD2    C412749   1.222   4.652  16.689 -0.6502  0.6505 -1.1288
  865MPD2    C512750   1.208   4.538  16.617 -0.6905 -0.5739 -0.0816
  865MPD2     H12751   1.551   4.673  16.662  0.6661 -2.1712 -1.8563
  865MPD2    H112752   1.136   4.696  16.739 -0.9279 -2.2936  0.9603
  865MPD2    H212753   1.285   4.408  16.472  3.6618 -0.5987 -1.1264
  865MPD2    H312754   1.108   4.497  16.614 -0.8221 -0.0949 -2.0364
  865MPD2     N12755   1.349   0.092  16.776  0.8073  0.2180 -0.0818
  865MPD2    H512756   1.261   0.136  16.802 -0.1303 -1.4948 -0.3825
  865MPD2    N112757   1.532   4.507  16.461  0.3686  0.5617 -0.3634
  865MPD2    H712758   1.505   4.420  16.417 -2.5689  1.4140 -0.2652
  866MPD2     C12759   3.241   0.151  11.517  0.3954  0.2989 -0.1126
  866MPD2    C112760   3.253   0.192  11.385  0.1313 -0.8658  0.1303
  866MPD2    C212761   3.156   0.271  11.326 -0.1037 -0.1945 -0.4121
  866MPD2    C312762   3.035   0.304  11.390  0.0159  0.5504  0.4668
  866MPD2    C412763   3.023   0.244  11.509 -0.2214  0.3341 -0.4937
  866MPD2    C512764   3.118   0.166  11.572  1.1374 -0.5690 -0.2501
  866MPD2     H12765   3.164   0.313  11.227  1.8798  0.8799  0.2018
  866MPD2    H112766   2.932   0.248  11.567  0.0443  2.2137 -0.1873
  866MPD2    H212767   3.308   0.076  11.557 -0.1797 -0.7264 -1.0269
  866MPD2    H312768   3.099   0.123  11.669 -2.5681  2.1293  0.2552
  866MPD2     N12769   2.927   0.384  11.338  0.4156  0.2314  0.0253
  866MPD2    H512770   2.861   0.404  11.413  3.0560 -0.5842  2.5709
  866MPD2    N112771   3.370   0.153  11.320  0.1826  0.4988  0.5868
  866MPD2    H712772   3.417   0.081  11.373  1.8947  1.6345  0.6170
  867MPD2     C12773   0.413   4.701  16.328  0.1643  0.6247  1.2039
  867MPD2    C112774   0.513   4.675  16.422  0.4586  0.2535 -0.4157
  867MPD2    C212775   0.521   0.022  16.534  0.1912 -0.1805 -1.2172
  867MPD2    C312776   0.439   0.134  16.552  0.1246  0.1472  0.2044
  867MPD2    C412777   0.337   0.150  16.456 -0.8739  0.3992 -0.0488
  867MPD2    C512778   0.327   0.066  16.351  0.7934  0.7144  0.1368
  867MPD2     H12779   0.606   0.014  16.600 -0.3821 -1.3673 -0.6088
  867MPD2    H112780   0.280   0.241  16.458 -1.7455 -0.1585  0.5855
  867MPD2    H212781   0.410   4.658  16.229  1.1742  0.7334  1.1331
  867MPD2    H312782   0.259   0.098  16.272  0.0196  0.5747  0.7527
  867MPD2     N12783   0.454   0.228  16.654  0.1903 -1.0315  0.1431
  867MPD2    H512784   0.372   0.287  16.659  0.3453 -0.7560 -0.5757
  867MPD2    N112785   0.601   4.564  16.400  0.4984  0.3597  0.3000
  867MPD2    H712786   0.575   4.506  16.320  1.9018 -0.1324  0.2035
  868MPD2     C12787   2.031   3.476  13.069 -0.2900  0.1879 -0.1873
  868MPD2    C112788   2.080   3.583  13.149 -0.0323  0.2902 -0.2869
  868MPD2    C212789   1.990   3.664  13.210  0.6585 -0.2127 -0.6552
  868MPD2    C312790   1.861   3.626  13.224 -0.1617 -0.4974  0.9926
  868MPD2    C412791   1.814   3.517  13.156 -0.1123 -0.4418 -0.6858
  868MPD2    C512792   1.897   3.449  13.068  0.3619  0.1581  0.3851
  868MPD2     H12793   2.018   3.749  13.272  3.3880 -1.1394 -0.6020
  868MPD2    H112794   1.711   3.482  13.162 -0.3381  0.3606  0.0847
  868MPD2    H212795   2.100   3.419  13.009  0.7683  3.5642 -2.1541
  868MPD2    H312796   1.863   3.373  12.999 -1.6323  0.9721  0.4940
  868MPD2     N12797   1.779   3.707  13.313  0.3779  0.0671  0.1553
  868MPD2    H512798   1.823   3.794  13.342  0.9437 -0.2035  0.1237
  868MPD2    N112799   2.219   3.603  13.150 -0.0939 -0.2542 -0.5149
  868MPD2    H712800   2.286   3.530  13.127  0.4970 -0.3211  1.4404
  869MPD2     C12801   3.280   1.639  17.172  0.3436 -0.5278 -0.3463
  869MPD2    C112802   3.202   1.616  17.285  0.0368  0.1339  0.2434
  869MPD2    C212803   3.190   1.714  17.385  0.3470  0.7685 -0.5685
  869MPD2    C312804   3.267   1.831  17.391 -0.3539  0.4946 -0.9158
  869MPD2    C412805   3.345   1.846  17.281  0.1263  0.0070  0.1576
  869MPD2    C512806   3.356   1.752  17.182 -0.5690  0.3923  0.0709
  869MPD2     H12807   3.116   1.701  17.463  2.0537  2.3146  1.2992
  869MPD2    H112808   3.409   1.933  17.285 -0.2608  0.2495  1.2412
  869MPD2    H212809   3.295   1.576  17.085  0.9194  1.0605 -1.4035
  869MPD2    H312810   3.432   1.771  17.108  1.1600  0.5101  1.8705
  869MPD2     N12811   3.269   1.919  17.501 -0.3491 -0.5344 -0.9234
  869MPD2    H512812   3.332   1.998  17.487 -0.7677 -0.1445 -0.5831
  869MPD2    N112813   3.132   1.502  17.279 -0.6959 -0.0386  0.0502
  869MPD2    H712814   3.140   1.450  17.193 -2.3439 -1.8215  0.9790
  870MPD2     C12815   3.741   1.446   1.397  0.0642 -1.1378  0.0651
  870MPD2    C112816   3.688   1.329   1.345 -0.4512  0.1923 -0.3421
  870MPD2    C212817   3.573   1.327   1.261  0.5755 -0.2444  0.2706
  870MPD2    C312818   3.527   1.453   1.231 -0.5234 -0.2318  0.3735
  870MPD2    C412819   3.581   1.572   1.282  0.2807 -0.3515 -0.2877
  870MPD2    C512820   3.686   1.565   1.365 -0.1200 -0.4190 -0.1649
  870MPD2     H12821   3.533   1.242   1.207 -2.7285  1.2865  0.3262
  870MPD2    H112822   3.532   1.668   1.277  2.3725  0.6886 -0.8930
  870MPD2    H212823   3.810   1.450   1.480  0.6407  0.9988 -0.5236
  870MPD2    H312824   3.714   1.660   1.408 -0.3665 -0.4582  0.0793
  870MPD2     N12825   3.412   1.459   1.150 -0.1948 -0.0516  0.6738
  870MPD2    H512826   3.383   1.374   1.105 -2.2323  0.9304  0.1622
  870MPD2    N112827   3.753   1.211   1.386 -0.3538  0.1361  0.7743
  870MPD2    H712828   3.825   1.224   1.455  0.2559  1.8652 -0.1682
  871MPD2     C12829   3.823   4.423  16.064  0.2975 -0.7451  0.0659
  871MPD2    C112830   3.832   4.368  16.188 -1.4226 -0.4673  0.0819
  871MPD2    C212831   3.893   4.247  16.203 -0.0417  0.0536  0.1853
  871MPD2    C312832   3.955   4.178  16.096  0.2456 -0.0890 -0.1961
  871MPD2    C412833   3.953   4.243  15.973 -0.7522 -0.6618 -0.2589
  871MPD2    C512834   3.880   4.356  15.960 -0.4193 -0.3654  0.4433
  871MPD2     H12835   3.911   4.211  16.303 -0.0967  1.8487  0.8530
  871MPD2    H112836   3.988   4.193  15.884  0.3604  1.0135 -0.7636
  871MPD2    H212837   3.781   4.523  16.062  0.5355 -0.6730 -1.1809
  871MPD2    H312838   3.877   4.401  15.861  0.6589 -0.9202  0.1602
  871MPD2     N12839   4.042   4.073  16.111  0.3714  0.0291 -0.5894
  871MPD2    H512840   4.059   4.013  16.031 -0.4511 -0.7604 -0.1679
  871MPD2    N112841   3.769   4.445  16.295 -0.3344  0.6983  0.2509
  871MPD2    H712842   3.716   4.529  16.276 -0.5004  0.0227 -2.2938
  872MPD2     C12843   0.036   1.976  13.847  0.4074  0.1461  0.3194
  872MPD2    C112844   0.099   2.090  13.890 -0.6596 -0.5061  0.0431
  872MPD2    C212845   0.046   2.177  13.980 -0.2526  0.4115 -0.2704
  872MPD2    C312846   4.658   2.139  14.034  0.0793  0.4935  0.7284
  872MPD2    C412847   4.592   2.027  13.984 -0.4891  0.7526  0.3339
  872MPD2    C512848   4.649   1.945  13.890  0.1235 -0.0551  0.2049
  872MPD2     H12849   0.097   2.265  14.018  1.0921 -0.2336 -0.6063
  872MPD2    H112850   4.495   1.997  14.022 -1.1858 -0.6174 -2.5389
  872MPD2    H212851   0.073   1.905  13.775  1.0854  1.2133 -0.3808
  872MPD2    H312852   4.591   1.859  13.857  1.7004 -0.0012 -2.6862
  872MPD2     N12853   4.587   2.212  14.130 -0.0931  0.3910  0.0883
  872MPD2    H512854   4.490   2.188  14.147  0.6216  0.0738  3.8181
  872MPD2    N112855   0.218   2.137  13.835  0.0630 -0.2664  0.0983
  872MPD2    H712856   0.243   2.234  13.853  0.1313 -0.3295  0.3397
  873MPD2     C12857   2.322   1.748   0.421  0.1682  0.2556 -0.7338
  873MPD2    C112858   2.183   1.737   0.422  0.7920 -0.5284 -0.0019
  873MPD2    C212859   2.124   1.625   0.367  0.1180  0.5570  0.5495
  873MPD2    C312860   2.197   1.527   0.304 -0.6131  0.3171 -0.6178
  873MPD2    C412861   2.333   1.538   0.297  0.6523 -0.3403  0.0116
  873MPD2    C512862   2.389   1.653   0.354 -0.0917  0.4501 -1.0045
  873MPD2     H12863   2.016   1.613   0.374  0.2619 -0.7564  0.4819
  873MPD2    H112864   2.408   1.476   0.251  0.1833  1.2545 -2.8855
  873MPD2    H212865   2.377   1.828   0.469 -1.9509  0.2915  1.6412
  873MPD2    H312866   2.497   1.650   0.360 -0.0702 -0.1118 -1.7556
  873MPD2     N12867   2.136   1.415   0.250 -0.5484 -0.3816 -0.2717
  873MPD2    H512868   2.193   1.334   0.226  0.3512 -0.1851  1.2051
  873MPD2    N112869   2.112   1.847   0.478 -0.1409  0.0663 -0.4838
  873MPD2    H712870   2.162   1.917   0.531  0.0443 -0.2209 -0.2800
  874MPD2     C12871   1.451   2.621  16.130  0.5801  0.4901  0.3338
  874MPD2    C112872   1.507   2.610  16.257  0.2600 -0.0008  0.2517
  874MPD2    C212873   1.626   2.687  16.279 -0.1272  1.0075 -0.3359
  874MPD2    C312874   1.677   2.762  16.179  0.6968  0.5020  0.3288
  874MPD2    C412875   1.614   2.772  16.058 -0.4361  0.0579  0.9313
  874MPD2    C512876   1.501   2.697  16.034  0.5811 -0.5140 -0.3722
  874MPD2     H12877   1.679   2.689  16.374 -4.0178  1.5083  1.8420
  874MPD2    H112878   1.651   2.834  15.977  1.4460 -1.1912  0.8280
  874MPD2    H212879   1.363   2.563  16.106  1.3992  0.0191 -1.5045
  874MPD2    H312880   1.451   2.700  15.938 -0.9702 -0.6081  0.4320
  874MPD2     N12881   1.787   2.838  16.215 -0.2988  0.3869  0.3712
  874MPD2    H512882   1.810   2.837  16.314  1.0384  2.3897  0.0859
  874MPD2    N112883   1.450   2.517  16.346  0.1208  0.6746 -0.3020
  874MPD2    H712884   1.369   2.468  16.307 -2.2534  0.5352  4.7925
  875MPD2     C12885   2.279   0.500  14.734 -0.6722 -0.3182  0.3412
  875MPD2    C112886   2.290   0.600  14.638  0.6337 -0.5775 -0.0433
  875MPD2    C212887   2.345   0.723  14.678  0.9608 -0.0833 -0.0272
  875MPD2    C312888   2.387   0.736  14.808 -0.6455 -0.0129 -0.2094
  875MPD2    C412889   2.395   0.632  14.891  0.0678  0.1336  0.2055
  875MPD2    C512890   2.318   0.520  14.867 -0.1211  0.1599  0.2038
  875MPD2     H12891   2.336   0.812  14.617  2.3889  0.5513  0.6833
  875MPD2    H112892   2.440   0.651  14.988  1.5797 -0.9409 -0.2817
  875MPD2    H212893   2.223   0.410  14.713  1.6789 -1.3716 -1.4593
  875MPD2    H312894   2.324   0.434  14.932 -1.0221  2.1518  2.9124
  875MPD2     N12895   2.467   0.845  14.847  0.1948  0.0393  0.5101
  875MPD2    H512896   2.498   0.843  14.944 -2.4286 -0.1929  1.3662
  875MPD2    N112897   2.259   0.583  14.502  0.4158 -0.8867 -0.3438
  875MPD2    H712898   2.263   0.666  14.444  1.0729  0.0574  1.0658
  876MPD2     C12899   1.844   2.421  16.266 -0.2586  0.5687  0.1650
  876MPD2    C112900   1.791   2.382  16.149 -0.1981 -0.4195 -0.4493
  876MPD2    C212901   1.746   2.251  16.132 -0.3073  0.0730 -0.2654
  876MPD2    C312902   1.731   2.169  16.241  0.2724 -0.2136 -0.0269
  876MPD2    C412903   1.773   2.213  16.366  0.4641  0.1957 -0.0887
  876MPD2    C512904   1.828   2.339  16.375  0.8755  0.5061  0.1641
  876MPD2     H12905   1.712   2.221  16.034  2.4336  2.7289 -2.0709
  876MPD2    H112906   1.785   2.154  16.456 -0.1679 -1.1991 -0.9185
  876MPD2    H212907   1.883   2.522  16.279  2.0535 -0.2413 -0.5154
  876MPD2    H312908   1.858   2.376  16.473  0.2926  0.5876  0.3113
  876MPD2     N12909   1.694   2.037  16.227  0.1014 -0.1310 -0.9046
  876MPD2    H512910   1.676   2.001  16.134  1.9625 -2.3640 -0.4136
  876MPD2    N112911   1.792   2.473  16.042  0.1617 -0.0045  0.1327
  876MPD2    H712912   1.827   2.565  16.070 -1.8428  0.1210  2.2774
  877MPD2     C12913   1.510   2.859  15.296  0.5733  0.6579  0.5231
  877MPD2    C112914   1.648   2.835  15.314 -0.6362 -0.0959  0.7681
  877MPD2    C212915   1.737   2.866  15.205 -0.0118  0.5853  0.0448
  877MPD2    C312916   1.687   2.908  15.081  0.0415  0.1448 -0.5845
  877MPD2    C412917   1.553   2.923  15.071  0.3875  0.3864 -0.3547
  877MPD2    C512918   1.471   2.902  15.176 -0.9221  0.1348  0.3622
  877MPD2     H12919   1.841   2.836  15.212  0.4400  1.7943 -1.4895
  877MPD2    H112920   1.503   2.948  14.977  2.1997 -1.5246 -1.8221
  877MPD2    H212921   1.435   2.838  15.371 -0.6770  0.4924 -0.7732
  877MPD2    H312922   1.363   2.909  15.161 -1.0180 -2.1992  0.0412
  877MPD2     N12923   1.762   2.924  14.964  0.6940 -0.7033  0.1466
  877MPD2    H512924   1.714   2.946  14.878  0.7289  0.7805  0.5074
  877MPD2    N112925   1.701   2.782  15.440  0.4237 -0.4262 -0.0458
  877MPD2    H712926   1.800   2.761  15.434  0.3609 -1.0033  0.8870
  878MPD2     C12927   1.657   1.404  13.570  0.2907  0.1639 -0.8324
  878MPD2    C112928   1.609   1.532  13.588  0.1569  0.4815 -0.1903
  878MPD2    C212929   1.607   1.584  13.717  0.5189 -0.2030 -0.1300
  878MPD2    C312930   1.629   1.508  13.826  0.2347 -0.2496 -0.1236
  878MPD2    C412931   1.671   1.384  13.808  0.4820  0.5317 -0.0770
  878MPD2    C512932   1.702   1.339  13.680  0.0008  0.2995  0.2742
  878MPD2     H12933   1.573   1.685  13.733 -1.6393 -1.3739  2.4999
  878MPD2    H112934   1.708   1.315  13.882  2.9160  2.8784  0.8809
  878MPD2    H212935   1.669   1.360  13.472  1.8898 -1.7524  0.2322
  878MPD2    H312936   1.741   1.237  13.682 -1.4565 -0.2646 -0.0307
  878MPD2     N12937   1.610   1.573  13.953  0.4478  0.0536 -0.5640
  878MPD2    H512938   1.619   1.674  13.961 -1.6171  0.2002 -0.1673
  878MPD2    N112939   1.569   1.593  13.471  0.4938 -0.4567 -0.9755
  878MPD2    H712940   1.561   1.552  13.378 -2.5555 -1.1153 -0.3988
  879MPD2     C12941   1.659   2.696  17.569  0.2638 -0.4799  0.0975
  879MPD2    C112942   1.725   2.804  17.508 -0.0354  0.0736 -1.1361
  879MPD2    C212943   1.691   2.826  17.376  0.6014  0.3074  0.3561
  879MPD2    C312944   1.584   2.760  17.313  0.4494 -0.1863 -0.1857
  879MPD2    C412945   1.518   2.658  17.388  0.5335  0.4855 -0.0662
  879MPD2    C512946   1.558   2.626  17.516  0.4609  0.1634  0.4597
  879MPD2     H12947   1.744   2.902  17.321  2.3979 -0.7984  0.5703
  879MPD2    H112948   1.434   2.603  17.348  1.0915 -0.4572  0.0462
  879MPD2    H212949   1.673   2.680  17.676 -1.1022  0.7642  0.4569
  879MPD2    H312950   1.501   2.548  17.565 -0.2485 -0.0573 -0.7127
  879MPD2     N12951   1.537   2.778  17.179  0.5500 -0.0106 -1.4891
  879MPD2    H512952   1.468   2.715  17.141 -0.7670  0.0712  0.7500
  879MPD2    N112953   1.811   2.886  17.579 -0.2603 -0.1015 -0.2526
  879MPD2    H712954   1.814   2.879  17.681 -0.2673 -2.1977 -0.3874
  880MPD2     C12955   2.882   0.277  17.707 -0.0521  0.1494  0.0473
  880MPD2    C112956   2.956   0.360   0.039  0.4402 -0.8941 -0.1353
  880MPD2    C212957   3.057   0.301   0.111  0.2292  0.1510  0.2748
  880MPD2    C312958   3.095   0.168   0.095 -0.1818  0.6989  0.5427
  880MPD2    C412959   3.022   0.090   0.014  0.6811 -0.2198 -0.1574
  880MPD2    C512960   2.911   0.144  17.699 -0.1356 -0.2336 -0.6231
  880MPD2     H12961   3.117   0.355   0.183 -0.7151  0.2852  0.9677
  880MPD2    H112962   3.033   4.721   0.004  0.4152 -0.4603  2.1401
  880MPD2    H212963   2.804   0.320  17.644  1.5416  2.1756 -0.5318
  880MPD2    H312964   2.846   0.087  17.634 -0.9497 -0.7340  0.6206
  880MPD2     N12965   3.179   0.112   0.196 -0.6087  0.7951  0.1507
  880MPD2    H512966   3.212   0.174   0.270  1.4350  0.7205 -0.6938
  880MPD2    N112967   2.924   0.495   0.049  0.4705 -0.3719 -0.2198
  880MPD2    H712968   2.847   0.527  17.741 -0.1502 -0.5016  0.5297
  881MPD2     C12969   3.451   1.207  17.395 -0.0028  0.5127 -0.1055
  881MPD2    C112970   3.397   1.083  17.367  0.0056 -0.0153  0.3109
  881MPD2    C212971   3.298   1.040  17.453 -0.1961 -0.0636 -0.0267
  881MPD2    C312972   3.295   1.097  17.579 -0.3818 -0.3397  0.1891
  881MPD2    C412973   3.382   1.187  17.621 -0.2557  0.2216  0.7291
  881MPD2    C512974   3.458   1.250  17.531 -0.4032  0.2902  0.5406
  881MPD2     H12975   3.239   0.955  17.420 -1.2860  1.5805 -2.2667
  881MPD2    H112976   3.400   1.208  17.725  1.4186 -1.2113  0.7338
  881MPD2    H212977   3.524   1.243  17.323 -0.1969  0.7156 -0.1995
  881MPD2    H312978   3.537   1.321  17.551  1.0733 -1.6570  1.6086
  881MPD2     N12979   3.217   1.044  17.682 -0.0151  0.4574  0.0608
  881MPD2    H512980   3.234   1.087   0.023 -1.9861  0.2672  0.5145
  881MPD2    N112981   3.418   1.042  17.235  0.5585 -0.4267  0.7577
  881MPD2    H712982   3.463   1.106  17.171 -0.9461  0.1225  0.2491
  882MPD2     C12983   1.754   2.427  14.386 -0.2871 -0.5034 -1.0617
  882MPD2    C112984   1.726   2.496  14.496 -0.3225  0.2277 -0.0751
  882MPD2    C212985   1.607   2.470  14.562  0.3881  0.1001  0.0433
  882MPD2    C312986   1.518   2.370  14.512 -0.0247 -0.2729  0.3957
  882MPD2    C412987   1.552   2.304  14.397 -0.6247 -0.5515  0.0361
  882MPD2    C512988   1.673   2.331  14.335 -0.0034  0.4142 -0.2459
  882MPD2     H12989   1.572   2.520  14.651 -0.9648  0.9765 -0.9706
  882MPD2    H112990   1.486   2.226  14.362  0.0950 -0.7878 -0.7989
  882MPD2    H212991   1.851   2.440  14.338 -1.6583  3.3906 -2.7651
  882MPD2    H312992   1.705   2.274  14.249  0.5804  2.0258 -1.0954
  882MPD2     N12993   1.409   2.329  14.586 -0.9382  0.1727 -0.4427
  882MPD2    H512994   1.352   2.257  14.542 -0.4632 -2.0446  2.5622
  882MPD2    N112995   1.817   2.598  14.543 -0.0452  0.3425 -0.2890
  882MPD2    H712996   1.906   2.609  14.495  0.9090 -1.7942  0.9607
  883MPD2     C12997   3.630   2.078  16.180 -0.3167 -0.5725 -0.9605
  883MPD2    C112998   3.684   2.178  16.099  0.1808  0.8317  0.1666
  883MPD2    C212999   3.772   2.267  16.160 -0.1517  0.7858  0.3634
  883MPD2    C313000   3.825   2.244  16.282 -0.0902 -0.1837 -0.6339
  883MPD2    C413001   3.777   2.136  16.362  0.1776  0.1499 -0.4196
  883MPD2    C513002   3.676   2.063  16.306  0.3550  0.0904  0.3747
  883MPD2     H13003   3.805   2.348  16.097 -0.3252 -0.7854 -1.7350
  883MPD2    H113004   3.808   2.117  16.464 -0.9378 -0.9322 -0.2958
  883MPD2    H213005   3.561   2.001  16.148 -0.3818 -2.0701  2.7870
  883MPD2    H313006   3.625   1.983  16.358 -1.3329  0.9755  0.0732
  883MPD2     N13007   3.929   2.330  16.331  0.0961 -0.2175  0.0733
  883MPD2    H513008   3.972   2.391  16.261  1.2287  1.0160  1.8389
  883MPD2    N113009   3.640   2.201  15.970 -0.0560  0.1073 -0.3067
  883MPD2    H713010   3.692   2.274  15.921 -0.5386  0.2754 -0.5639
  884MPD2     C13011   0.779   3.266  15.148  0.4798 -0.6046 -0.0535
  884MPD2    C113012   0.777   3.402  15.136  0.2117  0.1132 -0.4721
  884MPD2    C213013   0.660   3.468  15.121 -0.1330  0.6668 -0.3085
  884MPD2    C313014   0.542   3.404  15.135 -0.4036 -0.2623  0.6167
  884MPD2    C413015   0.543   3.262  15.158  0.4229  0.7668 -0.1069
  884MPD2    C513016   0.662   3.204  15.173 -0.0160 -0.1051  0.6353
  884MPD2     H13017   0.665   3.574  15.098  0.5041  0.9256  1.0524
  884MPD2    H113018   0.446   3.215  15.166  1.3482 -0.9610  0.8131
  884MPD2    H213019   0.868   3.205  15.142  0.5837 -0.3763 -0.7686
  884MPD2    H313020   0.662   3.097  15.188 -2.8695 -0.6413 -3.1722
  884MPD2     N13021   0.432   3.484  15.109 -0.0538  0.0093 -0.2957
  884MPD2    H513022   0.448   3.575  15.067  1.5690 -0.0674  0.1691
  884MPD2    N113023   0.896   3.474  15.121 -0.5596 -0.2696  0.7047
  884MPD2    H713024   0.878   3.574  15.111 -0.3798 -0.4723 -1.5314
  885MPD2     C13025   3.558   4.268   0.197 -0.0327 -0.3273  0.3269
  885MPD2    C113026   3.673   4.200   0.176  0.3120 -0.1102 -0.4452
  885MPD2    C213027   3.715   4.175   0.041 -0.4220 -0.6343  0.4261
  885MPD2    C313028   3.632   4.216  17.685 -0.2472  0.0702 -0.2866
  885MPD2    C413029   3.517   4.282  17.711  0.6109 -0.3325 -0.1396
  885MPD2    C513030   3.479   4.310   0.091  0.1945  0.0976  0.0470
  885MPD2     H13031   3.807   4.125   0.015  0.3921  0.6496  0.8742
  885MPD2    H113032   3.459   4.319  17.627  0.9091 -0.6495 -0.4829
  885MPD2    H213033   3.528   4.296   0.298 -2.8706 -1.3775 -0.2408
  885MPD2    H313034   3.391   4.371   0.107 -0.3854 -1.1939  1.7704
  885MPD2     N13035   3.678   4.197  17.551 -0.4701  0.2313  0.6622
  885MPD2    H513036   3.757   4.136  17.537 -0.1218  1.4740 -2.7149
  885MPD2    N113037   3.760   4.186   0.282  0.1856  0.2029 -0.1225
  885MPD2    H713038   3.726   4.214   0.374  1.1265  1.8165 -0.2720
  886MPD2     C13039   0.074   1.832  15.395 -0.4183 -0.8105 -0.1537
  886MPD2    C113040   0.208   1.811  15.381  0.7426 -0.5088 -0.2389
  886MPD2    C213041   0.274   1.886  15.292 -0.1713  0.3866  0.2902
  886MPD2    C313042   0.227   1.998  15.227 -0.5570  0.3682  1.0938
  886MPD2    C413043   0.087   2.012  15.243 -0.1972 -0.0791  0.7225
  886MPD2    C513044   0.014   1.927  15.317  0.3149 -0.0350  0.4771
  886MPD2     H13045   0.377   1.853  15.292 -0.2169  0.2425  0.1920
  886MPD2    H113046   0.030   2.094  15.202 -0.5889 -1.1842 -0.9370
  886MPD2    H213047   0.023   1.779  15.474 -1.4085 -2.2859 -1.7754
  886MPD2    H313048   4.644   1.935  15.318  0.3285  0.2563 -0.5679
  886MPD2     N13049   0.299   2.100  15.162  0.2944  0.4550 -0.1102
  886MPD2    H513050   0.257   2.182  15.120 -2.7106 -1.5470 -1.0049
  886MPD2    N113051   0.276   1.698  15.443  0.0955  0.2585  0.1456
  886MPD2    H713052   0.373   1.676  15.423  0.0805 -0.2321  0.5886
  887MPD2     C13053   0.855   1.510  15.716 -0.0759  0.3698 -0.1489
  887MPD2    C113054   0.758   1.582  15.640  0.0093  0.7308 -0.6048
  887MPD2    C213055   0.758   1.719  15.655  0.1537 -1.1326 -0.3027
  887MPD2    C313056   0.852   1.784  15.739 -0.3167 -0.3215 -0.3225
  887MPD2    C413057   0.951   1.707  15.805 -0.2095  0.7430 -0.7139
  887MPD2    C513058   0.952   1.571  15.794  0.3159  0.0941  0.1141
  887MPD2     H13059   0.682   1.776  15.605  1.2667  1.2273  0.6916
  887MPD2    H113060   1.026   1.752  15.868  1.8480  0.1756 -2.7609
  887MPD2    H213061   0.855   1.402  15.703 -3.8918  0.4285 -0.5563
  887MPD2    H313062   1.025   1.513  15.848 -0.6875  0.5635  1.9506
  887MPD2     N13063   0.837   1.924  15.737  0.7672 -1.0507 -0.4979
  887MPD2    H513064   0.755   1.956  15.687  0.8494  1.8552  1.2276
  887MPD2    N113065   0.655   1.525  15.559  0.3798  0.3758 -0.7476
  887MPD2    H713066   0.595   1.593  15.512  3.2287  3.2135 -0.2592
  888MPD2     C13067   2.564   1.821  14.543 -0.1006  0.1943  0.6587
  888MPD2    C113068   2.580   1.833  14.681  1.0158 -0.2326  0.2063
  888MPD2    C213069   2.655   1.937  14.730  0.1236 -0.4045  0.4010
  888MPD2    C313070   2.726   2.018  14.642 -0.3578 -0.3855  0.6583
  888MPD2    C413071   2.709   1.998  14.504  0.7559  0.5725 -0.0203
  888MPD2    C513072   2.622   1.904  14.455 -0.3843 -0.3094 -0.4295
  888MPD2     H13073   2.656   1.958  14.837 -4.4028  0.5525  0.2520
  888MPD2    H113074   2.758   2.048  14.421 -0.0497 -0.1122 -0.9128
  888MPD2    H213075   2.483   1.769  14.492  0.0733  0.6398 -0.0591
  888MPD2    H313076   2.602   1.902  14.348  1.6600  0.7859 -0.8418
  888MPD2     N13077   2.823   2.102  14.694  0.6767 -0.5263 -0.2841
  888MPD2    H513078   2.833   2.094  14.794  3.6412 -0.2652 -0.5490
  888MPD2    N113079   2.504   1.754  14.768  0.9516  0.3761 -0.0791
  888MPD2    H713080   2.506   1.785  14.865 -0.5500 -1.9067  0.7055
  889MPD2     C13081   1.799   1.629  12.906  1.0254 -0.6016  0.2392
  889MPD2    C113082   1.813   1.538  13.009 -0.1881 -0.1592 -0.7854
  889MPD2    C213083   1.850   1.600  13.127  0.4768 -0.2874  0.1787
  889MPD2    C313084   1.842   1.735  13.151  0.8866 -0.5526  0.3827
  889MPD2    C413085   1.809   1.817  13.048  0.5136  0.2559 -0.0322
  889MPD2    C513086   1.797   1.763  12.925  0.2875 -0.3305  0.1001
  889MPD2     H13087   1.865   1.539  13.216  0.7434 -1.8673 -0.9569
  889MPD2    H113088   1.795   1.924  13.057 -2.6484 -0.1983  0.5440
  889MPD2    H213089   1.791   1.594  12.804 -1.0795 -0.2170  0.2659
  889MPD2    H313090   1.791   1.829  12.840  0.0143 -1.2220 -0.5800
  889MPD2     N13091   1.862   1.793  13.275 -0.2440  0.0168  0.6621
  889MPD2    H513092   1.918   1.735  13.337 -1.7460 -2.5463 -0.3671
  889MPD2    N113093   1.828   1.399  12.994  0.4894  0.2731 -0.2124
  889MPD2    H713094   1.847   1.353  13.082  0.2120 -0.5578 -0.5821
  890MPD2     C13095   1.446   3.338  14.816  0.0372 -0.0341 -0.5569
  890MPD2    C113096   1.574   3.329  14.862 -0.1577 -0.4529 -0.3325
  890MPD2    C213097   1.597   3.299  15.000 -0.4733 -0.4157  0.0628
  890MPD2    C313098   1.493   3.265  15.079 -0.7000 -0.1001 -0.1600
  890MPD2    C413099   1.363   3.253  15.023 -0.6761  0.2066  0.1673
  890MPD2    C513100   1.336   3.307  14.898 -0.2335  0.1258 -0.5206
  890MPD2     H13101   1.695   3.315  15.041  0.5926 -1.0975 -2.2012
  890MPD2    H113102   1.275   3.229  15.082 -0.6217 -0.6189 -0.0843
  890MPD2    H213103   1.424   3.364  14.713  0.4783 -0.3871 -0.7416
  890MPD2    H313104   1.239   3.318  14.850 -0.3890  1.8894  0.2079
  890MPD2     N13105   1.523   3.231  15.205  0.0343  0.3436  0.0998
  890MPD2    H513106   1.623   3.227  15.225  0.0714  1.5272  0.1255
  890MPD2    N113107   1.675   3.375  14.774 -0.1687 -0.0422  0.8577
  890MPD2    H713108   1.645   3.400  14.680  1.1284 -1.2748  0.1233
  891MPD2     C13109   4.346   2.163  16.312 -0.0682 -0.0486 -0.8590
  891MPD2    C113110   4.301   2.149  16.441 -0.8563 -0.3877  0.3226
  891MPD2    C213111   4.370   2.214  16.544  0.1671  0.2541  0.7314
  891MPD2    C313112   4.466   2.307  16.516  0.4619  0.4121 -0.3805
  891MPD2    C413113   4.502   2.333  16.386  0.2679 -0.6787 -0.4496
  891MPD2    C513114   4.450   2.253  16.287  0.2841  0.5181  0.0859
  891MPD2     H13115   4.361   2.183  16.647  0.3327 -0.4930  0.5224
  891MPD2    H113116   4.592   2.390  16.366 -0.3352  0.3769 -0.2095
  891MPD2    H213117   4.299   2.113  16.228  0.8566 -3.7807  0.8315
  891MPD2    H313118   4.495   2.265  16.189  1.2776 -2.6803  0.1491
  891MPD2     N13119   4.526   2.367  16.624  1.0353  0.0237  0.6400
  891MPD2    H513120   4.515   2.328  16.717  0.2640  1.0457  0.9876
  891MPD2    N113121   4.197   2.054  16.460 -0.1263 -0.7192  0.3862
  891MPD2    H713122   4.158   1.996  16.386 -1.2119 -0.1537  0.5174
  892MPD2     C13123   0.873   3.019  14.752 -1.0559 -0.2975  0.2263
  892MPD2    C113124   0.790   2.926  14.805  0.5352 -0.8618 -0.8495
  892MPD2    C213125   0.837   2.791  14.840 -0.1205  0.1358 -0.0923
  892MPD2    C313126   0.965   2.755  14.802 -0.2756  0.2549  0.4654
  892MPD2    C413127   1.041   2.848  14.731 -0.2029  0.3749  0.0913
  892MPD2    C513128   0.986   2.969  14.697 -0.9417 -1.0495  1.0762
  892MPD2     H13129   0.778   2.718  14.893 -0.6772 -0.2102 -1.1804
  892MPD2    H113130   1.136   2.825  14.684 -1.4875 -0.6605 -2.0158
  892MPD2    H213131   0.844   3.123  14.745 -0.1944 -0.1282 -0.7918
  892MPD2    H313132   1.038   3.037  14.631 -1.8942  0.4557  1.8676
  892MPD2     N13133   1.016   2.620  14.826  0.3370 -0.2645  0.1405
  892MPD2    H513134   1.116   2.610  14.817  0.4826  0.5279  0.9030
  892MPD2    N113135   0.662   2.968  14.844 -0.3839  0.4473  0.7819
  892MPD2    H713136   0.624   3.048  14.793 -2.6098 -0.5663  0.8370
  893MPD2     C13137   2.158   1.179   0.987  0.1407  1.0774  0.4424
  893MPD2    C113138   2.154   1.259   0.876 -0.1595  0.0976  0.3574
  893MPD2    C213139   2.042   1.331   0.853  0.1528 -0.5189 -0.4663
  893MPD2    C313140   1.941   1.337   0.953 -0.0133 -0.3253 -0.0444
  893MPD2    C413141   1.953   1.270   1.069 -0.1404  0.3497  0.4853
  893MPD2    C513142   2.060   1.184   1.084 -0.2658 -0.5290  0.4646
  893MPD2     H13143   2.031   1.394   0.766 -4.1101  0.4296  0.7386
  893MPD2    H113144   1.886   1.283   1.153 -0.1169 -2.3558  0.9205
  893MPD2    H213145   2.237   1.105   0.998  0.0856  1.0802  0.8903
  893MPD2    H313146   2.069   1.119   1.171 -0.1172 -0.4961  0.4737
  893MPD2     N13147   1.822   1.423   0.946 -0.2007 -0.3591  0.2126
  893MPD2    H513148   1.768   1.430   1.032  0.4528  0.0675  0.5870
  893MPD2    N113149   2.266   1.268   0.796  0.5324  0.6588  0.3192
  893MPD2    H713150   2.342   1.203   0.815  0.8505  0.3810 -1.9019
  894MPD2     C13151   0.695   4.187   1.074 -0.1297 -0.3194 -0.1399
  894MPD2    C113152   0.630   4.198   1.198  0.0462 -0.1816  0.0623
  894MPD2    C213153   0.598   4.324   1.248  0.0393  0.7346  0.4480
  894MPD2    C313154   0.654   4.431   1.192 -0.2501 -0.1324 -0.4167
  894MPD2    C413155   0.730   4.420   1.077  0.0648  0.7000 -0.0083
  894MPD2    C513156   0.750   4.302   1.016 -0.1756 -0.1532 -0.0547
  894MPD2     H13157   0.543   4.322   1.342 -0.2381  0.6422  0.2840
  894MPD2    H113158   0.783   4.501   1.030  0.8522 -0.5969 -1.3406
  894MPD2    H213159   0.721   4.095   1.022 -0.6207 -1.1537  1.0939
  894MPD2    H313160   0.802   4.297   0.921  1.4644 -1.4033  0.9114
  894MPD2     N13161   0.643   4.558   1.251  0.0040 -0.0069  0.3167
  894MPD2    H513162   0.593   4.568   1.338 -0.2970  1.1436  0.0067
  894MPD2    N113163   0.591   4.077   1.254  0.2028  0.0081 -0.7998
  894MPD2    H713164   0.615   3.987   1.214 -0.1306 -1.0980  1.4764
  895MPD2     C13165   4.608   1.569  13.636  0.4323  0.3555  0.1483
  895MPD2    C113166   4.560   1.581  13.513 -0.2813 -0.1745 -0.4960
  895MPD2    C213167   4.590   1.485  13.414 -0.5020 -1.0509 -0.2059
  895MPD2    C313168   4.675   1.378  13.447 -0.4362  0.5617  0.7264
  895MPD2    C413169   4.728   1.383  13.574 -0.0042  0.6548  0.1229
  895MPD2    C513170   4.700   1.474  13.670 -0.3372  0.1549  0.1161
  895MPD2     H13171   4.534   1.491  13.321  0.4691 -0.5091 -0.7577
  895MPD2    H113172   0.047   1.297  13.607 -0.0834  0.6563  0.2654
  895MPD2    H213173   4.587   1.643  13.712  1.0555  0.4210  0.2588
  895MPD2    H313174   4.723   1.465  13.775  0.0144  0.2960  0.0521
  895MPD2     N13175   4.684   1.273  13.350  0.5208  0.2667  0.1848
  895MPD2    H513176   4.636   1.290  13.262  0.5279 -0.2003  0.0919
  895MPD2    N113177   4.475   1.683  13.475 -0.0204 -0.2062 -0.2379
  895MPD2    H713178   4.457   1.691  13.376 -0.9728 -1.4934 -0.1729
  896MPD2     C13179   2.794   0.344   1.760 -0.4664 -0.3275  0.0555
  896MPD2    C113180   2.742   0.288   1.642 -0.2111 -0.6070  0.2006
  896MPD2    C213181   2.606   0.260   1.646  0.1449 -0.1090 -0.4736
  896MPD2    C313182   2.524   0.298   1.751  0.4006  0.0658 -0.6685
  896MPD2    C413183   2.586   0.337   1.865  0.0567 -0.4758 -0.5054
  896MPD2    C513184   2.720   0.366   1.868 -0.1383 -0.6287  0.5208
  896MPD2     H13185   2.554   0.214   1.563  0.8488 -1.4709 -0.1583
  896MPD2    H113186   2.532   0.350   1.957 -1.2884 -1.7224 -1.1246
  896MPD2    H213187   2.899   0.372   1.764 -0.9820  0.8404  4.7555
  896MPD2    H313188   2.767   0.405   1.957  0.2674  0.5179 -0.1881
  896MPD2     N13189   2.388   0.283   1.738 -0.0022 -0.0800  0.1599
  896MPD2    H513190   2.368   0.255   1.642  1.8728 -3.7788  0.8540
  896MPD2    N113191   2.830   0.271   1.534  0.5987  1.0329 -0.3233
  896MPD2    H713192   2.926   0.274   1.564  0.0828 -1.6437  1.5355
  897MPD2     C13193   3.586   1.205  10.690 -0.4043 -1.5043  0.3577
  897MPD2    C113194   3.483   1.244  10.611 -0.0058 -0.4165  0.3368
  897MPD2    C213195   3.350   1.238  10.662  0.1621 -0.0163  0.3009
  897MPD2    C313196   3.322   1.192  10.792 -0.1626 -0.5498  0.1077
  897MPD2    C413197   3.435   1.151  10.863  0.1408 -0.0797 -0.2518
  897MPD2    C513198   3.562   1.164  10.820  0.6592 -0.4863  0.3875
  897MPD2     H13199   3.266   1.272  10.602  1.2939 -1.3038 -1.9913
  897MPD2    H113200   3.433   1.116  10.966  1.8722  0.0108 -0.1970
  897MPD2    H213201   3.689   1.213  10.660 -0.3248 -0.7630  0.8278
  897MPD2    H313202   3.647   1.135  10.881  0.1494 -2.4045  0.1650
  897MPD2     N13203   3.191   1.194  10.833  0.4224  0.1671  0.2643
  897MPD2    H513204   3.123   1.233  10.768 -1.1032  0.6950  2.1656
  897MPD2    N113205   3.512   1.302  10.491  0.1760 -0.0662  0.2925
  897MPD2    H713206   3.608   1.318  10.459 -0.1885  0.4248 -0.5595
  898MPD2     C13207   4.667   2.677  17.749 -0.7590 -0.3813  0.7778
  898MPD2    C113208   0.011   2.663   0.111 -0.7390 -0.0453 -0.2685
  898MPD2    C213209   0.046   2.775   0.184 -0.7137 -0.3763 -0.0115
  898MPD2    C313210   0.001   2.902   0.146  0.9667 -0.1597 -0.5528
  898MPD2    C413211   4.649   2.910   0.046 -0.0824 -0.3318  0.1095
  898MPD2    C513212   4.609   2.795  17.725  0.3263  0.6795 -0.6929
  898MPD2     H13213   0.111   2.765   0.270 -0.7254 -2.3664 -0.2305
  898MPD2    H113214   4.609   3.007   0.017 -2.1944 -0.9358  0.9833
  898MPD2    H213215   4.658   2.598  17.675  0.6815  1.5426 -1.4956
  898MPD2    H313216   4.533   2.796  17.647  0.7356 -1.6357 -1.1418
  898MPD2     N13217   0.049   3.015   0.219  0.1843  0.4683 -0.0095
  898MPD2    H513218   0.113   3.000   0.296 -0.6889 -1.9702  0.2207
  898MPD2    N113219   0.082   2.547   0.140 -0.6362  0.9105  0.6159
  898MPD2    H713220   0.148   2.556   0.216  1.3091 -0.9474 -0.8801
  899MPD2     C13221   1.506   3.207   0.265  0.0279  0.3068  0.2311
  899MPD2    C113222   1.389   3.170   0.201  0.2291  0.3457 -0.1159
  899MPD2    C213223   1.271   3.232   0.239  0.1044 -0.7942 -0.6869
  899MPD2    C313224   1.263   3.317   0.345  0.0230  0.2281  0.3066
  899MPD2    C413225   1.375   3.350   0.414 -0.5337 -0.6311  0.0447
  899MPD2    C513226   1.492   3.296   0.372  0.3673  0.4827 -0.2115
  899MPD2     H13227   1.176   3.206   0.192 -1.4143  1.7490  1.0064
  899MPD2    H113228   1.383   3.417   0.499 -4.0981 -2.1163  1.5245
  899MPD2    H213229   1.603   3.174   0.229  0.5004  0.2735  1.5303
  899MPD2    H313230   1.588   3.320   0.417  0.5667  0.1050 -0.4358
  899MPD2     N13231   1.143   3.362   0.402 -0.0332  0.1754 -0.4155
  899MPD2    H513232   1.159   3.432   0.473 -0.3562  1.7822 -1.9229
  899MPD2    N113233   1.398   3.100   0.080 -0.1726  0.2298  0.4651
  899MPD2    H713234   1.485   3.056   0.052 -0.2478  0.3495  0.0376
  900MPD2     C13235   1.118   4.360  12.653  0.3438 -0.1063 -0.8176
  900MPD2    C113236   1.027   4.269  12.622  0.5674  0.1021 -0.3985
  900MPD2    C213237   0.905   4.309  12.563  0.4049 -0.2116  0.7065
  900MPD2    C313238   0.872   4.440  12.542 -0.6339 -0.5878  0.5582
  900MPD2    C413239   0.970   4.534  12.580 -0.1515  0.6047 -1.0883
  900MPD2    C513240   1.087   4.495  12.640  0.2838 -0.1089 -0.4538
  900MPD2     H13241   0.831   4.232  12.545  1.6494 -0.9222 -1.3596
  900MPD2    H113242   0.955   4.638  12.555 -1.8329  0.7703  0.5964
  900MPD2    H213243   1.212   4.327  12.696 -1.0718 -1.3415  1.3150
  900MPD2    H313244   1.161   4.566  12.677 -1.6502  2.0523 -0.7747
  900MPD2     N13245   0.755   4.474  12.461  0.6640 -0.3755  0.0289
  900MPD2    H513246   0.708   4.395  12.417 -1.0226 -0.8328  2.5912
  900MPD2    N113247   1.063   4.132  12.638 -0.2363 -0.0051 -0.2835
  900MPD2    H713248   1.156   4.114  12.673 -0.3402 -0.1915 -0.1034
  901MPD2     C13249   0.764   3.063  12.565 -0.4721 -0.2205 -0.0767
  901MPD2    C113250   0.897   3.074  12.606 -0.5109  0.2471  0.0074
  901MPD2    C213251   0.950   3.197  12.642 -0.7801 -0.0416  0.6573
  901MPD2    C313252   0.885   3.308  12.619  0.2696  0.4147  1.0122
  901MPD2    C413253   0.757   3.303  12.566  0.2342 -0.3122  0.4542
  901MPD2    C513254   0.693   3.177  12.552 -0.1278 -0.4066 -0.2908
  901MPD2     H13255   1.046   3.202  12.693  0.2154  0.2200 -1.2035
  901MPD2    H113256   0.693   3.388  12.547  0.4153 -0.3217 -0.2075
  901MPD2    H213257   0.714   2.966  12.562  0.0911 -0.5025 -0.3066
  901MPD2    H313258   0.586   3.166  12.535 -0.4471 -0.2136  1.5785
  901MPD2     N13259   0.950   3.436  12.644  0.4658 -0.0452  0.0242
  901MPD2    H513260   1.050   3.443  12.660  0.3901  1.8633 -0.3982
  901MPD2    N113261   0.971   2.954  12.610  0.4583  0.1174 -0.6226
  901MPD2    H713262   0.923   2.877  12.565  0.9967 -1.1315  0.9218
  902MPD2     C13263   4.440   1.981  12.343  0.2672  0.4414  0.5250
  902MPD2    C113264   4.547   2.067  12.374  0.0273 -0.2715 -0.4404
  902MPD2    C213265   4.671   2.012  12.408 -0.8522 -0.3033 -0.5879
  902MPD2    C313266   4.699   1.876  12.378  0.3018 -0.6252 -0.5563
  902MPD2    C413267   4.593   1.800  12.334  0.3157 -0.0209  0.1006
  902MPD2    C513268   4.461   1.846  12.339  0.0804 -0.6373  0.1733
  902MPD2     H13269   0.014   2.082  12.424 -2.0065  0.8911  0.0258
  902MPD2    H113270   4.598   1.696  12.303 -2.1502  0.1371 -0.8715
  902MPD2    H213271   4.343   2.027  12.325  0.7530  1.3567  0.2386
  902MPD2    H313272   4.381   1.786  12.298 -0.7770  0.2861  0.5101
  902MPD2     N13273   0.090   1.814  12.387  0.3954  0.2653 -0.4808
  902MPD2    H513274   0.104   1.724  12.343 -1.5725  0.9522 -2.4976
  902MPD2    N113275   4.517   2.206  12.399 -0.9726  0.2729  0.0424
  902MPD2    H713276   4.426   2.245  12.375 -0.6014  0.4998 -1.0082
  903MPD2     C13277   0.056   2.377  12.026 -0.2281 -0.1818  0.2998
  903MPD2    C113278   0.018   2.246  12.031 -0.2234  0.1592  0.0477
  903MPD2    C213279   4.628   2.220  12.011  0.6554  0.4896 -0.3239
  903MPD2    C313280   4.532   2.315  11.993  0.7645 -1.1647 -0.5257
  903MPD2    C413281   4.566   2.450  11.993  0.5989 -0.2600  0.0127
  903MPD2    C513282   4.702   2.481  12.007 -0.4128 -0.1597 -0.3816
  903MPD2     H13283   4.600   2.115  12.020 -2.4463  1.2052 -1.7706
  903MPD2    H113284   4.496   2.531  11.975 -0.1801 -0.8883  0.1831
  903MPD2    H213285   0.161   2.395  12.046 -0.5919  0.5554  1.4929
  903MPD2    H313286   0.004   2.579  11.986 -1.2844  0.0562 -1.0294
  903MPD2     N13287   4.401   2.268  11.962  0.2035 -0.4171 -0.3728
  903MPD2    H513288   4.381   2.169  11.970  0.0911 -0.1976  2.0527
  903MPD2    N113289   0.119   2.151  12.065 -0.0847  0.5816  0.0474
  903MPD2    H713290   0.203   2.188  12.109 -1.3276  0.0268  2.8892
  904MPD2     C13291   0.025   1.220  14.032 -0.3673 -0.2838  0.3904
  904MPD2    C113292   4.720   1.328  14.107 -0.5549 -0.8648  0.3017
  904MPD2    C213293   0.055   1.369  14.219  0.1018  0.0219 -1.0661
  904MPD2    C313294   0.164   1.294  14.258 -0.0675 -0.2376  0.2089
  904MPD2    C413295   0.207   1.190  14.181  0.5875  0.0485  0.2659
  904MPD2    C513296   0.140   1.157  14.066 -0.0294 -0.5884 -0.3541
  904MPD2     H13297   0.023   1.449  14.285  0.9285 -0.0326 -0.5911
  904MPD2    H113298   0.288   1.126  14.211 -1.7867 -2.0954  2.0660
  904MPD2    H213299   4.712   1.176  13.947  0.5942 -2.0253  0.7223
  904MPD2    H313300   0.178   1.072  14.010  4.3380  1.9407 -1.2408
  904MPD2     N13301   0.246   1.339  14.365  0.3157  0.1183 -0.3721
  904MPD2    H513302   0.201   1.400  14.432  2.0357 -0.5281  1.3791
  904MPD2    N113303   4.598   1.399  14.075  0.4112  0.0872  0.1276
  904MPD2    H713304   4.578   1.478  14.136 -1.6471  0.9001 -1.6142
  905MPD2     C13305   4.184   1.539  13.386  0.1358 -0.2693 -0.0472
  905MPD2    C113306   4.222   1.435  13.465  0.0385 -0.1755  0.4129
  905MPD2    C213307   4.278   1.325  13.408 -0.0489 -0.3095  0.3486
  905MPD2    C313308   4.297   1.315  13.269 -0.0490 -0.3232  0.4952
  905MPD2    C413309   4.248   1.413  13.194 -0.1437 -0.3892  0.7768
  905MPD2    C513310   4.195   1.529  13.248  0.5778  0.5238  0.0326
  905MPD2     H13311   4.307   1.243  13.474  1.8037 -0.8362 -1.1214
  905MPD2    H113312   4.248   1.414  13.086  1.0712  1.3328  0.7811
  905MPD2    H213313   4.139   1.633  13.415  0.2745  0.1007 -1.0202
  905MPD2    H313314   4.156   1.615  13.195  1.2312  0.7478 -0.0870
  905MPD2     N13315   4.356   1.201  13.206  0.2828 -0.5124  0.4056
  905MPD2    H513316   4.373   1.205  13.106  2.7268  0.0404  0.8457
  905MPD2    N113317   4.221   1.446  13.604 -0.1750 -0.2681 -0.0712
  905MPD2    H713318   4.281   1.378  13.649  0.9986  1.0464  0.3600
  906MPD2     C13319   1.906   1.502  11.216 -0.0945 -0.1421  0.2570
  906MPD2    C113320   1.904   1.397  11.121  0.2155  0.4259 -0.4874
  906MPD2    C213321   1.891   1.273  11.166 -0.2187  0.3178 -0.2482
  906MPD2    C313322   1.867   1.247  11.300 -0.5400 -0.0688 -0.0797
  906MPD2    C413323   1.861   1.355  11.392  0.2693 -0.5729  0.3613
  906MPD2    C513324   1.885   1.480  11.351  0.4557 -0.1575 -0.3603
  906MPD2     H13325   1.902   1.187  11.101 -0.4556 -1.4534  2.0860
  906MPD2    H113326   1.863   1.322  11.496  1.5850  0.4547  0.6648
  906MPD2    H213327   1.918   1.604  11.181 -0.7232  0.3678  1.5059
  906MPD2    H313328   1.892   1.568  11.414 -2.1847  0.0629 -0.3579
  906MPD2     N13329   1.824   1.118  11.329  0.1801 -0.1067 -0.2972
  906MPD2    H513330   1.841   1.049  11.257 -1.2096  0.2442 -0.9487
  906MPD2    N113331   1.919   1.415  10.983  0.1583 -0.0559  0.4752
  906MPD2    H713332   1.898   1.339  10.920 -2.1548  0.5391  0.5321
  907MPD2     C13333   0.446   0.711  15.872 -0.1782 -0.4803  0.3889
  907MPD2    C113334   0.534   0.625  15.810 -0.2772 -0.1695 -0.0271
  907MPD2    C213335   0.665   0.608  15.860 -0.3241 -0.9382 -0.6018
  907MPD2    C313336   0.697   0.659  15.983  0.8396 -0.0051  0.3433
  907MPD2    C413337   0.608   0.744  16.043  0.5796  0.5988  0.6661
  907MPD2    C513338   0.482   0.773  15.986  0.2536 -0.0218  0.0321
  907MPD2     H13339   0.739   0.542  15.815  0.2580 -0.7609  0.0823
  907MPD2    H113340   0.631   0.787  16.140  0.6261  1.7293  0.1537
  907MPD2    H213341   0.342   0.713  15.840 -0.0777  1.6126  0.1702
  907MPD2    H313342   0.413   0.831  16.046 -0.0237  0.9559 -1.2234
  907MPD2     N13343   0.820   0.612  16.047 -0.2759 -0.6036 -0.1158
  907MPD2    H513344   0.870   0.541  15.996  0.0063 -1.1977  1.0037
  907MPD2    N113345   0.506   0.561  15.688 -0.0530  0.1423 -0.2939
  907MPD2    H713346   0.571   0.484  15.671 -1.2425 -1.0029  0.3031
  908MPD2     C13347   3.907   1.030   9.739 -1.2439  0.1327  1.2422
  908MPD2    C113348   3.805   0.975   9.808 -0.6081 -0.2615  0.5204
  908MPD2    C213349   3.743   1.054   9.905  0.5144 -1.0291  0.0301
  908MPD2    C313350   3.775   1.189   9.912 -0.0032 -0.1364  0.5607
  908MPD2    C413351   3.875   1.242   9.838  0.5180 -0.2637  0.1112
  908MPD2    C513352   3.944   1.154   9.763  0.5742  0.6635  0.5606
  908MPD2     H13353   3.676   1.010   9.978 -0.4876 -0.0593 -0.2944
  908MPD2    H113354   3.918   1.342   9.839 -0.0293 -0.0330  0.4363
  908MPD2    H213355   3.970   0.982   9.665 -1.7436 -2.4533  2.4755
  908MPD2    H313356   4.034   1.194   9.717  0.9336  0.0304  0.7233
  908MPD2     N13357   3.697   1.263  10.002  0.1977  0.1590 -0.7345
  908MPD2    H513358   3.628   1.217  10.061 -0.8116  0.5163 -1.6207
  908MPD2    N113359   3.776   0.844   9.779  0.3428 -0.5402 -0.1684
  908MPD2    H713360   3.836   0.808   9.706 -0.5206 -0.6436 -0.8284
  909MPD2     C13361   3.383   3.974  11.538 -0.4962 -0.3122 -0.7703
  909MPD2    C113362   3.441   4.087  11.599  0.1551 -0.0272  0.6933
  909MPD2    C213363   3.377   4.145  11.707  0.2729  0.0114  0.3926
  909MPD2    C313364   3.257   4.081  11.759  0.3155  0.1582  0.1753
  909MPD2    C413365   3.203   3.977  11.694 -0.8886  0.6718 -0.6920
  909MPD2    C513366   3.269   3.928  11.584 -0.5091  0.0268  0.2271
  909MPD2     H13367   3.421   4.234  11.750 -0.0682  1.0606 -1.4306
  909MPD2    H113368   3.103   3.938  11.710 -0.3889 -0.4616 -0.3246
  909MPD2    H213369   3.426   3.925  11.451  1.2080  0.9189 -0.6095
  909MPD2    H313370   3.219   3.851  11.526 -1.4503  1.3029 -0.6479
  909MPD2     N13371   3.198   4.129  11.881 -0.2299 -0.0567 -0.0945
  909MPD2    H513372   3.120   4.077  11.920 -0.2806 -0.6294 -0.9748
  909MPD2    N113373   3.560   4.149  11.557 -0.3506 -0.2547  0.4577
  909MPD2    H713374   3.588   4.237  11.599 -0.5183 -0.9835  2.1367
  910MPD2     C13375   0.052   1.411  16.440  0.2159  0.9780 -0.1799
  910MPD2    C113376   0.068   1.304  16.353  0.4293  0.0891  0.4438
  910MPD2    C213377   0.019   1.300  16.226 -1.1751 -0.0082  0.4797
  910MPD2    C313378   4.678   1.403  16.183  0.7238  0.4539  0.2695
  910MPD2    C413379   4.656   1.512  16.263 -0.0776  0.4163  0.0387
  910MPD2    C513380   4.703   1.512  16.393 -0.6764 -0.0239  0.0492
  910MPD2     H13381   0.039   1.222  16.153  0.1854  1.1360 -0.3605
  910MPD2    H113382   4.592   1.593  16.229  1.1204  0.5036 -2.0306
  910MPD2    H213383   0.085   1.424  16.542 -0.1064  0.9390 -0.0714
  910MPD2    H313384   4.691   1.597  16.459 -1.4733  0.3500 -0.5734
  910MPD2     N13385   4.629   1.413  16.054  0.0598 -0.1129  0.1167
  910MPD2    H513386   4.580   1.497  16.024 -0.0159 -1.6299 -3.9764
  910MPD2    N113387   0.144   1.193  16.393 -0.1466  0.2116 -0.0556
  910MPD2    H713388   0.172   1.124  16.324  1.8039 -1.0271  1.9293
  911MPD2     C13389   2.675   1.691  16.158 -0.7830 -0.4362 -0.5138
  911MPD2    C113390   2.752   1.758  16.250  0.8504  0.2930  0.5495
  911MPD2    C213391   2.783   1.891  16.228  1.1681 -0.4988 -0.5283
  911MPD2    C313392   2.715   1.960  16.133 -0.4767 -0.0869  0.0197
  911MPD2    C413393   2.645   1.890  16.039  0.1527  0.1752 -0.2472
  911MPD2    C513394   2.633   1.755  16.048 -0.2038 -0.3334  0.4605
  911MPD2     H13395   2.841   1.941  16.305  1.0867 -0.4553 -0.4955
  911MPD2    H113396   2.604   1.950  15.958 -1.2373  0.3968  0.6230
  911MPD2    H213397   2.657   1.584  16.151 -0.1898 -0.6459  1.2517
  911MPD2    H313398   2.579   1.699  15.972 -0.9717  1.1580 -0.0870
  911MPD2     N13399   2.725   2.099  16.124 -0.1348 -0.4038 -0.2419
  911MPD2    H513400   2.659   2.152  16.068  0.4022 -1.0143 -1.4632
  911MPD2    N113401   2.818   1.676  16.353 -0.1365  0.3698  0.0340
  911MPD2    H713402   2.790   1.579  16.363  1.6730 -0.1361  0.1963
  912MPD2     C13403   2.322   2.285  15.612 -0.9600  0.8047 -0.8124
  912MPD2    C113404   2.378   2.235  15.730  0.3304 -1.0793 -0.6399
  912MPD2    C213405   2.331   2.110  15.772  0.2241  0.1814  0.0880
  912MPD2    C313406   2.255   2.031  15.688  0.7473  0.1100 -0.0379
  912MPD2    C413407   2.217   2.081  15.559 -0.1224 -0.0172  0.3984
  912MPD2    C513408   2.247   2.207  15.525  0.3636 -0.5197  0.4847
  912MPD2     H13409   2.366   2.074  15.868 -1.5600  2.2253  1.5071
  912MPD2    H113410   2.160   2.022  15.488  1.2792  2.2896 -2.5994
  912MPD2    H213411   2.344   2.388  15.588  1.2095  0.3377 -0.8310
  912MPD2    H313412   2.216   2.242  15.428  1.4818  0.1168  0.3622
  912MPD2     N13413   2.218   1.904  15.737  0.1260 -0.5252  0.2259
  912MPD2    H513414   2.268   1.873  15.819  1.3119  2.2211  0.5607
  912MPD2    N113415   2.460   2.319  15.803 -0.2610  0.3544  0.7352
  912MPD2    H713416   2.490   2.406  15.760  1.4428 -0.6290 -0.0759
  913MPD2     C13417   2.896   3.355  10.517  0.0270 -0.0986 -0.0852
  913MPD2    C113418   2.908   3.495  10.520  0.1537  0.5851  0.9492
  913MPD2    C213419   2.919   3.571  10.403  0.5523  0.0997  0.3402
  913MPD2    C313420   2.941   3.505  10.280  0.1380  0.0937  0.7210
  913MPD2    C413421   2.946   3.367  10.288 -0.3319 -0.3241  0.8023
  913MPD2    C513422   2.921   3.294  10.402 -0.3366  0.1534 -0.1524
  913MPD2     H13423   2.907   3.679  10.408  0.4145  0.1260 -0.5395
  913MPD2    H113424   2.959   3.317  10.193 -1.7950  0.3003  0.2727
  913MPD2    H213425   2.897   3.285  10.600 -0.9961 -0.5579 -0.4730
  913MPD2    H313426   2.938   3.187  10.408  0.1589  0.3147  1.3921
  913MPD2     N13427   2.962   3.570  10.155 -0.4903  0.3719 -0.2751
  913MPD2    H513428   2.963   3.517  10.068  0.8837  0.3877 -0.2660
  913MPD2    N113429   2.895   3.562  10.640 -0.2282 -0.3998 -0.0044
  913MPD2    H713430   2.877   3.498  10.716  2.5374  0.0998  1.0694
  914MPD2     C13431   0.852   2.383  12.031  0.7066  0.3393  0.0516
  914MPD2    C113432   0.853   2.519  12.040  0.1918 -0.4033 -0.0921
  914MPD2    C213433   0.927   2.569  12.146 -0.3238  0.2699  0.3142
  914MPD2    C313434   0.995   2.484  12.234 -0.2433 -0.0192 -0.5876
  914MPD2    C413435   1.001   2.346  12.218 -0.1389 -0.5029 -0.3187
  914MPD2    C513436   0.919   2.300  12.122 -0.3319 -0.5312 -0.4058
  914MPD2     H13437   0.918   2.676  12.163  0.1788  0.8091 -2.9823
  914MPD2    H113438   1.063   2.282  12.280  1.5285  1.1194 -0.3176
  914MPD2    H213439   0.780   2.342  11.961  1.1518  0.9607 -0.7663
  914MPD2    H313440   0.921   2.193  12.106 -0.0270 -0.7566  1.1334
  914MPD2     N13441   1.054   2.543  12.350  0.1268  0.0065 -0.4962
  914MPD2    H513442   1.046   2.644  12.358  2.2294  0.2428 -1.3955
  914MPD2    N113443   0.770   2.595  11.947  0.1696 -0.6738 -0.4751
  914MPD2    H713444   0.718   2.546  11.875 -1.0900 -1.6327  1.1012
  915MPD2     C13445   4.211   3.280  15.513 -0.1159 -0.2753 -0.5683
  915MPD2    C113446   4.075   3.250  15.504  0.3989  0.4037 -1.0469
  915MPD2    C213447   4.002   3.213  15.615  0.6104  0.7680 -0.3977
  915MPD2    C313448   4.067   3.203  15.733  0.6223  0.2152  0.0900
  915MPD2    C413449   4.204   3.225  15.748  0.2188  0.2345 -0.2202
  915MPD2    C513450   4.275   3.258  15.635  0.3681  0.3581  0.3180
  915MPD2     H13451   3.895   3.200  15.612  0.6581 -0.0768  2.0697
  915MPD2    H113452   4.251   3.244  15.844 -1.8774  0.5599  0.7536
  915MPD2    H213453   4.264   3.306  15.422 -0.3358  0.6664 -0.4257
  915MPD2    H313454   4.382   3.275  15.644  0.4930 -2.0634  3.4830
  915MPD2     N13455   3.991   3.183  15.854 -0.5785  0.0115 -0.6480
  915MPD2    H513456   3.891   3.200  15.846 -0.8513 -0.4990  1.8881
  915MPD2    N113457   4.011   3.253  15.379  0.1043 -0.5658 -0.3073
  915MPD2    H713458   4.068   3.275  15.298  0.1083 -0.6820 -0.3364
  916MPD2     C13459   1.684   1.748  15.678 -0.2271 -0.5529 -1.2082
  916MPD2    C113460   1.693   1.645  15.768 -0.6708  0.1762 -0.2285
  916MPD2    C213461   1.693   1.511  15.723  0.1214 -0.3555  0.1938
  916MPD2    C313462   1.684   1.479  15.591 -0.4187 -0.1315  1.0807
  916MPD2    C413463   1.670   1.584  15.503 -0.7485  0.1320 -0.0280
  916MPD2    C513464   1.677   1.716  15.547 -0.0747 -0.2010  0.8852
  916MPD2     H13465   1.694   1.437  15.802  0.3753  0.8563  1.3417
  916MPD2    H113466   1.652   1.582  15.396 -0.7429 -1.2002  0.0008
  916MPD2    H213467   1.699   1.851  15.707 -0.5983 -0.4918 -1.2262
  916MPD2    H313468   1.668   1.797  15.475  0.2211 -0.5003  0.5136
  916MPD2     N13469   1.687   1.345  15.559  0.1174  0.4523  0.4289
  916MPD2    H513470   1.717   1.286  15.636  2.7113  0.5908 -0.4717
  916MPD2    N113471   1.707   1.679  15.906 -0.4855  0.3076  0.8634
  916MPD2    H713472   1.706   1.779  15.922  1.6532  0.0554  2.5710
  917MPD2     C13473   1.807   3.478  11.308  0.2871  0.3518  0.1242
  917MPD2    C113474   1.766   3.562  11.413  0.0411 -0.2968  0.0515
  917MPD2    C213475   1.822   3.682  11.407  0.0644 -0.1178  0.0941
  917MPD2    C313476   1.900   3.734  11.309 -0.0512 -0.1851 -0.2036
  917MPD2    C413477   1.915   3.661  11.193 -1.0494  0.0301 -0.4518
  917MPD2    C513478   1.877   3.530  11.196  0.7684  0.4061  0.2221
  917MPD2     H13479   1.824   3.745  11.495  0.5801  0.1767 -0.1307
  917MPD2    H113480   1.962   3.690  11.099  1.8883 -0.8705  0.7374
  917MPD2    H213481   1.781   3.373  11.308 -1.2405  0.7293 -1.0946
  917MPD2    H313482   1.879   3.461  11.111  0.7124 -0.4401  0.9034
  917MPD2     N13483   1.968   3.858  11.307  0.0707  0.7742 -0.1188
  917MPD2    H513484   2.034   3.864  11.230  0.6787 -3.1602  0.0701
  917MPD2    N113485   1.707   3.497  11.521  0.0692  0.3375  0.4271
  917MPD2    H713486   1.676   3.400  11.519  1.8651 -0.2472  1.0170
  918MPD2     C13487   1.966   3.830  12.427 -0.1232 -0.0837 -0.4560
  918MPD2    C113488   2.029   3.828  12.299 -0.3169  0.8690 -0.8672
  918MPD2    C213489   1.956   3.761  12.202  0.3055  0.8967  0.5365
  918MPD2    C313490   1.837   3.708  12.224  0.3152  0.3583  0.1232
  918MPD2    C413491   1.768   3.716  12.347  0.7766 -0.1770 -0.7697
  918MPD2    C513492   1.839   3.779  12.449  0.3287  0.3200 -0.2924
  918MPD2     H13493   1.984   3.753  12.098  0.8089  1.1200  0.6567
  918MPD2    H113494   1.673   3.673  12.374  1.1398 -0.5020  0.0050
  918MPD2    H213495   2.016   3.877  12.511 -0.5977 -0.9236  0.2929
  918MPD2    H313496   1.803   3.775  12.551 -0.6579 -1.4408 -0.7045
  918MPD2     N13497   1.792   3.622  12.115 -0.1856  0.3799 -0.1437
  918MPD2    H513498   1.852   3.612  12.035  1.0017  0.0976  0.7854
  918MPD2    N113499   2.152   3.897  12.267  0.4993 -0.2115  1.1921
  918MPD2    H713500   2.201   3.934  12.348  0.4342  0.1615  1.0590
  919MPD2     C13501   3.242   2.863  11.757  0.5118 -0.6399 -0.7775
  919MPD2    C113502   3.119   2.826  11.717  0.4813  0.2016  0.2532
  919MPD2    C213503   3.072   2.863  11.597  0.0619  0.7337  0.0207
  919MPD2    C313504   3.156   2.927  11.508  0.0514  0.1426  0.0575
  919MPD2    C413505   3.287   2.953  11.542  0.1069 -0.0542  0.3982
  919MPD2    C513506   3.329   2.931  11.673 -0.0482 -0.2396  0.0217
  919MPD2     H13507   2.973   2.832  11.566  1.0316 -1.7509 -0.5949
  919MPD2    H113508   3.361   2.999  11.478 -1.0704  0.2929 -0.7113
  919MPD2    H213509   3.285   2.831  11.851  0.5512  0.6987 -0.3473
  919MPD2    H313510   3.432   2.956  11.697 -0.4765  2.1230 -0.5893
  919MPD2     N13511   3.108   2.966  11.379 -0.2844  1.0413 -0.0301
  919MPD2    H513512   3.177   3.011  11.319  0.1121  1.7980  0.9845
  919MPD2    N113513   3.034   2.733  11.782  0.2307 -0.5743  0.1176
  919MPD2    H713514   2.944   2.707  11.744  0.4863 -1.4897  0.1352
  920MPD2     C13515   2.157   3.020  11.019  0.0914  0.0028  0.3623
  920MPD2    C113516   2.218   2.920  11.097 -0.4094  0.2333 -0.6806
  920MPD2    C213517   2.356   2.924  11.132  0.4770 -0.5495  0.0315
  920MPD2    C313518   2.437   3.017  11.063  0.3442 -0.0542 -0.6226
  920MPD2    C413519   2.377   3.115  10.979 -0.1169 -0.6654  0.2946
  920MPD2    C513520   2.238   3.120  10.972  0.4036 -0.3096  0.3829
  920MPD2     H13521   2.395   2.853  11.203 -0.6090  1.6958  2.9033
  920MPD2    H113522   2.437   3.196  10.941 -1.2830 -0.4089 -0.9885
  920MPD2    H213523   2.051   3.018  10.999  0.5829  1.2127 -2.3304
  920MPD2    H313524   2.193   3.207  10.926 -0.0884 -1.5811 -1.5281
  920MPD2     N13525   2.575   3.006  11.078  0.3004  0.5261  0.3613
  920MPD2    H513526   2.609   2.946  11.153  3.4171  0.3424 -1.1965
  920MPD2    N113527   2.151   2.806  11.149  0.5704 -0.6092 -0.4113
  920MPD2    H713528   2.203   2.748  11.215 -0.4613 -0.0517  0.8971
  921MPD2     C13529   3.548   1.999  16.946  0.1558 -0.2326 -0.0779
  921MPD2    C113530   3.572   1.891  16.869 -0.5371  0.2993  0.1079
  921MPD2    C213531   3.463   1.813  16.830  0.1868  0.3479  0.1032
  921MPD2    C313532   3.336   1.844  16.866 -0.5775  0.6463 -0.4516
  921MPD2    C413533   3.314   1.958  16.940  0.2105  0.2242 -0.6725
  921MPD2    C513534   3.419   2.032  16.988  0.7426  0.0088  0.1864
  921MPD2     H13535   3.480   1.731  16.762 -1.6188  0.3990 -0.4058
  921MPD2    H113536   3.216   1.997  16.964  0.6808  0.4255  0.9084
  921MPD2    H213537   3.619   2.074  16.978  0.6694 -0.8972  0.3400
  921MPD2    H313538   3.404   2.129  17.034  0.2444  1.6037 -3.3598
  921MPD2     N13539   3.227   1.772  16.819  0.3343  0.3762  0.2698
  921MPD2    H513540   3.136   1.807  16.847  0.0243  0.4724 -0.8609
  921MPD2    N113541   3.702   1.871  16.813 -0.2373 -0.2764  0.0092
  921MPD2    H713542   3.758   1.956  16.819 -0.4265 -0.1027 -0.7350
  922MPD2     C13543   4.668   0.280  16.854 -0.1170 -0.4844  0.1423
  922MPD2    C113544   4.638   0.281  16.990  0.4350 -0.1913 -0.0698
  922MPD2    C213545   4.645   0.158  17.054 -0.2103 -0.3363 -0.8840
  922MPD2    C313546   4.657   0.040  16.982  0.2204 -0.6792 -0.0234
  922MPD2    C413547   4.696   0.046  16.852  0.3636 -0.0734 -0.3531
  922MPD2    C513548   4.696   0.163  16.791  0.6001 -0.6597  0.3198
  922MPD2     H13549   4.630   0.152  17.161  3.1279  1.0860 -0.3370
  922MPD2    H113550   4.715   4.693  16.795 -1.2829 -0.8368  0.3310
  922MPD2    H213551   4.668   0.369  16.793  1.2712 -0.7631 -0.2629
  922MPD2    H313552   4.697   0.169  16.683  1.5093  1.3935  0.4472
  922MPD2     N13553   4.638   4.650  17.050 -0.7168  0.5449  0.0087
  922MPD2    H513554   4.596   4.654  17.143  0.4150 -0.5544  0.5561
  922MPD2    N113555   4.599   0.391  17.070  0.1567  0.3216 -0.1479
  922MPD2    H713556   4.579   0.365  17.166  1.5996 -2.3612 -0.5817
  923MPD2     C13557   0.973   1.592   8.856  0.0279 -0.9541  0.3379
  923MPD2    C113558   0.977   1.680   8.962 -0.3809 -0.5941 -0.1491
  923MPD2    C213559   1.058   1.653   9.069 -0.7841  0.4830 -1.1067
  923MPD2    C313560   1.129   1.537   9.074  0.4530 -0.0524  0.5929
  923MPD2    C413561   1.115   1.446   8.974 -0.0437  0.0995  0.3101
  923MPD2    C513562   1.033   1.472   8.864  0.8144 -0.4686  0.1155
  923MPD2     H13563   1.071   1.733   9.141 -0.1334 -0.7998  0.2070
  923MPD2    H113564   1.159   1.347   8.976  3.0484  1.5231  2.1609
  923MPD2    H213565   0.906   1.623   8.777 -1.3427 -1.9494  1.1223
  923MPD2    H313566   1.022   1.394   8.789  3.2615 -1.1820  0.5094
  923MPD2     N13567   1.213   1.500   9.190  0.4036 -0.3267 -0.2554
  923MPD2    H513568   1.240   1.402   9.194  1.1198 -0.1059  0.3677
  923MPD2    N113569   0.905   1.804   8.943 -0.0752 -0.1986 -0.0866
  923MPD2    H713570   0.865   1.813   8.850  0.4573  0.5343 -0.2467
  924MPD2     C13571   1.427   4.591  16.142 -0.1575  0.2371 -0.2114
  924MPD2    C113572   1.289   4.618  16.135  0.0367  0.2964 -0.0971
  924MPD2    C213573   1.255   0.012  16.107 -0.3038  0.6007 -0.4020
  924MPD2    C313574   1.348   0.112  16.096 -0.3402  0.1624 -0.5285
  924MPD2    C413575   1.481   0.083  16.113 -0.5144 -0.3157 -0.1236
  924MPD2    C513576   1.521   4.689  16.135 -0.0985  0.6007  0.1566
  924MPD2     H13577   1.150   0.032  16.090 -0.9633 -2.3131  0.2721
  924MPD2    H113578   1.549   0.165  16.127  0.0691 -1.1977  2.1799
  924MPD2    H213579   1.462   4.490  16.162  2.0966  1.1638  0.5641
  924MPD2    H313580   1.626   4.666  16.150 -0.2712  0.9311  1.8957
  924MPD2     N13581   1.311   0.252  16.101  0.1552 -0.0624  1.1316
  924MPD2    H513582   1.388   0.316  16.113  2.9532 -3.6720  2.2998
  924MPD2    N113583   1.193   4.517  16.131 -0.6473  0.7401 -0.0169
  924MPD2    H713584   1.231   4.425  16.113  0.4464  1.1094  0.4115
  925MPD2     C13585   4.634   2.656  14.889 -0.4658 -0.3003 -0.6619
  925MPD2    C113586   4.528   2.702  14.814 -0.1813 -0.1409 -0.3355
  925MPD2    C213587   4.428   2.775  14.878  0.1579  0.0204 -0.1941
  925MPD2    C313588   4.452   2.824  15.005  0.3825 -0.4428  0.3907
  925MPD2    C413589   4.560   2.789  15.074 -0.1257  0.1380  0.5209
  925MPD2    C513590   4.645   2.700  15.019  0.3491 -0.4818 -0.0052
  925MPD2     H13591   4.346   2.808  14.816 -0.0763  1.2555  0.7656
  925MPD2    H113592   4.582   2.832  15.171 -0.0208 -0.7627  0.8967
  925MPD2    H213593   4.706   2.583  14.854  0.5712  0.8550 -0.9242
  925MPD2    H313594   4.725   2.660  15.081  2.2720 -1.2626 -3.0122
  925MPD2     N13595   4.360   2.908  15.077 -0.6574  0.1767  0.2179
  925MPD2    H513596   4.388   2.923  15.173 -1.3784 -1.4552  0.6779
  925MPD2    N113597   4.506   2.652  14.681 -0.2117  0.0307  0.1273
  925MPD2    H713598   4.416   2.661  14.634  0.1696  0.3624 -0.5372
  926MPD2     C13599   2.612   0.631  13.452 -0.5069  0.6142 -0.2650
  926MPD2    C113600   2.700   0.731  13.500 -0.0121  0.1302 -0.4788
  926MPD2    C213601   2.769   0.805  13.401 -0.3223 -0.7503 -0.6121
  926MPD2    C313602   2.756   0.777  13.268 -0.6028 -0.8602 -0.3935
  926MPD2    C413603   2.671   0.674  13.226 -0.9201  1.0567  0.7404
  926MPD2    C513604   2.597   0.605  13.318  0.9447 -0.4733  0.5448
  926MPD2     H13605   2.831   0.889  13.427 -0.0499 -1.8952  2.4547
  926MPD2    H113606   2.659   0.651  13.121  2.0309 -0.1677  0.6545
  926MPD2    H213607   2.556   0.570  13.522 -0.3868  0.2256 -0.5070
  926MPD2    H313608   2.528   0.525  13.293  0.5628  0.0299 -0.0152
  926MPD2     N13609   2.825   0.852  13.165 -0.5239 -0.2405 -0.4668
  926MPD2    H513610   2.809   0.830  13.067 -1.2120 -1.5906 -0.0590
  926MPD2    N113611   2.698   0.784  13.634  0.1799  0.4922 -0.0401
  926MPD2    H713612   2.740   0.874  13.655  2.5785 -0.5098 -0.5758
  927MPD2     C13613   3.305   3.214   0.297 -0.4953 -0.3655 -0.0306
  927MPD2    C113614   3.212   3.300   0.243  0.3359 -0.4222 -0.9627
  927MPD2    C213615   3.233   3.339   0.109 -0.5181  0.0708 -0.3492
  927MPD2    C313616   3.317   3.268   0.026 -0.1167  0.1149  0.1143
  927MPD2    C413617   3.403   3.177   0.094 -0.1433  0.0936 -0.1066
  927MPD2    C513618   3.402   3.154   0.225 -0.1630  0.0041  0.0190
  927MPD2     H13619   3.169   3.413   0.061 -0.7773 -1.0457 -1.7454
  927MPD2    H113620   3.479   3.124   0.039 -0.1079 -0.9234  0.9314
  927MPD2    H213621   3.304   3.193   0.403 -0.5728 -2.1929 -0.3948
  927MPD2    H313622   3.470   3.088   0.277  0.2655  0.8753  0.5770
  927MPD2     N13623   3.321   3.300  17.637 -0.7070 -0.2093  0.5304
  927MPD2    H513624   3.250   3.368  17.610 -0.4656  0.0148  0.4573
  927MPD2    N113625   3.109   3.349   0.330 -0.0773 -0.2587 -0.6038
  927MPD2    H713626   3.104   3.305   0.421  0.5695  0.0507 -0.4187
  928MPD2     C13627   0.880   1.150   0.811 -0.4510 -0.3732  0.7303
  928MPD2    C113628   0.912   1.284   0.826 -0.2852 -0.2533 -0.2392
  928MPD2    C213629   0.884   1.377   0.729  1.2576 -0.4915 -0.3570
  928MPD2    C313630   0.826   1.335   0.607  0.5378 -0.6740 -0.2688
  928MPD2    C413631   0.813   1.198   0.586  0.4070  0.7809  0.0933
  928MPD2    C513632   0.837   1.109   0.686 -0.1038 -0.2109 -0.4181
  928MPD2     H13633   0.910   1.480   0.751 -0.3756 -0.4991  1.5723
  928MPD2    H113634   0.768   1.169   0.491  0.3081  0.1674  0.3335
  928MPD2    H213635   0.887   1.084   0.897  0.0572 -0.4567  0.6248
  928MPD2    H313636   0.818   1.003   0.671 -0.3301 -0.2946  0.4745
  928MPD2     N13637   0.794   1.424   0.500 -0.0308  0.1810 -0.7593
  928MPD2    H513638   0.771   1.378   0.412 -3.2937  1.6206 -0.6819
  928MPD2    N113639   0.972   1.322   0.952  0.2397 -0.3278  0.1405
  928MPD2    H713640   0.981   1.258   1.030 -1.3780 -0.6962  0.0127
  929MPD2     C13641   1.400   1.308  10.237  0.1234  0.0198 -1.0361
  929MPD2    C113642   1.322   1.237  10.329 -0.2285 -0.2406 -0.0393
  929MPD2    C213643   1.184   1.219  10.302  0.4092  0.9213  0.3280
  929MPD2    C313644   1.122   1.284  10.203  0.6807  0.5800 -0.2633
  929MPD2    C413645   1.200   1.363  10.118  0.0749  0.3327 -0.3621
  929MPD2    C513646   1.339   1.364  10.132 -0.2889  0.2999  0.1780
  929MPD2     H13647   1.119   1.181  10.380 -1.2542  0.4256 -1.2771
  929MPD2    H113648   1.159   1.416  10.033  3.3847  1.6487 -1.0944
  929MPD2    H213649   1.506   1.324  10.253 -0.2326  0.7550  0.6299
  929MPD2    H313650   1.402   1.426  10.070 -1.3123  3.2298  2.1057
  929MPD2     N13651   0.987   1.275  10.182 -0.6702  0.0466  0.3994
  929MPD2    H513652   0.945   1.337  10.113  0.9943  0.5265 -0.1925
  929MPD2    N113653   1.379   1.204  10.456  0.0780  0.2433  0.0943
  929MPD2    H713654   1.467   1.244  10.486 -0.5676  1.1356  0.8003
  930MPD2     C13655   2.625   3.783  14.451 -0.4523  0.5095  0.4353
  930MPD2    C113656   2.743   3.710  14.442  0.0860 -0.0858  0.5290
  930MPD2    C213657   2.748   3.614  14.338 -0.4426  0.4047 -0.5881
  930MPD2    C313658   2.650   3.596  14.248  0.1901 -0.3263  0.6394
  930MPD2    C413659   2.533   3.675  14.258 -0.1325  0.0777  0.1642
  930MPD2    C513660   2.518   3.763  14.362 -0.2192 -0.5981 -0.4954
  930MPD2     H13661   2.833   3.548  14.323 -1.2225 -0.4920 -0.9902
  930MPD2    H113662   2.459   3.677  14.178  0.0683 -0.6589 -0.0390
  930MPD2    H213663   2.602   3.855  14.529 -0.2983  1.4162 -0.3626
  930MPD2    H313664   2.425   3.819  14.367  0.9677  1.4288 -1.0250
  930MPD2     N13665   2.662   3.519  14.133 -0.3018 -0.0343 -0.0464
  930MPD2    H513666   2.591   3.528  14.060  0.4315 -0.1631 -0.7729
  930MPD2    N113667   2.845   3.741  14.541  0.0383 -0.0780 -0.1461
  930MPD2    H713668   2.814   3.793  14.623 -2.7557 -1.5538 -0.2661
  931MPD2     C13669   2.410   3.101   0.758 -0.5513  0.9340  0.3536
  931MPD2    C113670   2.545   3.089   0.729  0.8947 -0.1532 -0.0611
  931MPD2    C213671   2.620   2.981   0.774  0.1293 -0.3335  0.6744
  931MPD2    C313672   2.556   2.878   0.832  0.0692  0.1085 -0.8842
  931MPD2    C413673   2.417   2.891   0.868  0.2735  0.2026  0.0063
  931MPD2    C513674   2.350   3.004   0.827  0.6695 -0.4032 -0.6376
  931MPD2     H13675   2.728   2.983   0.761 -0.0882 -2.9141 -1.4765
  931MPD2    H113676   2.363   2.820   0.929 -2.9014  1.7556 -1.0237
  931MPD2    H213677   2.348   3.188   0.739  0.6010  1.2377 -1.9240
  931MPD2    H313678   2.244   3.021   0.842  1.4009  0.6802  3.3748
  931MPD2     N13679   2.614   2.757   0.877 -0.1955 -0.3148  0.2829
  931MPD2    H513680   2.554   2.693   0.929  0.4725 -1.7213 -0.6634
  931MPD2    N113681   2.593   3.198   0.653 -0.4595 -0.5232  0.0322
  931MPD2    H713682   2.524   3.261   0.615  0.7079  0.5248 -0.3767
  932MPD2     C13683   4.146   1.966  11.283  0.5000 -0.0904 -0.0691
  932MPD2    C113684   4.264   2.007  11.336  0.1834 -0.5581  0.4864
  932MPD2    C213685   4.356   1.905  11.351  0.4912 -0.0305  0.0055
  932MPD2    C313686   4.331   1.778  11.297 -0.1892 -0.4075 -0.1894
  932MPD2    C413687   4.214   1.743  11.232  0.6426 -0.4718 -0.3168
  932MPD2    C513688   4.123   1.842  11.230  0.0103 -0.0480  0.0946
  932MPD2     H13689   4.450   1.926  11.401  0.3977 -0.6517  0.4468
  932MPD2    H113690   4.194   1.642  11.197 -0.0575 -1.4057  2.8113
  932MPD2    H213691   4.058   2.028  11.269  1.1478  0.6995 -0.7254
  932MPD2    H313692   4.026   1.811  11.195 -0.0733 -0.2459  0.4874
  932MPD2     N13693   4.429   1.683  11.314 -0.4299  0.6667 -0.8212
  932MPD2    H513694   4.505   1.709  11.377  0.6224 -1.0537 -1.3678
  932MPD2    N113695   4.282   2.140  11.378 -0.2970 -0.6096 -0.0627
  932MPD2    H713696   4.203   2.199  11.355  0.5924  0.5056 -0.2607
  933MPD2     C13697   0.859   1.594   1.808  0.5550  0.1024 -0.3774
  933MPD2    C113698   0.856   1.641   1.679 -0.2743  0.0026  0.3975
  933MPD2    C213699   0.778   1.749   1.659  0.5211  0.0618 -0.0474
  933MPD2    C313700   0.704   1.818   1.752  0.2263 -0.3403  0.1677
  933MPD2    C413701   0.723   1.776   1.881 -0.8283 -0.4656 -0.3722
  933MPD2    C513702   0.799   1.668   1.907  0.0593 -0.4128  0.0743
  933MPD2     H13703   0.783   1.800   1.563 -0.8489 -1.5529 -0.9792
  933MPD2    H113704   0.664   1.817   1.962  1.6462  0.6678  0.8649
  933MPD2    H213705   0.914   1.505   1.835 -1.0893 -0.5229  0.9348
  933MPD2    H313706   0.810   1.635   2.010 -2.4194 -3.9509 -0.7926
  933MPD2     N13707   0.621   1.930   1.727 -0.3372 -0.4599  0.1370
  933MPD2    H513708   0.586   1.978   1.809  1.8788 -0.7691  1.2911
  933MPD2    N113709   0.927   1.569   1.583 -0.3016 -0.8667  0.6213
  933MPD2    H713710   0.977   1.492   1.626  0.4375 -1.3110 -1.0288
  934MPD2     C13711   2.027   0.084   2.080 -0.5010  0.4062 -0.2718
  934MPD2    C113712   2.067   4.718   2.005 -0.2014  0.1741  0.0713
  934MPD2    C213713   1.972   4.641   1.931  0.3340 -0.6645 -0.4402
  934MPD2    C313714   1.836   4.666   1.936 -0.0898  0.0465  0.2454
  934MPD2    C413715   1.801   0.046   2.008 -0.0627  0.2640 -0.0068
  934MPD2    C513716   1.895   0.116   2.081 -1.0380 -1.0476 -0.0269
  934MPD2     H13717   2.004   4.559   1.867 -1.0845  0.0667 -2.0766
  934MPD2    H113718   1.696   0.072   2.013  0.5549  2.5722  0.9931
  934MPD2    H213719   2.084   0.131   2.159 -0.5962  0.6492 -0.3500
  934MPD2    H313720   1.864   0.202   2.139  2.2468 -0.8592  1.4636
  934MPD2     N13721   1.734   4.586   1.883  0.8624 -0.2143 -0.1922
  934MPD2    H513722   1.641   4.626   1.892  2.2791  2.6570  1.6831
  934MPD2    N113723   2.200   4.687   1.985  0.4623  0.5638  0.4869
  934MPD2    H713724   2.226   4.609   1.926  0.4904 -0.4925  1.8931
  935MPD2     C13725   1.841   3.823   1.300  0.2873 -0.0866 -0.7952
  935MPD2    C113726   1.754   3.917   1.243 -0.1326  0.0486 -0.5689
  935MPD2    C213727   1.674   3.994   1.325  0.1334 -0.5546 -0.1514
  935MPD2    C313728   1.694   3.985   1.461  0.1615 -0.2510  0.1313
  935MPD2    C413729   1.783   3.901   1.518  0.7959 -0.1670 -0.3345
  935MPD2    C513730   1.862   3.826   1.437 -0.5442 -0.4059  0.4684
  935MPD2     H13731   1.601   4.069   1.297 -0.8907 -1.2641  0.6481
  935MPD2    H113732   1.793   3.893   1.626 -0.6478  0.6235 -0.1544
  935MPD2    H213733   1.896   3.746   1.248  0.6398 -1.4646  1.6142
  935MPD2    H313734   1.934   3.762   1.487  0.7441 -1.4135 -2.7230
  935MPD2     N13735   1.624   4.070   1.556 -0.4630 -0.4181  0.1954
  935MPD2    H513736   1.651   4.064   1.654 -1.5037 -0.8367  0.4623
  935MPD2    N113737   1.737   3.920   1.106 -0.2935 -0.5428 -0.6641
  935MPD2    H713738   1.666   3.986   1.076  0.2414  0.8170  1.0602
  936MPD2     C13739   0.428   0.218  12.739 -0.4447  0.7939 -0.1247
  936MPD2    C113740   0.346   0.325  12.701 -0.2713  0.2947 -0.4337
  936MPD2    C213741   0.322   0.347  12.563 -0.0492 -0.5949 -0.1898
  936MPD2    C313742   0.378   0.274  12.466 -0.0552  0.5533  0.0764
  936MPD2    C413743   0.458   0.162  12.495  0.2316  0.1067 -1.0948
  936MPD2    C513744   0.481   0.145  12.634  0.2467  0.6836  0.0535
  936MPD2     H13745   0.267   0.439  12.546 -0.5078 -0.4537  2.1067
  936MPD2    H113746   0.506   0.107  12.415  1.9638  1.8628 -1.2477
  936MPD2    H213747   0.431   0.181  12.841 -0.8549  1.5747  0.1672
  936MPD2    H313748   0.550   0.065  12.658 -2.5413 -1.8799 -0.6044
  936MPD2     N13749   0.373   0.304  12.331 -0.4341  0.2482  1.0503
  936MPD2    H513750   0.436   0.261  12.265 -0.6784  3.1336 -1.0932
  936MPD2    N113751   0.274   0.408  12.788  0.2184  0.4670  0.0388
  936MPD2    H713752   0.206   0.460  12.733 -2.0144 -0.0495  2.2876
  937MPD2     C13753   2.838   2.065  11.528 -0.2257 -0.0497  0.3351
  937MPD2    C113754   2.888   2.189  11.530 -0.0662  0.1458  0.2101
  937MPD2    C213755   2.978   2.222  11.430  0.4061 -0.3651 -0.1469
  937MPD2    C313756   2.984   2.146  11.311  0.1380  1.1181 -0.1439
  937MPD2    C413757   2.920   2.020  11.311  0.1750 -0.2805  0.4194
  937MPD2    C513758   2.842   1.982  11.418 -0.2299 -0.0232  0.9004
  937MPD2     H13759   3.048   2.304  11.425 -0.6628  0.4929 -0.9464
  937MPD2    H113760   2.926   1.955  11.224 -0.7516 -0.2041  0.2963
  937MPD2    H213761   2.776   2.030  11.611 -1.9778  2.2887  0.0292
  937MPD2    H313762   2.788   1.889  11.427 -0.2199 -0.1680 -0.5550
  937MPD2     N13763   3.059   2.196  11.197  0.1807 -0.3974  0.2333
  937MPD2    H513764   3.086   2.292  11.217  0.7640 -0.4114 -0.4808
  937MPD2    N113765   2.908   2.264  11.647  0.0629  0.2428  0.3109
  937MPD2    H713766   2.973   2.342  11.639 -1.1147  1.1710 -0.2290
  938MPD2     C13767   1.162   3.979   0.930  0.0224 -0.1169  0.3487
  938MPD2    C113768   1.074   4.021   1.021 -0.3281  0.5680 -0.5868
  938MPD2    C213769   0.966   3.943   1.041 -0.0849  0.2673  0.6123
  938MPD2    C313770   0.947   3.830   0.966 -0.1864  0.2090 -0.0527
  938MPD2    C413771   1.041   3.788   0.873 -0.3532  0.0431  0.3715
  938MPD2    C513772   1.147   3.866   0.857 -0.1198  0.2122  0.1182
  938MPD2     H13773   0.892   3.977   1.114 -0.6190 -0.7330  0.5352
  938MPD2    H113774   1.035   3.700   0.810 -2.2236  0.3706  0.1038
  938MPD2    H213775   1.257   4.026   0.910  0.6692 -1.9610 -0.9136
  938MPD2    H313776   1.224   3.842   0.785 -1.2667 -1.7366 -0.4649
  938MPD2     N13777   0.835   3.743   0.970 -0.3828 -0.1714 -0.2873
  938MPD2    H513778   0.845   3.664   0.907 -3.0856  0.2472 -1.2492
  938MPD2    N113779   1.099   4.131   1.109  0.3627 -0.2510 -0.3735
  938MPD2    H713780   1.038   4.145   1.189  0.3361  0.5519 -0.5372
  939MPD2     C13781   2.285   4.431   0.880  0.4390  0.1034 -0.5290
  939MPD2    C113782   2.340   4.538   0.805  0.0924  0.1906  0.5499
  939MPD2    C213783   2.343   4.530   0.667 -0.3844  0.3018 -0.3337
  939MPD2    C313784   2.300   4.420   0.598  0.0102 -0.5828  0.1598
  939MPD2    C413785   2.252   4.313   0.673 -0.2566 -0.0250 -0.0802
  939MPD2    C513786   2.241   4.321   0.809  0.2113  0.2311 -0.4766
  939MPD2     H13787   2.386   4.613   0.612  2.7044 -1.8208 -1.1270
  939MPD2    H113788   2.224   4.230   0.611 -2.5361  0.9299 -0.3259
  939MPD2    H213789   2.282   4.430   0.988 -0.6907  1.3431 -0.5401
  939MPD2    H313790   2.199   4.238   0.863 -1.5205  0.5887 -1.2556
  939MPD2     N13791   2.314   4.417   0.457 -0.1992  0.2505 -0.0194
  939MPD2    H513792   2.335   4.503   0.407  1.2592 -0.6003 -0.8787
  939MPD2    N113793   2.371   4.661   0.871  0.1518  0.8223  0.1861
  939MPD2    H713794   2.326   4.658   0.962  0.0793 -1.1010  0.0982
  940MPD2     C13795   0.390   0.984  12.916 -0.3312 -0.6512  0.1167
  940MPD2    C113796   0.449   0.906  13.015  0.2164 -0.2096  0.7190
  940MPD2    C213797   0.517   0.790  12.975 -0.3465  0.5622 -0.7001
  940MPD2    C313798   0.507   0.751  12.845  0.2490 -0.1620 -0.4794
  940MPD2    C413799   0.447   0.827  12.750 -0.4252  0.2096  0.2175
  940MPD2    C513800   0.382   0.940  12.784 -0.6381  0.1463 -0.6258
  940MPD2     H13801   0.562   0.721  13.045  0.9851 -0.4698 -2.5776
  940MPD2    H113802   0.456   0.807  12.644  0.8292 -0.5478  0.4675
  940MPD2    H213803   0.351   1.083  12.937 -0.3595 -0.9213  1.3274
  940MPD2    H313804   0.324   0.995  12.711 -2.9785 -0.5778  0.7161
  940MPD2     N13805   0.565   0.629  12.794  0.0742 -0.1332 -0.1719
  940MPD2    H513806   0.564   0.615  12.693 -0.2089  2.7021 -0.5609
  940MPD2    N113807   0.464   0.951  13.153  0.2819  0.0439  0.5273
  940MPD2    H713808   0.534   0.901  13.206 -0.1403 -1.2660 -0.1379
  941MPD2     C13809   0.259   4.560   9.441  0.0257  0.2687 -0.5010
  941MPD2    C113810   0.284   4.541   9.576  0.0231 -0.3853  0.3028
  941MPD2    C213811   0.173   4.525   9.663 -0.5101 -0.5279  0.2644
  941MPD2    C313812   0.041   4.527   9.608 -0.0848  0.3637 -0.1228
  941MPD2    C413813   0.028   4.558   9.476 -0.1515  0.5233  0.3565
  941MPD2    C513814   0.135   4.564   9.389 -0.3755 -0.3434 -0.1337
  941MPD2     H13815   0.191   4.514   9.770 -2.1206 -1.0545  0.4745
  941MPD2    H113816   4.667   4.556   9.431  1.6503 -3.0669 -3.3762
  941MPD2    H213817   0.339   4.579   9.369 -0.3220  0.7559 -0.7615
  941MPD2    H313818   0.119   4.572   9.282  1.0616 -3.3132 -0.5609
  941MPD2     N13819   4.658   4.519   9.685 -0.1532 -0.3053  0.2545
  941MPD2    H513820   4.572   4.538   9.633 -0.2246  0.4467  0.6471
  941MPD2    N113821   0.414   4.552   9.628  0.0468  0.6233 -0.2800
  941MPD2    H713822   0.420   4.551   9.729 -0.7171  0.5092 -0.2388
  942MPD2     C13823   0.070   1.989   9.491  0.0577 -0.3194 -0.0279
  942MPD2    C113824   0.050   1.848   9.491 -0.2625 -0.8068 -0.5868
  942MPD2    C213825   0.143   1.773   9.429  0.4785 -0.3672 -0.2101
  942MPD2    C313826   0.240   1.826   9.344 -0.0681  0.1876  0.3770
  942MPD2    C413827   0.251   1.964   9.335  0.0370  0.4603 -0.1415
  942MPD2    C513828   0.170   2.042   9.421 -0.3229 -0.0477  0.5954
  942MPD2     H13829   0.149   1.666   9.448 -1.5748 -0.3680  0.4058
  942MPD2    H113830   0.334   2.010   9.282 -0.9863  1.2552 -1.0463
  942MPD2    H213831   4.735   2.054   9.538  0.4810  0.5094 -0.5270
  942MPD2    H313832   0.164   2.149   9.411  1.0569  0.0565  0.8188
  942MPD2     N13833   0.343   1.748   9.291 -0.0869 -0.6279  0.0129
  942MPD2    H513834   0.431   1.798   9.281  0.5653 -1.9486 -0.8625
  942MPD2    N113835   4.687   1.781   9.570  0.0656  0.4150  0.5134
  942MPD2    H713836   4.685   1.679   9.569  0.2589  0.4111  0.5307
  943MPD2     C13837   4.001   0.090   9.994  0.0422 -0.0903 -0.4610
  943MPD2    C113838   3.895   0.002   9.992  0.4600 -0.4370  0.2398
  943MPD2    C213839   3.892   4.644  10.095  1.0881  0.2833  0.0105
  943MPD2    C313840   3.988   4.629  10.194 -0.6368 -0.5512 -1.0952
  943MPD2    C413841   4.099   4.712  10.188  0.1214  0.0287  0.5588
  943MPD2    C513842   4.103   0.070  10.089 -0.0764 -0.5769  0.2581
  943MPD2     H13843   3.807   4.576  10.094 -0.9521  2.8535  0.6745
  943MPD2    H113844   4.184   4.709  10.255 -0.0289 -2.0022  0.6782
  943MPD2    H213845   4.011   0.175   9.927  2.2139  0.7081  0.9014
  943MPD2    H313846   4.186   0.138  10.069 -0.2599 -0.5297 -0.3659
  943MPD2     N13847   3.991   4.536  10.302  0.5667  0.2360  0.2314
  943MPD2    H513848   4.081   4.532  10.348 -0.8168  1.1016  2.9649
  943MPD2    N113849   3.790   0.024   9.899  0.2408 -0.1526 -0.4917
  943MPD2    H713850   3.800   0.105   9.839 -0.5831  1.2775  1.2670
  944MPD2     C13851   3.204   3.832  10.753  0.4165  0.2830  0.4291
  944MPD2    C113852   3.199   3.775  10.878  0.2033  0.6480 -0.5734
  944MPD2    C213853   3.177   3.843  10.992  0.2169 -0.3877  0.7193
  944MPD2    C313854   3.173   3.977  10.983 -0.6962  0.7372  0.5014
  944MPD2    C413855   3.162   4.040  10.855 -0.7820 -0.3837 -0.5714
  944MPD2    C513856   3.179   3.967  10.742  0.0673 -0.0504 -1.1470
  944MPD2     H13857   3.165   3.793  11.087  0.8287  1.1560  1.6211
  944MPD2    H113858   3.146   4.146  10.843  2.3871  0.4290  2.2430
  944MPD2    H213859   3.233   3.769  10.670 -0.8573 -0.9300  0.8976
  944MPD2    H313860   3.181   4.011  10.643  3.7240 -1.6312 -1.7646
  944MPD2     N13861   3.173   4.048  11.106  0.6930 -0.0998 -0.9001
  944MPD2    H513862   3.165   3.992  11.190  2.5786  1.5014  0.3443
  944MPD2    N113863   3.232   3.639  10.879  0.1880 -0.3807 -0.0924
  944MPD2    H713864   3.256   3.598  10.789  1.2029  1.2912 -0.5919
    1TMC1    C113865   1.968   4.647  14.832 -0.1289  0.4695  0.2219
    1TMC1    C213866   1.891   4.589  14.736 -0.2447 -0.1515  0.0066
    1TMC1    C313867   1.891   4.452  14.729 -0.6291  0.7122 -0.1777
    1TMC1    C413868   2.057   4.574  14.911 -0.9808  0.0855 -0.3290
    1TMC1    C513869   2.051   4.443  14.898 -0.3907 -0.4380  0.1739
    1TMC1    C613870   1.969   4.378  14.814 -0.1314 -1.0929 -0.1736
    1TMC1     C13871   1.956   0.051  14.853 -0.6491 -0.4642  0.6130
    1TMC1     O13872   2.011   0.091  14.954  0.5019 -0.0522 -0.0987
    1TMC1     H13873   1.812   4.638  14.679 -0.3786 -2.1038 -1.4962
    1TMC1    H113874   2.100   4.619  15.000 -2.4818  1.9465 -0.5537
    1TMC1    H213875   1.962   4.270  14.813  1.5782 -1.2073  1.7277
    1TMC1    C713876   2.127   4.370  14.996  0.0686  0.2257 -0.1473
    1TMC1    C813877   1.818   4.392  14.623 -0.2493  0.0615 -0.3691
    1TMC1    O113878   2.236   4.413  15.032  0.0981  0.3779  0.0886
    1TMC1    O213879   1.726   4.458  14.572 -0.2309 -0.2369 -0.0179
    1TMC1    O313880   2.045   4.300  15.069  0.2551  0.8453  0.3774
    1TMC1    H313881   1.949   4.316  15.062  0.0826 -1.2486 -2.2764
    1TMC1    O513882   1.835   4.257  14.610 -0.3614 -0.1648  0.1844
    1TMC1    H513883   1.906   4.221  14.668 -0.1181  0.1774  0.0990
    2MPD2     C13884   1.873   0.540  14.709  0.3584  0.0082  0.4111
    2MPD2    C113885   1.864   0.465  14.595  0.3546 -0.6592 -0.1170
    2MPD2    C213886   1.894   0.327  14.609 -0.3013  0.5106 -0.7792
    2MPD2    C313887   1.918   0.263  14.733 -0.1260  0.3411 -0.5941
    2MPD2    C413888   1.925   0.345  14.844 -0.4770 -0.4383 -0.4177
    2MPD2    C513889   1.915   0.482  14.828  0.0029  0.4584 -0.2257
    2MPD2     H13890   1.906   0.261  14.524  0.6920  0.5834 -0.6853
    2MPD2    H113891   1.947   0.303  14.942 -2.1581  0.3467  0.3030
    2MPD2    H213892   1.870   0.647  14.695 -1.1802  0.1870  2.0820
    2MPD2    H313893   1.930   0.552  14.909  2.9023  0.8045 -1.0905
    2MPD2     N13894   1.931   0.122  14.738 -0.0440 -0.4068  0.0464
    2MPD2    H513895   1.933   0.064  14.655 -1.0126  0.0680 -0.3122
    2MPD2    N113896   1.832   0.531  14.471  0.5409  0.0450  0.0297
    2MPD2    H713897   1.842   0.632  14.472 -1.6473  0.2722 -1.3014
    3TMC2    C113898   1.782   0.552  14.246  0.2119  0.4814 -0.8067
    3TMC2    C213899   1.828   0.683  14.263  0.0904 -0.1109  1.4064
    3TMC2    C313900   1.859   0.746  14.146 -0.5864 -0.3063  0.0885
    3TMC2    C413901   1.755   0.504  14.124 -1.0251 -0.0425  0.4760
    3TMC2    C513902   1.785   0.571  14.011 -0.3712  0.4307 -1.0834
    3TMC2    C613903   1.844   0.693  14.017  0.3867 -0.0888  0.7530
    3TMC2     C13904   1.797   0.464  14.359 -0.0806  0.0596 -0.3720
    3TMC2     O13905   1.781   0.344  14.336  0.4440 -0.6077 -0.3160
    3TMC2     H13906   1.822   0.740  14.356  1.1140 -0.3466  1.6138
    3TMC2    H113907   1.716   0.406  14.100 -0.6100 -0.1601  0.2693
    3TMC2    H213908   1.881   0.745  13.929 -5.2452  0.4962 -1.2594
    3TMC2    C713909   1.721   0.530  13.887  1.0379  0.4252  0.1710
    3TMC2    C813910   1.921   0.874  14.164  0.1536  0.2204  0.8787
    3TMC2    O113911   1.686   0.412  13.884  0.3998  0.4279  0.2597
    3TMC2    O213912   1.977   0.899  14.271  0.1937  0.1081 -0.1139
    3TMC2    O513913   1.866   0.969  14.088  0.1131  0.2259 -0.6097
    3TMC2    H513914   1.801   0.932  14.025  0.1995  0.3800 -0.7898
    4TMC2    C113915   1.293   1.301  13.471 -0.8443 -0.1331  0.3059
    4TMC2    C213916   1.270   1.302  13.337  0.3405 -0.1268 -0.0992
    4TMC2    C313917   1.320   1.201  13.263  0.1030 -0.6375  0.7469
    4TMC2    C413918   1.373   1.210  13.526  0.2561  0.2711 -0.0794
    4TMC2    C513919   1.424   1.109  13.449  0.5981  0.2604  0.7846
    4TMC2    C613920   1.400   1.105  13.315 -0.2891  0.2270  0.0905
    4TMC2     C13921   1.181   1.329  13.555 -0.4041 -0.8901 -0.0595
    4TMC2     O13922   1.206   1.349  13.675  0.3873  0.7078 -0.1162
    4TMC2     H13923   1.206   1.379  13.294 -0.2204 -2.2984 -3.1757
    4TMC2    H113924   1.387   1.219  13.633 -1.0205  1.3999 -0.0004
    4TMC2    H213925   1.455   1.030  13.260 -0.9880 -0.8436  0.8706
    4TMC2    C713926   1.485   1.005  13.527 -0.5065  0.5652 -0.7388
    4TMC2    C813927   1.313   1.212  13.124  0.0076  0.6090 -0.9576
    4TMC2    O113928   1.535   1.039  13.634 -0.5800  0.1309  0.3455
    4TMC2    O213929   1.234   1.287  13.068 -0.2340  0.0538  0.0463
    4TMC2    O513930   1.445   1.208  13.092  0.0120 -0.3219 -0.6973
    4TMC2    H513931   1.517   1.175  13.149 -1.6803 -0.7325  1.2166
    5MPD2     C13932   0.687   1.430  13.643 -0.0194 -0.0498 -0.0242
    5MPD2    C113933   0.701   1.415  13.511 -0.3703 -0.9622 -0.2004
    5MPD2    C213934   0.833   1.392  13.461 -0.2202 -0.3096 -0.1527
    5MPD2    C313935   0.937   1.368  13.548 -0.2649  0.3291 -0.1981
    5MPD2    C413936   0.917   1.381  13.683  0.7061 -0.2909  0.0386
    5MPD2    C513937   0.786   1.405  13.729 -1.0045 -0.1274 -0.0703
    5MPD2     H13938   0.845   1.399  13.354  0.1973 -1.4280 -0.1773
    5MPD2    H113939   0.999   1.366  13.752  1.9782 -0.4512 -1.5060
    5MPD2    H213940   0.590   1.455  13.686  0.2583 -1.6481  1.4681
    5MPD2    H313941   0.768   1.422  13.835  0.1539  1.0798 -0.0726
    5MPD2     N13942   1.059   1.331  13.487  0.4478  0.2443 -0.4059
    5MPD2    H513943   1.057   1.328  13.385  0.6479 -0.3447 -0.3909
    5MPD2    N113944   0.593   1.453  13.425 -0.3583 -0.3590 -0.0049
    5MPD2    H713945   0.510   1.492  13.469  1.0230  3.6372 -0.9419
    6MPD1     C13946   4.149   2.786  12.741 -0.1752  0.2574 -0.0337
    6MPD1    C113947   4.104   2.685  12.650  0.1381  0.4569  0.6705
    6MPD1    C213948   4.166   2.563  12.669 -0.6035 -0.4765 -0.4974
    6MPD1    C313949   4.277   2.540  12.759  0.1042 -0.3874 -0.7122
    6MPD1    C413950   4.327   2.651  12.831 -0.1653  0.2265  0.4619
    6MPD1    C513951   4.261   2.770  12.819  0.6248  0.0318  0.2607
    6MPD1     H13952   4.115   2.473  12.636 -1.5799  0.5161 -1.7016
    6MPD1    H113953   4.404   2.626  12.904  0.0807  0.9462  0.4473
    6MPD1    H213954   4.093   2.879  12.749 -0.9505 -0.1902 -0.2901
    6MPD1    H313955   4.293   2.847  12.888  0.2417  1.4286 -1.1211
    6MPD1     N13956   4.329   2.413  12.790  0.0806 -0.0646 -0.5376
    6MPD1    H513957   4.418   2.419  12.839 -0.8850 -0.0760  1.2037
    6MPD1    N113958   3.974   2.702  12.586  0.1095 -0.0843  0.8254
    6MPD1    H613959   3.959   2.638  12.508  2.4653  0.7406 -0.3011
    6MPD1    H713960   3.947   2.797  12.563 -2.8274 -1.1800 -0.2935
    7MPD2     C13961   4.655   2.070  13.387  1.0796 -0.4047  0.6296
    7MPD2    C113962   4.695   2.008  13.270  0.1742  0.1049 -0.0189
    7MPD2    C213963   0.039   1.897  13.268 -0.4080 -0.1762  0.9491
    7MPD2    C313964   0.101   1.839  13.372 -0.4274 -0.3340 -1.0116
    7MPD2    C413965   0.068   1.898  13.487 -0.2488 -0.1138  0.0918
    7MPD2    C513966   4.724   2.011  13.492 -0.9461  0.0094 -0.2251
    7MPD2     H13967   0.052   1.863  13.165 -0.7571  0.5843  0.6560
    7MPD2    H113968   0.088   1.853  13.583 -0.3063 -0.6042 -0.1278
    7MPD2    H213969   4.574   2.139  13.401  1.7899  0.7520 -1.1091
    7MPD2    H313970   4.708   2.052  13.591  0.4993  0.9027 -0.3709
    7MPD2     N13971   0.170   1.715  13.363  0.8774  0.1375  0.1294
    7MPD2    H513972   0.213   1.678  13.447 -0.5618  0.4927  1.0194
    7MPD2    N113973   4.645   2.041  13.139 -0.1491  0.6738  0.5176
    7MPD2    H713974   4.670   1.975  13.067  1.6511  0.9330  0.8897
    8TMC3    C113975   0.226   1.506  13.273  0.7645  0.0941 -0.5029
    8TMC3    C213976   0.356   1.512  13.314 -0.3821  0.4984 -0.9695
    8TMC3    C313977   0.455   1.457  13.236 -0.9432 -0.2483  1.0329
    8TMC3    C413978   0.203   1.435  13.158 -0.0413  0.0629 -0.2418
    8TMC3    C513979   0.306   1.414  13.067  0.0634  0.7224  0.7515
    8TMC3    C613980   0.435   1.423  13.106  0.0292  0.3625 -0.1151
    8TMC3     C13981   0.152   1.630  13.256 -0.4409  0.0426 -0.1810
    8TMC3     O13982   0.088   1.650  13.152 -0.2142 -0.0053  0.6235
    8TMC3     H13983   0.386   1.542  13.414 -0.9480 -2.2906  0.0359
    8TMC3    H113984   0.103   1.413  13.122  0.1576 -1.4059  0.1137
    8TMC3    H213985   0.513   1.388  13.039  1.3909  1.9743  0.5969
    8TMC3    C713986   0.276   1.484  12.940  0.3136  0.0317 -0.1486
    8TMC3    C813987   0.587   1.421  13.290  0.7278 -0.6866 -0.1681
    8TMC3    O113988   0.328   1.595  12.929 -0.0405 -0.2122  0.0592
    8TMC3    O213989   0.655   1.343  13.228 -0.3262 -0.7207 -0.2214
    9TMC3    C113990   4.381   2.192  12.790 -0.0508  0.6356  0.4903
    9TMC3    C213991   4.410   2.083  12.718  0.4180 -0.2597 -0.1305
    9TMC3    C313992   4.490   1.992  12.780 -0.9084 -0.3437  0.1085
    9TMC3    C413993   4.424   2.208  12.923  0.4685  0.3791 -0.3373
    9TMC3    C513994   4.507   2.115  12.973 -0.0809  0.4343  0.2991
    9TMC3    C613995   4.548   2.010  12.900  0.3418  0.4550  0.2226
    9TMC3     C13996   4.287   2.293  12.745  0.5180 -0.1259  0.3110
    9TMC3     O13997   4.198   2.260  12.665 -0.2965  0.2084 -0.1054
    9TMC3     H13998   4.355   2.060  12.627 -0.2389 -0.8065  0.4030
    9TMC3    H113999   4.395   2.294  12.983  0.0767  0.5370 -0.7513
    9TMC3    H214000   4.583   1.921  12.952  0.7252 -0.3226 -1.3512
    9TMC3    C714001   4.546   2.133  13.103  0.4945 -0.5983 -0.6585
    9TMC3    C814002   4.522   1.871  12.701  0.2644 -0.7142  0.0627
    9TMC3    O114003   4.486   2.211  13.177  0.4500  0.4340 -0.6292
    9TMC3    O214004   4.429   1.829  12.634  0.1956 -0.4325 -0.1781
   10MPD2     C14005   0.020   1.412  12.692  0.0107 -1.0264 -0.3084
   10MPD2    C114006   0.084   1.495  12.778 -0.0291 -0.0178 -0.0675
   10MPD2    C214007   0.055   1.634  12.775 -0.0796 -0.3896 -0.0048
   10MPD2    C314008   4.691   1.681  12.705  0.4252  0.1508  0.7389
   10MPD2    C414009   4.608   1.594  12.635  0.5551 -0.1375  0.4374
   10MPD2    C514010   4.644   1.464  12.628  0.4391 -0.4163 -0.6708
   10MPD2     H14011   0.113   1.695  12.844  0.5731  0.8467 -1.6475
   10MPD2    H114012   4.521   1.633  12.584  0.0294 -0.8022  0.8384
   10MPD2    H214013   0.049   1.310  12.669  0.7367 -0.8818 -0.0460
   10MPD2    H314014   4.579   1.400  12.570 -1.5766  1.3383 -0.3594
   10MPD2     N14015   4.646   1.813  12.736 -0.2071 -0.0466 -0.5552
   10MPD2    H514016   4.710   1.875  12.785 -0.5664  1.3623 -1.8739
   10MPD2    N114017   0.175   1.428  12.868  0.2541 -0.6516 -0.0851
   10MPD2    H714018   0.162   1.329  12.887 -1.2769 -0.1520  1.5120
   11MPD2     C14019   1.581   0.507  13.622  0.1259 -0.3720 -0.2365
   11MPD2    C114020   1.615   0.620  13.684  0.0732 -0.7742 -0.2852
   11MPD2    C214021   1.567   0.735  13.641  0.3505  0.2910  0.4908
   11MPD2    C314022   1.489   0.754  13.529  0.2836  0.3539  0.0613
   11MPD2    C414023   1.460   0.640  13.460  0.5113 -0.1021 -1.0124
   11MPD2    C514024   1.504   0.520  13.510  0.6097  0.2888  0.4664
   11MPD2     H14025   1.595   0.830  13.686  0.3515 -0.8183  2.8247
   11MPD2    H114026   1.391   0.648  13.377 -0.5576  0.5445 -0.0567
   11MPD2    H214027   1.627   0.411  13.644  0.6716 -0.5161 -1.9758
   11MPD2    H314028   1.471   0.426  13.467 -1.4599  1.0072  0.4927
   11MPD2     N14029   1.449   0.882  13.477  0.1395  0.3046  0.1898
   11MPD2    H514030   1.392   0.883  13.393  2.7808  2.9906 -1.5716
   11MPD2    N114031   1.694   0.633  13.797  0.3377 -0.2598  0.2586
   11MPD2    H714032   1.716   0.728  13.826  1.8032 -0.5570  0.1256
    1MPD1     C14033   0.544   2.629  16.358  0.8822 -0.0316  0.0122
    1MPD1    C114034   0.527   2.588  16.492 -0.5147 -0.1924  0.1617
    1MPD1    C214035   0.615   2.641  16.584  0.2489  0.1356  0.1906
    1MPD1    C314036   0.731   2.712  16.548 -0.8480 -0.0029 -0.5847
    1MPD1    C414037   0.750   2.735  16.417 -0.0738  0.3094 -0.8264
    1MPD1    C514038   0.653   2.697  16.320  0.3623  0.4826  0.1722
    1MPD1     H14039   0.611   2.618  16.690  3.2279 -1.8671 -0.1154
    1MPD1    H114040   0.841   2.778  16.376  0.3334  1.2607  1.0908
    1MPD1    H214041   0.469   2.598  16.287 -0.0531  0.4515  0.8007
    1MPD1    H314042   0.676   2.714  16.216  1.4053 -0.5330  0.2407
    1MPD1     N14043   0.818   2.774  16.631 -0.0779  0.2739 -0.0488
    1MPD1    H514044   0.891   2.830  16.589 -1.4171  1.1034 -1.2848
    1MPD1    N114045   0.412   2.515  16.532  0.6590 -0.6472 -0.1371
    1MPD1    H614046   0.434   2.456  16.612  0.0061 -0.2483  0.3456
    1MPD1    H714047   0.381   2.452  16.458  1.3580 -0.8803 -0.2258
    2MPD1     C14048   1.128   2.336  17.453 -0.5831  0.4195 -0.4159
    2MPD1    C114049   0.997   2.378  17.433  0.2857  0.3534  0.0977
    2MPD1    C214050   0.979   2.476  17.336 -0.0581 -0.0291  0.5034
    2MPD1    C314051   1.080   2.525  17.258  0.2071  0.1358 -0.7694
    2MPD1    C414052   1.204   2.470  17.272  0.2980 -0.2636  0.3946
    2MPD1    C514053   1.229   2.378  17.369 -0.1574 -0.3452  0.3789
    2MPD1     H14054   0.880   2.520  17.324 -0.4694 -0.4346  2.5332
    2MPD1    H114055   1.283   2.487  17.199  0.0501 -1.1790 -0.0844
    2MPD1    H214056   1.148   2.259  17.526  2.2515  1.0935 -0.4847
    2MPD1    H314057   1.327   2.333  17.380 -0.3411 -1.0146 -0.7563
    2MPD1     N14058   1.053   2.623  17.164 -0.6040  0.7216 -0.3252
    2MPD1    H514059   0.956   2.648  17.146 -1.1828 -2.3547 -1.4127
    2MPD1    N114060   0.900   2.347  17.530 -0.6970  0.2181  0.1095
    2MPD1    H614061   0.908   2.252  17.564 -2.3489  0.1942  0.4423
    2MPD1    H714062   0.807   2.368  17.496 -0.0791 -0.7594 -2.1688
    3TMC3    C114063   1.091   2.788  16.993 -0.1724 -0.2345 -0.3107
    3TMC3    C214064   1.163   2.899  16.961 -0.4296 -0.0800  0.1530
    3TMC3    C314065   1.109   2.977  16.860 -0.4163  0.2292  0.3137
    3TMC3    C414066   0.976   2.751  16.936 -0.2452 -0.0204 -0.6691
    3TMC3    C514067   0.924   2.830  16.842 -0.1629 -0.3797  0.9845
    3TMC3    C614068   0.992   2.939  16.799 -0.4566  0.5846 -0.5934
    3TMC3     C14069   1.144   2.696  17.093 -0.9299 -0.7591  0.3062
    3TMC3     O14070   1.261   2.713  17.118 -0.5808  0.4694 -0.1648
    3TMC3     H14071   1.261   2.923  17.000 -0.2941  0.8323 -0.7407
    3TMC3    H114072   0.927   2.656  16.958 -1.2175  0.2153 -1.7769
    3TMC3    H214073   0.953   3.006  16.723 -1.3781  1.0041  0.2518
    3TMC3    C714074   0.821   2.762  16.769 -0.3745  0.3909 -0.2047
    3TMC3    C814075   1.193   3.080  16.800  0.3652 -0.8775 -0.0473
    3TMC3    O114076   0.741   2.703  16.844 -0.6334  0.2546 -0.1105
    3TMC3    O214077   1.149   3.113  16.691  0.0966 -0.0305 -0.4596
    4MPD1     C14078   1.555   3.436  16.797 -0.3676 -0.0143 -0.0333
    4MPD1    C114079   1.556   3.380  16.929 -0.2846  0.0008 -0.7056
    4MPD1    C214080   1.457   3.286  16.960 -0.4297  0.0730  0.1435
    4MPD1    C314081   1.370   3.242  16.857 -0.1633 -0.1817  0.2301
    4MPD1    C414082   1.372   3.307  16.733  0.3626  0.4373 -0.1089
    4MPD1    C514083   1.461   3.401  16.706  0.3217  0.1133 -0.0066
    4MPD1     H14084   1.442   3.256  17.063  1.7206  1.8332  0.9667
    4MPD1    H114085   1.289   3.297  16.663 -0.2403  0.3448  0.6170
    4MPD1    H214086   1.630   3.509  16.768 -0.1524 -0.5574 -0.8231
    4MPD1    H314087   1.460   3.449  16.609  0.2311 -0.0090 -0.0672
    4MPD1     N14088   1.282   3.135  16.885  0.4169  0.1991  0.0927
    4MPD1    H514089   1.285   3.116  16.984  1.4987 -1.3973 -0.2523
    4MPD1    N114090   1.635   3.439  17.028  0.0166  0.4226 -0.7137
    4MPD1    H614091   1.658   3.382  17.109 -0.5388 -0.6669 -1.3173
    4MPD1    H714092   1.716   3.487  16.990  0.8277 -0.2893  0.0995
    1TCq1    O114093   0.665   1.581  11.740  0.2925  0.4220 -0.2121
    1TCq1    C114094   0.544   1.632  11.741  0.3994  0.0023 -0.4787
    1TCq1    O214095   0.507   1.735  11.798 -0.4630 -0.7359 -0.1640
    1TCq1    C214096   0.483   1.591  11.618  0.2878 -0.2447 -0.2146
    1TCq1    C314097   0.506   1.472  11.552  0.2809 -0.0095 -0.4344
    1TCq1    C414098   0.435   1.442  11.438  0.1267 -0.7435  0.1332
    1TCq1    C514099   0.333   1.520  11.395  0.0433 -0.3418 -1.1069
    1TCq1    C614100   0.310   1.632  11.469 -0.4455 -0.0142 -0.1445
    1TCq1    C714101   0.382   1.674  11.579 -0.0507 -0.3067  0.4792
    1TCq1    C814102   0.212   1.725  11.424  0.5111 -0.7972 -0.5323
    1TCq1    O414103   0.147   1.776  11.514 -0.5902 -0.4912  0.1082
    1TCq1    C914104   0.424   1.308  11.391  0.3059  0.1958 -0.7369
    1TCq1    O514105   0.319   1.280  11.329 -0.3154  1.0011  0.0695
    1TCq1    O614106   0.527   1.238  11.398  0.3618  0.0341  0.2435
    1TCq1    H114107   0.671   1.519  11.663  0.8982  1.2916 -0.8650
    1TCq1    H214108   0.558   1.385  11.592 -1.5597 -0.6162  0.6314
    1TCq1    H314109   0.270   1.499  11.310 -0.9610  1.4675 -0.8292
    1TCq1    H414110   0.358   1.766  11.630 -0.1420  0.3294 -0.7114
    2MPD1     C14111   0.016   2.052  11.100  0.3885 -0.4476 -0.5117
    2MPD1    C114112   0.050   1.946  11.030  0.0081 -0.8392  0.6505
    2MPD1    C214113   0.109   1.837  11.083 -0.9981 -0.1055  0.1286
    2MPD1    C314114   0.120   1.835  11.224  0.1672  0.0129 -0.0697
    2MPD1    C414115   0.072   1.947  11.301 -0.3129  0.1708  0.3313
    2MPD1    C514116   0.026   2.059  11.230 -0.1380 -0.3363 -0.5466
    2MPD1     H14117   0.160   1.760  11.026 -1.1247 -0.4092  0.4236
    2MPD1    H114118   0.067   1.957  11.409  3.8642 -0.4302  0.5523
    2MPD1    H214119   4.715   2.138  11.047 -0.5941  0.1277  1.1276
    2MPD1    H314120   4.725   2.147  11.281  0.3802 -0.4963  0.1246
    2MPD1     N14121   0.195   1.729  11.284 -0.3280 -0.6543 -0.0055
    2MPD1    H514122   0.246   1.669  11.222  1.1079 -0.6421  1.1698
    2MPD1    N114123   0.037   1.956  10.892 -0.1165  0.2502  0.3117
    2MPD1    H614124   0.017   1.863  10.854  3.4315  0.3287 -1.6942
    2MPD1    H714125   4.699   2.021  10.873 -0.6929 -0.1279  1.2980
    1TMC1    C114126   2.927   2.693  17.698 -0.0120  0.0741 -0.4614
    1TMC1    C214127   2.992   2.576  17.657 -0.0750 -0.3533 -0.4205
    1TMC1    C314128   3.078   2.594  17.555  0.5070 -0.7882 -0.5214
    1TMC1    C414129   2.931   2.811  17.628 -0.3427  0.2376 -0.1229
    1TMC1    C514130   3.012   2.815  17.522 -0.2641 -1.1048  0.1176
    1TMC1    C614131   3.093   2.712  17.484  0.2478  0.0911 -0.1979
    1TMC1     C14132   2.836   2.694   0.062  0.2038  0.3849  0.2870
    1TMC1     O14133   2.844   2.592   0.131  0.3411 -0.4849 -0.7108
    1TMC1     H14134   2.968   2.477  17.696  1.9678  0.3653  2.6933
    1TMC1    H114135   2.929   2.908  17.676  0.0432  0.1727  0.0225
    1TMC1    H214136   3.164   2.731  17.405  0.0955  0.8116 -0.1617
    1TMC1    C714137   3.039   2.953  17.475  1.0416  0.3413  0.0798
    1TMC1    C814138   3.100   2.477  17.480 -0.4366  0.1566 -0.2641
    1TMC1    O114139   3.137   2.963  17.400  0.0628  0.4941 -0.5740
    1TMC1    O214140   3.040   2.371  17.496  0.7079 -0.3232 -0.6831
    1TMC1    O314141   2.913   3.003  17.459 -0.8108  0.8474 -0.3703
    1TMC1    H314142   2.835   2.948  17.483 -1.3518  0.8663 -2.0523
    1TMC1    O514143   3.189   2.501  17.379 -0.0095  0.1103  0.3042
    1TMC1    H514144   3.250   2.577  17.388 -1.1982  1.0658  0.2759
    2MPD1     C14145   2.546   2.899   0.417 -0.4266 -0.0820 -0.8352
    2MPD1    C114146   2.525   2.974   0.304  0.3415 -0.4285 -0.2427
    2MPD1    C214147   2.589   2.933   0.190  0.2508 -0.1175  1.0478
    2MPD1    C314148   2.680   2.832   0.194 -0.0630  0.3630 -0.4435
    2MPD1    C414149   2.714   2.773   0.313  0.3654 -0.3359 -0.4375
    2MPD1    C514150   2.643   2.803   0.424  0.8022 -0.3450  0.2111
    2MPD1     H14151   2.558   2.982   0.099  0.9467 -0.8059  0.4390
    2MPD1    H114152   2.788   2.695   0.324 -0.9893 -1.3237  1.7901
    2MPD1    H214153   2.486   2.912   0.506  0.6999 -1.1152  0.0740
    2MPD1    H314154   2.660   2.756   0.520  0.0789  0.1879  0.6047
    2MPD1     N14155   2.752   2.805   0.073 -0.0746 -0.3127 -0.6153
    2MPD1    H514156   2.733   2.863  17.742  0.4181 -2.2214 -2.0981
    2MPD1    N114157   2.416   3.059   0.295  0.1349  0.9006 -0.6058
    2MPD1    H614158   2.416   3.120   0.213  0.8240  0.4852 -0.9047
    2MPD1    H714159   2.416   3.117   0.379  0.6793  1.5789 -1.0764
    1MPD1     C14160   1.356   1.789  11.802 -0.1005  0.6731 -0.0775
    1MPD1    C114161   1.359   1.730  11.929  0.6315  0.5473  0.4348
    1MPD1    C214162   1.458   1.765  12.019 -0.1674 -0.1594 -0.3575
    1MPD1    C314163   1.561   1.854  11.986  0.1375 -0.0317 -0.1027
    1MPD1    C414164   1.562   1.896  11.857 -0.5391 -0.2206 -0.2066
    1MPD1    C514165   1.458   1.873  11.774  0.5942 -0.1716  0.5634
    1MPD1     H14166   1.459   1.727  12.121 -0.2144  3.2248  0.9055
    1MPD1    H114167   1.639   1.966  11.825 -0.5351  0.3982  1.1700
    1MPD1    H214168   1.267   1.787  11.740 -0.6219 -0.7288  0.7165
    1MPD1    H314169   1.449   1.936  11.686  0.1679  0.4709  1.0741
    1MPD1     N14170   1.650   1.899  12.084  0.2619 -0.4569  0.0827
    1MPD1    H514171   1.660   1.847  12.171  0.0907 -0.6648 -0.0232
    1MPD1    N114172   1.243   1.659  11.964  0.3329  0.0760 -0.5529
    1MPD1    H614173   1.206   1.606  11.885 -0.6161 -0.6248  0.3641
    1MPD1    H714174   1.274   1.597  12.038 -0.1511  1.2422  0.6154
    2MPD1     C14175   1.480   2.331  11.555 -0.0465  0.3837 -0.6405
    2MPD1    C114176   1.480   2.359  11.417  0.4481 -0.5445  0.0927
    2MPD1    C214177   1.543   2.267  11.339  0.1246 -0.4565 -0.5355
    2MPD1    C314178   1.580   2.149  11.378 -0.1353  0.2312 -0.2840
    2MPD1    C414179   1.565   2.114  11.509 -0.0887 -0.3551  0.0163
    2MPD1    C514180   1.515   2.210  11.597  1.1000  0.2398  0.5601
    2MPD1     H14181   1.544   2.294  11.234 -2.9539 -1.0578 -0.7195
    2MPD1    H114182   1.600   2.022  11.554  1.7795  0.7155  0.7357
    2MPD1    H214183   1.461   2.402  11.634  0.1809 -0.6388  0.3342
    2MPD1    H314184   1.515   2.188  11.703  0.8407 -1.3112  0.2454
    2MPD1     N14185   1.664   2.059  11.303  0.3586  0.3891  0.2638
    2MPD1    H514186   1.708   1.987  11.360  1.0508  0.0352 -0.7360
    2MPD1    N114187   1.468   2.494  11.378 -0.2063 -0.0515  0.1452
    2MPD1    H614188   1.388   2.540  11.423 -0.3790  0.4403 -0.6654
    2MPD1    H714189   1.442   2.505  11.280  0.9296  1.8844  0.0631
    3MPD1     C14190   1.637   1.892  10.343 -0.6572  0.8330 -0.0894
    3MPD1    C114191   1.563   1.846  10.443 -0.0068 -0.3896  0.6089
    3MPD1    C214192   1.637   1.846  10.564 -0.0449  0.0557 -0.3160
    3MPD1    C314193   1.753   1.910  10.585  0.8484  1.1586 -0.2650
    3MPD1    C414194   1.820   1.974  10.482  0.4611  0.2034 -0.5229
    3MPD1    C514195   1.765   1.947  10.359 -0.6850  0.6715  0.4811
    3MPD1     H14196   1.595   1.788  10.646  2.6715 -2.3817 -0.6653
    3MPD1    H114197   1.907   2.037  10.497 -0.2766  1.5147 -1.7398
    3MPD1    H214198   1.592   1.888  10.245  0.4369  0.7601 -0.5913
    3MPD1    H314199   1.820   2.003  10.285 -1.3092  0.1669 -0.3572
    3MPD1     N14200   1.800   1.907  10.715 -0.0467  0.8951  0.2090
    3MPD1    H514201   1.750   1.847  10.780 -0.2620  1.6255  0.7138
    3MPD1    N114202   1.443   1.773  10.425 -0.2975  0.1218  0.2286
    3MPD1    H614203   1.390   1.781  10.511 -0.3526 -0.4247  0.2458
    3MPD1    H714204   1.384   1.815  10.354 -0.2651 -1.8902 -1.0194
    4MPD2     C14205   2.262   2.361  12.056  0.4524  0.7408  0.7381
    4MPD2    C114206   2.241   2.229  12.099 -0.1037 -1.0302  0.4453
    4MPD2    C214207   2.331   2.135  12.048  0.1505  0.5797 -0.7440
    4MPD2    C314208   2.439   2.173  11.973  0.2171 -0.0425 -0.1979
    4MPD2    C414209   2.445   2.301  11.922  0.0524  0.3858  0.5421
    4MPD2    C514210   2.366   2.394  11.968  0.1023 -0.0521  0.7769
    4MPD2     H14211   2.328   2.035  12.088 -2.0174  0.2074 -1.8097
    4MPD2    H114212   2.511   2.345  11.847  0.5606  1.1795  1.4599
    4MPD2    H214213   2.206   2.447  12.092  0.0026  0.9510 -0.4704
    4MPD2    H314214   2.388   2.496  11.938 -3.4747  0.5096  0.0817
    4MPD2     N14215   2.536   2.081  11.932  0.2712  0.2820  0.0299
    4MPD2    H514216   2.606   2.125  11.873 -0.1067 -1.9592 -2.0842
    4MPD2    N114217   2.148   2.194  12.193 -0.1210  0.2042 -0.0621
    4MPD2    H714218   2.153   2.100  12.231 -1.7076  0.7684  1.5757
    5TMC3    C114219   1.956   2.190  12.315 -0.1436 -0.0615 -0.4979
    5TMC3    C214220   1.850   2.169  12.228 -0.1019  0.0167  0.3127
    5TMC3    C314221   1.815   2.034  12.197 -0.2447  0.3614 -0.0838
    5TMC3    C414222   2.021   2.084  12.374 -0.2932 -0.5773  0.0202
    5TMC3    C514223   1.984   1.952  12.333 -0.0138 -0.3184  0.5751
    5TMC3    C614224   1.879   1.927  12.245 -0.5847 -0.1283 -0.2683
    5TMC3     C14225   2.044   2.272  12.235  0.5615 -0.0596 -0.6559
    5TMC3     O14226   2.014   2.384  12.203 -0.0949 -0.1470  1.0422
    5TMC3     H14227   1.812   2.255  12.174 -1.8306 -0.2483  1.1138
    5TMC3    H114228   2.118   2.094  12.421  0.4800  1.2472 -1.9548
    5TMC3    H214229   1.856   1.831  12.200  2.0561 -1.2954  0.8726
    5TMC3    C714230   2.097   1.855  12.316 -0.3112 -0.0860  0.5978
    5TMC3    C814231   1.735   2.013  12.077  0.5513 -0.5823  0.3258
    5TMC3    O114232   2.209   1.899  12.333  0.2683  0.7055  0.0867
    5TMC3    O214233   1.748   2.090  11.983  0.2564  0.0150 -0.6566
    6TMC3    C114234   1.779   1.981  11.114 -0.2789 -0.1604  0.0580
    6TMC3    C214235   1.780   1.971  10.978  0.0282  0.4087  0.3356
    6TMC3    C314236   1.900   1.958  10.920 -0.4218  0.3244 -0.2677
    6TMC3    C414237   1.899   1.980  11.184 -0.4910  0.0298 -0.0913
    6TMC3    C514238   2.012   1.943  11.123  1.0205 -0.1784  0.0390
    6TMC3    C614239   2.017   1.946  10.988 -0.1140 -0.7046  0.6478
    6TMC3     C14240   1.675   2.064  11.171  0.2690  0.5449 -0.3652
    6TMC3     O14241   1.606   2.128  11.099 -0.3231  0.0880 -0.1125
    6TMC3     H14242   1.692   1.962  10.914 -0.4453  0.3568  0.9943
    6TMC3    H114243   1.901   1.974  11.292  1.4489  3.0793  0.0377
    6TMC3    H214244   2.109   1.944  10.930 -0.8255 -1.8899 -0.4316
    6TMC3    C714245   2.130   1.901  11.194  0.6029 -0.2537 -0.3796
    6TMC3    C814246   1.901   1.976  10.775 -0.8001 -0.4542 -0.2163
    6TMC3    O114247   2.142   1.943  11.309  0.6383 -0.4737 -0.1584
    6TMC3    O214248   2.002   2.023  10.728 -0.8413 -0.6348  0.1300
    7MPD2     C14249   2.293   1.447  12.088 -0.5753 -0.0354  0.2991
    7MPD2    C114250   2.328   1.579  12.086 -0.1160  0.3539 -0.8499
    7MPD2    C214251   2.251   1.676  12.152 -0.7446 -0.3160  0.3666
    7MPD2    C314252   2.133   1.637  12.212 -0.8043 -0.5039  1.1155
    7MPD2    C414253   2.100   1.501  12.210 -0.3499 -0.0954  0.0313
    7MPD2    C514254   2.181   1.406  12.147  0.1199  0.0862  0.4232
    7MPD2     H14255   2.284   1.779  12.147 -0.7293 -0.3034  0.7364
    7MPD2    H114256   2.031   1.454  12.279  0.8180 -2.9131 -0.7204
    7MPD2    H214257   2.355   1.367  12.050  1.2564  0.2481  2.7312
    7MPD2    H314258   2.169   1.299  12.150 -0.1073  0.1451  1.8849
    7MPD2     N14259   2.055   1.730  12.288  0.0665  0.1589 -0.2248
    7MPD2    H514260   1.962   1.709  12.325  1.0771 -2.0322  1.0546
    7MPD2    N114261   2.446   1.617  12.023  0.4406 -0.1484 -0.2869
    7MPD2    H714262   2.470   1.715  12.028 -0.8951  0.2446 -1.6928
    8TMC3    C114263   2.606   1.638  11.859  0.1982  0.1429  0.1740
    8TMC3    C214264   2.591   1.647  11.727  0.1590 -0.4062 -0.0598
    8TMC3    C314265   2.596   1.773  11.665 -0.0506 -0.0966  0.0852
    8TMC3    C414266   2.644   1.746  11.937 -0.4908  0.9900  0.5145
    8TMC3    C514267   2.641   1.866  11.885 -0.0566 -0.2955 -1.1013
    8TMC3    C614268   2.609   1.885  11.751  0.9805 -0.5708 -1.4417
    8TMC3     C14269   2.521   1.542  11.931  0.7105 -0.1418 -0.2850
    8TMC3     O14270   2.518   1.424  11.888 -0.4119 -0.0696 -0.4925
    8TMC3     H14271   2.559   1.557  11.676  0.6444 -0.8254  0.3818
    8TMC3    H114272   2.677   1.734  12.040  0.3505  1.1307  0.2583
    8TMC3    H214273   2.593   1.982  11.706  1.4737  0.4110  0.5312
    8TMC3    C714274   2.552   1.948  11.971  0.1992 -0.2944  0.0656
    8TMC3    C814275   2.516   1.789  11.544 -0.2736 -0.4624 -0.3071
    8TMC3    O114276   2.502   1.888  12.062 -0.0311  0.2875 -0.1037
    8TMC3    O214277   2.471   1.904  11.525  0.3588  0.6401  0.0984
    9MPD2     C14278   2.547   1.618  11.225  0.1148  0.7939  0.0621
    9MPD2    C114279   2.489   1.689  11.323  0.6993 -0.3486  0.2168
    9MPD2    C214280   2.376   1.758  11.288 -0.5633  0.1836  0.2432
    9MPD2    C314281   2.340   1.774  11.158 -0.2003  0.2911 -0.1232
    9MPD2    C414282   2.415   1.716  11.052 -0.2201 -0.3839  0.4038
    9MPD2    C514283   2.506   1.623  11.095  0.2062  0.1480  0.2708
    9MPD2     H14284   2.320   1.812  11.363 -1.8212 -1.2859  0.3573
    9MPD2    H114285   2.384   1.729  10.949 -0.0841 -0.8339  0.3100
    9MPD2    H214286   2.637   1.557  11.224 -1.4777 -1.5589 -0.0534
    9MPD2    H314287   2.565   1.566  11.024 -1.6736 -0.0275 -1.1734
    9MPD2     N14288   2.221   1.836  11.116 -0.3817  0.3514 -0.4643
    9MPD2    H514289   2.193   1.824  11.019 -2.6955 -1.7068  0.4671
    9MPD2    N114290   2.533   1.679  11.459 -0.8627  0.0289  0.1334
    9MPD2    H714291   2.589   1.598  11.481  1.9816  1.7906 -0.6091
    1MPD1     C14292   1.635   0.622  16.870 -0.0694 -0.2596  0.7305
    1MPD1    C114293   1.543   0.725  16.852 -0.4884  0.4568 -0.2628
    1MPD1    C214294   1.538   0.802  16.731  0.0107  0.3178 -0.4684
    1MPD1    C314295   1.633   0.779  16.636 -0.5864 -0.1425 -0.0400
    1MPD1    C414296   1.732   0.683  16.667  0.0689 -0.4254  0.2615
    1MPD1    C514297   1.735   0.611  16.778 -1.0414 -0.3923 -0.1676
    1MPD1     H14298   1.454   0.868  16.713 -0.5456  0.0729  1.1549
    1MPD1    H114299   1.809   0.656  16.596 -0.5542 -0.2490 -0.4900
    1MPD1    H214300   1.626   0.552  16.953  0.7192 -1.0958  0.1087
    1MPD1    H314301   1.812   0.535  16.788 -1.9122 -1.1759  0.5949
    1MPD1     N14302   1.624   0.828  16.507 -0.4925  0.4142 -0.7854
    1MPD1    H514303   1.705   0.802  16.452  0.0515  1.5823 -0.5242
    1MPD1    N114304   1.442   0.737  16.941  0.3384 -0.1746  0.0843
    1MPD1    H614305   1.476   0.701  17.030 -0.6189 -1.4883 -0.0811
    1MPD1    H714306   1.406   0.832  16.945  0.0233 -0.1813 -2.3163
    2TMC2    C114307   1.511   1.074  16.129  0.5320 -0.0668 -0.2364
    2TMC2    C214308   1.538   0.956  16.059 -0.0112  0.4662 -0.3402
    2TMC2    C314309   1.570   0.845  16.121  1.0133 -0.5465 -0.2959
    2TMC2    C414310   1.536   1.075  16.266  0.6891  0.5572 -0.1553
    2TMC2    C514311   1.565   0.955  16.324  0.2120 -0.5985  0.9514
    2TMC2    C614312   1.594   0.839  16.254 -0.6793 -0.1001  0.4774
    2TMC2     C14313   1.468   1.191  16.056  0.1313  0.1735 -1.1945
    2TMC2     O14314   1.484   1.199  15.934  0.2468 -0.0728 -0.0432
    2TMC2     H14315   1.510   0.947  15.954 -0.7844 -0.6132 -0.0368
    2TMC2    H114316   1.494   1.161  16.318  0.1970  0.4461 -0.3673
    2TMC2    H214317   1.592   0.743  16.305  1.7555 -0.3759  0.0556
    2TMC2    C714318   1.544   0.933  16.462 -0.0342 -0.5255  0.2719
    2TMC2    C814319   1.573   0.726  16.041  0.1183  0.3627  0.5678
    2TMC2    O114320   1.457   0.997  16.516  0.0141 -0.0192  0.5403
    2TMC2    O214321   1.492   0.696  15.957 -0.5222  0.4083  0.1646
    2TMC2    O514322   1.679   0.652  16.077  0.0642 -0.5552 -0.1355
    2TMC2    H514323   1.728   0.698  16.149 -0.1093 -0.9424  0.2287
    3MPD1     C14324   1.247   1.650  16.025  0.2527  0.1151  0.2678
    3MPD1    C114325   1.181   1.581  16.116  0.4723  0.0336  0.4095
    3MPD1    C214326   1.222   1.449  16.138 -0.4357  0.9057  0.6993
    3MPD1    C314327   1.332   1.397  16.077 -0.4618  0.2645 -0.0141
    3MPD1    C414328   1.395   1.465  15.985  0.1287 -0.3052  0.3033
    3MPD1    C514329   1.352   1.597  15.960 -0.0501  0.1658  0.6003
    3MPD1     H14330   1.168   1.395  16.214  0.0512  2.8187  2.4121
    3MPD1    H114331   1.484   1.435  15.931 -0.9154 -1.4373 -0.7895
    3MPD1    H214332   1.216   1.751  16.003 -0.8215 -0.0881  0.8785
    3MPD1    H314333   1.403   1.646  15.878  2.4284 -2.3390  0.6350
    3MPD1     N14334   1.377   1.268  16.126 -0.4858 -0.4025  0.3780
    3MPD1    H514335   1.338   1.241  16.216  1.3713 -0.6290  1.1012
    3MPD1    N114336   1.089   1.646  16.195  0.0640 -0.1144  0.0065
    3MPD1    H614337   1.031   1.572  16.235 -0.0057 -0.4499 -0.7104
    3MPD1    H714338   1.037   1.730  16.168  0.5484  0.3626  0.5777
    1TMC1    C114339   0.346   4.693  13.310  0.0709 -0.2964  0.0372
    1TMC1    C214340   0.297   4.563  13.303  0.5586 -0.5781  0.5737
    1TMC1    C314341   0.170   4.536  13.268 -0.5749  0.5613 -0.0590
    1TMC1    C414342   0.267   0.055  13.260  0.5472 -0.3157  0.2547
    1TMC1    C514343   0.137   0.025  13.231 -0.5019  0.5542  0.7703
    1TMC1    C614344   0.088   4.638  13.226 -0.2658 -0.0697 -0.2917
    1TMC1     C14345   0.482   4.736  13.349  0.1010  0.0198  0.2417
    1TMC1     O14346   0.525   0.105  13.313 -0.0960  0.3459 -0.1094
    1TMC1     H14347   0.358   4.481  13.340 -1.7125 -1.5338  2.1843
    1TMC1    H114348   0.304   0.156  13.242  0.5569 -0.4802 -0.6018
    1TMC1    H214349   4.724   4.614  13.199 -0.2815 -2.2122  1.6827
    1TMC1    C714350   0.047   0.138  13.228 -0.5648 -0.2340  0.3315
    1TMC1    C814351   0.141   4.406  13.219 -0.0261  0.0096  0.2208
    1TMC1    O114352   0.064   0.220  13.313  0.4863  0.0496 -0.5872
    1TMC1    O214353   0.035   4.354  13.243  0.1241 -0.1856  0.4264
    1TMC1    O314354   4.665   0.091  13.197  0.0505  0.1111 -0.1495
    1TMC1    H314355   4.662   0.018  13.131  0.3368  1.0600 -1.2266
    1TMC1    O514356   0.256   4.345  13.193  0.2779  0.7179 -0.2689
    1TMC1    H514357   0.336   4.402  13.190  0.0208  0.9909 -1.8636
    2MPD2     C14358   0.777   4.713  13.415  0.4804  0.5048  0.0598
    2MPD2    C114359   0.677   4.638  13.478 -0.1848  0.0029  0.4047
    2MPD2    C214360   0.701   4.564  13.585  0.8542  0.6161 -0.2803
    2MPD2    C314361   0.831   4.552  13.631  0.6520  0.7882  0.0358
    2MPD2    C414362   0.935   4.617  13.569  0.1897  0.6956  0.2218
    2MPD2    C514363   0.902   4.705  13.468 -0.0230 -0.3574 -0.5947
    2MPD2     H14364   0.623   4.519  13.646  1.9641 -2.0022 -0.7885
    2MPD2    H114365   1.036   4.607  13.608  0.0277  2.1578  1.0250
    2MPD2    H214366   0.750   0.036  13.329 -0.3717  0.4420  0.2858
    2MPD2    H314367   0.975   0.023  13.411 -0.1049 -0.1848 -0.5277
    2MPD2     N14368   0.848   4.463  13.743 -0.1357  0.2536  0.3476
    2MPD2    H514369   0.767   4.404  13.757 -0.4331  0.4531 -0.5152
    2MPD2    N114370   0.540   4.643  13.431  0.2481 -0.1495 -0.5329
    2MPD2    H714371   0.487   4.562  13.461 -0.7457  1.1272  1.1495
    3TCq1    O114372   1.122   4.122  14.290 -0.5592 -0.6030 -0.2330
    3TCq1    C114373   1.133   4.238  14.218 -0.6625  0.3749 -0.2812
    3TCq1    O214374   1.227   4.316  14.222 -0.1658  0.2196  0.0429
    3TCq1    C214375   1.021   4.252  14.127  0.8870  0.8769  0.0055
    3TCq1    C314376   0.898   4.201  14.155  0.2090 -0.1433 -0.2781
    3TCq1    C414377   0.789   4.249  14.080  0.1431  0.2838 -0.3542
    3TCq1    C514378   0.810   4.344  13.984 -0.2540  0.4977 -0.0721
    3TCq1    C614379   0.941   4.376  13.951 -0.3663 -0.4135  0.2264
    3TCq1    C714380   1.047   4.337  14.021  0.6363  0.4136  0.1426
    3TCq1    C814381   0.963   4.456  13.825  0.1702 -0.5907 -0.6823
    3TCq1    O414382   1.076   4.494  13.810 -0.0940 -0.1314 -0.1764
    3TCq1    C914383   0.655   4.205  14.106 -0.4701 -0.4885 -0.0652
    3TCq1    O514384   0.646   4.097  14.168 -0.1708  0.4627  0.2739
    3TCq1    O614385   0.560   4.265  14.045  0.5650 -0.2039  0.0687
    3TCq1    H114386   1.061   4.052  14.259 -1.8035  1.6255 -2.8044
    3TCq1    H214387   0.882   4.132  14.237  0.0804 -1.3884 -1.3429
    3TCq1    H314388   0.726   4.378  13.924  0.1079 -1.1301 -1.5362
    3TCq1    H414389   1.149   4.354  13.990  0.7345 -1.7789 -0.6929
    1MPD2     C14390   4.364   1.248  15.187 -0.6649 -0.3784 -0.6364
    1MPD2    C114391   4.301   1.141  15.125  0.2638  0.0601 -0.3285
    1MPD2    C214392   4.380   1.028  15.099 -0.6118 -0.1879 -0.0338
    1MPD2    C314393   4.508   1.025  15.155 -0.6996 -0.3274 -0.2613
    1MPD2    C414394   4.569   1.136  15.200  0.2652  0.0859  0.4918
    1MPD2    C514395   4.498   1.251  15.211 -0.7474  0.4273  0.7835
    1MPD2     H14396   4.331   0.935  15.070 -0.0283  0.8503 -4.3375
    1MPD2    H114397   4.674   1.136  15.224  0.5697 -1.7423 -0.7861
    1MPD2    H214398   4.304   1.336  15.206 -0.8456 -0.9517  1.5243
    1MPD2    H314399   4.543   1.345  15.239 -0.3679  1.2183 -2.5933
    1MPD2     N14400   4.573   0.901  15.142  0.1259  0.0376  0.1198
    1MPD2    H514401   4.523   0.827  15.094  0.4519 -0.7192  0.9724
    1MPD2    N114402   4.166   1.157  15.089 -0.1527 -0.0433 -0.6254
    1MPD2    H714403   4.119   1.247  15.099 -1.3433 -0.8550  1.0718
    2TMC3    C114404   3.945   1.096  15.011 -0.1506 -0.0415  0.2575
    2TMC3    C214405   3.885   0.981  14.957  0.4535  0.4283  0.2537
    2TMC3    C314406   3.848   0.976  14.829 -0.0337  0.4456 -0.0772
    2TMC3    C414407   3.943   1.211  14.936  0.2519 -0.3188  0.2315
    2TMC3    C514408   3.891   1.208  14.816 -0.3185  0.4334  0.4483
    2TMC3    C614409   3.837   1.097  14.757 -0.7321  0.0537  0.5319
    2TMC3     C14410   4.083   1.056  15.042  0.5691  0.3689 -0.0901
    2TMC3     O14411   4.119   0.945  15.005  0.3664  0.1368  0.1814
    2TMC3     H14412   3.891   0.889  15.014  2.0466  1.7020  2.1554
    2TMC3    H114413   3.975   1.306  14.977  1.4582 -2.0498  3.3041
    2TMC3    H214414   3.814   1.097  14.651 -0.2734  3.1673  0.4340
    2TMC3    C714415   3.905   1.325  14.721  0.3655  0.5962 -0.6235
    2TMC3    C814416   3.885   0.854  14.756 -0.5250 -0.0870  0.3326
    2TMC3    O114417   3.922   1.306  14.601  0.2617  0.0271 -0.1883
    2TMC3    O214418   3.836   0.829  14.647 -0.1653  0.6048 -0.0158
    3TCq1    O114419   4.266   2.363  15.351  0.0233 -0.1158 -0.4992
    3TCq1    C114420   4.298   2.309  15.238 -0.9111 -0.3818  0.5656
    3TCq1    O214421   4.356   2.363  15.148 -0.2584  0.7124  0.0256
    3TCq1    C214422   4.227   2.181  15.220 -0.6427 -0.3283  0.3116
    3TCq1    C314423   4.206   2.105  15.332 -0.2267  0.1066 -0.3779
    3TCq1    C414424   4.129   1.991  15.318  0.0739 -0.1050  0.1484
    3TCq1    C514425   4.070   1.961  15.195  0.2788  0.1875 -0.3657
    3TCq1    C614426   4.101   2.032  15.089  0.3544  0.1381 -0.4427
    3TCq1    C714427   4.173   2.145  15.097  0.2540  0.0976  0.4024
    3TCq1    C814428   4.079   1.977  14.955 -0.5818 -0.3415 -0.7151
    3TCq1    O414429   4.068   2.053  14.862  0.0327  0.0970  0.0194
    3TCq1    C914430   4.105   1.910  15.432 -1.0556 -0.1402  0.1536
    3TCq1    O514431   4.028   1.808  15.417 -0.1440 -0.0637  0.0514
    3TCq1    O614432   4.156   1.949  15.545 -0.2342  0.8583  0.6869
    3TCq1    H114433   4.209   2.314  15.414  0.1035 -1.1190 -1.1909
    3TCq1    H214434   4.258   2.132  15.422  0.2127  1.6939 -1.1110
    3TCq1    H314435   4.018   1.867  15.186 -1.4384  1.2661 -1.7474
    3TCq1    H414436   4.179   2.206  15.008  0.2586  2.8988  2.3176
    4MPD2     C14437   4.061   1.809  14.721  0.5440  0.0778  0.0304
    4MPD2    C114438   4.046   1.765  14.850  0.2817  0.0349 -0.1241
    4MPD2    C214439   3.992   1.639  14.872  0.5414 -0.2876 -0.0251
    4MPD2    C314440   3.961   1.558  14.764  0.6150 -0.7348  0.6772
    4MPD2    C414441   3.990   1.592  14.637  0.7165  0.6042 -0.0383
    4MPD2    C514442   4.033   1.721  14.621  0.5040 -0.7033 -0.3189
    4MPD2     H14443   3.961   1.608  14.970 -2.0465 -0.2352 -0.8285
    4MPD2    H114444   3.966   1.542  14.544 -1.8904  0.7638  0.5336
    4MPD2    H214445   4.095   1.909  14.698  2.6784 -0.3855  1.1369
    4MPD2    H314446   4.052   1.753  14.519 -2.2937 -0.3183 -0.7225
    4MPD2     N14447   3.904   1.436  14.799  0.5143 -0.1870 -0.1101
    4MPD2    H514448   3.873   1.431  14.895  0.5621 -1.4195 -0.1480
    4MPD2    N114449   4.079   1.843  14.960 -0.4324  0.5421 -0.3249
    4MPD2    H714450   4.093   1.790  15.045 -0.2665 -0.6764 -1.1107
    5TMC2    C114451   4.570   0.573  15.033  0.3211  0.0106  0.0925
    5TMC2    C214452   4.507   0.508  15.140  0.0704 -0.1849 -0.0571
    5TMC2    C314453   4.536   0.547  15.272  0.1975  0.0411  0.4094
    5TMC2    C414454   4.648   0.682  15.064 -0.1618  0.4825 -0.1080
    5TMC2    C514455   4.681   0.717  15.190  0.0205 -0.1883  0.0971
    5TMC2    C614456   4.623   0.649  15.294 -0.2558 -0.5317 -0.1260
    5TMC2     C14457   4.470   0.618  14.935  0.5575 -0.2159  0.6549
    5TMC2     O14458   4.466   0.739  14.928 -0.2622  0.7825  0.1551
    5TMC2     H14459   4.444   0.422  15.121 -0.8647 -0.4579  4.2657
    5TMC2    H114460   4.696   0.739  14.986  0.4955  2.2836  1.6067
    5TMC2    H214461   4.637   0.679  15.397  0.7765 -0.2211 -0.3526
    5TMC2    C714462   4.678   0.861  15.211 -0.3858 -0.0148 -0.6393
    5TMC2    C814463   4.513   0.450  15.377  0.1660 -0.1499 -0.4795
    5TMC2    O114464   0.002   0.914  15.303 -0.5416  0.2499  0.5259
    5TMC2    O214465   4.586   0.439  15.476 -0.5296 -0.0468  0.7498
    5TMC2    O514466   4.409   0.376  15.345 -0.2746  0.2485  0.5917
    5TMC2    H514467   4.346   0.438  15.301 -0.0109  0.2608  0.2269
    6MPD2     C14468   4.039   0.595  14.675  0.3311 -0.2281 -0.1146
    6MPD2    C114469   4.085   0.689  14.763 -0.0901 -0.0537 -0.7796
    6MPD2    C214470   4.205   0.660  14.818  0.2042 -0.0810 -0.2169
    6MPD2    C314471   4.281   0.543  14.796 -0.1923  0.1038  0.2263
    6MPD2    C414472   4.224   0.447  14.719 -0.3508 -0.1404 -0.2400
    6MPD2    C514473   4.106   0.475  14.658 -0.3074  0.5186 -0.5517
    6MPD2     H14474   4.239   0.736  14.887  0.2577 -0.4969  0.2126
    6MPD2    H114475   4.259   0.346  14.703  0.9907  0.2558  0.1766
    6MPD2    H214476   3.937   0.605  14.637 -0.3099 -1.0111  1.4073
    6MPD2    H314477   4.067   0.400  14.590 -0.5289  0.0398  0.0986
    6MPD2     N14478   4.398   0.520  14.867 -0.1615  0.3205  0.3763
    6MPD2    H514479   4.430   0.424  14.863 -2.0055 -0.2099 -1.7184
    6MPD2    N114480   4.006   0.803  14.804  0.6902 -0.0469 -0.1072
    6MPD2    H714481   4.040   0.856  14.884  1.6900 -0.7118 -0.0869
  945NH4     N114482   1.080   0.639   3.007 -0.2465 -0.2404  0.3396
  945NH4     H214483   1.073   0.550   3.060 -1.0255 -0.9776 -1.0036
  945NH4     H314484   1.016   0.640   2.925  1.7917  1.0570 -1.2531
  945NH4     H414485   1.176   0.647   2.967 -0.6565 -1.8774 -0.9524
  945NH4     H514486   1.051   0.716   3.071  0.8092  1.9851 -1.8591
  946SOD     NA14487   2.064   3.962  13.593  0.3648  0.1797 -0.3327
  947SOD     NA14488   0.431   0.882  15.206  0.1954  0.0542  0.8466
  948SOD     NA14489   3.909   1.378  13.921 -0.4071 -0.1590  0.0335
  949SOD     NA14490   2.240   3.973   0.441  0.1715  0.3384  0.1892
  950SOD     NA14491   0.203   3.060  13.239  0.1108  0.3085 -0.6705
  951SOD     NA14492   3.566   4.547  10.194  0.1201  0.4025 -0.4732
  952SOD     NA14493   1.608   2.930   3.888 -0.3911 -0.0581  0.0261
  953SOL     OW14494   2.013   2.514  12.493  0.7090 -1.2020  0.0159
  953SOL    HW114495   1.942   2.457  12.464  0.6055 -1.5767  1.0099
  953SOL    HW214496   1.992   2.523  12.586  1.3166  0.4581 -0.0033
  954SOL     OW14497   1.698   2.487   3.580  0.2432 -0.1199  0.3509
  954SOL    HW114498   1.785   2.521   3.602 -0.4864  1.0032  1.4832
  954SOL    HW214499   1.712   2.395   3.560  0.7705 -0.4249  2.0970
  955SOL     OW14500   0.784   2.703   7.262 -0.2798  0.1237 -0.2278
  955SOL    HW114501   0.861   2.758   7.277  0.9037 -1.1854 -1.4787
  955SOL    HW214502   0.827   2.630   7.217 -0.5770 -1.2683  1.7599
  956SOL     OW14503   0.776   2.562   4.405  0.2446  0.0630 -0.3726
  956SOL    HW114504   0.804   2.513   4.481 -0.4556  2.2954  1.3150
  956SOL    HW214505   0.686   2.586   4.427 -0.2239 -2.0757 -0.0434
  957SOL     OW14506   2.549   0.799   2.775  0.2894 -0.2650 -0.3301
  957SOL    HW114507   2.599   0.860   2.722 -0.8443 -0.0578 -1.1645
  957SOL    HW214508   2.480   0.758   2.722  0.4419  1.3147 -1.7507
  958SOL     OW14509   4.722   3.904   4.394 -0.1240  0.1441  0.3710
  958SOL    HW114510   0.032   3.983   4.420 -0.3987  0.0519  1.1641
  958SOL    HW214511   0.049   3.835   4.409  0.3851  0.9965  2.1120
  959SOL     OW14512   2.186   2.765   9.108 -0.1818  0.3540 -0.1095
  959SOL    HW114513   2.183   2.792   9.200  0.9075 -1.7033  0.5397
  959SOL    HW214514   2.154   2.675   9.111  0.7192  0.0387  0.0247
  960SOL     OW14515   0.139   1.901   2.025  0.4667 -0.3597  0.1909
  960SOL    HW114516   0.155   1.841   2.098  0.4444 -2.4416 -1.5211
  960SOL    HW214517   0.137   1.989   2.063  0.4408  1.3584 -3.7504
  961SOL     OW14518   3.720   3.816   3.619  0.1907 -0.0630  0.5661
  961SOL    HW114519   3.730   3.853   3.531 -1.5450 -1.5153 -0.2382
  961SOL    HW214520   3.711   3.901   3.662 -0.2714  0.1652  0.0247
  962SOL     OW14521   1.293   0.642   7.968  0.1836 -0.2937 -0.4689
  962SOL    HW114522   1.369   0.621   7.914  1.2534  2.5207 -0.0258
  962SOL    HW214523   1.229   0.582   7.930 -0.2772 -0.0010 -0.1493
  963SOL     OW14524   2.450   2.351   5.347  0.1151 -0.5242  0.2189
  963SOL    HW114525   2.507   2.335   5.422  0.7218  0.3469 -0.0526
  963SOL    HW214526   2.445   2.268   5.299  0.8785  0.7291 -1.9930
  964SOL     OW14527   0.181   0.069  16.013 -0.0988  0.6500 -0.2242
  964SOL    HW114528   0.276   0.061  16.009 -0.2621 -0.6546 -1.5358
  964SOL    HW214529   0.175   0.155  15.970 -2.7233 -0.2339 -1.6281
  965SOL     OW14530   3.576   4.442  11.660 -0.2606  0.6740 -0.5519
  965SOL    HW114531   3.505   4.506  11.651  0.7977  1.9877  0.5402
  965SOL    HW214532   3.647   4.500  11.686  0.5213 -0.5432  0.0115
  966SOL     OW14533   3.631   2.504   5.936  0.0437 -0.0139  0.3714
  966SOL    HW114534   3.725   2.503   5.953  0.4375  2.0893 -1.7451
  966SOL    HW214535   3.601   2.573   5.995 -1.1255 -1.0576  1.0167
  967SOL     OW14536   2.920   2.791  10.224 -0.0938 -0.8759 -0.2616
  967SOL    HW114537   2.870   2.763  10.301 -2.2058  0.8839 -0.9889
  967SOL    HW214538   2.928   2.704  10.185 -0.8815 -0.5184 -1.2164
  968SOL     OW14539   3.025   3.989   8.297  0.4519  0.0742 -0.1461
  968SOL    HW114540   3.056   4.075   8.324  0.3227 -0.5893  2.0680
  968SOL    HW214541   3.080   3.932   8.350 -0.2467 -2.9227 -2.6214
  969SOL     OW14542   4.716   0.700   3.363  0.3770 -0.5538 -0.2728
  969SOL    HW114543   4.687   0.718   3.274  0.7779  1.4456 -0.0100
  969SOL    HW214544   4.647   0.751   3.406  1.2002  0.8681 -0.6457
  970SOL     OW14545   3.295   4.261   7.206  0.2332 -0.0698 -0.3936
  970SOL    HW114546   3.292   4.165   7.197 -3.0721 -0.2628  2.7172
  970SOL    HW214547   3.376   4.288   7.163  0.9124 -0.0131  0.9354
  971SOL     OW14548   4.481   2.778   5.346  0.5552  1.1592 -0.3885
  971SOL    HW114549   4.486   2.872   5.332  2.1452  1.0059 -0.7953
  971SOL    HW214550   4.561   2.755   5.300 -0.1469 -0.6219 -0.7297
  972SOL     OW14551   0.084   2.473   8.823 -0.4029  0.0251 -0.5206
  972SOL    HW114552   0.171   2.507   8.802 -0.5752 -1.0122 -2.8870
  972SOL    HW214553   0.062   2.419   8.748 -2.4851 -1.0759  0.8793
  973SOL     OW14554   1.006   0.748   8.138 -0.6699  0.3446 -0.0100
  973SOL    HW114555   1.046   0.661   8.130 -1.4103  0.1989 -2.2131
  973SOL    HW214556   0.913   0.726   8.126  0.2603 -3.6087 -0.2119
  974SOL     OW14557   1.871   3.035   5.333  0.2807 -0.2154  0.5803
  974SOL    HW114558   1.826   3.078   5.406 -2.6370  1.7330 -2.3699
  974SOL    HW214559   1.832   3.089   5.264 -0.7077  0.1291  1.4077
  975SOL     OW14560   3.883   1.989   4.296 -0.3847  0.1609 -0.1230
  975SOL    HW114561   3.947   1.944   4.241  0.4987  1.2698 -0.0145
  975SOL    HW214562   3.941   2.056   4.333 -0.2625  0.5396 -0.9846
  976SOL     OW14563   1.078   2.506   8.641 -0.0177  0.1718 -0.3031
  976SOL    HW114564   1.005   2.459   8.601 -0.4119 -0.2719  0.9535
  976SOL    HW214565   1.049   2.597   8.638  0.6789  0.3743 -0.9307
  977SOL     OW14566   4.464   1.202   7.416 -0.3233 -1.2111 -0.6044
  977SOL    HW114567   4.490   1.294   7.427  0.1485 -1.9021  4.1660
  977SOL    HW214568   4.524   1.163   7.353 -0.3426  2.7279 -3.0438
  978SOL     OW14569   2.493   4.212   9.877  0.5183  0.5724  0.0488
  978SOL    HW114570   2.562   4.261   9.922  1.0418 -1.2189  1.1557
  978SOL    HW214571   2.464   4.278   9.813 -1.3586 -1.3666 -1.0740
  979SOL     OW14572   0.497   3.996   8.995 -0.2751  0.3943  0.0931
  979SOL    HW114573   0.462   3.960   9.077 -1.3679 -1.3826 -1.1552
  979SOL    HW214574   0.569   3.932   8.994 -0.9572 -0.3433 -1.4883
  980SOL     OW14575   0.433   1.978   2.228 -0.5944 -0.6893  0.0934
  980SOL    HW114576   0.368   1.932   2.281  1.1098  0.5602  3.2699
  980SOL    HW214577   0.506   1.969   2.289 -0.5441 -0.4809  0.0664
  981SOL     OW14578   3.204   0.725   6.474 -0.2880 -0.0129  0.6927
  981SOL    HW114579   3.157   0.808   6.468  0.7031  0.5838  1.3713
  981SOL    HW214580   3.276   0.755   6.529  0.3207  0.4639 -0.3678
  982SOL     OW14581   0.323   1.088   8.683  0.0659 -0.5751 -0.1329
  982SOL    HW114582   0.343   1.061   8.773 -0.6682  0.8916  0.4849
  982SOL    HW214583   0.268   1.165   8.700  0.7949 -0.0632 -0.1219
  983SOL     OW14584   2.646   3.045   5.917  0.6706 -0.4690 -0.1845
  983SOL    HW114585   2.736   3.049   5.949  1.0237 -1.8701 -0.9977
  983SOL    HW214586   2.656   3.028   5.823  1.6740 -1.2151  0.0596
  984SOL     OW14587   3.376   3.927   5.051  0.5484  0.5157  0.1916
  984SOL    HW114588   3.336   3.841   5.058 -0.0906  0.6973 -1.2341
  984SOL    HW214589   3.305   3.988   5.031 -0.3195 -0.3624  0.5648
  985SOL     OW14590   3.463   0.517   1.693  0.2006  0.1521  0.1942
  985SOL    HW114591   3.528   0.494   1.759 -0.1630 -2.9101 -0.5100
  985SOL    HW214592   3.385   0.481   1.737  0.6550  0.3784  1.1839
  986SOL     OW14593   1.470   3.221   4.988 -0.6195  0.4736 -0.4542
  986SOL    HW114594   1.547   3.217   4.931  0.8372  0.2997  1.5118
  986SOL    HW214595   1.406   3.165   4.944 -0.8206 -0.6719  1.2984
  987SOL     OW14596   0.498   2.189   5.064  0.0238  0.1667  0.2744
  987SOL    HW114597   0.442   2.265   5.081 -0.0709 -0.1153  1.2462
  987SOL    HW214598   0.474   2.118   5.124  2.2350 -0.8455 -0.0274
  988SOL     OW14599   4.029   3.611   4.506 -0.0169 -0.2618  0.7061
  988SOL    HW114600   4.039   3.568   4.590 -2.7165  1.0629  1.7232
  988SOL    HW214601   4.044   3.531   4.455 -1.7646  0.4066 -0.8936
  989SOL     OW14602   1.102   0.335   5.622 -0.6977  0.1319 -0.4730
  989SOL    HW114603   1.086   0.255   5.672 -0.1262  0.2244 -0.1353
  989SOL    HW214604   1.198   0.342   5.631 -0.6279 -1.0658 -0.3294
  990SOL     OW14605   4.572   1.442  13.023  0.6523 -0.4138  0.1562
  990SOL    HW114606   4.510   1.401  12.962 -0.0577  0.3277  0.3786
  990SOL    HW214607   4.651   1.446  12.968  2.3875  0.7211  2.7446
  991SOL     OW14608   0.842   2.210   6.642  0.4647 -0.2268  0.0583
  991SOL    HW114609   0.908   2.186   6.577  1.7517 -1.6667  1.8969
  991SOL    HW214610   0.855   2.305   6.653  0.0367  0.0069 -1.4215
  992SOL     OW14611   2.726   2.592  16.320 -0.0529  0.1600  0.5475
  992SOL    HW114612   2.646   2.605  16.268  0.6139 -0.5794 -0.6682
  992SOL    HW214613   2.698   2.524  16.382  2.0328 -1.4807 -0.2818
  993SOL     OW14614   0.082   3.416   5.632  0.0884  0.3007  0.3042
  993SOL    HW114615   0.001   3.366   5.621 -0.9084  1.8239  0.7727
  993SOL    HW214616   0.104   3.439   5.542  1.4295  1.1240  0.8475
  994SOL     OW14617   4.587   1.720   8.270 -0.3332  0.2349 -0.1411
  994SOL    HW114618   4.676   1.723   8.235  0.3578  1.5509  1.7341
  994SOL    HW214619   4.607   1.717   8.363  0.9971 -1.0383 -0.4620
  995SOL     OW14620   1.880   1.951   4.764 -0.1338 -0.2152 -0.0689
  995SOL    HW114621   1.809   1.887   4.755  0.3972 -0.9118  0.7452
  995SOL    HW214622   1.881   1.960   4.859 -0.7109 -2.8324  0.2039
  996SOL     OW14623   2.642   1.024  16.873  0.1152  0.0136 -0.2818
  996SOL    HW114624   2.567   0.990  16.824 -0.4637  0.2370  0.4486
  996SOL    HW214625   2.634   0.960  16.944  2.8312 -0.3769 -0.3173
  997SOL     OW14626   2.663   3.035  15.717  0.4400 -0.0996 -0.2576
  997SOL    HW114627   2.651   3.129  15.702 -1.8743  0.0376  2.3916
  997SOL    HW214628   2.669   3.038  15.813 -0.1818 -0.3912 -0.2129
  998SOL     OW14629   4.355   3.634   1.170  0.0179  0.1751  0.0268
  998SOL    HW114630   4.307   3.709   1.134  0.2951 -0.2105 -1.1421
  998SOL    HW214631   4.289   3.608   1.234  0.0146 -1.2082 -0.5359
  999SOL     OW14632   0.305   2.243  17.296  0.2167 -0.0601  0.0091
  999SOL    HW114633   0.343   2.226  17.382 -1.3184 -0.1242  0.6740
  999SOL    HW214634   0.227   2.289  17.327 -0.3899 -1.7455  0.9343
 1000SOL     OW14635   3.061   1.030   7.970 -0.0659 -0.0862 -0.0372
 1000SOL    HW114636   3.068   1.118   7.932 -2.7060  0.4943  0.8554
 1000SOL    HW214637   3.058   0.977   7.890 -0.2746  2.4202 -1.6969
 1001SOL     OW14638   3.838   3.775   5.620  0.1474  0.3037 -0.4879
 1001SOL    HW114639   3.771   3.739   5.562 -0.7416  1.0437  0.0884
 1001SOL    HW214640   3.860   3.700   5.675  0.6816  0.8907  0.0954
 1002SOL     OW14641   4.225   2.413   4.388 -0.2935  0.6905 -0.0323
 1002SOL    HW114642   4.218   2.463   4.307  0.0022 -0.4828 -0.7929
 1002SOL    HW214643   4.189   2.475   4.451  1.5965 -0.5706  2.2921
 1003SOL     OW14644   4.114   4.442  14.229  0.3952 -0.4078 -0.2873
 1003SOL    HW114645   4.169   4.452  14.307 -1.8282  0.6181  1.1460
 1003SOL    HW214646   4.083   4.351  14.235  0.3815 -0.5438 -2.3041
 1004SOL     OW14647   1.365   2.599   2.828 -0.6448  0.0809  0.2382
 1004SOL    HW114648   1.277   2.570   2.806  0.4797 -1.9351 -1.5130
 1004SOL    HW214649   1.370   2.580   2.921  0.2248  0.3594  0.2527
 1005SOL     OW14650   1.975   4.452   2.460 -0.1081  0.5747  0.2468
 1005SOL    HW114651   1.992   4.524   2.520 -1.2409 -0.5106  1.8680
 1005SOL    HW214652   1.918   4.496   2.397  0.6513 -0.8677 -1.4509
 1006SOL     OW14653   1.835   0.975   6.098  0.1414 -0.4301  0.1162
 1006SOL    HW114654   1.839   1.057   6.049 -0.7909 -0.2139  0.4128
 1006SOL    HW214655   1.771   0.992   6.166 -0.1712 -1.7567  0.1571
 1007SOL     OW14656   3.786   3.878   9.935  0.3698  0.1538 -0.7499
 1007SOL    HW114657   3.820   3.961   9.902  1.2870  0.1168  0.1024
 1007SOL    HW214658   3.721   3.857   9.867 -0.5045  0.1226  0.0960
 1008SOL     OW14659   0.892   3.272   4.529  0.3214 -0.3142 -0.2105
 1008SOL    HW114660   0.984   3.249   4.523  0.5763  1.2029 -1.7892
 1008SOL    HW214661   0.891   3.360   4.492  1.1956  0.3105  1.2614
 1009SOL     OW14662   2.584   1.003   4.864 -0.4272  0.0863  0.4138
 1009SOL    HW114663   2.661   0.946   4.864 -0.5513 -0.0861  0.8166
 1009SOL    HW214664   2.581   1.014   4.959 -0.7823 -3.2217  0.7903
 1010SOL     OW14665   3.570   3.069  12.625 -0.9387 -0.6358  0.4032
 1010SOL    HW114666   3.558   3.164  12.615 -2.5681 -1.0403 -1.4341
 1010SOL    HW214667   3.583   3.048  12.533  1.3341  0.4813  0.4688
 1011SOL     OW14668   0.669   0.030  15.061  0.2838 -0.0643  0.4613
 1011SOL    HW114669   0.677   0.110  15.009  2.6597 -1.0623 -0.7023
 1011SOL    HW214670   0.605   0.052  15.129  1.9319  1.0946  1.6476
 1012SOL     OW14671   1.248   4.635   5.896 -0.4179  0.2716 -0.0243
 1012SOL    HW114672   1.270   4.657   5.806  1.5364 -0.0357  0.3899
 1012SOL    HW214673   1.228   4.543   5.879  1.5852 -0.1051 -0.2358
 1013SOL     OW14674   1.252   3.110   8.535 -0.2622  0.3725 -0.2878
 1013SOL    HW114675   1.177   3.161   8.504  1.4892  1.4171 -2.8537
 1013SOL    HW214676   1.313   3.133   8.465 -0.3232 -0.6582 -0.6837
 1014SOL     OW14677   3.585   2.651   8.076 -0.3735  0.3971 -0.7850
 1014SOL    HW114678   3.491   2.669   8.068 -0.0295  2.4849 -0.1024
 1014SOL    HW214679   3.600   2.692   7.990 -0.2922 -0.3139 -1.1064
 1015SOL     OW14680   2.660   3.908   9.103  0.4177  0.3749  0.4233
 1015SOL    HW114681   2.694   3.950   9.181  2.2336 -0.0659 -0.1238
 1015SOL    HW214682   2.656   3.970   9.030 -2.0283  1.0562  1.1368
 1016SOL     OW14683   4.147   0.451   5.260  0.4516 -0.2231  0.2676
 1016SOL    HW114684   4.199   0.387   5.213  1.5394  0.8742 -0.0263
 1016SOL    HW214685   4.089   0.399   5.316 -0.1418 -1.3409 -1.4071
 1017SOL     OW14686   0.495   1.527   0.669  0.1283 -0.3546 -0.2617
 1017SOL    HW114687   0.491   1.483   0.754 -1.7434 -1.0996 -0.7424
 1017SOL    HW214688   0.587   1.553   0.669 -0.8088  3.0210 -2.2764
 1018SOL     OW14689   0.036   4.037   1.527 -0.3279 -0.3631 -0.0086
 1018SOL    HW114690   0.091   4.047   1.605 -0.2238  0.5959 -0.2051
 1018SOL    HW214691   0.048   3.942   1.520 -1.8357 -0.5221 -0.3946
 1019SOL     OW14692   3.559   3.984   4.597  1.1883 -0.2021 -0.6815
 1019SOL    HW114693   3.573   4.014   4.687 -0.9279 -3.5839  0.7564
 1019SOL    HW214694   3.486   4.045   4.583 -0.6050 -1.9566  0.9811
 1020SOL     OW14695   3.739   4.693   7.065 -0.1622  0.8111 -0.0321
 1020SOL    HW114696   3.650   4.705   7.032 -1.0955  0.6883  2.4575
 1020SOL    HW214697   3.744   0.032   7.120  0.9359 -0.6329  1.8947
 1021SOL     OW14698   2.820   4.251   2.891 -0.1489  0.2462  0.3313
 1021SOL    HW114699   2.737   4.292   2.867 -1.2881 -0.8919  2.3551
 1021SOL    HW214700   2.870   4.332   2.902 -2.4563  1.8105 -0.6831
 1022SOL     OW14701   2.934   3.053   1.631  0.4953 -0.1535 -0.2816
 1022SOL    HW114702   2.890   2.974   1.599  0.7772 -2.0239  3.9226
 1022SOL    HW214703   2.864   3.117   1.615 -1.0828 -1.5347  1.0499
 1023SOL     OW14704   3.777   3.793   0.331  0.0901  0.0797  0.3393
 1023SOL    HW114705   3.759   3.702   0.311  1.3667  0.3263 -1.8870
 1023SOL    HW214706   3.861   3.781   0.376  0.1090  0.9079  0.5253
 1024SOL     OW14707   0.474   3.041   7.884  0.2513 -0.3117  0.0540
 1024SOL    HW114708   0.534   3.049   7.810 -0.8230 -0.0809 -0.7925
 1024SOL    HW214709   0.537   3.008   7.948  0.0870  0.4288  0.5997
 1025SOL     OW14710   0.377   3.831   9.435  0.0817 -0.0806 -0.4095
 1025SOL    HW114711   0.293   3.789   9.420  0.5337 -1.5375  1.1306
 1025SOL    HW214712   0.418   3.817   9.350  0.8013  1.9775 -0.4045
 1026SOL     OW14713   3.434   2.742   1.238  0.2647  0.2709 -0.0976
 1026SOL    HW114714   3.341   2.722   1.233  0.8344 -2.7499  1.3216
 1026SOL    HW214715   3.450   2.755   1.332 -0.2868  0.0005  0.0316
 1027SOL     OW14716   1.604   3.169   3.539  0.1256  0.0012  0.4039
 1027SOL    HW114717   1.640   3.257   3.549  0.0044 -0.0465  1.3053
 1027SOL    HW214718   1.511   3.185   3.551 -0.0338 -0.9357  0.4260
 1028SOL     OW14719   4.630   0.869   0.900 -0.0512 -0.4710  0.0031
 1028SOL    HW114720   4.587   0.784   0.885  1.0524 -0.8974 -0.7553
 1028SOL    HW214721   4.607   0.917   0.821 -0.9302 -0.0421  0.5207
 1029SOL     OW14722   1.065   0.761   5.868  0.0954  0.3088  0.2781
 1029SOL    HW114723   1.035   0.803   5.949 -2.4172 -0.5608 -0.2120
 1029SOL    HW214724   1.096   0.840   5.822 -0.7205  0.1610 -0.5159
 1030SOL     OW14725   4.461   0.454   7.878 -0.2489 -0.4493 -0.0839
 1030SOL    HW114726   4.554   0.473   7.881 -0.0340 -1.5626  0.3042
 1030SOL    HW214727   4.430   0.523   7.936 -1.5853 -1.2053  0.0966
 1031SOL     OW14728   1.816   2.920   3.796 -0.3296  0.2692 -0.6012
 1031SOL    HW114729   1.851   2.972   3.724  1.9471 -1.4624 -0.7568
 1031SOL    HW214730   1.858   2.835   3.782 -1.3210 -0.2434 -0.4736
 1032SOL     OW14731   3.922   2.507   5.971  0.7811  0.5351 -0.1369
 1032SOL    HW114732   3.997   2.551   5.931  0.4064  0.4509 -0.9283
 1032SOL    HW214733   3.935   2.420   5.934 -2.6152 -1.2554  2.8235
 1033SOL     OW14734   4.719   2.234   4.429  0.3481 -0.1023 -0.5554
 1033SOL    HW114735   0.030   2.271   4.503  1.3164 -0.9422 -0.7750
 1033SOL    HW214736   4.643   2.292   4.426  0.6338  0.2483 -1.0809
 1034SOL     OW14737   2.392   4.511   5.898 -0.7368  0.1237 -0.7493
 1034SOL    HW114738   2.432   4.572   5.960 -3.1412 -0.4194  1.3396
 1034SOL    HW214739   2.407   4.424   5.934  0.0526  0.3035 -0.6335
 1035SOL     OW14740   3.945   0.047   0.180 -0.1410  0.2704  0.0286
 1035SOL    HW114741   3.929   4.691   0.188 -2.2208  0.6400  0.2576
 1035SOL    HW214742   3.854   0.078   0.178  0.1416  1.1572  0.8249
 1036SOL     OW14743   2.152   0.170   3.819  0.4664 -0.7869  0.5224
 1036SOL    HW114744   2.230   0.217   3.846 -0.4669  0.7313  0.5425
 1036SOL    HW214745   2.095   0.247   3.822 -0.1190 -1.2071  0.3937
 1037SOL     OW14746   0.415   2.663   8.989 -0.0127 -0.0033 -0.4241
 1037SOL    HW114747   0.441   2.685   8.900 -0.1760 -1.2930 -0.7847
 1037SOL    HW214748   0.411   2.568   8.987  0.3140 -0.0045 -1.0285
 1038SOL     OW14749   2.166   4.451   3.457  0.3323  1.0150  0.3041
 1038SOL    HW114750   2.108   4.407   3.395  1.4558 -0.0379  0.0006
 1038SOL    HW214751   2.208   4.373   3.493 -0.6449 -0.4924 -1.8570
 1039SOL     OW14752   4.656   4.377   6.240 -0.2681 -0.0165  0.4289
 1039SOL    HW114753   4.580   4.324   6.214  0.0312 -0.3105  0.1522
 1039SOL    HW214754   4.617   4.449   6.289 -1.7822 -0.1976 -0.4997
 1040SOL     OW14755   1.574   1.234  11.738  0.0586 -0.2077 -0.0647
 1040SOL    HW114756   1.560   1.146  11.704  0.0693 -0.1022 -0.3429
 1040SOL    HW214757   1.664   1.250  11.711  0.2657  1.4374  1.5571
 1041SOL     OW14758   1.334   2.440   5.918  0.0616 -0.1803 -0.2491
 1041SOL    HW114759   1.369   2.370   5.864  1.0845  0.2928 -0.2183
 1041SOL    HW214760   1.265   2.394   5.965  0.2780  0.9318  1.1852
 1042SOL     OW14761   1.884   2.065   5.705 -0.7544  0.4060 -0.2199
 1042SOL    HW114762   1.879   2.089   5.613 -2.8599  2.5011  0.4167
 1042SOL    HW214763   1.978   2.059   5.720 -0.8711  0.6074  0.5993
 1043SOL     OW14764   1.189   2.061   3.044  0.5269  0.2534  0.4363
 1043SOL    HW114765   1.247   2.134   3.021  0.4706  0.1858  0.0777
 1043SOL    HW214766   1.103   2.103   3.035 -0.0643 -0.6774  1.7091
 1044SOL     OW14767   4.213   2.018   6.983  0.7846 -0.1662  0.8117
 1044SOL    HW114768   4.276   2.005   7.054  0.2761 -0.4490  1.2175
 1044SOL    HW214769   4.162   1.937   6.989  0.0699  0.3408  1.7038
 1045SOL     OW14770   3.287   2.378   4.284  0.4710 -0.4696 -0.4247
 1045SOL    HW114771   3.336   2.460   4.284  2.6157 -1.7408 -0.1750
 1045SOL    HW214772   3.338   2.331   4.217 -0.0059 -0.9087 -0.4742
 1046SOL     OW14773   2.087   3.207   3.582 -0.6544  0.3332  0.4724
 1046SOL    HW114774   2.131   3.159   3.652  3.2918  1.1186 -1.4894
 1046SOL    HW214775   2.007   3.156   3.568 -1.6479  1.3162  2.4856
 1047SOL     OW14776   1.120   1.911   1.821 -0.2083  0.0437 -0.7236
 1047SOL    HW114777   1.035   1.935   1.858 -0.2705 -1.1420 -0.0660
 1047SOL    HW214778   1.152   1.842   1.880  0.0825 -1.7088 -2.9087
 1048SOL     OW14779   0.422   2.989   3.666 -0.6918  0.3563 -0.6501
 1048SOL    HW114780   0.409   2.968   3.758  0.2629  3.0659  0.1103
 1048SOL    HW214781   0.460   3.077   3.666 -1.8565  0.8583  0.5928
 1049SOL     OW14782   0.508   3.323  13.730 -0.1888 -0.2866  0.3114
 1049SOL    HW114783   0.557   3.273  13.665 -0.6574 -0.6977  0.2735
 1049SOL    HW214784   0.464   3.248  13.770 -1.2340 -0.3621 -0.9637
 1050SOL     OW14785   4.406   3.002   8.688 -0.1513  0.1002  0.0992
 1050SOL    HW114786   4.473   3.004   8.619 -2.3510 -0.2875 -2.0486
 1050SOL    HW214787   4.413   2.913   8.722  2.1285 -0.2344 -1.2084
 1051SOL     OW14788   1.149   0.044  13.209 -0.3670  0.4262  0.2822
 1051SOL    HW114789   1.136   4.694  13.245 -1.5106  0.6066  0.3181
 1051SOL    HW214790   1.066   0.086  13.233 -0.2164  1.0375 -0.2642
 1052SOL     OW14791   0.531   3.509   8.328 -0.0505 -0.3937  0.2392
 1052SOL    HW114792   0.479   3.578   8.285  2.3961  1.6681  0.5747
 1052SOL    HW214793   0.615   3.553   8.313  0.7551 -1.9525  0.2274
 1053SOL     OW14794   1.546   1.501   5.178  0.7512  0.1934 -0.4129
 1053SOL    HW114795   1.601   1.559   5.229  1.3093 -0.5794 -0.1335
 1053SOL    HW214796   1.471   1.486   5.236  1.7069 -0.1595  0.7402
 1054SOL     OW14797   3.380   1.806   6.810  0.6881 -0.2016  0.0300
 1054SOL    HW114798   3.345   1.723   6.842 -1.3457  0.5333 -0.2993
 1054SOL    HW214799   3.371   1.788   6.716 -0.3650 -0.5906  0.2163
 1055SOL     OW14800   0.580   2.226   7.681  0.0480  0.1293 -0.0017
 1055SOL    HW114801   0.598   2.145   7.728  1.6269 -0.8581 -2.3383
 1055SOL    HW214802   0.489   2.232   7.709  0.3482 -2.5776  1.5376
 1056SOL     OW14803   2.534   1.243  17.240 -0.3890  0.0786 -0.5839
 1056SOL    HW114804   2.572   1.271  17.324 -1.0469 -0.6052 -0.0588
 1056SOL    HW214805   2.463   1.307  17.238  1.4132  2.1251  0.5803
 1057SOL     OW14806   0.688   3.486  10.060  0.9757  0.4732  0.3610
 1057SOL    HW114807   0.724   3.572  10.081 -0.2752  0.8519  0.8869
 1057SOL    HW214808   0.702   3.422  10.131 -1.2071  1.3675  1.5715
 1058SOL     OW14809   1.380   1.753   4.728  0.4048 -0.6191  0.5322
 1058SOL    HW114810   1.314   1.819   4.751  1.9370  0.9150  0.5532
 1058SOL    HW214811   1.362   1.679   4.786  1.6404  0.1457  1.8903
 1059SOL     OW14812   3.297   2.601   9.575 -0.0401  0.2217 -0.1231
 1059SOL    HW114813   3.378   2.567   9.614  0.6744  0.5200 -1.3248
 1059SOL    HW214814   3.302   2.587   9.480  1.0958 -0.7654  0.0793
 1060SOL     OW14815   4.429   4.115   7.101  0.4680  0.2163 -0.1081
 1060SOL    HW114816   4.426   4.060   7.023 -2.6305  1.5292 -0.8869
 1060SOL    HW214817   4.345   4.092   7.140  0.8919 -0.6387  0.3063
 1061SOL     OW14818   3.207   4.685   4.638  0.2608 -1.0187  0.2299
 1061SOL    HW114819   3.235   4.704   4.728  0.3322  0.5575 -0.1156
 1061SOL    HW214820   3.269   4.734   4.584  1.7035 -2.1547  0.8457
 1062SOL     OW14821   0.076   3.045   5.496 -0.6340 -0.4858  0.3484
 1062SOL    HW114822   0.012   3.102   5.454  1.1587  1.3227  0.0657
 1062SOL    HW214823   0.062   2.966   5.444  1.9759 -0.2099 -0.7526
 1063SOL     OW14824   3.401   3.543   2.524 -0.0767 -0.4248  0.3994
 1063SOL    HW114825   3.402   3.621   2.579  0.0683 -0.9114  1.0926
 1063SOL    HW214826   3.351   3.574   2.448  0.5317  1.6107  0.8373
 1064SOL     OW14827   2.219   0.830   2.042  0.3658  0.3521 -0.0446
 1064SOL    HW114828   2.198   0.756   2.099 -0.3653  0.0392 -0.7191
 1064SOL    HW214829   2.279   0.780   1.987 -0.0708 -0.1196 -0.1002
 1065SOL     OW14830   2.501   1.739   4.332 -0.4051 -0.1805  0.4980
 1065SOL    HW114831   2.556   1.667   4.303  0.0629 -0.3703  1.8914
 1065SOL    HW214832   2.440   1.689   4.384 -0.9405  0.4044  0.4333
 1066SOL     OW14833   4.297   0.014  16.975  0.4047  0.3915 -0.4966
 1066SOL    HW114834   4.368   4.710  16.926  0.7770  1.2735 -0.7156
 1066SOL    HW214835   4.222   0.015  16.916 -0.0416  0.2483  0.0696
 1067SOL     OW14836   1.412   3.134  12.707 -0.3616  0.1375  0.1135
 1067SOL    HW114837   1.324   3.103  12.728 -0.4006  0.3237  0.2224
 1067SOL    HW214838   1.438   3.078  12.634  1.1442 -0.0900  0.8438
 1068SOL     OW14839   0.900   4.289   2.534  0.0074  0.3329  0.0553
 1068SOL    HW114840   0.847   4.368   2.546 -0.6462  0.3464 -2.7433
 1068SOL    HW214841   0.930   4.287   2.625  0.5093 -0.5306 -0.1320
 1069SOL     OW14842   2.465   1.365   9.016  0.3527 -0.0596  0.5152
 1069SOL    HW114843   2.459   1.358   9.111  0.3283 -0.6480  0.4682
 1069SOL    HW214844   2.553   1.398   8.996 -0.1361  1.6142  1.1276
 1070SOL     OW14845   3.445   4.228  16.474 -0.0341  0.0766 -0.6470
 1070SOL    HW114846   3.502   4.201  16.545 -0.2683 -1.0114 -0.8831
 1070SOL    HW214847   3.508   4.237  16.403  1.1860 -1.0888  0.2909
 1071SOL     OW14848   3.877   0.506  17.471 -0.5789 -0.2253 -0.6620
 1071SOL    HW114849   3.824   0.464  17.404  0.1067 -1.9577 -0.1167
 1071SOL    HW214850   3.956   0.504  17.416  1.0722  0.3854  1.6773
 1072SOL     OW14851   3.363   2.046   3.001 -0.2266  0.4842  0.1800
 1072SOL    HW114852   3.319   2.087   2.927 -0.8128  0.5728  0.5816
 1072SOL    HW214853   3.362   2.112   3.070  2.2197 -0.3332  0.9865
 1073SOL     OW14854   2.386   0.678   7.881 -0.1909  0.1752  0.2025
 1073SOL    HW114855   2.428   0.594   7.896  0.7727  1.2994  4.0309
 1073SOL    HW214856   2.460   0.739   7.877  1.5044 -2.0245 -1.7814
 1074SOL     OW14857   3.734   4.650   7.987  0.4707 -0.4900  0.0306
 1074SOL    HW114858   3.757   0.004   7.974  0.6766 -0.3386  1.5147
 1074SOL    HW214859   3.656   4.639   7.933  0.7054  0.3929 -0.4816
 1075SOL     OW14860   2.711   0.648   4.368  0.1773  0.4059  0.1988
 1075SOL    HW114861   2.794   0.643   4.321  0.4657 -3.4249  1.1293
 1075SOL    HW214862   2.743   0.635   4.457  1.2215 -1.6389 -0.4777
 1076SOL     OW14863   1.064   1.267   0.054  0.0281  0.1832  0.0621
 1076SOL    HW114864   0.994   1.332   0.052  1.0550  1.4067  5.1477
 1076SOL    HW214865   1.092   1.254  17.713 -0.6068 -0.0577 -0.1042
 1077SOL     OW14866   3.226   1.844   8.784 -0.2322  0.1466  0.1378
 1077SOL    HW114867   3.231   1.759   8.739  0.0366 -0.9723  2.2712
 1077SOL    HW214868   3.151   1.885   8.742 -0.4454  0.2844  0.6680
 1078SOL     OW14869   1.488   2.360   5.379  0.3421  0.9145  0.1055
 1078SOL    HW114870   1.578   2.390   5.390 -0.0175  1.1265  2.4780
 1078SOL    HW214871   1.495   2.267   5.358 -0.0483  1.2567 -1.5258
 1079SOL     OW14872   4.145   1.291   9.060 -0.5553 -0.9067 -0.5503
 1079SOL    HW114873   4.201   1.304   9.136  1.3571 -2.5132 -1.6691
 1079SOL    HW214874   4.065   1.258   9.099  1.0918  0.9326  4.3227
 1080SOL     OW14875   3.527   3.731   7.685  0.3619 -0.4429  0.2514
 1080SOL    HW114876   3.601   3.705   7.739  0.4116  1.9995  1.3477
 1080SOL    HW214877   3.547   3.689   7.602 -1.1206 -4.3933  1.8959
 1081SOL     OW14878   0.920   2.829   7.724  0.3708 -0.2305 -0.6627
 1081SOL    HW114879   0.944   2.737   7.734  2.0268  0.2529 -0.1602
 1081SOL    HW214880   0.923   2.859   7.815 -1.3021 -1.9342 -0.0384
 1082SOL     OW14881   4.584   2.442   7.995  0.2233 -0.6052  0.2170
 1082SOL    HW114882   4.643   2.414   7.925  1.0730 -2.7717  1.7649
 1082SOL    HW214883   4.506   2.470   7.948  1.4381  2.2167 -0.1085
 1083SOL     OW14884   1.634   3.827   8.737 -0.0156  0.8591 -0.0333
 1083SOL    HW114885   1.542   3.802   8.732  0.3221 -0.1332 -1.3878
 1083SOL    HW214886   1.671   3.747   8.775 -1.6546 -0.3594 -1.0254
 1084SOL     OW14887   3.550   0.460   6.825 -0.5579 -0.3297  0.0531
 1084SOL    HW114888   3.599   0.541   6.807 -2.8106  0.8047 -0.9774
 1084SOL    HW214889   3.591   0.433   6.907 -1.0189 -1.6329 -0.1434
 1085SOL     OW14890   0.672   3.591   7.723  0.2770 -0.1088 -0.4370
 1085SOL    HW114891   0.699   3.642   7.646  0.2077 -1.6381 -1.4733
 1085SOL    HW214892   0.756   3.549   7.738  1.0519  0.8743 -1.9905
 1086SOL     OW14893   4.306   3.001  12.479 -0.3363  0.3297  0.1460
 1086SOL    HW114894   4.213   2.983  12.492 -0.3277 -0.0335 -0.2816
 1086SOL    HW214895   4.292   3.051  12.399 -1.1135  0.3171  0.2696
 1087SOL     OW14896   0.437   0.828   2.933  0.3409  0.0939  0.3119
 1087SOL    HW114897   0.474   0.879   2.861 -1.7128  2.1211  0.6783
 1087SOL    HW214898   0.411   0.896   2.995 -0.8550 -0.4630  0.4163
 1088SOL     OW14899   1.619   3.424   4.411  0.2684 -0.7400 -0.2059
 1088SOL    HW114900   1.603   3.400   4.319  0.2975  2.6908 -1.1299
 1088SOL    HW214901   1.655   3.513   4.408  1.6951 -1.4087 -3.1302
 1089SOL     OW14902   2.751   0.532  12.754  0.2682 -0.1559 -0.0432
 1089SOL    HW114903   2.837   0.546  12.714  0.3163  3.1072  1.1643
 1089SOL    HW214904   2.788   0.521  12.841  0.4111  1.9483  0.1616
 1090SOL     OW14905   0.212   2.537   4.363 -0.3844  0.3959  0.3679
 1090SOL    HW114906   0.168   2.475   4.421  0.3109 -0.3831  0.0504
 1090SOL    HW214907   0.151   2.542   4.289  0.8099  2.1644 -0.5005
 1091SOL     OW14908   3.842   0.052   2.492 -0.1613 -0.3361 -0.6015
 1091SOL    HW114909   3.754   0.016   2.479 -0.0516 -0.6219 -0.5521
 1091SOL    HW214910   3.897   4.730   2.442  0.8382  1.9682 -2.2409
 1092SOL     OW14911   3.170   1.542  11.551 -0.9499  0.2669  0.6040
 1092SOL    HW114912   3.243   1.596  11.520 -0.5143 -1.0353 -0.6417
 1092SOL    HW214913   3.187   1.548  11.645  0.2211 -1.6083  0.5176
 1093SOL     OW14914   4.056   4.266   6.174 -0.1845  0.3839  0.3510
 1093SOL    HW114915   3.978   4.211   6.169 -0.8344  1.2564  0.7374
 1093SOL    HW214916   4.120   4.204   6.208 -0.5093  0.2273  0.6855
 1094SOL     OW14917   3.009   0.667  14.893 -0.6395  0.1390  0.0695
 1094SOL    HW114918   2.966   0.751  14.908 -0.4517  0.0883  0.8943
 1094SOL    HW214919   3.025   0.635  14.982  3.1849 -2.4546 -1.5188
 1095SOL     OW14920   1.427   2.073   6.211 -0.0356  0.0321 -0.0605
 1095SOL    HW114921   1.490   2.003   6.232  0.8181  1.1402  1.1262
 1095SOL    HW214922   1.460   2.117   6.132  0.3103 -0.9457 -0.4592
 1096SOL     OW14923   1.105   0.663   5.424  0.4231  0.4691  0.1117
 1096SOL    HW114924   1.015   0.642   5.449  0.6878 -2.2682 -1.1875
 1096SOL    HW214925   1.110   0.752   5.460  0.9450 -0.5690  2.6445
 1097SOL     OW14926   3.303   4.318   1.166  0.1725  0.4512 -0.0074
 1097SOL    HW114927   3.250   4.270   1.102 -1.6467 -1.1338  2.7402
 1097SOL    HW214928   3.392   4.311   1.130 -0.5838 -2.8745 -1.1931
 1098SOL     OW14929   1.686   0.096   2.371  0.1810 -0.5481  0.1637
 1098SOL    HW114930   1.676   0.187   2.341 -1.4886 -0.5746  0.6116
 1098SOL    HW214931   1.602   0.066   2.338  0.2849 -0.3511 -0.2866
 1099SOL     OW14932   4.100   3.569  14.425  0.0206  0.4735 -0.0477
 1099SOL    HW114933   4.117   3.661  14.409  0.6679  0.1742 -1.1102
 1099SOL    HW214934   4.029   3.574  14.488  0.2538 -3.7889  0.5722
 1100SOL     OW14935   1.531   3.867   9.304 -0.4043  0.3157  0.0948
 1100SOL    HW114936   1.615   3.874   9.350 -0.1992  0.5516 -0.3108
 1100SOL    HW214937   1.509   3.961   9.309 -1.4661  0.0931 -0.3208
 1101SOL     OW14938   2.222   3.632   2.791  0.0032  0.5215 -0.3647
 1101SOL    HW114939   2.152   3.637   2.856 -0.1418  1.0529 -0.5613
 1101SOL    HW214940   2.294   3.679   2.833  0.5613  0.4791 -1.2632
 1102SOL     OW14941   3.411   2.939  12.801 -0.1333 -0.4110 -0.0069
 1102SOL    HW114942   3.462   2.971  12.727  3.4874 -0.1152  2.5588
 1102SOL    HW214943   3.468   2.971  12.872  0.1820 -0.1710 -0.3699
 1103SOL     OW14944   1.476   1.406   1.997 -0.0823  0.4264 -0.6494
 1103SOL    HW114945   1.481   1.311   1.986 -0.5938  0.3535 -0.2464
 1103SOL    HW214946   1.471   1.403   2.092 -0.3251 -0.9005 -0.7004
 1104SOL     OW14947   1.502   0.216   7.727  0.2705  0.1469 -0.1234
 1104SOL    HW114948   1.590   0.178   7.722  0.5874  1.0004 -1.1187
 1104SOL    HW214949   1.506   0.275   7.651  0.2341  1.6208  1.0176
 1105SOL     OW14950   4.354   1.426   0.546 -0.4650 -0.2020  0.0628
 1105SOL    HW114951   4.409   1.502   0.525 -0.2748 -0.9574 -2.1067
 1105SOL    HW214952   4.359   1.431   0.642  1.1791  1.1345 -0.0872
 1106SOL     OW14953   4.053   1.867   7.735  0.3531 -0.2948  0.0517
 1106SOL    HW114954   3.998   1.919   7.677  1.4557  0.7773 -0.0437
 1106SOL    HW214955   4.106   1.927   7.787 -1.6170  1.3689  0.1309
 1107SOL     OW14956   2.067   2.302  16.651 -0.5680  0.4162  1.0892
 1107SOL    HW114957   2.127   2.281  16.723 -1.0829 -1.2331  1.0466
 1107SOL    HW214958   2.063   2.396  16.663 -0.9896  0.4410  0.7685
 1108SOL     OW14959   4.471   0.089   6.900  0.0013 -0.4870 -0.2557
 1108SOL    HW114960   4.542   0.026   6.885  1.0327  0.7028 -0.4044
 1108SOL    HW214961   4.398   0.030   6.918 -0.1894  0.0163  0.6208
 1109SOL     OW14962   2.673   2.884  17.550 -0.0191 -0.4254  0.1174
 1109SOL    HW114963   2.643   2.797  17.525  3.0865 -1.8942  1.5031
 1109SOL    HW214964   2.589   2.925  17.573  0.4134 -0.7992  2.3985
 1110SOL     OW14965   4.160   1.852   0.648  0.4682  0.0757  0.3833
 1110SOL    HW114966   4.091   1.912   0.677 -1.4581 -1.2909 -1.3856
 1110SOL    HW214967   4.193   1.883   0.564  0.7965  0.9964  0.8495
 1111SOL     OW14968   2.950   2.538   7.565  0.3814  0.0933 -0.2442
 1111SOL    HW114969   2.935   2.625   7.526 -1.0235 -0.1147 -0.1641
 1111SOL    HW214970   2.869   2.487   7.562  0.2363  0.1932  2.3382
 1112SOL     OW14971   4.163   1.174   3.802 -0.1309 -0.1273  0.4806
 1112SOL    HW114972   4.197   1.191   3.890 -0.9412  1.3025  0.5131
 1112SOL    HW214973   4.068   1.167   3.816 -0.1569 -1.0289 -0.0862
 1113SOL     OW14974   1.939   3.613   9.652 -0.2751  0.1953 -0.4264
 1113SOL    HW114975   1.897   3.610   9.738  2.5045 -0.2317  0.8985
 1113SOL    HW214976   1.998   3.688   9.652  0.1559 -0.1457 -0.5796
 1114SOL     OW14977   4.261   4.101  12.021 -0.3480  0.2454 -0.4627
 1114SOL    HW114978   4.195   4.033  12.026  0.2604 -0.3603 -0.7389
 1114SOL    HW214979   4.338   4.045  12.011 -1.1073 -0.7547 -0.6907
 1115SOL     OW14980   2.568   0.200   9.394 -0.0375 -0.1525 -0.1182
 1115SOL    HW114981   2.630   0.130   9.415 -0.2553 -0.4002 -0.2837
 1115SOL    HW214982   2.609   0.253   9.326  2.1154 -0.7217  0.7455
 1116SOL     OW14983   0.155   1.669  14.052 -0.5397 -0.5814  0.0065
 1116SOL    HW114984   0.169   1.577  14.032 -1.4003 -0.4829 -1.0489
 1116SOL    HW214985   0.199   1.709  13.976  2.5235 -0.7558  1.6632
 1117SOL     OW14986   0.750   4.343   5.636 -0.4540 -0.1806 -0.1702
 1117SOL    HW114987   0.824   4.293   5.601 -0.7711 -1.5827  1.1620
 1117SOL    HW214988   0.679   4.281   5.619  2.0629 -2.7980 -1.2330
 1118SOL     OW14989   4.215   0.366  17.740 -0.3810 -0.0054  0.2865
 1118SOL    HW114990   4.156   0.303  17.699  0.6328 -1.4891  1.0789
 1118SOL    HW214991   4.294   0.334  17.696  1.2298  0.5413  2.7461
 1119SOL     OW14992   1.867   1.451   9.531  0.3870 -0.1023 -0.1720
 1119SOL    HW114993   1.888   1.525   9.588 -0.8569  1.4728 -1.7988
 1119SOL    HW214994   1.824   1.392   9.593  2.4844 -2.4729 -0.9674
 1120SOL     OW14995   0.231   3.273   3.600 -0.4318 -0.1269  0.6559
 1120SOL    HW114996   0.268   3.245   3.516  0.4537 -0.0742  1.0320
 1120SOL    HW214997   0.145   3.307   3.575 -0.0468  0.3546 -0.0081
 1121SOL     OW14998   3.871   4.257   5.710 -0.4476  0.9567  0.4847
 1121SOL    HW114999   3.786   4.281   5.749 -0.5756  0.5931  0.4289
 1121SOL    HW215000   3.836   4.191   5.649 -1.4758  1.9590 -0.0235
 1122SOL     OW15001   0.760   2.918   8.522 -0.1928  0.0768 -0.6564
 1122SOL    HW115002   0.684   2.862   8.510  0.7557 -1.3284 -0.0474
 1122SOL    HW215003   0.727   3.000   8.559 -1.0710 -0.5309 -0.0993
 1123SOL     OW15004   3.520   4.734   1.319 -0.0487  0.6625 -0.2167
 1123SOL    HW115005   3.453   4.665   1.324  0.9454 -0.2390  0.7458
 1123SOL    HW215006   3.503   0.045   1.400  0.2611 -1.7037  1.3004
 1124SOL     OW15007   1.241   1.268   5.952  0.5789  0.0149  0.6295
 1124SOL    HW115008   1.193   1.342   5.913  0.9563 -0.3682 -0.5579
 1124SOL    HW215009   1.317   1.316   5.985  1.3978 -1.5461  0.9525
 1125SOL     OW15010   3.616   2.318   1.408 -0.8568  0.4466 -0.6966
 1125SOL    HW115011   3.547   2.261   1.373  2.1758 -2.2380 -2.2517
 1125SOL    HW215012   3.692   2.261   1.412  0.1049  1.6129 -2.6357
 1126SOL     OW15013   3.490   0.950   6.950  0.7323 -0.2292  0.1255
 1126SOL    HW115014   3.512   0.949   7.043  0.7087  0.3573  0.1328
 1126SOL    HW215015   3.505   1.042   6.928  1.2566 -0.2300  0.4845
 1127SOL     OW15016   4.002   0.916  14.445 -0.0778  0.4640 -0.0135
 1127SOL    HW115017   3.967   0.897  14.532 -2.2261  0.7680 -0.8223
 1127SOL    HW215018   3.928   0.931  14.386  2.2362  1.6288 -2.6346
 1128SOL     OW15019   0.690   0.436   6.943  0.6727  0.3861 -0.0387
 1128SOL    HW115020   0.737   0.445   6.860 -0.9021  0.0576 -0.9597
 1128SOL    HW215021   0.614   0.492   6.928  0.5950  0.2665 -0.0850
 1129SOL     OW15022   3.555   0.600   8.164 -0.4615 -0.8298 -0.7430
 1129SOL    HW115023   3.577   0.693   8.156  0.2518 -0.9287 -0.0865
 1129SOL    HW215024   3.460   0.600   8.159 -0.4340 -1.0329 -1.2105
 1130SOL     OW15025   4.582   3.138  13.176 -0.0963  1.1840 -0.0451
 1130SOL    HW115026   4.560   3.083  13.100 -0.6607 -0.2308  1.1428
 1130SOL    HW215027   4.498   3.184  13.173 -0.9278 -0.2930  0.6739
 1131SOL     OW15028   3.314   0.199  15.849  0.1477  0.0104 -0.3832
 1131SOL    HW115029   3.301   0.284  15.807  0.5136  0.9749  1.4559
 1131SOL    HW215030   3.226   0.177  15.880 -0.4357  2.4915 -0.2405
 1132SOL     OW15031   0.683   4.639   1.785  0.2714 -0.2874 -0.6784
 1132SOL    HW115032   0.700   4.721   1.738 -5.6082  1.7709  0.7941
 1132SOL    HW215033   0.761   4.631   1.840 -0.8283 -1.9483  0.6401
 1133SOL     OW15034   3.020   0.601   1.124  0.0922 -0.5084  0.1420
 1133SOL    HW115035   3.048   0.692   1.115  0.5561 -0.2788  4.0437
 1133SOL    HW215036   2.995   0.601   1.216  2.1833  0.0459  0.7106
 1134SOL     OW15037   2.570   1.405   1.069 -0.0614  0.0873  0.0279
 1134SOL    HW115038   2.627   1.477   1.097 -0.2626  0.1976  0.1483
 1134SOL    HW215039   2.639   1.339   1.072  2.1350  2.3431 -0.3158
 1135SOL     OW15040   4.453   2.978   2.947 -0.1443  0.2727 -0.1681
 1135SOL    HW115041   4.472   2.976   2.853  1.2312  2.2089  0.0642
 1135SOL    HW215042   4.374   2.927   2.959 -0.5293  1.2649  1.4699
 1136SOL     OW15043   1.825   0.421   4.341  0.3213  0.2267 -0.1598
 1136SOL    HW115044   1.901   0.473   4.367  0.6341  0.2603 -1.1756
 1136SOL    HW215045   1.866   0.337   4.320  0.9391  0.6461 -0.6198
 1137SOL     OW15046   3.834   4.569   4.790 -0.2585 -0.1997 -0.0881
 1137SOL    HW115047   3.841   4.610   4.876 -0.7580 -0.1708 -0.0587
 1137SOL    HW215048   3.906   4.507   4.800 -0.5557 -0.5069  0.1425
 1138SOL     OW15049   2.614   0.380  13.675  0.2813 -0.0094  0.2280
 1138SOL    HW115050   2.704   0.373  13.706 -0.2809 -1.8322  1.4946
 1138SOL    HW215051   2.585   0.467  13.702 -0.4906 -0.4529  0.8217
 1139SOL     OW15052   2.331   1.907   2.496  0.2628 -0.0177 -0.2259
 1139SOL    HW115053   2.271   1.905   2.421 -0.1709  2.5172  0.0523
 1139SOL    HW215054   2.306   1.819   2.524 -1.6165  0.9152  1.0435
 1140SOL     OW15055   4.390   2.691   6.575  0.0601 -0.3339 -0.1007
 1140SOL    HW115056   4.462   2.754   6.582  0.0491  0.1017 -3.5851
 1140SOL    HW215057   4.382   2.678   6.480 -3.5813 -1.0100  0.3356
 1141SOL     OW15058   2.249   1.410   4.301  0.1280 -0.1920 -0.0793
 1141SOL    HW115059   2.258   1.466   4.378 -0.1299 -0.0921 -0.1219
 1141SOL    HW215060   2.260   1.329   4.351  2.2580  0.1125 -0.0331
 1142SOL     OW15061   0.441   3.269  16.046  0.1228 -0.1365  0.2439
 1142SOL    HW115062   0.453   3.309  16.132  2.1960 -3.8222  1.6486
 1142SOL    HW215063   0.486   3.329  15.987 -3.0267  0.7890 -1.2068
 1143SOL     OW15064   3.595   4.627   2.633 -0.7211 -0.1707  0.0229
 1143SOL    HW115065   3.589   4.552   2.573  2.3032 -1.7102  1.6878
 1143SOL    HW215066   3.632   4.600   2.717  2.5151  4.0861 -0.0277
 1144SOL     OW15067   2.420   1.651   8.801 -0.1577  0.1334 -0.2797
 1144SOL    HW115068   2.478   1.578   8.778  0.2045  0.3687 -0.1104
 1144SOL    HW215069   2.448   1.660   8.893  0.6812  0.3127 -0.5552
 1145SOL     OW15070   0.993   3.761   7.972 -0.5255  0.1191  0.3817
 1145SOL    HW115071   1.033   3.703   7.907 -0.3719 -0.0894  0.6681
 1145SOL    HW215072   0.947   3.818   7.909 -2.5107 -1.6440  0.2324
 1146SOL     OW15073   0.520   2.678   8.747 -0.0376  0.7204 -0.4746
 1146SOL    HW115074   0.611   2.648   8.755  0.6755  3.3693  1.5530
 1146SOL    HW215075   0.528   2.748   8.682  0.1284 -0.8814 -2.1444
 1147SOL     OW15076   2.133   1.690   1.928  0.3578  0.8861  0.1972
 1147SOL    HW115077   2.106   1.603   1.957  0.0391  1.0694  0.4568
 1147SOL    HW215078   2.223   1.671   1.901 -0.1408 -1.2122  0.0463
 1148SOL     OW15079   0.914   3.587  13.409 -0.2039  0.1812 -0.1749
 1148SOL    HW115080   0.870   3.599  13.493  1.6891  0.2744  0.8085
 1148SOL    HW215081   0.858   3.644  13.357  0.9033  0.8914 -0.5916
 1149SOL     OW15082   2.204   3.152  13.965 -0.3193 -0.0655 -0.6350
 1149SOL    HW115083   2.212   3.161  14.060 -1.1471 -0.5579 -0.5266
 1149SOL    HW215084   2.259   3.074  13.957 -0.5854 -0.3546  0.3346
 1150SOL     OW15085   3.017   3.090   6.462  0.3180  0.3018  0.0853
 1150SOL    HW115086   2.963   3.129   6.530 -0.6182  2.1338 -1.7187
 1150SOL    HW215087   3.096   3.069   6.511 -0.4125 -0.9122  0.7536
 1151SOL     OW15088   4.678   2.655   3.501 -0.5172  0.2244  0.5375
 1151SOL    HW115089   4.609   2.589   3.501  0.6301 -0.9813  0.3787
 1151SOL    HW215090   0.001   2.613   3.440 -0.4448  1.2805 -0.1196
 1152SOL     OW15091   0.458   3.242   5.363 -0.1761 -0.1730  0.3294
 1152SOL    HW115092   0.552   3.243   5.343 -0.3624  0.3134 -0.5118
 1152SOL    HW215093   0.466   3.304   5.436 -0.8354 -1.5946  1.6188
 1153SOL     OW15094   2.350   4.662   4.212  0.0897  0.5314  0.0865
 1153SOL    HW115095   2.260   4.649   4.243  0.2605  2.1260  1.2402
 1153SOL    HW215096   2.382   4.729   4.272  1.1285 -0.9068  1.1581
 1154SOL     OW15097   4.185   4.416   9.585 -0.5791 -0.6401 -0.2493
 1154SOL    HW115098   4.145   4.447   9.666 -2.2165  1.2514 -1.8016
 1154SOL    HW215099   4.128   4.454   9.519  0.9018  0.2516 -1.0044
 1155SOL     OW15100   2.590   2.216   6.235 -0.2876  0.1757 -0.6985
 1155SOL    HW115101   2.525   2.193   6.168  0.7307  0.8672 -1.9055
 1155SOL    HW215102   2.594   2.137   6.290 -0.5371  1.3642  1.0316
 1156SOL     OW15103   2.390   2.572   2.414  0.0440  0.2322  0.6225
 1156SOL    HW115104   2.330   2.539   2.480  0.0491  4.0452  2.5350
 1156SOL    HW215105   2.465   2.514   2.432 -3.0786 -4.1230 -0.3577
 1157SOL     OW15106   1.842   0.486   2.193 -0.6132 -0.0866  0.2853
 1157SOL    HW115107   1.829   0.488   2.098  0.5702 -1.0541  0.1146
 1157SOL    HW215108   1.843   0.581   2.208 -1.9209  0.3849 -2.5236
 1158SOL     OW15109   4.548   2.889   3.475  0.3280  0.3807  0.8554
 1158SOL    HW115110   4.547   2.894   3.379 -1.4213 -0.1596  0.8481
 1158SOL    HW215111   4.593   2.804   3.482 -1.4276 -0.5964  0.2298
 1159SOL     OW15112   1.662   2.020   9.114  0.6354 -0.2782 -0.5018
 1159SOL    HW115113   1.658   2.030   9.019 -1.2557  1.4085 -0.2447
 1159SOL    HW215114   1.755   2.039   9.123  0.7613 -1.7763  1.5030
 1160SOL     OW15115   2.396   1.892   3.140  0.0757 -0.1295 -0.1135
 1160SOL    HW115116   2.394   1.904   3.235  0.2473 -0.4449 -0.0723
 1160SOL    HW215117   2.415   1.798   3.138 -1.1276 -0.3932  1.1406
 1161SOL     OW15118   1.683   3.539   7.229  0.1829  0.1039 -0.1700
 1161SOL    HW115119   1.685   3.463   7.172  1.9083 -0.6583  0.8975
 1161SOL    HW215120   1.604   3.514   7.277  0.7646  2.5605  2.0475
 1162SOL     OW15121   2.541   2.468   8.135 -0.4362 -0.4554  0.0841
 1162SOL    HW115122   2.523   2.439   8.225 -0.3781  1.1555  0.6107
 1162SOL    HW215123   2.590   2.550   8.142 -1.3787  0.1926 -1.0061
 1163SOL     OW15124   2.795   0.376   7.545  0.1461 -0.5290 -0.3130
 1163SOL    HW115125   2.807   0.447   7.607 -0.7997  0.4118 -1.2046
 1163SOL    HW215126   2.702   0.355   7.543  0.3983 -1.7567  1.0592
 1164SOL     OW15127   3.524   0.645   0.284 -0.4206  0.1439 -0.1289
 1164SOL    HW115128   3.616   0.667   0.299 -0.2727  0.2270 -1.2122
 1164SOL    HW215129   3.539   0.571   0.225  1.5399 -2.1265  3.2000
 1165SOL     OW15130   1.905   1.995  15.506 -0.2098 -0.2287 -0.3355
 1165SOL    HW115131   1.965   1.920  15.513  1.2656  0.9510 -0.2933
 1165SOL    HW215132   1.916   1.999  15.411 -0.9474 -1.5765 -0.4832
 1166SOL     OW15133   0.376   2.863   1.519 -0.0735 -0.0836 -0.3087
 1166SOL    HW115134   0.355   2.841   1.428 -2.4375  0.1957  0.1462
 1166SOL    HW215135   0.433   2.939   1.507 -0.6064  0.1833 -1.1364
 1167SOL     OW15136   2.513   3.102   7.093 -1.0171  0.3526  0.1010
 1167SOL    HW115137   2.485   3.190   7.069  0.1314  1.0256  1.2305
 1167SOL    HW215138   2.518   3.056   7.009 -0.0166 -0.9471  0.8605
 1168SOL     OW15139   0.097   0.486   2.937 -0.0864  0.0547 -0.3545
 1168SOL    HW115140   0.145   0.564   2.966  1.4906 -1.6635  1.6469
 1168SOL    HW215141   0.169   0.423   2.935  0.5626  0.8323 -1.3203
 1169SOL     OW15142   0.080   1.809   5.299  0.4614  0.0378  0.2185
 1169SOL    HW115143   0.065   1.891   5.253 -0.2152 -0.5640 -0.6295
 1169SOL    HW215144   0.175   1.800   5.288  0.2050 -1.0116 -1.0761
 1170SOL     OW15145   2.194   3.457   3.610  0.2307  0.4142  0.5357
 1170SOL    HW115146   2.134   3.508   3.556  0.8924 -1.4524 -1.9814
 1170SOL    HW215147   2.156   3.369   3.610  0.0103  0.5085  0.3917
 1171SOL     OW15148   3.717   4.057   6.716  0.0225  0.1746 -0.5492
 1171SOL    HW115149   3.699   4.123   6.649 -2.4398  1.1711  1.1310
 1171SOL    HW215150   3.726   3.984   6.655  0.1295 -1.1754  1.0971
 1172SOL     OW15151   2.094   4.685  11.523 -0.3404  0.5887  0.6520
 1172SOL    HW115152   2.015   4.635  11.502  1.0750 -1.6398  0.6665
 1172SOL    HW215153   2.152   4.610  11.536 -0.5584  0.0685 -1.3906
 1173SOL     OW15154   4.024   4.007   8.946  0.5420 -0.4746  0.6707
 1173SOL    HW115155   4.006   3.965   9.030 -0.9011  0.7164  0.9532
 1173SOL    HW215156   3.959   3.968   8.887 -1.1843  1.2768  1.4173
 1174SOL     OW15157   0.398   4.225  11.155  0.0705  0.1671  0.5600
 1174SOL    HW115158   0.380   4.299  11.098 -0.4391 -0.4766 -0.1182
 1174SOL    HW215159   0.414   4.154  11.093 -0.1503  0.2279  0.4343
 1175SOL     OW15160   4.682   4.095   7.600 -0.6395 -0.0941  0.0687
 1175SOL    HW115161   4.606   4.037   7.605 -1.5732  0.9601 -1.6255
 1175SOL    HW215162   0.013   4.029   7.605  0.0314  0.6078  0.0729
 1176SOL     OW15163   0.684   0.380  13.196  0.1218  0.7922 -0.2156
 1176SOL    HW115164   0.679   0.411  13.106 -2.3068 -0.9999 -0.7137
 1176SOL    HW215165   0.657   0.461  13.240 -1.3051  0.2317 -0.0724
 1177SOL     OW15166   1.408   0.399  14.781 -0.2073  0.4117 -0.9387
 1177SOL    HW115167   1.374   0.398  14.871  0.1558  0.7332 -0.7970
 1177SOL    HW215168   1.346   0.338  14.743 -2.0191  2.3306 -1.0702
 1178SOL     OW15169   2.023   3.796   2.467  0.3589 -0.1325  0.4039
 1178SOL    HW115170   1.945   3.838   2.432 -1.5365 -3.7543  0.3279
 1178SOL    HW215171   2.034   3.829   2.556 -3.6250  0.0383  0.7948
 1179SOL     OW15172   0.994   1.745   4.676  0.3115 -0.5224 -0.0358
 1179SOL    HW115173   0.946   1.811   4.726  1.2957  1.3409 -1.5446
 1179SOL    HW215174   0.938   1.678   4.636 -0.6444 -0.3034  0.9263
 1180SOL     OW15175   2.243   1.330   2.844  0.1043  0.3091 -0.1802
 1180SOL    HW115176   2.258   1.291   2.758 -0.4489 -2.7054  1.0923
 1180SOL    HW215177   2.199   1.412   2.823 -0.9996  0.7780  4.0051
 1181SOL     OW15178   4.192   1.953   5.111  0.1529  0.6250  0.1782
 1181SOL    HW115179   4.192   1.864   5.147  0.2707  1.5749  2.5716
 1181SOL    HW215180   4.102   1.974   5.136 -0.2693 -0.5674 -0.3467
 1182SOL     OW15181   1.919   1.316   2.695 -0.0312 -0.3049  0.0954
 1182SOL    HW115182   1.955   1.340   2.780  1.4830 -0.6164 -0.4602
 1182SOL    HW215183   1.970   1.243   2.659 -0.2300 -1.3127  1.8555
 1183SOL     OW15184   3.644   3.480  16.534 -0.1597 -0.3565 -0.4104
 1183SOL    HW115185   3.618   3.430  16.611  2.5831 -0.5713  0.3677
 1183SOL    HW215186   3.693   3.548  16.580 -0.9554  0.6550 -1.0444
 1184SOL     OW15187   4.145   0.992   4.195 -0.4087  0.1336  0.7494
 1184SOL    HW115188   4.158   1.086   4.200  1.4498 -0.0446 -0.7646
 1184SOL    HW215189   4.055   0.986   4.229 -0.2635 -0.0300  1.1086
 1185SOL     OW15190   0.129   2.173   8.030 -0.5510  0.1090  0.4410
 1185SOL    HW115191   0.089   2.096   8.068 -1.1634 -0.2435 -0.8982
 1185SOL    HW215192   0.059   2.191   7.967 -0.4150 -0.3158  0.1736
 1186SOL     OW15193   3.848   3.740   6.297  0.3786  0.2535  0.2222
 1186SOL    HW115194   3.911   3.680   6.257  0.1141  0.9118 -1.1802
 1186SOL    HW215195   3.781   3.746   6.229  0.1596  0.1130  0.4275
 1187SOL     OW15196   3.216   0.984   6.264  0.0374 -0.5985  0.1196
 1187SOL    HW115197   3.161   0.978   6.342  1.2936 -0.3969  1.0241
 1187SOL    HW215198   3.294   1.024   6.303 -2.0753  0.7580  3.0082
 1188SOL     OW15199   1.468   2.203   2.771 -0.0255  0.1723 -0.5971
 1188SOL    HW115200   1.486   2.291   2.739 -1.0712  0.0250 -1.5900
 1188SOL    HW215201   1.477   2.141   2.699 -1.3570 -2.0453  1.1182
 1189SOL     OW15202   1.727   3.306   3.100  0.3765 -0.4225  0.0394
 1189SOL    HW115203   1.769   3.256   3.030  0.4680 -0.9839  0.4980
 1189SOL    HW215204   1.798   3.304   3.164 -0.8077 -0.6612  1.3246
 1190SOL     OW15205   0.236   3.000   6.158 -0.5208  0.2406 -0.5048
 1190SOL    HW115206   0.294   2.991   6.234 -1.5376  0.2582  0.2719
 1190SOL    HW215207   0.192   3.084   6.173  0.2555  0.4924  0.3415
 1191SOL     OW15208   3.000   4.237   6.372  0.0400  0.3352  0.3955
 1191SOL    HW115209   2.994   4.332   6.378  0.9110  0.2387  2.8028
 1191SOL    HW215210   3.079   4.231   6.427  0.3920  2.4804  0.1199
 1192SOL     OW15211   2.041   3.890  10.894  0.2774  0.5897 -0.0782
 1192SOL    HW115212   1.949   3.899  10.869  0.2351 -0.9878 -0.4847
 1192SOL    HW215213   2.049   3.797  10.913  0.8914  0.6096 -0.2237
 1193SOL     OW15214   4.391   0.941   0.467 -0.1738  0.2843  0.2848
 1193SOL    HW115215   4.396   0.983   0.381  0.2927 -1.0847 -0.3484
 1193SOL    HW215216   4.307   0.976   0.496 -0.0948 -1.7635  2.8843
 1194SOL     OW15217   2.601   2.017   4.079  0.4441 -0.2419 -0.1763
 1194SOL    HW115218   2.690   2.001   4.112 -0.1270 -1.7655  0.5916
 1194SOL    HW215219   2.605   2.112   4.067 -0.8997 -0.3455 -1.4112
 1195SOL     OW15220   3.718   3.899   1.825 -0.1841 -0.3019  0.0735
 1195SOL    HW115221   3.735   3.879   1.917  1.2481 -1.1580 -0.3790
 1195SOL    HW215222   3.718   3.993   1.842  1.4234 -0.3210  0.2567
 1196SOL     OW15223   3.441   0.006  13.371 -0.4236  0.1830 -0.2946
 1196SOL    HW115224   3.429   0.095  13.402  3.2151 -0.2423  2.3314
 1196SOL    HW215225   3.499   0.023  13.297  0.4240  0.3488  0.4105
 1197SOL     OW15226   3.355   3.480   9.653 -0.1420  0.5108 -0.1106
 1197SOL    HW115227   3.441   3.466   9.612  0.5792  2.2523  0.7931
 1197SOL    HW215228   3.366   3.448   9.742 -2.2235  2.2543  0.7834
 1198SOL     OW15229   3.502   2.633   8.512  0.0437 -0.0956  0.6094
 1198SOL    HW115230   3.475   2.719   8.544  1.3307  0.9857 -1.2111
 1198SOL    HW215231   3.416   2.593   8.495  0.2684 -1.6149  3.0102
 1199SOL     OW15232   1.154   1.453   7.343  0.0931  0.2620 -0.2458
 1199SOL    HW115233   1.133   1.382   7.403  1.7143 -1.0236 -1.2156
 1199SOL    HW215234   1.168   1.524   7.406  1.2545 -0.2980  0.1269
 1200SOL     OW15235   3.545   2.945  10.896  0.0647  0.2459 -0.3140
 1200SOL    HW115236   3.455   2.925  10.923 -0.1255  1.1485 -0.2948
 1200SOL    HW215237   3.596   2.880  10.945 -0.1127 -0.0108 -0.4730
 1201SOL     OW15238   1.255   1.381   7.759  0.9481  0.1353 -0.0137
 1201SOL    HW115239   1.218   1.296   7.781  0.9880  0.3501  0.8861
 1201SOL    HW215240   1.175   1.429   7.781  1.2362  0.2665  0.7516
 1202SOL     OW15241   2.984   2.680   3.935  0.5525 -0.0133  0.3113
 1202SOL    HW115242   3.027   2.763   3.916  2.5064 -1.2075 -0.5024
 1202SOL    HW215243   2.899   2.706   3.971 -0.2811 -1.3699 -0.6472
 1203SOL     OW15244   2.907   3.824   5.791  0.1896 -0.7966 -0.3993
 1203SOL    HW115245   2.994   3.861   5.807  0.6216 -0.9383 -2.4187
 1203SOL    HW215246   2.897   3.852   5.700 -1.4230  1.2706  0.4032
 1204SOL     OW15247   3.991   4.262   7.732  0.2702 -0.1160 -1.0036
 1204SOL    HW115248   3.924   4.321   7.767  0.2017 -1.1114  0.5482
 1204SOL    HW215249   4.038   4.240   7.812 -0.1496  0.4806 -0.5933
 1205SOL     OW15250   1.430   2.755  14.805 -0.1594 -0.0538  0.9706
 1205SOL    HW115251   1.425   2.719  14.894 -0.5463  0.4245  1.1414
 1205SOL    HW215252   1.509   2.711  14.774 -1.3847 -2.8664  1.7865
 1206SOL     OW15253   4.129   3.832  14.408 -0.1185  0.6740  0.0530
 1206SOL    HW115254   4.151   3.912  14.458  0.7531 -0.7104  1.8942
 1206SOL    HW215255   4.050   3.857  14.361 -1.1737  1.5896  2.2699
 1207SOL     OW15256   2.782   2.613  13.465  0.6410 -0.6564  0.1602
 1207SOL    HW115257   2.702   2.656  13.494  2.2652  1.4253  1.5815
 1207SOL    HW215258   2.834   2.691  13.447  1.5892 -1.3749 -0.2584
 1208SOL     OW15259   4.287   1.274   8.364 -1.0011  0.4274  0.0594
 1208SOL    HW115260   4.269   1.192   8.410 -0.2029  0.7645  0.9853
 1208SOL    HW215261   4.321   1.321   8.441 -1.7086  0.1403  0.5445
 1209SOL     OW15262   1.641   3.564   0.159  0.0916  0.8520 -0.5620
 1209SOL    HW115263   1.692   3.552   0.079 -2.6349  1.6261 -2.3688
 1209SOL    HW215264   1.695   3.513   0.220  2.8943  0.6892 -3.1660
 1210SOL     OW15265   0.581   1.547   8.774 -0.6582 -0.2406 -0.5557
 1210SOL    HW115266   0.608   1.476   8.716 -0.0225 -0.7893  0.4010
 1210SOL    HW215267   0.487   1.531   8.781 -0.7089 -0.8893 -2.8723
 1211SOL     OW15268   1.896   1.624   3.954  0.2242  0.0161  0.5067
 1211SOL    HW115269   1.909   1.530   3.968 -0.3120 -0.2243 -0.5264
 1211SOL    HW215270   1.905   1.623   3.858 -0.3492 -2.2308  0.4661
 1212SOL     OW15271   2.661   1.212   3.048  0.8031 -0.6464 -0.5385
 1212SOL    HW115272   2.632   1.122   3.036  0.1571 -0.5264  0.1863
 1212SOL    HW215273   2.752   1.197   3.075  0.2210  1.9153  2.7254
 1213SOL     OW15274   1.161   1.418   6.741  0.4550 -0.3534 -0.0249
 1213SOL    HW115275   1.234   1.358   6.755  3.3407  3.2358  0.2795
 1213SOL    HW215276   1.083   1.371   6.771 -0.5350  0.8800 -0.6748
 1214SOL     OW15277   1.537   2.941   8.335  0.4647 -0.2371 -0.5983
 1214SOL    HW115278   1.455   2.899   8.310 -0.4503  0.5304  1.1174
 1214SOL    HW215279   1.602   2.877   8.363  1.6077  2.0021  1.8983
 1215SOL     OW15280   2.822   2.406   9.404  0.3008 -0.0467 -0.1525
 1215SOL    HW115281   2.842   2.497   9.427 -1.1038  0.5990 -1.4550
 1215SOL    HW215282   2.781   2.364   9.480  0.1496 -1.7309 -1.1753
 1216SOL     OW15283   1.365   2.434   6.484 -0.0617 -0.3736  0.3302
 1216SOL    HW115284   1.413   2.483   6.550  1.8816 -2.9861  0.8955
 1216SOL    HW215285   1.382   2.494   6.411 -0.5993 -0.2770  0.2896
 1217SOL     OW15286   0.975   1.954   5.279 -0.1695 -0.4553  0.4396
 1217SOL    HW115287   0.943   2.033   5.235 -1.9214 -1.3085  0.1626
 1217SOL    HW215288   0.988   1.986   5.368  3.2991  0.3770 -0.3858
 1218SOL     OW15289   1.879   0.072   4.685 -0.1974  0.0652 -0.4582
 1218SOL    HW115290   1.951   0.135   4.683 -1.8290  1.9249 -0.5507
 1218SOL    HW215291   1.853   0.062   4.593 -0.1991 -1.1011 -0.3307
 1219SOL     OW15292   3.979   1.358   5.285  0.0135  0.0975 -0.0300
 1219SOL    HW115293   3.976   1.421   5.357  0.1019 -0.2806  0.3007
 1219SOL    HW215294   3.975   1.419   5.210 -0.8899  0.9595  0.7168
 1220SOL     OW15295   1.525   2.484   2.645  0.3721  0.0500  0.2416
 1220SOL    HW115296   1.466   2.513   2.714 -0.9477  0.8350 -1.2078
 1220SOL    HW215297   1.469   2.499   2.568 -0.7241 -0.8403  0.8686
 1221SOL     OW15298   4.051   4.165  12.344 -0.2252  0.1260  0.1032
 1221SOL    HW115299   3.992   4.224  12.296 -0.9947 -0.4805  0.2887
 1221SOL    HW215300   4.130   4.219  12.346 -0.2412  0.1492  0.1084
 1222SOL     OW15301   4.725   2.045   3.679 -0.0241 -1.1375  0.5282
 1222SOL    HW115302   0.001   2.139   3.692  0.2504 -0.8573 -1.7224
 1222SOL    HW215303   0.035   2.010   3.754  0.6537 -1.4460 -0.0499
 1223SOL     OW15304   2.072   2.517   2.549  0.2234  0.1182 -0.2149
 1223SOL    HW115305   2.026   2.526   2.466  0.4813 -0.9994 -0.4732
 1223SOL    HW215306   2.042   2.433   2.581 -1.4981  1.3924  1.4635
 1224SOL     OW15307   2.697   0.573  17.675 -0.5512  0.6192  0.0694
 1224SOL    HW115308   2.616   0.541  17.637 -0.1711  2.5039 -2.2968
 1224SOL    HW215309   2.732   0.608  17.593  2.3612  0.3224  1.1713
 1225SOL     OW15310   4.709   3.796  10.956 -0.3427  0.0189 -0.0074
 1225SOL    HW115311   4.721   3.722  10.898 -3.7493 -0.8551  0.3638
 1225SOL    HW215312   4.663   3.743  11.021  0.2649 -0.1363  0.2977
 1226SOL     OW15313   3.273   1.211   0.439 -1.0814 -0.0141 -0.9310
 1226SOL    HW115314   3.191   1.171   0.467  0.1548 -1.3926  0.7628
 1226SOL    HW215315   3.288   1.166   0.356  1.0194 -0.9285 -0.0608
 1227SOL     OW15316   2.769   0.030   0.707 -0.2067 -0.6566 -0.2558
 1227SOL    HW115317   2.801   0.051   0.795  0.4947  0.3296 -0.7526
 1227SOL    HW215318   2.674   0.028   0.720 -0.5867  0.6322 -2.9226
 1228SOL     OW15319   1.482   2.283   6.792  0.5253  0.5208  0.0086
 1228SOL    HW115320   1.564   2.238   6.808  0.3022  0.7837  1.9100
 1228SOL    HW215321   1.418   2.223   6.753  0.5557  0.6236 -0.2002
 1229SOL     OW15322   2.901   1.519   2.340 -0.4192 -0.0733 -0.3878
 1229SOL    HW115323   2.873   1.464   2.413 -0.9324  0.1080 -0.4437
 1229SOL    HW215324   2.858   1.604   2.355  3.2729  1.6134  0.6341
 1230SOL     OW15325   0.005   3.535   3.019  0.0622 -0.1721 -0.2204
 1230SOL    HW115326   4.674   3.553   2.954 -0.7043 -0.0778  0.6239
 1230SOL    HW215327   0.030   3.625   3.040  0.3145 -0.1508 -0.6058
 1231SOL     OW15328   2.236   3.952  13.435  0.1279 -1.0451  0.2719
 1231SOL    HW115329   2.216   3.913  13.350  0.9786 -0.5192 -0.1688
 1231SOL    HW215330   2.324   3.982  13.412 -0.7867  1.2670 -0.2466
 1232SOL     OW15331   4.383   0.394  14.322  0.9538  0.0973  0.0049
 1232SOL    HW115332   4.331   0.370  14.246  1.6778  2.0133 -1.0825
 1232SOL    HW215333   4.461   0.436  14.285 -0.8011  1.1886 -2.3790
 1233SOL     OW15334   2.483   0.653   4.103  0.4303  0.5298  0.2686
 1233SOL    HW115335   2.433   0.596   4.162  2.1673 -3.2627 -1.9702
 1233SOL    HW215336   2.530   0.590   4.049 -0.4457 -0.5563  0.7622
 1234SOL     OW15337   1.391   1.403  11.573  0.0682  0.7646  0.0104
 1234SOL    HW115338   1.433   1.409  11.659 -3.6098 -3.3117  2.1168
 1234SOL    HW215339   1.416   1.314  11.547 -0.5439  0.7241 -0.4328
 1235SOL     OW15340   4.653   0.987   0.287 -0.2315  0.7965  0.6861
 1235SOL    HW115341   0.006   0.983   0.316 -0.1049  0.5157  0.2601
 1235SOL    HW215342   4.655   0.943   0.202 -0.8008  1.0932  0.5179
 1236SOL     OW15343   0.149   1.022  15.974  0.1543 -0.4011 -0.3302
 1236SOL    HW115344   0.093   1.099  15.969 -0.2325 -0.5529  1.7779
 1236SOL    HW215345   0.217   1.040  15.909 -1.8665  1.1176 -2.0162
 1237SOL     OW15346   3.174   0.263   6.063 -0.0011 -0.4697  0.2011
 1237SOL    HW115347   3.150   0.346   6.022  1.2820 -0.4426 -0.4838
 1237SOL    HW215348   3.249   0.289   6.116 -1.5597  1.1927  1.5858
 1238SOL     OW15349   1.664   0.135  12.743  0.6198 -0.1434  0.0085
 1238SOL    HW115350   1.661   0.064  12.807  1.1060 -1.6823 -1.6714
 1238SOL    HW215351   1.710   0.210  12.782  2.0613  0.3878 -2.6917
 1239SOL     OW15352   0.823   1.205   9.303 -0.2316 -0.1348  0.1636
 1239SOL    HW115353   0.808   1.190   9.210 -0.1965  0.8428  0.0095
 1239SOL    HW215354   0.743   1.158   9.326 -1.3301  1.3794 -0.6619
 1240SOL     OW15355   2.175   2.611   3.813  0.0934 -0.0925 -0.1926
 1240SOL    HW115356   2.197   2.562   3.893  0.2356 -1.1547 -0.8906
 1240SOL    HW215357   2.207   2.698   3.837 -2.4314  0.9621 -0.6181
 1241SOL     OW15358   1.189   1.836   6.620 -0.2071 -0.2125  0.1841
 1241SOL    HW115359   1.128   1.833   6.547  1.8117 -1.3539 -1.4794
 1241SOL    HW215360   1.141   1.787   6.687 -2.2399  0.4394 -0.7972
 1242SOL     OW15361   0.679   1.775   4.175  0.3892  0.1660  0.0310
 1242SOL    HW115362   0.642   1.691   4.202 -0.0748  0.3966  0.1168
 1242SOL    HW215363   0.731   1.790   4.255 -0.4476  0.9254  0.4289
 1243SOL     OW15364   3.771   2.425   2.118  0.5686 -0.0322 -0.1513
 1243SOL    HW115365   3.726   2.491   2.171  4.4814  2.7123 -0.1929
 1243SOL    HW215366   3.829   2.481   2.066 -1.2562  1.7457 -0.2826
 1244SOL     OW15367   4.557   3.528   1.619 -0.5477 -0.6088  0.0532
 1244SOL    HW115368   4.513   3.447   1.646  0.5264 -1.2599 -0.1237
 1244SOL    HW215369   4.589   3.500   1.533 -0.9306 -1.9931  0.3681
 1245SOL     OW15370   2.133   3.515   6.818 -0.2387 -0.1447  0.2518
 1245SOL    HW115371   2.096   3.501   6.731  2.9217  0.7470 -1.2502
 1245SOL    HW215372   2.089   3.451   6.873 -3.0445  0.8264 -0.9001
 1246SOL     OW15373   0.255   2.308   9.835  0.1386  0.7086  0.0950
 1246SOL    HW115374   0.221   2.372   9.772 -2.9073  0.2984  1.3117
 1246SOL    HW215375   0.333   2.342   9.877  1.6253 -1.5736 -0.8133
 1247SOL     OW15376   3.158   2.504  12.856  0.0032 -0.2259 -0.0556
 1247SOL    HW115377   3.231   2.546  12.901 -0.9947  1.1956  0.2399
 1247SOL    HW215378   3.201   2.490  12.772  0.5910 -0.4297  0.2774
 1248SOL     OW15379   1.765   3.974  10.949 -0.0181  0.7393 -0.3743
 1248SOL    HW115380   1.686   3.981  11.003 -0.9295 -1.5296 -1.3899
 1248SOL    HW215381   1.809   4.058  10.956  0.0048  0.5707  1.6954
 1249SOL     OW15382   1.521   4.288   7.352  0.6274 -0.0575 -0.1586
 1249SOL    HW115383   1.459   4.291   7.425 -0.6316 -1.6552 -1.1717
 1249SOL    HW215384   1.567   4.208   7.375  0.5775 -0.0367  0.0110
 1250SOL     OW15385   2.762   3.291   5.658  0.3375 -0.7063  0.4319
 1250SOL    HW115386   2.778   3.315   5.749  0.9466 -0.7666  0.3382
 1250SOL    HW215387   2.753   3.197   5.670 -1.8906 -0.2777  2.1617
 1251SOL     OW15388   3.111   4.073   4.386  0.0818  0.1733  0.0786
 1251SOL    HW115389   3.061   4.132   4.442  1.1486  0.5582  0.6395
 1251SOL    HW215390   3.148   4.017   4.454 -2.7834 -0.3997  1.1508
 1252SOL     OW15391   3.169   2.456   3.425  0.0248 -0.7105 -0.1429
 1252SOL    HW115392   3.260   2.456   3.455  0.3823 -1.9316 -1.2424
 1252SOL    HW215393   3.172   2.536   3.372  0.5563 -2.0023 -2.0602
 1253SOL     OW15394   2.220   1.666   2.514 -0.3132  0.4871  0.0051
 1253SOL    HW115395   2.262   1.599   2.460 -3.6070 -0.4603 -1.3741
 1253SOL    HW215396   2.126   1.665   2.496 -0.0718  0.0097 -1.2125
 1254SOL     OW15397   4.711   0.461   9.039  0.1408 -0.5875  0.4702
 1254SOL    HW115398   0.007   0.387   8.988  1.9412  1.1899 -0.8882
 1254SOL    HW215399   4.697   0.425   9.127  2.1780  0.1614  1.1100
 1255SOL     OW15400   0.905   0.207   3.820  0.3618  0.1062  0.6614
 1255SOL    HW115401   0.971   0.248   3.764 -0.5099 -1.2454 -1.3716
 1255SOL    HW215402   0.930   0.115   3.818 -1.1311 -0.2845  0.0858
 1256SOL     OW15403   4.035   3.630   6.076  0.3946 -0.0237 -0.2442
 1256SOL    HW115404   4.020   3.548   6.028  2.2212 -1.3840  1.5053
 1256SOL    HW215405   4.122   3.604   6.106  1.8056  2.8206 -1.8473
 1257SOL     OW15406   1.730   1.627   9.015 -0.2298 -0.5166  0.0958
 1257SOL    HW115407   1.674   1.686   9.066 -0.4214 -1.2078  0.6720
 1257SOL    HW215408   1.813   1.671   9.036 -0.5981  0.2058  0.0567
 1258SOL     OW15409   3.884   0.096  17.272 -0.3607 -0.7205  0.0135
 1258SOL    HW115410   3.923   0.031  17.214  1.8240  1.3259 -0.8123
 1258SOL    HW215411   3.789   0.091  17.261 -0.8791  0.9426  3.9218
 1259SOL     OW15412   0.797   1.646  14.789 -0.2320  0.3960  0.0874
 1259SOL    HW115413   0.731   1.713  14.801 -0.5932  0.3142 -1.3734
 1259SOL    HW215414   0.821   1.663  14.698 -0.9324 -0.1667 -0.2068
 1260SOL     OW15415   4.048   2.940   3.838 -0.1739  0.2132  0.4813
 1260SOL    HW115416   4.075   3.008   3.900  0.9710 -0.5237  0.7894
 1260SOL    HW215417   3.953   2.949   3.841 -0.3223 -1.0420 -0.4325
 1261SOL     OW15418   2.503   2.928   4.166  0.5301  0.4498 -0.0338
 1261SOL    HW115419   2.488   2.844   4.123  1.5141  0.2672 -0.0056
 1261SOL    HW215420   2.453   2.900   4.243  3.5526  2.2998  2.5836
 1262SOL     OW15421   3.917   1.840   3.070  0.0514  0.0659 -0.4501
 1262SOL    HW115422   3.963   1.759   3.092 -0.4038 -0.3640 -1.0877
 1262SOL    HW215423   3.828   1.806   3.073  0.1493 -0.1305  0.1871
 1263SOL     OW15424   3.864   0.280   5.726  0.3276 -0.1524  0.3676
 1263SOL    HW115425   3.937   0.324   5.683  1.3930  0.6865  3.0438
 1263SOL    HW215426   3.891   0.294   5.817  2.3806  1.7978 -0.5579
 1264SOL     OW15427   3.244   1.970   5.795  0.4688 -0.0380  0.0423
 1264SOL    HW115428   3.268   2.061   5.779 -1.1040  0.4357  0.3610
 1264SOL    HW215429   3.216   1.979   5.886 -1.7122  0.4855 -0.6792
 1265SOL     OW15430   3.739   3.022   0.044 -0.0395  0.2287  0.4152
 1265SOL    HW115431   3.797   2.986  17.726 -1.3468  1.0647 -1.1344
 1265SOL    HW215432   3.723   2.946   0.100 -0.7602  0.1011  0.0324
 1266SOL     OW15433   2.728   4.143   6.430  0.2523  0.4272 -0.0352
 1266SOL    HW115434   2.818   4.152   6.397  1.1019 -2.4281  1.5496
 1266SOL    HW215435   2.726   4.223   6.483  0.7213 -0.7414  1.7209
 1267SOL     OW15436   3.397   2.248  17.325 -0.1864 -0.8154 -0.0474
 1267SOL    HW115437   3.442   2.198  17.393  1.5171 -0.4383 -0.9110
 1267SOL    HW215438   3.358   2.320  17.375  1.4450 -0.7407  1.1044
 1268SOL     OW15439   0.697   3.898   8.176  0.0107 -0.1588 -0.2982
 1268SOL    HW115440   0.694   3.872   8.084 -0.6700  2.8850 -1.1348
 1268SOL    HW215441   0.779   3.947   8.181  1.4820 -2.6238 -0.1787
 1269SOL     OW15442   3.601   2.223   7.583 -0.2102 -0.1678 -0.2311
 1269SOL    HW115443   3.568   2.145   7.539  1.8024 -0.7901 -0.6324
 1269SOL    HW215444   3.696   2.220   7.581 -0.1976 -0.5287  0.9476
 1270SOL     OW15445   0.699   1.255   2.567 -0.7830 -0.1286  0.1075
 1270SOL    HW115446   0.679   1.300   2.484  0.9508  1.2790  0.4476
 1270SOL    HW215447   0.627   1.192   2.566 -0.1772 -0.8102 -0.8456
 1271SOL     OW15448   2.596   2.000   2.591  0.4938 -0.0203  0.0060
 1271SOL    HW115449   2.504   2.003   2.563  0.5435  0.4648 -0.1149
 1271SOL    HW215450   2.637   2.040   2.514 -1.1183  3.5495  0.9808
 1272SOL     OW15451   2.780   3.679   3.027 -0.5496 -0.0728 -0.0700
 1272SOL    HW115452   2.813   3.679   2.937 -1.4113  1.8002 -0.3882
 1272SOL    HW215453   2.861   3.691   3.076 -1.9760  3.2012  1.5069
 1273SOL     OW15454   1.017   4.486  15.083 -0.0718  0.0936 -0.1120
 1273SOL    HW115455   1.071   4.410  15.061  1.4389  1.7647 -2.1767
 1273SOL    HW215456   1.084   4.535  15.132 -1.0376  1.5216 -0.2253
 1274SOL     OW15457   3.438   4.348  10.180  0.5450 -0.2184  0.9483
 1274SOL    HW115458   3.439   4.263  10.137 -1.8684 -0.3143  1.1104
 1274SOL    HW215459   3.366   4.327  10.238 -0.4219  0.2191 -0.0961
 1275SOL     OW15460   3.891   2.868   4.956 -0.1329  0.2204 -0.1121
 1275SOL    HW115461   3.875   2.926   5.031  2.5408  0.7103  0.0738
 1275SOL    HW215462   3.981   2.849   4.981  0.3420  0.1554 -1.8665
 1276SOL     OW15463   3.640   1.129   3.506 -0.0117 -0.4488  0.5706
 1276SOL    HW115464   3.735   1.139   3.495 -0.3010  1.8801  0.1211
 1276SOL    HW215465   3.617   1.173   3.424  1.9569  0.7610  0.6684
 1277SOL     OW15466   3.014   0.810  16.172  0.2670 -0.3547 -0.2239
 1277SOL    HW115467   2.968   0.805  16.089 -1.2112  1.8555  0.4398
 1277SOL    HW215468   3.034   0.904  16.171  1.9108 -0.7034 -0.2867
 1278SOL     OW15469   3.942   1.746   0.980 -0.2921  0.0398 -0.0555
 1278SOL    HW115470   3.871   1.811   0.975 -1.5410 -1.2948  0.1214
 1278SOL    HW215471   4.013   1.780   0.925  0.9319 -0.0299  1.5029
 1279SOL     OW15472   1.459   2.128   1.937  0.3794 -0.4114  0.3316
 1279SOL    HW115473   1.515   2.202   1.915  0.7771 -0.8807 -0.2365
 1279SOL    HW215474   1.385   2.137   1.878  0.0594  0.1248  0.8164
 1280SOL     OW15475   0.273   2.964   7.160 -0.1587  0.1818 -0.4154
 1280SOL    HW115476   0.354   2.923   7.130 -0.8478 -2.2280  0.9888
 1280SOL    HW215477   0.288   2.992   7.250  1.2627  1.5517 -1.0851
 1281SOL     OW15478   0.959   4.630   3.371  0.2256  0.5341  0.6619
 1281SOL    HW115479   0.867   4.657   3.365  0.0632 -0.4188 -1.0334
 1281SOL    HW215480   0.999   4.689   3.435 -0.1063 -0.5820  1.9043
 1282SOL     OW15481   3.235   2.930  15.940 -0.4933 -0.3290 -0.2626
 1282SOL    HW115482   3.283   2.957  16.018 -0.2314  0.7247 -0.8015
 1282SOL    HW215483   3.214   3.015  15.902  0.8567 -0.3564 -1.0531
 1283SOL     OW15484   3.043   0.516  14.691  0.0043  0.2997  0.1951
 1283SOL    HW115485   3.031   0.564  14.773  0.1416 -0.4595  0.6597
 1283SOL    HW215486   3.137   0.497  14.700 -0.4420 -0.6757  2.7184
 1284SOL     OW15487   4.259   0.831   2.577 -0.1220  0.8242 -0.0187
 1284SOL    HW115488   4.201   0.756   2.570  1.2201 -0.0227 -1.9822
 1284SOL    HW215489   4.338   0.800   2.532  0.2774 -1.9822  2.6176
 1285SOL     OW15490   2.586   3.685   3.229 -0.3641 -0.0171 -0.0868
 1285SOL    HW115491   2.641   3.649   3.160 -1.3382 -2.3745  0.3646
 1285SOL    HW215492   2.654   3.722   3.287  0.1251  1.5624 -1.6739
 1286SOL     OW15493   2.018   4.694   0.871  0.2330 -0.2200  0.2762
 1286SOL    HW115494   1.945   4.736   0.916 -0.5271  0.0724 -1.2370
 1286SOL    HW215495   2.069   4.672   0.949  0.7466  2.9302  0.8273
 1287SOL     OW15496   2.231   2.862   5.576 -0.0414  0.4490 -0.3457
 1287SOL    HW115497   2.143   2.872   5.613  0.5313 -0.6758  1.3072
 1287SOL    HW215498   2.277   2.907   5.647 -1.3426 -1.1332  1.5259
 1288SOL     OW15499   3.726   2.011   8.631  0.7844 -0.2536  0.7240
 1288SOL    HW115500   3.762   1.981   8.715  0.9463 -1.1586  0.3340
 1288SOL    HW215501   3.700   1.933   8.582  0.9380 -0.0408  0.3010
 1289SOL     OW15502   0.519   4.190   8.191  0.2040  0.1277 -0.1954
 1289SOL    HW115503   0.580   4.216   8.259  0.3071  0.5153 -0.4341
 1289SOL    HW215504   0.440   4.198   8.244  0.6769 -1.2457  0.6983
 1290SOL     OW15505   4.643   4.045  16.287  0.1077 -0.5443  0.1532
 1290SOL    HW115506   4.690   4.123  16.258  0.9710 -1.0193  0.3078
 1290SOL    HW215507   4.686   4.030  16.370  0.5052 -1.4558 -0.2184
 1291SOL     OW15508   3.058   2.161   1.833 -0.3179 -0.0174  0.5562
 1291SOL    HW115509   3.064   2.253   1.858 -1.6609  0.4706 -0.8893
 1291SOL    HW215510   2.964   2.140   1.831 -0.8241  2.5569 -2.1524
 1292SOL     OW15511   1.686   3.508   1.096 -0.1618 -0.3237 -0.5635
 1292SOL    HW115512   1.757   3.565   1.068  0.0826 -0.2451  0.2112
 1292SOL    HW215513   1.729   3.435   1.142  0.5638  0.1031 -0.5715
 1293SOL     OW15514   2.573   0.625  12.438 -0.0466  0.3743  0.4465
 1293SOL    HW115515   2.478   0.616  12.448 -0.1029 -2.0350 -2.1249
 1293SOL    HW215516   2.601   0.654  12.524  0.7519  2.7580 -0.6282
 1294SOL     OW15517   2.111   3.686   0.710  0.2255 -0.0557 -0.5814
 1294SOL    HW115518   2.125   3.722   0.622  1.2119  1.1191  0.0516
 1294SOL    HW215519   2.195   3.711   0.749  0.8208 -0.7874 -1.3858
 1295SOL     OW15520   0.785   1.298   8.627 -0.2962 -0.8277 -0.0502
 1295SOL    HW115521   0.699   1.264   8.601 -1.1297  0.4666  1.0537
 1295SOL    HW215522   0.814   1.233   8.692  0.5974 -0.9155 -0.5343
 1296SOL     OW15523   0.462   2.525   8.084 -0.1472  1.0690 -0.0750
 1296SOL    HW115524   0.413   2.447   8.110  0.0682  1.7290  2.2900
 1296SOL    HW215525   0.544   2.489   8.050 -0.9891 -0.4127 -0.5340
 1297SOL     OW15526   1.035   2.138   4.979 -0.2498 -0.1060 -0.2661
 1297SOL    HW115527   1.090   2.207   5.016 -1.6484  0.7063  0.2914
 1297SOL    HW215528   0.967   2.157   5.043 -0.0296 -0.1886 -0.0040
 1298SOL     OW15529   4.387   2.419   2.814 -0.1215  0.0465 -0.4206
 1298SOL    HW115530   4.368   2.403   2.722 -0.8758 -2.3117  0.1412
 1298SOL    HW215531   4.334   2.498   2.819  1.4121  0.9644  1.5927
 1299SOL     OW15532   3.962   0.268   7.636  0.1012 -0.0471  0.1577
 1299SOL    HW115533   4.025   0.256   7.707 -3.3042 -1.0262  3.0091
 1299SOL    HW215534   3.970   0.185   7.589 -0.0159  2.0009 -3.4463
 1300SOL     OW15535   4.488   1.835   9.197 -0.4747 -0.1337  1.0633
 1300SOL    HW115536   4.574   1.826   9.155 -0.0948 -0.7086  1.9730
 1300SOL    HW215537   4.503   1.914   9.249  0.1352 -0.3928  1.2878
 1301SOL     OW15538   3.011   0.772   2.565  0.1483 -0.2799 -0.0371
 1301SOL    HW115539   2.919   0.786   2.544  0.3285 -1.5706 -1.7376
 1301SOL    HW215540   3.033   0.686   2.529 -0.8357 -0.5234 -0.0450
 1302SOL     OW15541   3.943   3.434  11.532 -0.7504 -0.4274  0.0664
 1302SOL    HW115542   3.899   3.511  11.497 -0.0492 -1.0459 -2.1915
 1302SOL    HW215543   3.880   3.402  11.597 -2.3484 -1.0080 -1.7707
 1303SOL     OW15544   3.982   2.703   8.879 -0.0268 -0.1715 -0.0490
 1303SOL    HW115545   3.972   2.701   8.974  0.1303 -0.9959 -0.0539
 1303SOL    HW215546   3.900   2.663   8.850  0.7982 -0.6418 -1.7624
 1304SOL     OW15547   2.291   1.771   9.936 -0.2826  0.0339 -0.8964
 1304SOL    HW115548   2.254   1.683   9.930  1.4362 -0.7297 -0.2242
 1304SOL    HW215549   2.224   1.826   9.896  0.9646  1.2240 -1.3766
 1305SOL     OW15550   2.361   0.863  12.595  0.0271 -0.2786 -0.3716
 1305SOL    HW115551   2.438   0.831  12.641 -0.1895  1.6800  1.3361
 1305SOL    HW215552   2.328   0.787  12.547 -1.8082  1.1578 -1.4154
 1306SOL     OW15553   1.245   0.178   4.275 -0.4524  0.1296 -0.2070
 1306SOL    HW115554   1.340   0.184   4.289 -0.4620 -0.5274  0.1095
 1306SOL    HW215555   1.228   0.266   4.241 -1.8779 -0.5579 -1.2661
 1307SOL     OW15556   4.686   2.728   1.565  0.1188  0.3121  0.2055
 1307SOL    HW115557   4.695   2.659   1.499 -0.7934  0.4515 -0.0714
 1307SOL    HW215558   4.592   2.727   1.581  0.3375  2.1340  1.5613
 1308SOL     OW15559   0.688   1.175   6.053  0.4082 -0.5983  0.2471
 1308SOL    HW115560   0.725   1.211   6.133  0.3030  0.9089 -0.3842
 1308SOL    HW215561   0.768   1.147   6.009  1.2042  1.0166  0.6436
 1309SOL     OW15562   3.119   2.694  15.988  0.4050  0.0511  0.5397
 1309SOL    HW115563   3.045   2.729  16.039 -0.3714 -0.0221 -0.5373
 1309SOL    HW215564   3.161   2.777  15.968  0.3651  0.3513  1.6767
 1310SOL     OW15565   2.423   3.478   3.266  0.2261  0.6142 -0.6328
 1310SOL    HW115566   2.481   3.554   3.271 -0.9418  1.2305  3.8422
 1310SOL    HW215567   2.407   3.488   3.173  3.5803 -1.5173 -1.4707
 1311SOL     OW15568   4.495   1.505   1.868  0.8061  0.3238 -0.0597
 1311SOL    HW115569   4.565   1.470   1.812  1.8880  3.7655 -0.8459
 1311SOL    HW215570   4.540   1.498   1.953  0.2726 -0.6091  0.1401
 1312SOL     OW15571   1.324   0.897   8.664  0.1594  0.3733  0.0228
 1312SOL    HW115572   1.306   0.942   8.581  0.9672 -2.1720 -1.5231
 1312SOL    HW215573   1.371   0.820   8.633  0.5168  0.2014  0.9860
 1313SOL     OW15574   1.374   3.284  16.225 -0.1370 -0.2842  0.1932
 1313SOL    HW115575   1.296   3.306  16.277  1.1833  2.5492  1.0107
 1313SOL    HW215576   1.382   3.191  16.243  0.7582 -0.0668  0.9225
 1314SOL     OW15577   1.220   1.552  12.450 -0.4446  0.0075 -0.2263
 1314SOL    HW115578   1.273   1.483  12.411 -2.7656 -1.2877 -1.1029
 1314SOL    HW215579   1.284   1.623  12.454 -0.4738 -0.0062  0.5371
 1315SOL     OW15580   3.343   3.039   6.874 -0.2184 -0.7496  0.1971
 1315SOL    HW115581   3.383   3.115   6.917  1.6389 -2.1953  1.0370
 1315SOL    HW215582   3.252   3.054   6.898 -0.4949  0.4357 -1.5693
 1316SOL     OW15583   4.003   1.452  15.425 -0.1244  0.1765 -0.2344
 1316SOL    HW115584   3.991   1.514  15.497 -4.6436 -1.8037  0.6501
 1316SOL    HW215585   3.988   1.376  15.481  1.8000  0.2574  0.4002
 1317SOL     OW15586   1.155   4.554  12.972  0.1224 -0.9501 -0.3364
 1317SOL    HW115587   1.128   4.578  13.061  0.0512  0.1023 -0.6355
 1317SOL    HW215588   1.117   4.629  12.925 -0.2892  1.3891  3.6837
 1318SOL     OW15589   0.488   0.800   3.761  0.6800  0.5036  0.3710
 1318SOL    HW115590   0.422   0.831   3.699  0.1480 -0.8808  0.2291
 1318SOL    HW215591   0.492   0.704   3.761  1.4486  0.5337  0.5337
 1319SOL     OW15592   0.616   4.540  10.960  0.2942  0.5591  0.4870
 1319SOL    HW115593   0.563   4.535  11.039 -2.0088 -1.9136 -1.2032
 1319SOL    HW215594   0.598   4.456  10.918 -3.5523  1.5772  0.1541
 1320SOL     OW15595   1.033   0.629  12.131 -0.8928  0.7574 -0.2817
 1320SOL    HW115596   1.116   0.604  12.090 -1.0025 -2.0124  1.1520
 1320SOL    HW215597   0.983   0.547  12.125  0.6309 -0.2299  0.7407
 1321SOL     OW15598   4.403   0.134   8.070 -0.6201 -0.8333 -0.2777
 1321SOL    HW115599   4.452   0.141   7.989 -0.3460 -0.6470 -0.0959
 1321SOL    HW215600   4.343   0.064   8.042 -1.1944 -1.3785  2.3087
 1322SOL     OW15601   1.184   4.093  16.279  0.1322  0.0101  0.1017
 1322SOL    HW115602   1.138   4.008  16.280  3.0969 -1.5786 -0.4559
 1322SOL    HW215603   1.273   4.067  16.256  0.0454  0.1669 -0.3973
 1323SOL     OW15604   0.755   1.743   6.133  0.3080 -0.4785 -0.2962
 1323SOL    HW115605   0.688   1.781   6.190  2.9923  0.9319  1.9020
 1323SOL    HW215606   0.704   1.671   6.094  0.8505 -1.8896  1.5974
 1324SOL     OW15607   3.994   0.174   4.210 -0.1899 -0.5560  0.1653
 1324SOL    HW115608   3.976   0.161   4.117 -2.7772  0.5845  0.5170
 1324SOL    HW215609   3.912   0.219   4.231  0.5750  0.6180  0.6109
 1325SOL     OW15610   2.677   2.366   8.945  0.3191 -0.1283  0.4517
 1325SOL    HW115611   2.648   2.421   8.872  1.8030  0.4866  0.3201
 1325SOL    HW215612   2.683   2.430   9.016  1.4632  1.0978 -0.7418
 1326SOL     OW15613   3.436   0.862   8.750  0.1139 -0.1146 -0.1009
 1326SOL    HW115614   3.453   0.957   8.748 -1.7588  0.2147  0.1833
 1326SOL    HW215615   3.349   0.854   8.711 -0.4702 -0.5752  1.2948
 1327SOL     OW15616   3.807   4.128   1.008  0.1498 -0.0326 -0.3246
 1327SOL    HW115617   3.829   4.184   0.934  1.6239 -1.2503 -0.8133
 1327SOL    HW215618   3.758   4.056   0.968  0.7360 -1.2820  1.1760
 1328SOL     OW15619   3.890   1.502   8.162  0.3078  0.1191 -0.2463
 1328SOL    HW115620   3.844   1.426   8.128  0.0441 -1.8814  4.5279
 1328SOL    HW215621   3.857   1.503   8.252 -0.3157  0.1014 -0.4783
 1329SOL     OW15622   3.105   1.888   6.516  0.0254 -0.1238  0.0180
 1329SOL    HW115623   3.059   1.963   6.554 -0.5543  0.6369 -2.1917
 1329SOL    HW215624   3.074   1.909   6.428 -0.6481 -3.1217 -0.4718
 1330SOL     OW15625   3.781   0.681   9.302  0.0494 -0.2900  0.0014
 1330SOL    HW115626   3.704   0.738   9.308 -0.2945 -0.6480 -1.0489
 1330SOL    HW215627   3.769   0.633   9.220 -1.1226  0.0203 -0.0050
 1331SOL     OW15628   3.551   1.484  16.865 -0.4046 -0.0431  0.4508
 1331SOL    HW115629   3.617   1.533  16.817 -0.9394  1.2248  0.9963
 1331SOL    HW215630   3.471   1.504  16.816  0.2682  0.6510 -0.3513
 1332SOL     OW15631   0.780   2.587   2.987 -0.4604  0.2927 -0.2602
 1332SOL    HW115632   0.836   2.664   2.976 -1.2830  0.7016 -1.5564
 1332SOL    HW215633   0.853   2.530   3.012 -0.2847  1.0948  1.0513
 1333SOL     OW15634   3.174   2.431   4.856 -0.0100 -0.0199 -0.4168
 1333SOL    HW115635   3.241   2.447   4.789  2.0160  1.3128  1.8715
 1333SOL    HW215636   3.220   2.466   4.933  0.8542 -1.0789 -0.4469
 1334SOL     OW15637   4.165   4.581  10.734  0.6943  0.3163 -0.1194
 1334SOL    HW115638   4.105   4.641  10.691 -1.9100  0.6898  3.9944
 1334SOL    HW215639   4.189   4.617  10.819  0.5444  0.3709 -0.1006
 1335SOL     OW15640   3.094   0.993   6.506 -0.0690  0.5813 -0.3001
 1335SOL    HW115641   3.034   0.987   6.580  0.4942  1.2057  0.2042
 1335SOL    HW215642   3.107   1.086   6.523  1.1850  0.1708  0.9379
 1336SOL     OW15643   1.860   3.320   1.703  0.1188  0.3237  0.1269
 1336SOL    HW115644   1.922   3.248   1.688  0.2812  0.0456  2.1181
 1336SOL    HW215645   1.910   3.350   1.779 -0.1722  0.6516  0.1861
 1337SOL     OW15646   4.695   2.403   6.099  0.1961  0.5483 -0.0135
 1337SOL    HW115647   4.661   2.477   6.050  2.1614  0.8285 -0.9550
 1337SOL    HW215648   4.736   2.343   6.037 -1.7979 -0.2774 -0.5139
 1338SOL     OW15649   3.790   0.545   7.163 -0.0259  0.0086  0.1033
 1338SOL    HW115650   3.873   0.500   7.175  0.1717  0.6618  1.1651
 1338SOL    HW215651   3.816   0.630   7.126 -2.0893  0.1529 -1.0199
 1339SOL     OW15652   2.467   4.261   5.341  0.3080 -1.3199  0.2160
 1339SOL    HW115653   2.413   4.274   5.262 -0.9949 -1.3300  1.1026
 1339SOL    HW215654   2.411   4.297   5.409  1.7237 -0.1309  0.7552
 1340SOL     OW15655   0.248   3.324  16.468  0.5803 -0.0942  0.0523
 1340SOL    HW115656   0.266   3.378  16.545  0.0695 -0.2124  0.2568
 1340SOL    HW215657   0.165   3.284  16.496  1.6858 -0.7625  2.3174
 1341SOL     OW15658   2.650   2.249   7.366 -1.4249 -0.3899 -0.3541
 1341SOL    HW115659   2.625   2.207   7.448  0.2862 -2.2422 -0.8148
 1341SOL    HW215660   2.741   2.223   7.362 -1.5135 -0.7120 -0.1951
 1342SOL     OW15661   2.900   3.249   2.216  0.2397 -0.3351  0.0200
 1342SOL    HW115662   2.832   3.293   2.267  1.2933  1.3554 -0.0320
 1342SOL    HW215663   2.976   3.306   2.224  0.4096 -0.8351  1.9314
 1343SOL     OW15664   0.350   2.733   1.271  0.2434 -0.3419  0.1130
 1343SOL    HW115665   0.307   2.650   1.251 -1.6928  0.7811 -0.4159
 1343SOL    HW215666   0.437   2.711   1.239  0.4577 -0.2025  0.6033
 1344SOL     OW15667   2.787   0.667   4.623 -0.0975 -0.0345  0.5028
 1344SOL    HW115668   2.858   0.729   4.640  1.8276 -1.7820 -1.1454
 1344SOL    HW215669   2.797   0.618   4.705  0.0115 -0.0787  0.4637
 1345SOL     OW15670   0.060   4.217  16.200 -0.2628 -0.2085 -0.1697
 1345SOL    HW115671   0.141   4.220  16.250 -1.9821  1.9858  2.4172
 1345SOL    HW215672   0.061   4.303  16.157  0.0983 -0.5566 -0.8711
 1346SOL     OW15673   1.532   2.186   7.099 -0.6714 -0.1721  0.2271
 1346SOL    HW115674   1.618   2.228   7.100 -0.2288 -1.0709  0.4183
 1346SOL    HW215675   1.554   2.093   7.112  0.3944 -0.0364 -0.6201
 1347SOL     OW15676   1.693   1.735   5.728  0.3712  0.5177  0.8787
 1347SOL    HW115677   1.650   1.663   5.683  1.1787  0.8149 -0.3656
 1347SOL    HW215678   1.785   1.710   5.718  0.2969  0.2583  0.8355
 1348SOL     OW15679   3.350   2.219   2.110 -0.9636 -0.2135  0.6353
 1348SOL    HW115680   3.260   2.185   2.108 -1.7189  1.8037  0.1991
 1348SOL    HW215681   3.332   2.309   2.080 -0.5562 -0.8985 -1.6260
 1349SOL     OW15682   1.948   4.216   2.785 -0.0932 -0.3092 -0.1112
 1349SOL    HW115683   1.883   4.164   2.832  1.0342 -0.2273  1.5613
 1349SOL    HW215684   1.981   4.277   2.851  1.2494  0.2096 -1.2648
 1350SOL     OW15685   1.036   3.833   8.304  0.3963  0.1057 -0.1814
 1350SOL    HW115686   1.079   3.869   8.226 -0.2112  1.4803  0.1299
 1350SOL    HW215687   1.068   3.886   8.377 -0.3351  1.0986 -0.5833
 1351SOL     OW15688   0.764   4.628   2.812 -0.1200 -0.1310 -0.0664
 1351SOL    HW115689   0.785   4.637   2.905 -3.2767 -1.5470  0.7636
 1351SOL    HW215690   0.735   4.718   2.798  1.5834  0.2529 -1.1942
 1352SOL     OW15691   2.170   4.429   4.992 -0.0867 -0.4855 -0.1201
 1352SOL    HW115692   2.264   4.437   5.006 -0.3095  0.1551  1.0783
 1352SOL    HW215693   2.141   4.394   5.077 -2.9852  0.1102 -0.8539
 1353SOL     OW15694   4.004   1.872   9.331  0.4078  0.2064  0.4492
 1353SOL    HW115695   3.977   1.800   9.274 -0.5246  0.7092  0.2656
 1353SOL    HW215696   3.936   1.939   9.321  0.8353  0.5545 -0.1377
 1354SOL     OW15697   0.895   0.959  14.257  0.4565  0.2161 -0.0173
 1354SOL    HW115698   0.913   1.019  14.184  1.1751  0.4019  0.3158
 1354SOL    HW215699   0.833   1.018  14.300 -0.6461  0.8099 -2.4183
 1355SOL     OW15700   3.640   2.020   4.251  0.0551  0.2346  0.4187
 1355SOL    HW115701   3.646   2.098   4.196  0.9758 -0.1192  0.0146
 1355SOL    HW215702   3.734   2.002   4.256  0.0717  0.1242 -0.2643
 1356SOL     OW15703   3.939   4.360   6.861  0.4540 -0.1314 -0.0875
 1356SOL    HW115704   3.851   4.359   6.823  0.2432 -1.5081  0.4176
 1356SOL    HW215705   3.954   4.454   6.853  0.4597 -0.2401 -1.3141
 1357SOL     OW15706   0.655   0.174   6.854  0.0878 -0.3282 -0.0790
 1357SOL    HW115707   0.669   0.267   6.871  1.0905 -0.5566  0.3266
 1357SOL    HW215708   0.709   0.149   6.779 -1.3935  0.6817 -1.4794
 1358SOL     OW15709   2.857   1.896   9.277  0.2848 -0.0958  0.0518
 1358SOL    HW115710   2.779   1.951   9.268 -0.0052  0.0824  3.4501
 1358SOL    HW215711   2.908   1.962   9.324  2.3384 -0.0389 -2.3052
 1359SOL     OW15712   3.882   4.187   2.152 -0.6291 -0.2241 -0.6404
 1359SOL    HW115713   3.912   4.132   2.224 -1.2402 -0.6584 -0.7270
 1359SOL    HW215714   3.963   4.200   2.102 -0.0536  1.7013  0.8020
 1360SOL     OW15715   0.167   4.357  15.149  0.2186 -0.1507 -0.2181
 1360SOL    HW115716   0.077   4.333  15.171  0.0066  1.7504  0.9964
 1360SOL    HW215717   0.202   4.273  15.119  1.6804  0.5536 -0.4793
 1361SOL     OW15718   3.888   2.725  16.743  0.2308 -0.1572 -0.3463
 1361SOL    HW115719   3.811   2.709  16.689 -0.7544 -0.7682  1.2308
 1361SOL    HW215720   3.869   2.666  16.817  0.4617 -2.0796 -1.8062
 1362SOL     OW15721   3.859   1.036   7.460 -0.1319 -0.1252 -0.3285
 1362SOL    HW115722   3.922   1.005   7.525  0.2950  0.8319 -0.2743
 1362SOL    HW215723   3.848   1.125   7.495 -2.9964 -1.4861  2.1884
 1363SOL     OW15724   2.842   2.411   4.852  0.2552  0.1062 -0.1423
 1363SOL    HW115725   2.872   2.368   4.772  1.8470 -0.0594  0.5509
 1363SOL    HW215726   2.915   2.383   4.908 -1.1866 -3.6663 -0.1549
 1364SOL     OW15727   3.154   0.023   4.142 -0.5041  0.3947  0.3630
 1364SOL    HW115728   3.200   0.084   4.083 -0.4804  0.1474  0.1267
 1364SOL    HW215729   3.064   0.014   4.110 -1.1730  3.5062  1.3258
 1365SOL     OW15730   3.427   4.260   7.514 -0.6534  0.0630 -0.3434
 1365SOL    HW115731   3.402   4.322   7.445 -0.6007  0.3600 -0.0992
 1365SOL    HW215732   3.515   4.293   7.534 -1.0295  0.6598  0.3483
 1366SOL     OW15733   3.647   2.514  13.203 -0.5104  0.6414 -0.0330
 1366SOL    HW115734   3.740   2.496  13.216 -0.8510 -0.4771  0.8018
 1366SOL    HW215735   3.627   2.437  13.149 -1.1366  1.4935 -1.0202
 1367SOL     OW15736   1.103   1.051   5.856  0.3926 -0.1353  0.0770
 1367SOL    HW115737   1.184   1.102   5.855  0.4447 -0.2254 -1.0705
 1367SOL    HW215738   1.042   1.106   5.905 -0.9382 -2.9397  1.5444
 1368SOL     OW15739   0.360   3.995   8.586 -0.0223 -0.3104 -0.4010
 1368SOL    HW115740   0.453   3.973   8.573  0.4440  0.6630  1.1966
 1368SOL    HW215741   0.345   4.033   8.499 -0.0105  1.1428  0.2173
 1369SOL     OW15742   3.740   3.879   0.913 -0.1297 -0.2459 -0.4492
 1369SOL    HW115743   3.699   3.883   0.827  0.5844 -2.7020 -0.8826
 1369SOL    HW215744   3.663   3.850   0.962  0.4022 -0.3522  0.3291
 1370SOL     OW15745   4.543   1.650   3.473 -0.0220  0.2206 -0.5883
 1370SOL    HW115746   4.517   1.723   3.530 -1.4687  0.8833 -2.0826
 1370SOL    HW215747   4.637   1.643   3.490 -0.6126 -1.5963  1.8779
 1371SOL     OW15748   3.597   2.995   0.758 -0.1969 -0.5736 -0.0932
 1371SOL    HW115749   3.649   3.066   0.721 -0.6712 -0.8238 -1.2688
 1371SOL    HW215750   3.604   2.931   0.687 -0.3758 -0.3424 -0.3216
 1372SOL     OW15751   0.824   1.065  17.173 -0.4474 -0.6208  0.1580
 1372SOL    HW115752   0.773   0.984  17.179 -1.2089 -0.2074 -0.7080
 1372SOL    HW215753   0.845   1.077  17.266 -1.8410  0.0776  0.3985
 1373SOL     OW15754   2.715   1.652   2.995 -0.1576 -0.0844  0.8906
 1373SOL    HW115755   2.722   1.681   2.904  0.8238  2.8269  1.9127
 1373SOL    HW215756   2.621   1.650   3.014 -0.6292  0.6820 -1.3024
 1374SOL     OW15757   3.918   0.928   8.896 -0.0958  0.9225  0.4616
 1374SOL    HW115758   3.926   1.003   8.837 -1.7503  0.8385  0.1341
 1374SOL    HW215759   3.882   0.862   8.837  0.3335  0.0504  1.1651
 1375SOL     OW15760   2.695   0.548   2.867  0.1052 -0.1522 -0.3403
 1375SOL    HW115761   2.699   0.640   2.892 -2.6518 -0.9755  3.1171
 1375SOL    HW215762   2.679   0.558   2.773 -1.4623 -2.5165 -0.3263
 1376SOL     OW15763   4.524   1.555   2.381 -0.4740  0.1283  0.4400
 1376SOL    HW115764   4.560   1.529   2.466  1.1674 -0.2724 -0.3820
 1376SOL    HW215765   4.431   1.535   2.390 -0.8412  1.3327 -0.7579
 1377SOL     OW15766   2.307   4.422   4.672  0.0974  0.3584  0.9437
 1377SOL    HW115767   2.341   4.511   4.684  0.3808  0.4142 -0.2553
 1377SOL    HW215768   2.211   4.429   4.676  0.1624  0.5431  2.1552
 1378SOL     OW15769   2.123   2.752   3.554  0.0147 -0.6447  0.1589
 1378SOL    HW115770   2.183   2.818   3.520  0.5400 -0.7126  0.9423
 1378SOL    HW215771   2.173   2.730   3.633 -1.2664  1.0487  1.4570
 1379SOL     OW15772   1.269   3.762   6.463 -0.2079  0.9576 -0.8580
 1379SOL    HW115773   1.188   3.710   6.464 -0.0855  0.7411 -1.7157
 1379SOL    HW215774   1.293   3.771   6.370  0.8798 -1.6813 -0.8151
 1380SOL     OW15775   2.606   1.714  16.736  0.4135  0.1067  0.1085
 1380SOL    HW115776   2.631   1.780  16.800 -1.2357  1.4359 -0.5971
 1380SOL    HW215777   2.650   1.636  16.770  1.0064 -0.7499 -2.6236
 1381SOL     OW15778   0.144   3.842   8.730 -0.1553 -0.3726 -0.1878
 1381SOL    HW115779   0.224   3.863   8.683  0.0916 -0.2400  0.2838
 1381SOL    HW215780   0.118   3.775   8.667 -0.6587 -0.0488 -0.3262
 1382SOL     OW15781   4.069   4.156   4.603  0.6014 -0.7003 -0.0288
 1382SOL    HW115782   3.974   4.154   4.597  0.5627 -2.3153  0.9071
 1382SOL    HW215783   4.079   4.191   4.692  0.3382  0.0890 -0.3131
 1383SOL     OW15784   1.094   0.522   7.836 -0.3951 -0.0236  0.1165
 1383SOL    HW115785   1.019   0.531   7.777 -0.3081  0.2448  0.0474
 1383SOL    HW215786   1.054   0.455   7.892 -1.8408 -0.7967 -1.8300
 1384SOL     OW15787   3.284   0.561   8.092 -0.3037  0.2026  0.4815
 1384SOL    HW115788   3.238   0.645   8.093  0.6714  0.7593 -0.5080
 1384SOL    HW215789   3.244   0.523   8.014  0.9646 -2.1410  0.9902
 1385SOL     OW15790   3.477   1.012  11.239  0.2057  0.3471 -0.5490
 1385SOL    HW115791   3.407   0.962  11.196  0.2708 -1.8063  1.8332
 1385SOL    HW215792   3.468   0.982  11.330  2.0227 -0.6762 -0.7209
 1386SOL     OW15793   2.278   2.562   2.160 -0.9214 -0.0795  0.0815
 1386SOL    HW115794   2.303   2.607   2.241  0.3264 -1.1885  0.3239
 1386SOL    HW215795   2.315   2.478   2.186  0.4436  0.5215  0.0796
 1387SOL     OW15796   4.168   4.529   7.121 -0.5371 -0.0198 -0.0378
 1387SOL    HW115797   4.149   4.436   7.111 -1.3231  0.1911 -0.5382
 1387SOL    HW215798   4.230   4.543   7.050  0.8677 -0.3845  1.1204
 1388SOL     OW15799   3.572   2.786  15.617  0.0755 -0.3624 -0.2403
 1388SOL    HW115800   3.481   2.768  15.592  0.2172 -0.7655 -0.4578
 1388SOL    HW215801   3.617   2.706  15.589  0.4403  0.3020 -1.5096
 1389SOL     OW15802   1.745   2.917   4.996 -0.6069 -0.0368 -0.2291
 1389SOL    HW115803   1.661   2.954   5.023  0.6192  1.7193  1.2286
 1389SOL    HW215804   1.807   2.988   5.014  0.7636 -1.2986  0.0388
 1390SOL     OW15805   2.086   0.601   3.455 -0.4611 -0.0146 -0.1456
 1390SOL    HW115806   2.007   0.653   3.442  0.3387  1.2201  0.0141
 1390SOL    HW215807   2.060   0.558   3.537  1.6180  1.3214  1.2147
 1391SOL     OW15808   1.941   2.350   0.675 -0.5563  0.3717 -0.2705
 1391SOL    HW115809   2.007   2.381   0.736  1.2101  0.6617 -2.3130
 1391SOL    HW215810   2.000   2.365   0.601  0.2270 -0.0216  0.2743
 1392SOL     OW15811   4.091   0.358   1.417 -0.7428 -0.2243  0.4163
 1392SOL    HW115812   4.146   0.402   1.482 -0.1748 -0.3305  0.0120
 1392SOL    HW215813   4.036   0.432   1.392 -0.4417  0.0156  0.4533
 1393SOL     OW15814   1.381   0.048   5.316 -0.0698  0.6079 -0.1334
 1393SOL    HW115815   1.407   0.134   5.348  2.4667 -1.3925  3.1648
 1393SOL    HW215816   1.309   0.014   5.369  0.1532 -0.0375 -0.2395
 1394SOL     OW15817   0.165   4.266   2.578 -0.5207  0.7595 -0.0340
 1394SOL    HW115818   0.257   4.287   2.593 -0.9567  3.5777 -1.4371
 1394SOL    HW215819   0.155   4.313   2.496 -0.8927  0.8355  0.0567
 1395SOL     OW15820   4.485   3.726   5.885 -0.1310  0.4926 -0.7128
 1395SOL    HW115821   4.550   3.697   5.820  1.6290 -0.7704  1.5968
 1395SOL    HW215822   4.526   3.675   5.955  0.0533  1.3193 -0.2190
 1396SOL     OW15823   0.798   3.882  13.624 -0.2617  0.1412  0.4277
 1396SOL    HW115824   0.792   3.787  13.625  0.8662  0.0712  0.2584
 1396SOL    HW215825   0.716   3.901  13.671 -1.8470  0.0500 -2.2736
 1397SOL     OW15826   1.300   2.825   8.266  0.1425  0.3703  0.0655
 1397SOL    HW115827   1.220   2.878   8.262 -0.6920 -0.9224 -0.4456
 1397SOL    HW215828   1.265   2.736   8.256  0.4914 -0.0445  2.4133
 1398SOL     OW15829   2.792   1.634   8.757  0.0719  0.1275  0.1475
 1398SOL    HW115830   2.729   1.563   8.750 -1.1945  1.2411  0.3068
 1398SOL    HW215831   2.791   1.640   8.852  0.2680 -1.8405  0.2764
 1399SOL     OW15832   2.162   0.922  11.414 -0.4817  0.0619 -0.2036
 1399SOL    HW115833   2.089   0.868  11.385 -0.9073  0.8968 -0.6668
 1399SOL    HW215834   2.241   0.896  11.366 -0.0199  0.1895  0.4836
 1400SOL     OW15835   2.252   3.491   2.575 -0.3425 -0.1275 -0.1945
 1400SOL    HW115836   2.237   3.532   2.660 -0.7322  2.7361 -1.6326
 1400SOL    HW215837   2.317   3.424   2.594 -4.1325 -3.1147  2.2379
 1401SOL     OW15838   1.562   4.525   9.667  0.2599 -0.0519 -0.0077
 1401SOL    HW115839   1.589   4.586   9.599 -0.3681 -0.1706 -0.3656
 1401SOL    HW215840   1.642   4.511   9.718  0.7826  1.3803 -0.4471
 1402SOL     OW15841   3.940   3.430  12.666  0.2837  0.0600 -0.4838
 1402SOL    HW115842   3.922   3.481  12.745  0.0901  1.4147 -1.4151
 1402SOL    HW215843   3.870   3.463  12.610 -0.8896 -1.7796 -0.1099
 1403SOL     OW15844   2.180   2.933   0.386 -0.2352 -0.0691  0.2087
 1403SOL    HW115845   2.094   2.956   0.350 -0.9921 -1.7994  0.9243
 1403SOL    HW215846   2.245   2.965   0.323  3.4190  0.5500  4.2752
 1404SOL     OW15847   3.560   4.589  17.421 -0.6012 -0.0413  0.5987
 1404SOL    HW115848   3.594   4.627  17.502  1.4734 -3.1459  1.1751
 1404SOL    HW215849   3.544   4.503  17.459  0.3098 -0.9111 -1.0139
 1405SOL     OW15850   1.436   0.371   0.929  0.0818 -0.1521 -0.1565
 1405SOL    HW115851   1.423   0.289   0.882 -2.4793  0.4940 -0.5562
 1405SOL    HW215852   1.390   0.365   1.013 -0.5741  1.1172 -0.4329
 1406SOL     OW15853   0.676   2.782   2.040 -0.1198 -0.1950 -0.6230
 1406SOL    HW115854   0.593   2.826   2.019  0.8840  1.5343 -0.9576
 1406SOL    HW215855   0.742   2.844   2.009 -0.0145 -0.3804 -0.7669
 1407SOL     OW15856   2.041   4.140  15.982 -0.2883  0.4543 -0.3254
 1407SOL    HW115857   2.080   4.062  15.942 -0.5693 -0.0466  0.3876
 1407SOL    HW215858   2.110   4.204  15.964 -2.2107  3.0140  1.4487
 1408SOL     OW15859   0.154   4.730  12.869  0.5104 -0.4356 -0.2477
 1408SOL    HW115860   0.104   4.714  12.789 -2.4237 -1.8931  1.8748
 1408SOL    HW215861   0.137   0.085  12.884 -0.4346 -0.7010  0.3174
 1409SOL     OW15862   3.967   2.016   3.348 -0.2726 -0.1091 -0.2266
 1409SOL    HW115863   3.942   1.960   3.275 -1.4807 -0.5572  0.5373
 1409SOL    HW215864   3.891   1.999   3.403  0.7398 -1.0124  0.8724
 1410SOL     OW15865   3.265   2.000   5.227  0.1296 -0.0012 -0.0480
 1410SOL    HW115866   3.278   2.077   5.171 -2.3791  0.0765 -0.5076
 1410SOL    HW215867   3.241   1.937   5.158  0.7365 -1.2066  0.8336
 1411SOL     OW15868   4.237   2.100   2.399 -0.7027  0.2006 -0.5075
 1411SOL    HW115869   4.241   2.133   2.309 -0.9459  1.2276 -0.1378
 1411SOL    HW215870   4.152   2.055   2.405 -0.1181 -0.9157 -0.4510
 1412SOL     OW15871   4.011   2.870  11.169 -0.4451  0.1446  0.6775
 1412SOL    HW115872   4.090   2.920  11.191  0.4474 -0.6614 -0.6669
 1412SOL    HW215873   4.041   2.813  11.098  1.5440  0.3738  1.3428
 1413SOL     OW15874   3.192   4.474  14.497  0.4422 -0.1941 -0.0278
 1413SOL    HW115875   3.096   4.475  14.495  0.4747  1.9742 -0.7470
 1413SOL    HW215876   3.202   4.484  14.402 -2.4822 -1.2782 -0.4590
 1414SOL     OW15877   0.488   1.673   2.762  0.1804 -0.2957 -0.2379
 1414SOL    HW115878   0.476   1.628   2.679  0.5045 -0.2525 -0.3099
 1414SOL    HW215879   0.413   1.733   2.764 -0.6418 -1.3229 -0.7131
 1415SOL     OW15880   0.693   0.937   8.429 -0.2008 -0.2697  0.7742
 1415SOL    HW115881   0.631   0.878   8.384 -0.2268  1.4377 -1.4447
 1415SOL    HW215882   0.751   0.875   8.473  0.2259 -0.6217 -0.2863
 1416SOL     OW15883   0.619   4.243   5.291 -0.2943  0.0613 -0.4154
 1416SOL    HW115884   0.671   4.167   5.317  0.1235  0.2273 -0.7691
 1416SOL    HW215885   0.678   4.293   5.235  0.1143 -2.4224 -2.2152
 1417SOL     OW15886   2.066   4.227   9.625  0.4022 -0.1980  0.1163
 1417SOL    HW115887   2.095   4.247   9.713 -0.5444  0.6585  0.2314
 1417SOL    HW215888   2.101   4.299   9.573  1.3851  0.5223  1.7789
 1418SOL     OW15889   1.390   3.528   2.493  0.6895  0.0923 -0.0066
 1418SOL    HW115890   1.309   3.557   2.534  0.2743 -1.8610  0.5421
 1418SOL    HW215891   1.455   3.572   2.548 -2.5786  2.5440  1.8320
 1419SOL     OW15892   2.134   2.285   3.149  0.4895  0.3118  0.3652
 1419SOL    HW115893   2.087   2.203   3.133  0.6394  0.4899 -1.0155
 1419SOL    HW215894   2.195   2.255   3.216 -0.6479 -3.4667 -0.3038
 1420SOL     OW15895   4.275   1.955  11.662  0.3707  0.0361  0.0096
 1420SOL    HW115896   4.282   1.860  11.652  1.9559  0.1022  0.5202
 1420SOL    HW215897   4.341   1.978  11.598  1.0396  0.1344  0.7316
 1421SOL     OW15898   3.025   1.370  10.615 -0.5050  0.1389  0.4392
 1421SOL    HW115899   2.963   1.325  10.558 -0.5126  1.6254 -0.7075
 1421SOL    HW215900   3.068   1.435  10.559 -1.4185 -1.1149 -1.7224
 1422SOL     OW15901   1.138   1.139   7.778  0.3845  0.1024  0.2390
 1422SOL    HW115902   1.076   1.116   7.847  0.5335 -0.2939  0.2393
 1422SOL    HW215903   1.143   1.065   7.718  0.5733 -1.0292  1.6674
 1423SOL     OW15904   1.711   3.932   5.149 -0.2347  0.2581  0.0179
 1423SOL    HW115905   1.652   4.004   5.170  2.1023  2.4275 -0.8361
 1423SOL    HW215906   1.745   3.971   5.068 -1.7544 -0.2037 -0.8463
 1424SOL     OW15907   3.692   1.113   5.005  0.4254  0.5984  0.0341
 1424SOL    HW115908   3.785   1.132   4.998  1.3203 -2.8705  2.3167
 1424SOL    HW215909   3.662   1.086   4.918  0.0436 -0.3529  0.4565
 1425SOL     OW15910   3.281   2.402   0.477 -0.2510  0.6044 -0.0448
 1425SOL    HW115911   3.322   2.346   0.542 -1.3705 -2.4406 -1.9879
 1425SOL    HW215912   3.230   2.331   0.438  1.1299  1.5529 -3.6178
 1426SOL     OW15913   3.409   2.090   8.516 -0.1954  0.1637  0.2284
 1426SOL    HW115914   3.462   2.169   8.503 -0.2150 -0.0733 -1.3941
 1426SOL    HW215915   3.462   2.029   8.463 -1.6777 -1.6863  0.9032
 1427SOL     OW15916   1.563   3.853  12.090 -0.1300 -0.4468  0.0286
 1427SOL    HW115917   1.502   3.879  12.159  0.8585 -0.6007  0.9602
 1427SOL    HW215918   1.562   3.760  12.110 -1.4442 -0.1549  1.3225
 1428SOL     OW15919   3.307   0.428   4.158  0.4207 -0.0062 -0.3079
 1428SOL    HW115920   3.319   0.515   4.120 -0.4183 -0.1164 -0.8306
 1428SOL    HW215921   3.380   0.425   4.221  0.3137  1.2324 -0.1232
 1429SOL     OW15922   1.228   3.370   5.309 -0.0471 -0.3208  0.0226
 1429SOL    HW115923   1.149   3.319   5.325 -0.7108  0.9600  0.9328
 1429SOL    HW215924   1.187   3.446   5.267 -1.6616 -0.2471  1.7368
 1430SOL     OW15925   3.631   1.531  17.138 -0.1094  0.1783 -0.7492
 1430SOL    HW115926   3.647   1.449  17.184  0.5791  1.5211  1.3807
 1430SOL    HW215927   3.589   1.493  17.061  3.3973 -0.9403 -2.0809
 1431SOL     OW15928   0.323   0.287   2.257  0.7230 -0.0963  0.0191
 1431SOL    HW115929   0.361   0.278   2.170 -0.4356  0.9531 -0.6009
 1431SOL    HW215930   0.253   0.221   2.258  0.3582  0.2803 -0.2900
 1432SOL     OW15931   3.912   4.289   3.556 -0.6611 -0.4265 -0.2167
 1432SOL    HW115932   3.958   4.272   3.473 -0.7947 -0.5026 -0.2761
 1432SOL    HW215933   3.982   4.271   3.619 -2.1492  0.4508  1.6821
 1433SOL     OW15934   1.261   0.989   7.585  0.2572 -0.3270 -0.5525
 1433SOL    HW115935   1.244   0.904   7.543  0.4592 -0.9666  0.6516
 1433SOL    HW215936   1.307   1.040   7.518 -0.9348 -2.0998 -2.7124
 1434SOL     OW15937   3.134   1.731   2.368  0.6885  0.0799 -0.0791
 1434SOL    HW115938   3.114   1.809   2.317 -1.7516  0.2665  1.1240
 1434SOL    HW215939   3.224   1.716   2.341  0.7477  2.6761 -1.3295
 1435SOL     OW15940   3.927   3.956   9.201  0.1157  0.1396  0.1775
 1435SOL    HW115941   3.926   3.882   9.261 -1.2508  0.3528  0.4210
 1435SOL    HW215942   3.845   4.001   9.223 -0.2244 -1.7824  2.8106
 1436SOL     OW15943   4.568   4.156   4.417 -0.0909  0.0736 -0.0413
 1436SOL    HW115944   4.538   4.066   4.403  0.8742 -0.3567  0.7030
 1436SOL    HW215945   4.552   4.194   4.330  2.6962  2.4782  0.4535
 1437SOL     OW15946   3.489   0.800   2.011 -0.1275  0.1216  0.1036
 1437SOL    HW115947   3.548   0.748   2.065 -0.9209 -0.4707  0.3962
 1437SOL    HW215948   3.532   0.885   2.017  2.8625 -1.3121 -1.4820
 1438SOL     OW15949   1.520   0.281  12.292  0.1057  0.1105  0.4455
 1438SOL    HW115950   1.477   0.223  12.355 -0.5392 -0.3244 -0.3965
 1438SOL    HW215951   1.503   0.240  12.207  0.8840 -1.8979  1.2661
 1439SOL     OW15952   1.628   0.896  14.007  0.3672  0.7775 -0.2885
 1439SOL    HW115953   1.581   0.947  13.941  0.2758 -1.0307 -1.6170
 1439SOL    HW215954   1.565   0.824  14.014  1.3095  0.0091  0.3707
 1440SOL     OW15955   3.493   3.493   8.583  0.2398  0.2962  0.7894
 1440SOL    HW115956   3.488   3.540   8.500  1.1663  2.1726  1.8003
 1440SOL    HW215957   3.587   3.477   8.595  0.4857  0.6387 -0.7078
 1441SOL     OW15958   1.270   2.104   0.542  0.4122 -0.0046  0.1653
 1441SOL    HW115959   1.287   2.017   0.577  1.0823  0.0348 -0.0627
 1441SOL    HW215960   1.363   2.118   0.522  1.1710 -1.2215  2.7842
 1442SOL     OW15961   2.802   4.024   2.757  0.3034 -0.1866 -0.6981
 1442SOL    HW115962   2.734   4.003   2.822  0.6235 -1.9698 -0.9224
 1442SOL    HW215963   2.825   4.114   2.779 -2.2584  0.6088 -1.2714
 1443SOL     OW15964   0.100   1.101   6.227  0.3208  0.0899  0.7147
 1443SOL    HW115965   0.066   1.178   6.273  0.5689  0.6771 -0.0860
 1443SOL    HW215966   0.177   1.076   6.278 -0.1027  0.3811  1.5066
 1444SOL     OW15967   3.391   2.578   2.533 -0.1507 -0.5512  0.2404
 1444SOL    HW115968   3.355   2.535   2.610 -1.1373 -1.6460 -0.8246
 1444SOL    HW215969   3.471   2.527   2.519  0.9363  1.1256  0.3098
 1445SOL     OW15970   3.228   4.350   4.866  0.0784  0.1693 -0.7660
 1445SOL    HW115971   3.323   4.357   4.878 -0.1717  0.2043  1.3421
 1445SOL    HW215972   3.216   4.266   4.910  4.6096  0.7378  1.6638
 1446SOL     OW15973   4.171   1.834   7.268 -0.2820  0.1834  0.2125
 1446SOL    HW115974   4.115   1.814   7.192  1.1995 -0.4845 -0.6998
 1446SOL    HW215975   4.247   1.780   7.246 -1.1397 -0.8031 -0.3340
 1447SOL     OW15976   3.310   1.098   3.138  0.1857 -0.1239 -0.3454
 1447SOL    HW115977   3.302   1.165   3.070 -1.0934 -0.2924 -0.3728
 1447SOL    HW215978   3.231   1.116   3.190  1.4639  1.1355  1.1736
 1448SOL     OW15979   4.048   4.294   7.333  0.5129  0.0438 -0.3193
 1448SOL    HW115980   4.084   4.378   7.360  3.7469 -1.3188 -0.3661
 1448SOL    HW215981   4.029   4.302   7.240  2.0026 -2.3505 -0.8357
 1449SOL     OW15982   2.450   0.162   3.779  0.4333 -0.1999 -0.5008
 1449SOL    HW115983   2.501   0.147   3.699 -0.2315 -1.3309 -0.7097
 1449SOL    HW215984   2.423   0.253   3.766  1.1641 -0.1443 -1.7354
 1450SOL     OW15985   0.505   4.236  11.545 -0.4982 -0.1340  0.2285
 1450SOL    HW115986   0.541   4.254  11.458 -0.9038  0.7584  0.2438
 1450SOL    HW215987   0.583   4.261  11.593 -0.6493  1.6989 -0.4949
 1451SOL     OW15988   1.991   0.390   8.520  0.0400  0.1083 -0.1079
 1451SOL    HW115989   1.928   0.348   8.579 -0.9151  0.1679 -1.0726
 1451SOL    HW215990   1.939   0.425   8.447  0.1256 -2.4928 -1.4011
 1452SOL     OW15991   3.010   3.680   1.638  0.5118 -0.5745 -0.1561
 1452SOL    HW115992   3.067   3.742   1.593  1.1264 -1.1033 -0.0939
 1452SOL    HW215993   2.924   3.723   1.629 -0.5958 -2.6031  0.7655
 1453SOL     OW15994   4.476   0.700   2.459  0.8651  0.2320  0.2383
 1453SOL    HW115995   4.527   0.640   2.514 -0.8880 -1.0885  0.4410
 1453SOL    HW215996   4.447   0.634   2.396  2.4231 -1.1967  1.0208
 1454SOL     OW15997   3.871   1.608   7.458  0.1187 -0.7607  0.9671
 1454SOL    HW115998   3.887   1.621   7.551 -1.5449 -0.4095  1.2183
 1454SOL    HW215999   3.949   1.557   7.437 -0.7860 -2.3189  1.3205
 1455SOL     OW16000   0.176   3.076   3.803 -0.1474  0.1477  0.4137
 1455SOL    HW116001   0.187   2.998   3.749 -0.5123 -1.6066  2.8791
 1455SOL    HW216002   0.185   3.146   3.739 -0.8882 -1.5078 -1.5110
 1456SOL     OW16003   4.107   2.525   9.743 -0.2776 -0.5504 -0.0900
 1456SOL    HW116004   4.114   2.560   9.654 -2.0991 -0.5733 -0.2472
 1456SOL    HW216005   4.059   2.597   9.785  1.2189  1.1675 -1.3465
 1457SOL     OW16006   0.581   3.200   1.029 -0.9465 -0.1580  0.6628
 1457SOL    HW116007   0.639   3.141   1.077 -1.7404 -2.2278 -0.9394
 1457SOL    HW216008   0.492   3.164   1.034 -0.0208 -2.1573  3.0525
 1458SOL     OW16009   1.675   4.386   6.187 -0.5116 -0.2441  0.5800
 1458SOL    HW116010   1.739   4.314   6.189  1.8331  1.8341 -0.2370
 1458SOL    HW216011   1.589   4.343   6.185 -0.5899  0.0206 -1.7974
 1459SOL     OW16012   2.899   0.923   0.993 -0.3711 -0.2973  0.7188
 1459SOL    HW116013   2.943   0.957   0.916  1.9778  0.1452  2.2435
 1459SOL    HW216014   2.926   0.986   1.060 -0.9556  0.3868  0.2984
 1460SOL     OW16015   4.362   4.084  13.330 -0.0820 -0.0828  0.1889
 1460SOL    HW116016   4.422   4.110  13.400  1.1485  1.4693 -1.4601
 1460SOL    HW216017   4.369   3.989  13.334  0.6646 -0.0343 -0.0920
 1461SOL     OW16018   4.243   2.540   9.970 -0.0660 -0.3874  0.7852
 1461SOL    HW116019   4.159   2.519  10.009 -2.0203  0.8031 -2.7953
 1461SOL    HW216020   4.229   2.526   9.876  0.5341  0.3052  0.5914
 1462SOL     OW16021   0.988   2.812   0.135 -0.0255 -0.4744 -0.2966
 1462SOL    HW116022   0.993   2.896   0.089  0.8950  0.1001  0.8555
 1462SOL    HW216023   1.007   2.748   0.067 -1.3465  1.1151 -2.1825
 1463SOL     OW16024   1.277   4.543   2.914 -0.3794 -0.0502 -0.0990
 1463SOL    HW116025   1.331   4.621   2.898  1.2659 -0.9277  1.1776
 1463SOL    HW216026   1.215   4.571   2.983 -0.1260  1.2533 -0.3884
 1464SOL     OW16027   4.114   2.815   5.073  0.2263 -0.3971 -0.1534
 1464SOL    HW116028   4.127   2.780   5.161  0.1003 -1.6195 -0.6057
 1464SOL    HW216029   4.200   2.856   5.068 -0.5582  1.4569  1.7648
 1465SOL     OW16030   0.317   1.975   2.867 -0.3266  0.5280  0.2594
 1465SOL    HW116031   0.303   1.939   2.779 -0.1597  1.3219 -0.0936
 1465SOL    HW216032   0.412   1.980   2.882 -0.0199  0.3585 -1.5858
 1466SOL     OW16033   1.533   3.211   3.272  0.1599  0.3869  0.2250
 1466SOL    HW116034   1.604   3.226   3.210  0.2371  1.0670  0.4815
 1466SOL    HW216035   1.576   3.195   3.357 -0.8120 -1.0574  0.4553
 1467SOL     OW16036   2.356   4.034   8.493 -0.3675 -0.5688 -0.0557
 1467SOL    HW116037   2.321   4.020   8.405  1.5511  0.2703 -0.9729
 1467SOL    HW216038   2.441   3.989   8.498  0.2060  0.6899  1.5486
 1468SOL     OW16039   3.281   2.169   9.343 -0.1938  0.9513 -0.2525
 1468SOL    HW116040   3.234   2.224   9.405  3.1100  3.2661  0.2186
 1468SOL    HW216041   3.370   2.182   9.374 -0.6043  1.6616  0.5995
 1469SOL     OW16042   1.926   3.280   3.326  0.0041 -0.0545 -0.0754
 1469SOL    HW116043   1.907   3.345   3.394 -0.2794  1.7250 -1.8409
 1469SOL    HW216044   2.020   3.260   3.333 -0.3498 -1.2865  0.9905
 1470SOL     OW16045   0.676   1.045   1.936 -0.2412 -0.0484 -0.2437
 1470SOL    HW116046   0.621   1.026   2.012 -0.4323  0.5520 -0.2300
 1470SOL    HW216047   0.675   0.964   1.886  1.6408  0.4589 -1.1135
 1471SOL     OW16048   1.178   2.281   6.092 -0.3019  0.1204 -0.0338
 1471SOL    HW116049   1.169   2.197   6.046  2.1953 -0.0756 -0.1778
 1471SOL    HW216050   1.214   2.250   6.175  3.0423 -0.0920 -1.5719
 1472SOL     OW16051   4.356   3.192   6.491 -0.5002 -0.4139  0.1879
 1472SOL    HW116052   4.316   3.273   6.459  0.9431  1.5792  3.4015
 1472SOL    HW216053   4.440   3.219   6.527 -1.6023 -0.0149  2.4511
 1473SOL     OW16054   0.526   2.733  17.005  0.1414  0.1998  0.5914
 1473SOL    HW116055   0.451   2.673  16.997 -0.2140  0.6950  0.2354
 1473SOL    HW216056   0.556   2.731  16.914  3.6895  1.1315  1.7353
 1474SOL     OW16057   3.536   1.201   1.663 -0.3542  0.6538 -0.2798
 1474SOL    HW116058   3.631   1.210   1.663 -0.5116  2.2880  1.1076
 1474SOL    HW216059   3.519   1.208   1.757 -1.3783  1.0447 -0.4932
 1475SOL     OW16060   1.377   3.394   6.883  0.5373 -0.0458 -0.4525
 1475SOL    HW116061   1.313   3.368   6.949 -0.3613  1.4041 -0.7676
 1475SOL    HW216062   1.432   3.316   6.888  2.1701  1.1147  0.1291
 1476SOL     OW16063   0.074   2.351  17.389  0.4301  0.3766  0.0209
 1476SOL    HW116064   0.004   2.311  17.441  2.1409 -1.7630  0.6596
 1476SOL    HW216065   0.020   2.400  17.327 -0.3099  1.1538  1.2792
 1477SOL     OW16066   2.182   4.234  12.032  0.4917  0.2354 -0.8259
 1477SOL    HW116067   2.262   4.282  12.051  1.6902 -1.4701 -1.6144
 1477SOL    HW216068   2.119   4.290  12.077  2.2441  2.3891 -1.0667
 1478SOL     OW16069   2.091   3.358   8.968  0.2786  0.1325  0.4822
 1478SOL    HW116070   1.998   3.335   8.963  0.4643 -0.3751 -0.7002
 1478SOL    HW216071   2.126   3.273   8.943 -0.1037 -0.1489  0.8972
 1479SOL     OW16072   0.656   1.114  14.353  1.1658 -0.6920 -0.3666
 1479SOL    HW116073   0.595   1.074  14.416  0.6669  1.6351  0.6334
 1479SOL    HW216074   0.599   1.172  14.302  0.4739 -0.6280  0.4766
 1480SOL     OW16075   2.509   0.643   2.198 -0.1787 -0.1462  0.7515
 1480SOL    HW116076   2.479   0.573   2.256  2.7417  0.7118  3.2979
 1480SOL    HW216077   2.603   0.628   2.203 -0.1381  0.1436  0.8355
 1481SOL     OW16078   2.716   0.786   1.729  0.1271  0.2417 -0.0323
 1481SOL    HW116079   2.691   0.695   1.713  0.8075 -0.1310  0.9980
 1481SOL    HW216080   2.649   0.816   1.790  0.1851  0.0980  0.1029
 1482SOL     OW16081   1.745   3.916   8.238 -0.2086  0.6185 -0.9537
 1482SOL    HW116082   1.828   3.872   8.257 -1.8618 -2.0874 -0.0321
 1482SOL    HW216083   1.701   3.879   8.314  2.5383 -1.5883 -0.4583
 1483SOL     OW16084   3.125   4.248   8.364  0.3905 -0.3759 -0.5847
 1483SOL    HW116085   3.147   4.233   8.456  0.1245 -2.2989 -0.8355
 1483SOL    HW216086   3.205   4.220   8.319  0.0518 -1.1308 -0.7286
 1484SOL     OW16087   3.014   4.710  11.320 -0.5628  0.1481  0.7046
 1484SOL    HW116088   2.938   0.029  11.315 -0.9084 -0.6469 -2.6907
 1484SOL    HW216089   2.993   4.670  11.405  0.4296 -0.3426  0.7194
 1485SOL     OW16090   0.094   1.582   3.428 -0.2910 -0.4275 -0.1136
 1485SOL    HW116091   0.144   1.501   3.421  1.3434  0.6613 -0.9641
 1485SOL    HW216092   0.050   1.586   3.342 -0.4930 -0.5213 -0.0150
 1486SOL     OW16093   1.776   0.666   7.717 -0.0236  0.7118  0.1987
 1486SOL    HW116094   1.692   0.641   7.754  0.0200 -1.2017 -1.0166
 1486SOL    HW216095   1.832   0.643   7.792 -2.6577  0.3784  2.0473
 1487SOL     OW16096   0.987   3.836   2.298 -0.3754  0.7483  0.5319
 1487SOL    HW116097   0.915   3.779   2.269  0.0982  0.6307 -0.4319
 1487SOL    HW216098   1.055   3.832   2.230 -1.5470 -1.1394 -0.5423
 1488SOL     OW16099   4.482   2.372   4.440  0.2217 -0.0649  0.5382
 1488SOL    HW116100   4.401   2.396   4.396  1.2147  0.3597 -1.0780
 1488SOL    HW216101   4.448   2.298   4.490 -2.4715  1.4182  0.8672
 1489SOL     OW16102   4.628   2.372   2.536 -0.0272 -0.5203  0.4142
 1489SOL    HW116103   4.583   2.340   2.457  2.4526 -2.8386 -0.0800
 1489SOL    HW216104   4.571   2.449   2.542  1.7508  0.9408 -1.2763
 1490SOL     OW16105   0.608   1.231  12.867  0.0877  0.5203  0.1762
 1490SOL    HW116106   0.609   1.177  12.788 -1.3972  1.0618 -0.2051
 1490SOL    HW216107   0.585   1.313  12.825  2.6145  1.0839 -0.1193
 1491SOL     OW16108   3.651   3.694  14.301  0.3962 -0.4563  0.4781
 1491SOL    HW116109   3.567   3.696  14.347 -0.0135 -0.3511 -0.2711
 1491SOL    HW216110   3.651   3.613  14.249 -1.5690  0.6175 -1.2299
 1492SOL     OW16111   3.106   1.270   2.574  0.5269 -0.0455 -0.8623
 1492SOL    HW116112   3.065   1.227   2.649 -0.6788 -1.9207 -2.6091
 1492SOL    HW216113   3.123   1.361   2.598  0.7897 -0.6700  1.4072
 1493SOL     OW16114   2.276   2.598   9.512 -0.4860  0.2345 -0.9583
 1493SOL    HW116115   2.252   2.658   9.442  0.9688  1.0690 -0.7444
 1493SOL    HW216116   2.202   2.597   9.573  1.1314  0.2970  0.9896
 1494SOL     OW16117   2.495   2.610  11.115 -0.8691 -0.0323 -0.3240
 1494SOL    HW116118   2.439   2.648  11.048 -0.1372 -0.0011 -0.9105
 1494SOL    HW216119   2.435   2.576  11.183 -1.1958 -2.5495 -1.8796
 1495SOL     OW16120   2.406   4.578   2.286  0.6704 -0.8143 -0.2137
 1495SOL    HW116121   2.338   4.511   2.283 -0.9390  0.7688  1.3522
 1495SOL    HW216122   2.370   4.666   2.275 -0.6225 -1.3144  0.0363
 1496SOL     OW16123   2.698   0.251   7.845 -0.1797  0.1757 -0.1957
 1496SOL    HW116124   2.645   0.171   7.851  1.0127 -0.5848  0.1851
 1496SOL    HW216125   2.775   0.223   7.795  0.1083  2.2019 -0.8609
 1497SOL     OW16126   2.673   0.659   7.678  0.1173 -0.3921 -0.0264
 1497SOL    HW116127   2.620   0.603   7.622 -0.7296 -0.4915  0.8850
 1497SOL    HW216128   2.629   0.744   7.669 -0.0764 -0.4450  0.4033
 1498SOL     OW16129   3.334   2.451   1.977 -0.3121 -0.4996  0.5035
 1498SOL    HW116130   3.396   2.407   1.919 -1.0815 -0.2765 -0.5006
 1498SOL    HW216131   3.288   2.516   1.924  0.9625  1.0238  1.2908
 1499SOL     OW16132   2.132   4.330   5.264 -0.1359 -0.4829  0.1722
 1499SOL    HW116133   2.043   4.297   5.272  0.1120 -0.4579  3.0751
 1499SOL    HW216134   2.190   4.255   5.246  0.4326 -0.0269  0.1049
 1500SOL     OW16135   2.745   3.839   5.196  0.2738  0.5485  0.4066
 1500SOL    HW116136   2.701   3.919   5.226 -1.5742 -0.1300 -0.4533
 1500SOL    HW216137   2.694   3.808   5.121 -0.1677 -0.1545  0.9963
 1501SOL     OW16138   0.671   2.692   4.076 -0.7931 -0.2641 -0.0252
 1501SOL    HW116139   0.723   2.720   4.152 -1.6973  0.9734  0.1374
 1501SOL    HW216140   0.704   2.607   4.048 -4.0034 -1.7733  0.9181
 1502SOL     OW16141   1.018   0.985  16.527  0.1529  0.5386 -0.2341
 1502SOL    HW116142   1.037   1.018  16.439  2.5028  1.9939  0.8100
 1502SOL    HW216143   0.923   0.993  16.522  0.2871  1.0714 -2.0007
 1503SOL     OW16144   1.057   0.707   8.694 -0.1734  0.2013  0.3958
 1503SOL    HW116145   1.078   0.800   8.706  1.1056 -0.2458  1.5732
 1503SOL    HW216146   1.067   0.678   8.785  0.2016  0.7988  0.5465
 1504SOL     OW16147   3.214   3.695   6.947  0.5643 -0.3598 -0.1750
 1504SOL    HW116148   3.232   3.740   6.865 -4.3995  0.5074 -0.7789
 1504SOL    HW216149   3.239   3.767   7.005  1.6714  0.2996 -1.4683
 1505SOL     OW16150   3.981   2.767   1.131 -0.3057  0.6972  0.2673
 1505SOL    HW116151   4.006   2.859   1.121 -0.6293  0.6615 -0.8591
 1505SOL    HW216152   3.886   2.778   1.133 -0.4064  0.2412 -2.4032
 1506SOL     OW16153   2.568   1.460   4.410  0.0284 -0.1128  0.0215
 1506SOL    HW116154   2.556   1.376   4.453 -0.2768  0.5354  1.2092
 1506SOL    HW216155   2.568   1.513   4.489  0.6250 -0.6619  0.3916
 1507SOL     OW16156   2.338   4.695   8.910 -0.9440 -0.0124 -1.1668
 1507SOL    HW116157   2.304   4.605   8.910  0.8031 -0.6583 -1.7565
 1507SOL    HW216158   2.311   4.722   8.998 -1.1657 -1.1392 -0.8831
 1508SOL     OW16159   3.654   1.846   3.100 -0.2712  0.1655 -0.1122
 1508SOL    HW116160   3.632   1.939   3.110 -0.0459  0.0016  2.0088
 1508SOL    HW216161   3.565   1.812   3.093 -0.1552 -0.3007  0.7011
 1509SOL     OW16162   2.529   0.206   7.444  0.1533 -0.0317  1.0602
 1509SOL    HW116163   2.510   0.294   7.476  2.4081  0.5932  0.6744
 1509SOL    HW216164   2.453   0.158   7.477  0.2906 -0.4371  0.7801
 1510SOL     OW16165   1.959   4.210  10.178 -0.2854 -0.0408 -0.3251
 1510SOL    HW116166   1.987   4.179  10.264  0.1284  2.0152  0.2710
 1510SOL    HW216167   1.867   4.221  10.203 -0.4999 -0.7020 -0.8199
 1511SOL     OW16168   2.562   1.086  12.786 -0.4344 -0.0610 -0.3315
 1511SOL    HW116169   2.572   1.019  12.852  0.4013 -0.9934 -1.4033
 1511SOL    HW216170   2.652   1.113  12.765 -0.0823  0.0076  1.3021
 1512SOL     OW16171   3.323   3.699   8.007  0.3068 -0.1516  0.0846
 1512SOL    HW116172   3.276   3.735   7.932  0.8443  2.6033  1.0498
 1512SOL    HW216173   3.246   3.661   8.049  0.1756 -0.1124 -0.1192
 1513SOL     OW16174   4.031   2.026  16.182 -0.2345 -0.2676  0.2451
 1513SOL    HW116175   4.026   1.932  16.165  0.2238  0.0096 -1.4757
 1513SOL    HW216176   3.946   2.067  16.166 -0.3662 -0.7067 -0.1854
 1514SOL     OW16177   4.616   3.578  17.390  0.0656  0.3851 -0.2703
 1514SOL    HW116178   4.643   3.495  17.350 -1.9179 -2.1484  3.5199
 1514SOL    HW216179   4.589   3.621  17.309 -1.3140 -1.1489 -0.6285
 1515SOL     OW16180   4.057   0.154   3.899 -0.0371  0.4682 -0.0201
 1515SOL    HW116181   4.143   0.139   3.859 -0.2063 -0.6708  0.0382
 1515SOL    HW216182   3.998   0.108   3.840  1.7976  0.2949 -1.7415
 1516SOL     OW16183   1.966   4.619  14.439 -0.4756  0.1969 -0.3481
 1516SOL    HW116184   1.908   4.620  14.363  0.6927  0.5258 -1.2390
 1516SOL    HW216185   2.032   4.677  14.400 -0.2093 -0.6726 -1.1892
 1517SOL     OW16186   2.476   0.387   6.614 -0.2850 -0.1500  0.1474
 1517SOL    HW116187   2.541   0.343   6.669 -1.6378  0.9708  2.6270
 1517SOL    HW216188   2.502   0.479   6.603  0.7540 -0.6001 -1.1529
 1518SOL     OW16189   1.651   4.326   8.996  0.1328 -0.6658  0.2378
 1518SOL    HW116190   1.615   4.401   8.948  1.8699  0.3653  0.5585
 1518SOL    HW216191   1.727   4.359   9.044 -0.1441  1.0357 -0.4765
 1519SOL     OW16192   1.069   3.937   9.252 -0.0296  0.1462 -0.5773
 1519SOL    HW116193   1.109   3.912   9.336 -0.0292 -3.3280 -1.6053
 1519SOL    HW216194   1.122   4.009   9.219  2.4783 -2.2729 -1.8380
 1520SOL     OW16195   1.987   0.574   7.534 -0.2206 -0.6015 -0.7717
 1520SOL    HW116196   1.920   0.575   7.603 -0.4107 -0.6233 -0.9537
 1520SOL    HW216197   2.061   0.526   7.569  0.9238  0.6536 -1.4890
 1521SOL     OW16198   0.388   0.918   7.031  0.6723 -0.1613 -0.1429
 1521SOL    HW116199   0.367   0.861   6.957  1.8120  1.8621 -2.0258
 1521SOL    HW216200   0.376   0.864   7.109  0.8038 -1.2684 -0.8839
 1522SOL     OW16201   1.482   1.686  12.804  0.3110 -0.0238  0.4394
 1522SOL    HW116202   1.542   1.685  12.879  0.7653  0.0715  0.0750
 1522SOL    HW216203   1.480   1.780  12.789 -1.7017 -0.1953 -0.2778
 1523SOL     OW16204   1.550   1.771   2.183  0.0145 -0.5050 -0.1571
 1523SOL    HW116205   1.596   1.785   2.100 -2.2383  2.4903 -0.9013
 1523SOL    HW216206   1.472   1.822   2.162 -0.6823 -1.7867 -0.6513
 1524SOL     OW16207   0.650   1.173   8.270  0.1402  0.3000 -0.2302
 1524SOL    HW116208   0.686   1.245   8.322  1.6575 -2.5209  2.5958
 1524SOL    HW216209   0.663   1.106   8.337 -1.3713 -0.4711 -0.6981
 1525SOL     OW16210   1.567   3.713   6.740  0.8790 -0.5011 -0.9174
 1525SOL    HW116211   1.560   3.694   6.833  0.5206  0.5961 -0.7231
 1525SOL    HW216212   1.500   3.781   6.730 -0.7287 -1.8813  0.5291
 1526SOL     OW16213   0.677   1.888  15.093 -0.2727  0.4708 -0.9611
 1526SOL    HW116214   0.730   1.947  15.040  1.0101 -0.4308 -0.6885
 1526SOL    HW216215   0.623   1.943  15.149 -0.5352  0.3773 -1.1241
 1527SOL     OW16216   2.029   3.606   2.975  0.0887  0.2191  0.5165
 1527SOL    HW116217   1.981   3.680   2.937  1.0179  0.5964  0.0702
 1527SOL    HW216218   1.986   3.541   2.918  0.2843 -1.6040  2.4390
 1528SOL     OW16219   3.589   4.552   8.505 -0.4546  0.5271 -0.0267
 1528SOL    HW116220   3.607   4.564   8.412  1.2826 -0.2712  0.1898
 1528SOL    HW216221   3.571   4.458   8.513  2.5425  0.1949  3.1710
 1529SOL     OW16222   0.476   0.813   7.527 -0.4638  0.0619  0.0201
 1529SOL    HW116223   0.551   0.872   7.521  0.7714 -1.7844 -2.4711
 1529SOL    HW216224   0.418   0.884   7.552  2.8735  1.6757  3.2755
 1530SOL     OW16225   4.162   4.011   2.516 -0.4457 -0.4116 -0.2754
 1530SOL    HW116226   4.206   3.948   2.572  0.1320 -1.2205 -1.6339
 1530SOL    HW216227   4.228   4.059   2.466  0.8506 -3.0258 -1.0658
 1531SOL     OW16228   0.177   2.547   9.319 -0.5529 -0.0610 -0.5756
 1531SOL    HW116229   0.212   2.630   9.285  1.7533 -0.4338  0.8640
 1531SOL    HW216230   0.095   2.532   9.272 -1.0954  0.5804  0.1888
 1532SOL     OW16231   0.706   3.891   1.862 -0.3586  0.6827  0.4869
 1532SOL    HW116232   0.722   3.808   1.907  0.0981  0.0101 -0.9103
 1532SOL    HW216233   0.728   3.865   1.772  1.7268 -0.2271  1.2435
 1533SOL     OW16234   0.901   1.287   4.171  0.5471 -0.0363 -0.2092
 1533SOL    HW116235   0.866   1.271   4.083 -2.0954  0.3249  0.7938
 1533SOL    HW216236   0.819   1.307   4.216  1.4285 -0.4884  1.5842
 1534SOL     OW16237   0.549   1.976   7.169 -0.3816  0.0804  0.0172
 1534SOL    HW116238   0.613   2.007   7.233  2.2930 -1.4925 -1.9075
 1534SOL    HW216239   0.604   1.968   7.091 -0.1552 -0.9658  0.2922
 1535SOL     OW16240   4.535   3.937  10.319 -0.3801 -0.1386  0.1648
 1535SOL    HW116241   4.441   3.921  10.318 -0.0437 -2.1834  1.8605
 1535SOL    HW216242   4.553   3.957  10.411 -1.6523 -2.6987  0.9805
 1536SOL     OW16243   2.312   3.706  12.867 -0.5404 -0.1568  0.1843
 1536SOL    HW116244   2.321   3.756  12.786 -1.6129  0.0332  0.1794
 1536SOL    HW216245   2.224   3.670  12.861 -0.1474 -1.1691  0.4516
 1537SOL     OW16246   4.059   3.580  16.433 -0.0499  0.2119 -0.1576
 1537SOL    HW116247   4.091   3.590  16.343 -0.6093  0.8517 -0.2840
 1537SOL    HW216248   4.133   3.596  16.492 -0.7285  1.7962  0.2608
 1538SOL     OW16249   2.934   4.043   8.859  0.3878  0.3881  0.0966
 1538SOL    HW116250   2.954   4.132   8.830  0.9719  0.0456 -0.5575
 1538SOL    HW216251   2.860   4.027   8.799  1.8902 -0.0602 -1.6415
 1539SOL     OW16252   0.505   4.714  17.114 -0.2905  0.3932 -0.1733
 1539SOL    HW116253   0.510   0.050  17.175  2.3473  0.3048 -0.2491
 1539SOL    HW216254   0.420   4.737  17.079 -0.4667 -0.3521 -0.2291
 1540SOL     OW16255   4.320   1.866   1.704  0.5254  0.8253  0.1347
 1540SOL    HW116256   4.251   1.829   1.650  2.1967 -2.5339  0.2858
 1540SOL    HW216257   4.394   1.836   1.650  1.7077  2.4146  0.8526
 1541SOL     OW16258   0.203   4.390  17.023  0.3842 -0.1320  0.1291
 1541SOL    HW116259   0.138   4.439  16.972  1.0054 -0.7614 -1.2879
 1541SOL    HW216260   0.285   4.431  16.994  0.3172  0.6461  1.0307
 1542SOL     OW16261   0.411   0.998  10.716  0.4478  0.1372 -0.0191
 1542SOL    HW116262   0.432   1.062  10.784  0.6412  1.2600 -1.1228
 1542SOL    HW216263   0.448   1.041  10.638  0.6826  0.4882  0.2884
 1543SOL     OW16264   4.661   0.378   0.826  0.0318  0.3547 -0.5514
 1543SOL    HW116265   0.012   0.397   0.796  0.0750 -0.2024 -0.7842
 1543SOL    HW216266   4.621   0.451   0.780 -0.1515  0.6483  0.0647
 1544SOL     OW16267   3.773   4.109   4.126  0.2580 -0.0341  0.0991
 1544SOL    HW116268   3.772   4.014   4.142  0.7983  0.4649  3.1240
 1544SOL    HW216269   3.720   4.131   4.203  0.9336  1.4686  0.1283
 1545SOL     OW16270   0.217   2.768   9.149  0.0245  0.4401  0.1622
 1545SOL    HW116271   0.287   2.747   9.088  0.7559  1.8636  0.5183
 1545SOL    HW216272   0.214   2.863   9.136  2.0228  0.8378  2.6734
 1546SOL     OW16273   0.172   2.478   3.670 -0.3814  0.3132 -0.1253
 1546SOL    HW116274   0.148   2.505   3.582  0.4875 -0.7651 -0.6802
 1546SOL    HW216275   0.165   2.384   3.655 -1.5121  0.6792 -1.8987
 1547SOL     OW16276   2.599   1.464   8.709 -0.6834  0.1532  0.3061
 1547SOL    HW116277   2.549   1.405   8.766 -1.8100  1.0504  0.2316
 1547SOL    HW216278   2.569   1.441   8.621  3.4773 -0.6622 -0.8784
 1548SOL     OW16279   0.487   2.822   8.517  0.4774 -0.2419  0.4202
 1548SOL    HW116280   0.444   2.838   8.433  0.2191 -0.2933  0.5420
 1548SOL    HW216281   0.428   2.880   8.566  1.8967  1.4121  0.1611
 1549SOL     OW16282   0.135   1.825  15.825 -0.2951 -0.2826  0.7019
 1549SOL    HW116283   0.072   1.894  15.805  0.9242  0.1868 -1.4886
 1549SOL    HW216284   0.153   1.787  15.739  1.7425 -0.3565  1.1587
 1550SOL     OW16285   3.213   3.590   4.350 -0.3282  0.6550 -0.1311
 1550SOL    HW116286   3.288   3.533   4.367  0.2691  1.1572 -1.0937
 1550SOL    HW216287   3.233   3.621   4.262 -0.8732 -3.3760 -1.6868
 1551SOL     OW16288   1.457   2.782   4.847  0.4846  0.1997 -0.1740
 1551SOL    HW116289   1.476   2.782   4.753  3.3549 -0.4188  0.4089
 1551SOL    HW216290   1.518   2.713   4.872  0.4344  0.3507  0.3591
 1552SOL     OW16291   4.504   3.035  12.918  0.1908  0.0416 -0.8814
 1552SOL    HW116292   4.417   3.056  12.884  1.0391  1.9213 -1.8460
 1552SOL    HW216293   4.540   2.984  12.846  1.4175 -1.3759  0.7375
 1553SOL     OW16294   2.401   0.263   5.646  0.5425  0.0506  0.7218
 1553SOL    HW116295   2.333   0.267   5.713 -1.1105  1.6701 -1.0434
 1553SOL    HW216296   2.449   0.341   5.675 -0.8865  0.9843  0.5804
 1554SOL     OW16297   1.729   3.651   5.213 -0.7918 -0.1524 -0.1137
 1554SOL    HW116298   1.650   3.625   5.261 -0.6699  0.2283  0.2982
 1554SOL    HW216299   1.722   3.745   5.196  2.6926 -0.0231 -0.8536
 1555SOL     OW16300   0.266   4.598   4.417 -0.0480 -0.3864 -0.3232
 1555SOL    HW116301   0.203   4.615   4.348 -3.6115 -0.5693  2.8711
 1555SOL    HW216302   0.340   4.559   4.371 -1.5284 -3.4377 -0.0532
 1556SOL     OW16303   4.633   4.048   3.723 -0.7844  0.0698  0.0986
 1556SOL    HW116304   4.686   4.007   3.654 -0.3030  0.5989  0.1571
 1556SOL    HW216305   4.614   4.131   3.680  1.8079  0.1307 -0.9616
 1557SOL     OW16306   0.309   2.080   8.856 -0.4992 -0.5831  0.2835
 1557SOL    HW116307   0.282   2.096   8.947  0.0896  2.3840 -0.0587
 1557SOL    HW216308   0.234   2.102   8.802 -0.0718  0.2426  0.0226
 1558SOL     OW16309   2.251   3.295   8.141  0.5643  0.1481 -0.0082
 1558SOL    HW116310   2.271   3.358   8.073 -0.0930 -1.3067 -1.5553
 1558SOL    HW216311   2.254   3.219   8.083  1.2964 -0.4928  0.8577
 1559SOL     OW16312   3.608   2.862   5.507 -0.6776  0.2326 -0.0173
 1559SOL    HW116313   3.584   2.863   5.599  0.0532 -0.2448  0.1828
 1559SOL    HW216314   3.682   2.801   5.506  0.0184  1.1185 -2.8436
 1560SOL     OW16315   0.335   0.896   7.832 -0.5595  0.1792 -0.5005
 1560SOL    HW116316   0.332   0.951   7.910  0.2991  1.5121 -1.3981
 1560SOL    HW216317   0.340   0.958   7.759  0.3328  0.8842  0.1556
 1561SOL     OW16318   0.077   4.059  10.960 -0.0798 -0.2651  0.0516
 1561SOL    HW116319   0.060   3.965  10.959  2.6233 -0.7625  0.1477
 1561SOL    HW216320   0.151   4.073  10.900  0.7571 -0.0651  1.1260
 1562SOL     OW16321   4.150   1.762   0.016  0.1514 -0.4574  0.3304
 1562SOL    HW116322   4.245   1.757   0.010  0.1015  0.1836 -1.0750
 1562SOL    HW216323   4.130   1.855   0.019 -0.8129 -0.5893 -1.4808
 1563SOL     OW16324   0.151   1.050   1.730  0.5525 -0.1409 -0.1418
 1563SOL    HW116325   0.082   1.093   1.780  1.8768  0.1248  1.4443
 1563SOL    HW216326   0.091   1.005   1.670 -1.0214  2.2395 -0.3479
 1564SOL     OW16327   2.113   2.402   8.824 -0.6408 -0.6731  0.1682
 1564SOL    HW116328   2.059   2.338   8.778  0.8425 -1.8900  0.1061
 1564SOL    HW216329   2.203   2.375   8.803 -0.3814  0.3889 -0.0694
 1565SOL     OW16330   4.075   2.402   6.358  0.0640  0.1230  0.2578
 1565SOL    HW116331   4.126   2.455   6.419  0.9157 -0.6308  0.2031
 1565SOL    HW216332   4.143   2.390   6.292  1.2905  0.8857  1.3824
 1566SOL     OW16333   4.635   1.253   2.220 -0.0853  0.5673  0.0987
 1566SOL    HW116334   4.586   1.202   2.156 -1.5998 -1.2085  2.7173
 1566SOL    HW216335   4.669   1.311   2.152 -1.2403 -3.0915 -3.6060
 1567SOL     OW16336   0.463   2.119   6.793 -0.2969 -0.3337 -0.1906
 1567SOL    HW116337   0.411   2.095   6.869  2.5229  2.5898  2.6706
 1567SOL    HW216338   0.551   2.101   6.825  0.4821  1.2120 -1.4610
 1568SOL     OW16339   2.590   3.341   3.898 -0.0086  0.0790  0.0467
 1568SOL    HW116340   2.645   3.348   3.976 -0.2001  0.3170  0.1599
 1568SOL    HW216341   2.594   3.429   3.862  0.5388 -0.0208 -0.1446
 1569SOL     OW16342   2.495   3.329  12.629  0.6547 -0.0959 -0.9760
 1569SOL    HW116343   2.545   3.405  12.658  0.5888 -1.1021  1.8267
 1569SOL    HW216344   2.545   3.261  12.674 -0.0762  1.7001  2.5494
 1570SOL     OW16345   0.418   4.648  12.943 -0.1922  0.0663  0.3621
 1570SOL    HW116346   0.331   4.669  12.908 -0.1032 -0.5673 -0.2339
 1570SOL    HW216347   0.455   4.735  12.957 -2.2007  0.4995  3.2206
 1571SOL     OW16348   2.105   3.420  15.682 -0.7515  0.1513  0.1130
 1571SOL    HW116349   2.097   3.427  15.587  1.5091  2.5978  0.1158
 1571SOL    HW216350   2.198   3.410  15.701 -0.1010  0.0485 -3.0903
 1572SOL     OW16351   1.119   0.880   2.460 -0.0646  0.0285 -0.0069
 1572SOL    HW116352   1.129   0.967   2.497 -0.4848 -0.5181  1.3675
 1572SOL    HW216353   1.046   0.887   2.398  0.7834 -4.3876 -1.4925
 1573SOL     OW16354   3.526   3.744   0.704 -0.0761 -0.7407 -0.3386
 1573SOL    HW116355   3.482   3.663   0.680  0.5282 -1.0261 -0.4890
 1573SOL    HW216356   3.552   3.777   0.618 -0.6534 -0.3393 -0.3584
 1574SOL     OW16357   2.682   3.502  12.746 -0.4473  0.4595  0.0014
 1574SOL    HW116358   2.705   3.433  12.808  0.4186  0.7133 -0.0396
 1574SOL    HW216359   2.751   3.565  12.768  1.1195 -1.1345 -0.2733
 1575SOL     OW16360   0.883   0.493   5.866 -0.2325  0.4808  0.0796
 1575SOL    HW116361   0.829   0.465   5.940 -1.4800  0.9569 -0.6677
 1575SOL    HW216362   0.916   0.577   5.898  1.2719  0.4367 -1.3515
 1576SOL     OW16363   0.068   4.716  15.775 -0.3910  0.0829  0.4582
 1576SOL    HW116364   0.032   0.060  15.810 -0.7036  0.2033 -0.1481
 1576SOL    HW216365   0.107   4.690  15.859 -2.7169  0.4495  1.6553
 1577SOL     OW16366   0.119   4.574   2.445 -0.1296 -0.6181  0.0750
 1577SOL    HW116367   0.187   4.637   2.469  0.1048 -1.1614  0.8506
 1577SOL    HW216368   0.147   4.545   2.358  0.6184 -0.0395  0.1237
 1578SOL     OW16369   2.974   4.194   1.202 -0.3199  0.1042 -0.1673
 1578SOL    HW116370   3.030   4.143   1.145 -0.0719  0.6728 -0.4341
 1578SOL    HW216371   2.917   4.238   1.139 -0.3086  1.5458  0.8254
 1579SOL     OW16372   0.914   3.478   7.732  0.2027 -0.0179  0.5029
 1579SOL    HW116373   0.990   3.505   7.783 -0.1404 -1.2208  1.6544
 1579SOL    HW216374   0.895   3.391   7.766  0.1265 -0.4530 -0.6460
 1580SOL     OW16375   1.365   0.132   1.289  0.6508 -0.2104 -0.3607
 1580SOL    HW116376   1.349   0.152   1.381  1.0629  0.8741 -0.5253
 1580SOL    HW216377   1.429   0.061   1.300 -0.6552 -1.7543 -2.6780
 1581SOL     OW16378   4.606   4.383  15.938  0.3480  0.9340 -0.2717
 1581SOL    HW116379   4.552   4.435  15.879  1.8477  3.5066  0.6208
 1581SOL    HW216380   4.641   4.324  15.871  1.9170  0.9090  0.5693
 1582SOL     OW16381   0.185   1.829   8.558  0.1810 -0.7914 -0.5952
 1582SOL    HW116382   0.122   1.876   8.504 -3.6731 -2.9931  2.0005
 1582SOL    HW216383   0.231   1.767   8.502 -1.9022 -0.6913 -2.4147
 1583SOL     OW16384   2.612   0.602   8.567  0.2871  0.2005  0.1407
 1583SOL    HW116385   2.624   0.507   8.563  0.2464  0.1914  0.2253
 1583SOL    HW216386   2.603   0.626   8.475  0.1021 -1.0127 -0.1532
 1584SOL     OW16387   2.757   1.918  12.336  0.0268 -0.2797 -0.2727
 1584SOL    HW116388   2.801   1.887  12.415 -2.0145 -1.5833  0.3590
 1584SOL    HW216389   2.665   1.893  12.347 -0.0021 -0.6016 -1.3185
 1585SOL     OW16390   2.142   3.692  15.575 -0.0590 -0.2795 -0.0627
 1585SOL    HW116391   2.123   3.635  15.650 -0.0414 -0.1204  0.0619
 1585SOL    HW216392   2.082   3.761  15.601 -0.3059 -1.0730  1.4718
 1586SOL     OW16393   2.400   1.129   7.144 -0.0484  0.7600 -0.1110
 1586SOL    HW116394   2.355   1.058   7.191 -1.2451  1.6564  0.0992
 1586SOL    HW216395   2.386   1.187   7.219 -2.5185 -0.1816  0.1625
 1587SOL     OW16396   4.575   4.285   4.171 -0.1445  0.1614 -0.6775
 1587SOL    HW116397   4.545   4.321   4.088 -2.0037 -0.3721 -0.2296
 1587SOL    HW216398   4.602   4.196   4.147 -0.9110 -0.0257 -0.8546
 1588SOL     OW16399   0.576   0.444   8.470 -0.4279 -0.2269 -0.5341
 1588SOL    HW116400   0.575   0.350   8.451  0.1947 -0.2195 -0.5926
 1588SOL    HW216401   0.504   0.471   8.412  0.3066  1.5962 -0.5814
 1589SOL     OW16402   1.105   0.207  16.837  0.3498  0.0188  0.3016
 1589SOL    HW116403   1.025   0.155  16.826  1.0673 -1.0267  0.0828
 1589SOL    HW216404   1.081   0.262  16.911  0.8203 -0.3654  0.7354
 1590SOL     OW16405   1.828   1.104  15.970  0.2611 -0.3128  0.3991
 1590SOL    HW116406   1.852   1.043  15.900 -1.3509 -0.6698  0.1426
 1590SOL    HW216407   1.737   1.111  15.940  0.2498 -0.8157  0.3112
 1591SOL     OW16408   2.676   2.822   3.328 -0.1318 -0.2700  0.3431
 1591SOL    HW116409   2.748   2.765   3.354  0.8914 -0.9730 -3.9288
 1591SOL    HW216410   2.634   2.755   3.273 -2.2621  0.8765  0.5935
 1592SOL     OW16411   1.345   0.516   9.204  0.2401  0.7691  0.3445
 1592SOL    HW116412   1.281   0.519   9.133 -0.9089  1.0505  1.3929
 1592SOL    HW216413   1.304   0.564   9.276 -0.6263  0.2999  0.1599
 1593SOL     OW16414   1.269   3.625  16.923  0.1750 -0.5609 -0.0345
 1593SOL    HW116415   1.238   3.581  16.844 -0.2511  1.7530 -1.1602
 1593SOL    HW216416   1.261   3.559  16.992 -1.1395 -1.0812 -0.6956
 1594SOL     OW16417   1.410   4.363   3.956 -0.1303  0.2290 -0.5372
 1594SOL    HW116418   1.317   4.379   3.973 -0.2352 -0.9092 -0.0452
 1594SOL    HW216419   1.417   4.290   4.017  0.1587  0.8703  0.1960
 1595SOL     OW16420   1.440   4.644   4.908 -0.0735  0.4293  0.4538
 1595SOL    HW116421   1.512   4.707   4.919  1.7023 -1.8754  1.9437
 1595SOL    HW216422   1.374   4.688   4.962  1.4799  0.5766  2.2115
 1596SOL     OW16423   2.430   0.335   5.341 -0.3191 -0.0220 -0.4910
 1596SOL    HW116424   2.405   0.418   5.381 -1.9726 -0.9575  0.4062
 1596SOL    HW216425   2.347   0.288   5.348 -0.1954 -0.1367  0.2088
 1597SOL     OW16426   3.525   1.026   2.624  0.1099 -0.2674  0.2650
 1597SOL    HW116427   3.575   1.103   2.597  0.2737 -0.2139  0.7236
 1597SOL    HW216428   3.494   1.047   2.712  0.8061 -3.6118  1.2921
 1598SOL     OW16429   4.313   3.412   4.635 -0.3723  0.1358 -0.9608
 1598SOL    HW116430   4.227   3.418   4.677  0.8041 -1.6906  1.7285
 1598SOL    HW216431   4.293   3.375   4.549 -2.6922  2.5817 -1.4508
 1599SOL     OW16432   3.670   1.892   7.679  0.5115 -0.4124 -0.4071
 1599SOL    HW116433   3.618   1.812   7.686 -4.1041  2.5575 -0.7795
 1599SOL    HW216434   3.629   1.956   7.736 -0.2418 -1.1212 -0.1499
 1600SOL     OW16435   0.566   3.156   4.245  0.3319 -0.4092  0.1072
 1600SOL    HW116436   0.513   3.117   4.175 -0.5764  1.7905 -0.4170
 1600SOL    HW216437   0.573   3.246   4.214 -0.6377 -0.0284  0.9805
 1601SOL     OW16438   4.333   2.782  10.125 -0.0274  0.2135  0.2491
 1601SOL    HW116439   4.298   2.726  10.055 -2.4797  0.8070  0.9976
 1601SOL    HW216440   4.250   2.826  10.141  1.5076  3.4562 -0.6349
 1602SOL     OW16441   3.876   4.180   7.508  0.1492 -0.3435  0.0937
 1602SOL    HW116442   3.928   4.229   7.445 -1.0891  2.4075  1.2256
 1602SOL    HW216443   3.918   4.217   7.585  0.4301 -0.7453  0.1337
 1603SOL     OW16444   4.298   3.006   8.995 -1.0076 -0.4833 -0.1446
 1603SOL    HW116445   4.227   3.063   9.021 -0.7320 -1.2488  2.2451
 1603SOL    HW216446   4.301   3.031   8.902 -0.4468  2.0082  0.5481
 1604SOL     OW16447   1.118   3.071   5.492 -0.0376 -0.1656  0.3503
 1604SOL    HW116448   1.082   3.095   5.406 -2.6193  0.3779  1.5830
 1604SOL    HW216449   1.060   3.118   5.551  0.0465  0.3524  0.0219
 1605SOL     OW16450   3.410   2.165   8.122 -0.2820 -0.4149 -0.0944
 1605SOL    HW116451   3.461   2.210   8.190 -2.4421 -0.9283  1.8613
 1605SOL    HW216452   3.429   2.226   8.051  2.5985  1.9024  2.6484
 1606SOL     OW16453   2.277   1.835   1.176 -0.6348 -0.3031  0.4891
 1606SOL    HW116454   2.253   1.837   1.268 -0.1055 -2.6740  0.6798
 1606SOL    HW216455   2.288   1.928   1.158 -0.8884 -0.7911 -2.3146
 1607SOL     OW16456   0.786   2.605   8.777 -0.5549  0.0598  1.0277
 1607SOL    HW116457   0.825   2.595   8.864 -0.2732 -0.4128  0.8482
 1607SOL    HW216458   0.853   2.651   8.726 -1.6519  0.3343 -0.1732
 1608SOL     OW16459   3.229   4.507   5.333 -0.5473 -0.1403 -0.2425
 1608SOL    HW116460   3.225   4.423   5.286  2.7804 -0.6978  0.4680
 1608SOL    HW216461   3.202   4.487   5.423 -0.3885  1.6631  0.2037
 1609SOL     OW16462   4.016   4.604   8.254  0.5471  0.0319  0.0918
 1609SOL    HW116463   4.010   4.515   8.220  0.3615  0.5261 -1.1433
 1609SOL    HW216464   4.109   4.615   8.270  0.7134 -0.3085 -0.6695
 1610SOL     OW16465   3.975   2.466   7.985 -0.2194 -0.0615  0.4793
 1610SOL    HW116466   3.932   2.420   8.057 -1.2227  1.1470  0.6493
 1610SOL    HW216467   3.986   2.396   7.920 -1.1077 -0.3483  0.6383
 1611SOL     OW16468   0.763   2.192   3.269  0.2332 -0.5978  0.1793
 1611SOL    HW116469   0.769   2.097   3.261  1.7398 -0.4398 -0.5248
 1611SOL    HW216470   0.850   2.213   3.302 -0.4512 -2.3411  3.1253
 1612SOL     OW16471   1.745   1.209   4.827  0.0335  0.3063 -0.1978
 1612SOL    HW116472   1.666   1.161   4.847  0.0228  0.6031  0.4556
 1612SOL    HW216473   1.730   1.295   4.867  0.8733  1.0084 -1.3715
 1613SOL     OW16474   0.079   0.724  10.044 -0.1593 -0.1196 -0.2379
 1613SOL    HW116475   0.102   0.782  10.117 -0.5842 -0.5654  0.2504
 1613SOL    HW216476   0.088   0.793   9.978  0.7867 -1.1798 -1.2272
 1614SOL     OW16477   4.727   3.734  10.258  0.2413 -0.0256 -0.0972
 1614SOL    HW116478   0.070   3.747  10.309  0.4631  0.8775 -0.6970
 1614SOL    HW216479   4.654   3.758  10.315  0.7215 -1.4774  1.1710
 1615SOL     OW16480   0.780   4.677  11.215  0.2240  0.2917  0.1638
 1615SOL    HW116481   0.777   4.678  11.119 -1.4261  1.2326  0.2249
 1615SOL    HW216482   0.687   4.676  11.236  0.1683 -0.2157 -0.1209
 1616SOL     OW16483   4.111   0.976   2.754  0.3904 -0.6972 -0.2672
 1616SOL    HW116484   4.019   0.950   2.750 -0.4914  2.1106  1.7087
 1616SOL    HW216485   4.150   0.917   2.689 -1.0928 -2.9802  0.9171
 1617SOL     OW16486   3.985   3.466   7.007 -0.1812 -0.1459 -0.0206
 1617SOL    HW116487   4.042   3.414   6.951 -1.4846 -2.4367  0.8011
 1617SOL    HW216488   4.056   3.516   7.050  0.8340 -0.5224 -1.2629
 1618SOL     OW16489   0.069   2.821   8.516  0.2391 -0.0013 -0.2003
 1618SOL    HW116490   0.054   2.731   8.487  2.1644 -0.6682  0.8493
 1618SOL    HW216491   0.082   2.807   8.610  0.4243 -1.0015 -0.3781
 1619SOL     OW16492   0.334   3.970   4.788 -0.4853 -0.2033  0.1654
 1619SOL    HW116493   0.248   3.931   4.797 -0.4709  0.0448  1.3332
 1619SOL    HW216494   0.331   4.053   4.837 -2.6444 -0.7577  0.9345
 1620SOL     OW16495   2.351   0.324   3.437 -0.1636 -0.4955 -0.2684
 1620SOL    HW116496   2.354   0.371   3.521 -0.4383 -2.0430  0.5992
 1620SOL    HW216497   2.338   0.397   3.376 -0.7254  0.0496  0.4867
 1621SOL     OW16498   1.977   1.617  13.459 -1.2626 -0.2656  0.6247
 1621SOL    HW116499   2.005   1.608  13.550  0.9289 -1.7016 -0.2065
 1621SOL    HW216500   1.991   1.529  13.424 -0.1690  0.5685 -1.0302
 1622SOL     OW16501   4.035   0.692  11.693 -0.1060  0.8701 -0.1814
 1622SOL    HW116502   4.107   0.631  11.708  0.0025  1.0771  0.1544
 1622SOL    HW216503   4.062   0.724  11.606 -1.8331  0.8728 -0.7098
 1623SOL     OW16504   0.695   0.684  16.486  0.0670 -0.5038 -0.2734
 1623SOL    HW116505   0.741   0.692  16.402  0.5636  1.3076  0.1908
 1623SOL    HW216506   0.734   0.601  16.514  0.0756  0.4853  2.6206
 1624SOL     OW16507   1.287   2.911   0.747 -0.5545  0.6527  0.4865
 1624SOL    HW116508   1.210   2.946   0.792 -0.5513  1.1866  0.0825
 1624SOL    HW216509   1.266   2.928   0.655  0.2272 -4.9480 -0.7122
 1625SOL     OW16510   1.418   3.748   8.233 -0.0359 -0.5935  0.1623
 1625SOL    HW116511   1.431   3.735   8.326  0.9622 -0.4588  0.0380
 1625SOL    HW216512   1.490   3.689   8.212  0.4108 -1.2021  3.5441
 1626SOL     OW16513   0.071   2.380  13.206  0.1535  0.5916  0.3592
 1626SOL    HW116514   0.125   2.316  13.161 -1.6859 -2.1933  2.0555
 1626SOL    HW216515   0.013   2.321  13.255 -0.1693  0.2012 -0.4843
 1627SOL     OW16516   1.245   3.549  12.399 -0.3920 -0.0714 -0.0101
 1627SOL    HW116517   1.176   3.578  12.340 -0.3406 -0.3192 -0.1899
 1627SOL    HW216518   1.195   3.477  12.437 -1.3498  1.3663  1.4865
 1628SOL     OW16519   4.730   3.568   8.115  0.4454 -0.5217 -0.2835
 1628SOL    HW116520   4.727   3.557   8.020  1.5139  0.1994 -0.4039
 1628SOL    HW216521   4.657   3.628   8.128 -1.6073 -3.2874  0.9241
 1629SOL     OW16522   0.385   3.083   0.150  0.3409  0.3932 -0.1122
 1629SOL    HW116523   0.312   3.063   0.091  0.1117  2.1970 -0.4225
 1629SOL    HW216524   0.412   3.164   0.107 -1.3603  1.3316  0.5619
 1630SOL     OW16525   3.842   0.876  11.406  0.5869 -0.8086 -0.3565
 1630SOL    HW116526   3.912   0.926  11.447 -0.4218  0.1088  0.2486
 1630SOL    HW216527   3.774   0.920  11.457  0.3832 -0.8364 -0.6068
 1631SOL     OW16528   2.606   0.392   3.080  0.7592 -0.0662  0.1021
 1631SOL    HW116529   2.633   0.464   3.023 -0.3898  0.6532  0.4735
 1631SOL    HW216530   2.512   0.403   3.065  0.4250 -0.7226  1.7203
 1632SOL     OW16531   4.189   3.516  10.058  0.2462 -0.5034  0.2333
 1632SOL    HW116532   4.147   3.471  10.131  0.3093 -0.0014  0.5751
 1632SOL    HW216533   4.237   3.447  10.013 -1.3001 -0.5348 -1.3972
 1633SOL     OW16534   3.787   3.891   1.575 -0.5543  0.1897 -0.0651
 1633SOL    HW116535   3.780   3.859   1.665  1.3319 -1.3411 -0.4676
 1633SOL    HW216536   3.697   3.918   1.554 -1.3881 -1.3618  1.5762
 1634SOL     OW16537   3.801   3.481  10.149 -0.3914  0.1600 -0.3185
 1634SOL    HW116538   3.719   3.529  10.137 -0.1659  0.4610 -0.6664
 1634SOL    HW216539   3.860   3.554  10.169 -1.4622  1.6508 -2.5780
 1635SOL     OW16540   3.390   2.814   9.722 -0.0526 -0.1396 -0.2453
 1635SOL    HW116541   3.368   2.729   9.683  0.1420 -0.0518 -0.5441
 1635SOL    HW216542   3.400   2.788   9.813  0.3362  0.2920 -0.1671
 1636SOL     OW16543   1.402   3.286   9.028 -0.4558  0.1352 -0.7034
 1636SOL    HW116544   1.311   3.263   9.048  0.5321 -2.9863  0.1925
 1636SOL    HW216545   1.400   3.378   9.054 -1.0194  0.4038 -1.6810
 1637SOL     OW16546   1.860   0.536  17.180 -0.2988 -0.1013  0.0725
 1637SOL    HW116547   1.815   0.597  17.238 -0.1363  0.2749 -0.1997
 1637SOL    HW216548   1.919   0.601  17.142 -1.1751  0.7948  0.2259
 1638SOL     OW16549   4.701   2.003   5.601  0.0905 -0.0520  0.5315
 1638SOL    HW116550   0.027   1.942   5.564 -0.0972  0.4546 -0.6169
 1638SOL    HW216551   0.014   2.083   5.595  0.4772 -0.2269  1.5861
 1639SOL     OW16552   3.771   1.567  13.478 -0.8365  0.6420 -0.1477
 1639SOL    HW116553   3.803   1.567  13.388  0.5842 -1.1859  0.3639
 1639SOL    HW216554   3.768   1.659  13.507 -0.8819  1.4547 -2.7698
 1640SOL     OW16555   1.534   4.177   8.355  0.4218 -0.0918 -0.0368
 1640SOL    HW116556   1.502   4.119   8.424  2.0328  0.5023  1.2033
 1640SOL    HW216557   1.497   4.133   8.278 -0.8308  3.0548 -1.2434
 1641SOL     OW16558   0.584   0.146  13.044 -0.0155 -0.2223  0.0371
 1641SOL    HW116559   0.587   0.134  13.139  2.6965  3.3679  0.4181
 1641SOL    HW216560   0.540   0.230  13.055  1.0975  0.4188 -0.3734
 1642SOL     OW16561   3.755   3.576   7.704 -0.3134 -0.6457  0.0117
 1642SOL    HW116562   3.832   3.558   7.650 -1.0260 -1.6061 -0.6813
 1642SOL    HW216563   3.697   3.506   7.675 -1.2598  0.2652 -0.2779
 1643SOL     OW16564   1.665   1.839   1.430 -0.3641  0.0591  0.3442
 1643SOL    HW116565   1.665   1.904   1.500  0.9076 -0.5276  0.8799
 1643SOL    HW216566   1.598   1.778   1.460  0.2093 -0.2851  0.9146
 1644SOL     OW16567   1.118   3.162   3.748  0.3871 -0.3338  0.2228
 1644SOL    HW116568   1.029   3.191   3.729 -0.1067 -1.8093  0.3228
 1644SOL    HW216569   1.123   3.072   3.715 -0.6337  0.6284 -2.6196
 1645SOL     OW16570   1.283   3.247   8.109 -0.4708  0.5937  0.0921
 1645SOL    HW116571   1.193   3.280   8.100 -0.0372  1.5548 -0.7225
 1645SOL    HW216572   1.306   3.248   8.016  0.0258  1.0522  0.2180
 1646SOL     OW16573   2.165   1.678  11.519  0.0719  0.3214  0.5295
 1646SOL    HW116574   2.192   1.589  11.497 -1.3823  0.2385 -0.9195
 1646SOL    HW216575   2.148   1.713  11.431 -0.3575 -2.0438 -0.3454
 1647SOL     OW16576   3.491   2.812   1.494  0.0033  0.9150 -0.5413
 1647SOL    HW116577   3.426   2.864   1.542  0.1397  0.5841 -0.0015
 1647SOL    HW216578   3.558   2.814   1.563  0.2375 -0.0947 -0.7400
 1648SOL     OW16579   3.164   3.344   8.232 -0.1107 -0.2386 -0.2204
 1648SOL    HW116580   3.205   3.367   8.316 -0.6378  0.6854 -0.2227
 1648SOL    HW216581   3.215   3.266   8.212  1.7331  0.5449  1.4333
 1649SOL     OW16582   0.445   1.167   5.612  0.4057 -0.1549 -0.1980
 1649SOL    HW116583   0.479   1.080   5.635 -1.4231 -1.1066 -1.0223
 1649SOL    HW216584   0.358   1.151   5.575  0.6632 -0.8049 -0.5230
 1650SOL     OW16585   3.130   1.874   4.196  0.1428  0.2507 -0.5153
 1650SOL    HW116586   3.150   1.855   4.104 -4.5385  1.5864 -1.8438
 1650SOL    HW216587   3.198   1.826   4.243 -0.0034 -0.9564 -1.5353
 1651SOL     OW16588   3.618   2.773   2.485 -0.1067 -0.7161 -0.8659
 1651SOL    HW116589   3.580   2.853   2.448  1.1849 -0.0028 -0.6262
 1651SOL    HW216590   3.679   2.805   2.552  0.9534 -1.0300 -1.6835
 1652SOL     OW16591   0.689   2.740  17.740 -0.7297 -0.4497 -0.2090
 1652SOL    HW116592   0.685   2.829  17.705 -0.0499 -0.5164 -0.4382
 1652SOL    HW216593   0.615   2.700  17.694 -2.6930  1.8851  0.8850
 1653SOL     OW16594   3.714   3.343   5.076 -0.6165 -0.5692 -0.3913
 1653SOL    HW116595   3.618   3.344   5.073 -0.6393 -0.8269  0.1610
 1653SOL    HW216596   3.726   3.358   4.982 -0.8534 -0.3261 -0.3845
 1654SOL     OW16597   1.934   2.315  13.442  0.3691 -0.1859  0.0707
 1654SOL    HW116598   1.845   2.279  13.435 -0.0333  0.6628  0.6701
 1654SOL    HW216599   1.914   2.406  13.418  0.1850  0.1276  1.3616
 1655SOL     OW16600   3.860   4.215  12.052 -0.1458 -0.2934  0.0575
 1655SOL    HW116601   3.943   4.262  12.052 -0.4911  0.3208  0.5202
 1655SOL    HW216602   3.816   4.234  11.970 -1.3587 -0.5176  0.6410
 1656SOL     OW16603   1.015   4.322   4.716  0.1031 -0.2596  0.2941
 1656SOL    HW116604   1.088   4.377   4.742  0.8046 -0.6641 -0.8331
 1656SOL    HW216605   0.976   4.314   4.803 -0.5306 -1.2747 -0.0822
 1657SOL     OW16606   3.664   0.779   8.429 -0.5898  0.5480 -0.7186
 1657SOL    HW116607   3.613   0.859   8.441 -1.9697 -0.2553 -1.3199
 1657SOL    HW216608   3.656   0.772   8.334 -1.2001  0.8439 -0.6884
 1658SOL     OW16609   1.898   2.083   8.020  0.6627 -0.1850 -0.2112
 1658SOL    HW116610   1.991   2.060   8.023  0.5203 -0.6357  1.1283
 1658SOL    HW216611   1.867   2.055   7.934 -0.0815  1.7811 -0.5933
 1659SOL     OW16612   1.442   3.478   3.216 -0.1180  0.3681 -0.1355
 1659SOL    HW116613   1.501   3.510   3.285 -0.5542  1.1554 -0.1284
 1659SOL    HW216614   1.462   3.385   3.214  1.2593  0.6253  1.5706
 1660SOL     OW16615   2.609   3.286   8.286 -0.1314  0.6544 -0.4291
 1660SOL    HW116616   2.700   3.289   8.316 -0.1963  1.3729 -0.3128
 1660SOL    HW216617   2.592   3.196   8.260 -3.8073  1.0560  0.5711
 1661SOL     OW16618   2.480   1.654   3.116 -0.2859  0.6120 -0.1454
 1661SOL    HW116619   2.454   1.564   3.095  0.1248  0.6903 -0.9990
 1661SOL    HW216620   2.507   1.651   3.207 -1.4223  1.4915  0.2157
 1662SOL     OW16621   2.533   1.012   3.354  0.4239  0.4046 -0.1036
 1662SOL    HW116622   2.468   1.025   3.285  0.9671 -0.0107 -0.6980
 1662SOL    HW216623   2.537   0.916   3.354 -0.8955  0.3561  1.0995
 1663SOL     OW16624   1.137   2.181   9.621  0.4596 -0.2251 -0.1692
 1663SOL    HW116625   1.158   2.184   9.714  0.9540  0.2462 -0.2976
 1663SOL    HW216626   1.144   2.086   9.610  0.7573 -0.2945  0.5702
 1664SOL     OW16627   2.706   1.339   6.491  0.1882 -0.3244 -0.5112
 1664SOL    HW116628   2.723   1.410   6.428  0.4743  0.8292  0.8550
 1664SOL    HW216629   2.619   1.305   6.474 -0.8609  2.7817 -1.4430
 1665SOL     OW16630   0.501   0.801   0.425 -0.2413  0.4324 -0.2520
 1665SOL    HW116631   0.524   0.840   0.341  0.1909 -1.6179 -1.0638
 1665SOL    HW216632   0.421   0.845   0.455 -1.2254 -0.7422 -1.1815
 1666SOL     OW16633   1.612   4.150   2.077  0.0095  0.3643  0.2731
 1666SOL    HW116634   1.675   4.221   2.085 -1.3064  1.6262 -0.6764
 1666SOL    HW216635   1.629   4.109   2.162 -0.3150 -1.5190 -0.5490
 1667SOL     OW16636   0.177   3.513   2.661 -0.1841 -0.1629  0.0993
 1667SOL    HW116637   0.234   3.465   2.721  2.1986  0.9927 -1.2350
 1667SOL    HW216638   0.145   3.585   2.716 -1.5031 -2.2799  2.0899
 1668SOL     OW16639   3.903   1.171   3.510  0.0996 -0.8077 -0.1228
 1668SOL    HW116640   3.995   1.153   3.527  0.2186  0.2561  0.4193
 1668SOL    HW216641   3.895   1.267   3.509 -0.6549 -0.9308 -3.2465
 1669SOL     OW16642   3.508   2.501  16.755 -0.1799  0.3734  0.3662
 1669SOL    HW116643   3.562   2.439  16.706  0.2143  1.6594 -0.8475
 1669SOL    HW216644   3.570   2.535  16.820 -1.3951 -1.4400  2.4743
 1670SOL     OW16645   2.834   2.691   1.241 -0.2474  0.4485 -0.0228
 1670SOL    HW116646   2.782   2.736   1.308  1.7318  4.5055 -1.1935
 1670SOL    HW216647   2.835   2.760   1.176  3.4689 -0.9097 -1.3956
 1671SOL     OW16648   0.102   1.084   6.723 -0.1475  0.3605  0.2111
 1671SOL    HW116649   0.148   1.042   6.650 -0.5925  0.6674 -0.2531
 1671SOL    HW216650   0.164   1.155   6.742 -0.8514  1.9448 -3.1833
 1672SOL     OW16651   4.601   3.656   6.639  0.3627  0.1178 -0.1939
 1672SOL    HW116652   4.604   3.615   6.725  0.7653  1.2656  0.3397
 1672SOL    HW216653   4.516   3.700   6.644 -0.3644 -1.2962 -0.2156
 1673SOL     OW16654   1.268   2.395   4.632  0.4872 -0.5391 -0.4210
 1673SOL    HW116655   1.294   2.382   4.723 -0.9524  1.4930  0.2852
 1673SOL    HW216656   1.321   2.468   4.599 -0.5875  0.1193 -0.6896
 1674SOL     OW16657   0.369   2.409   2.486  0.3813  0.0951  0.3569
 1674SOL    HW116658   0.286   2.425   2.532  0.6230  1.2720  0.3821
 1674SOL    HW216659   0.427   2.356   2.541 -1.3123  0.8393  2.9062
 1675SOL     OW16660   1.933   1.237  14.612 -0.1930  0.1162 -0.0657
 1675SOL    HW116661   1.853   1.195  14.644  0.7462 -2.0881 -0.6045
 1675SOL    HW216662   1.932   1.221  14.518 -0.2417  1.6574 -0.3275
 1676SOL     OW16663   1.816   3.796   6.355 -0.4550  0.3028 -0.5451
 1676SOL    HW116664   1.798   3.886   6.380  0.4942  0.6196 -1.0074
 1676SOL    HW216665   1.882   3.760   6.414 -1.6677 -3.3078 -1.4072
 1677SOL     OW16666   1.918   3.261   7.828 -0.1453 -0.0367  0.4696
 1677SOL    HW116667   1.857   3.279   7.899  0.6921 -0.6900  1.3503
 1677SOL    HW216668   1.957   3.178   7.854  0.0342 -0.1506 -0.1610
 1678SOL     OW16669   1.874   3.788   2.829 -0.2890  0.4815  0.5975
 1678SOL    HW116670   1.926   3.840   2.766  2.3562 -2.2095  0.5440
 1678SOL    HW216671   1.785   3.807   2.799 -0.9881 -0.9099  1.8353
 1679SOL     OW16672   3.458   1.839   7.411  0.6252 -0.5255 -0.1926
 1679SOL    HW116673   3.371   1.845   7.451  1.8911  0.4391  2.3840
 1679SOL    HW216674   3.494   1.777   7.474  0.6082  0.8950  1.2148
 1680SOL     OW16675   1.874   2.120   7.402  0.0428 -1.0056  0.2640
 1680SOL    HW116676   1.952   2.068   7.386 -0.1834 -1.6435  1.2157
 1680SOL    HW216677   1.852   2.154   7.316 -1.5495 -0.0335  1.0402
 1681SOL     OW16678   3.778   3.747   4.005 -0.2177  0.0692 -0.4599
 1681SOL    HW116679   3.850   3.810   4.000  0.2408 -0.6231 -2.6580
 1681SOL    HW216680   3.736   3.782   4.083  0.8009  0.9273 -0.2982
 1682SOL     OW16681   3.286   3.964   0.612 -0.2535 -0.1472 -0.5317
 1682SOL    HW116682   3.235   3.913   0.675  1.5187  0.9398  1.7375
 1682SOL    HW216683   3.350   3.896   0.593  1.0106  0.4933  1.4134
 1683SOL     OW16684   1.748   4.475   9.883  0.2976 -0.4004 -0.1946
 1683SOL    HW116685   1.833   4.432   9.891  0.3574  0.0083  1.4613
 1683SOL    HW216686   1.737   4.528   9.963 -2.6600  0.8799 -1.4528
 1684SOL     OW16687   1.863   4.556  11.471  0.4181  0.0529 -0.0837
 1684SOL    HW116688   1.824   4.498  11.536 -1.7206  0.2860 -1.1366
 1684SOL    HW216689   1.890   4.498  11.399 -2.0732 -0.5602 -0.5288
 1685SOL     OW16690   4.413   1.503   5.428  0.1543 -0.1607  0.4914
 1685SOL    HW116691   4.481   1.457   5.379  0.0511  1.8089 -1.5444
 1685SOL    HW216692   4.431   1.473   5.517 -1.7808  0.8585  1.2369
 1686SOL     OW16693   0.725   1.318   2.932 -0.4496  0.1237 -0.1386
 1686SOL    HW116694   0.641   1.273   2.917 -0.1909  0.1290 -1.6061
 1686SOL    HW216695   0.695   1.383   2.995  1.2978 -0.8005  1.6035
 1687SOL     OW16696   0.937   3.365   5.387 -0.0152  0.2212  0.2733
 1687SOL    HW116697   0.843   3.374   5.371 -0.3074  0.1476  1.9773
 1687SOL    HW216698   0.953   3.297   5.321  0.8242  0.2145  0.4870
 1688SOL     OW16699   3.787   2.789   5.792 -1.0564 -0.4364  0.3657
 1688SOL    HW116700   3.792   2.763   5.700 -3.5070 -1.0015  0.3799
 1688SOL    HW216701   3.756   2.709   5.834  1.2411 -0.9912  0.9893
 1689SOL     OW16702   0.766   1.328   5.201 -0.3794  0.3724 -0.0594
 1689SOL    HW116703   0.719   1.369   5.273  1.2897 -0.5589  1.5612
 1689SOL    HW216704   0.752   1.239   5.233  0.6896  0.4853  0.7133
 1690SOL     OW16705   0.869   4.334   8.973  0.1726  0.4833  0.3226
 1690SOL    HW116706   0.797   4.280   9.006 -1.0363  1.9231  0.0805
 1690SOL    HW216707   0.828   4.395   8.911  0.1234  0.9068  0.7685
 1691SOL     OW16708   1.893   4.553   3.485 -0.4439 -0.1923  0.2896
 1691SOL    HW116709   1.938   4.599   3.556  1.5604 -1.5524 -0.0568
 1691SOL    HW216710   1.926   4.464   3.499 -1.0211 -0.4240  0.1489
 1692SOL     OW16711   3.117   2.794  13.626  0.2875 -0.2991  0.3978
 1692SOL    HW116712   3.088   2.757  13.542 -0.9811  2.1865 -0.2430
 1692SOL    HW216713   3.035   2.790  13.676  0.8626 -1.1626  1.2774
 1693SOL     OW16714   3.181   0.579   7.386  0.6336 -0.0365 -0.2029
 1693SOL    HW116715   3.095   0.556   7.351 -0.0309  0.2005  1.2514
 1693SOL    HW216716   3.171   0.667   7.421  2.8052  1.1145 -2.5341
 1694SOL     OW16717   1.147   2.174   8.918  0.6111 -0.1608 -0.6984
 1694SOL    HW116718   1.191   2.096   8.885 -0.2432  0.1539 -2.5986
 1694SOL    HW216719   1.151   2.169   9.013 -0.9595 -0.0233 -0.6272
 1695SOL     OW16720   0.882   3.564   3.070 -0.1735 -0.2095 -0.5922
 1695SOL    HW116721   0.822   3.634   3.046 -0.6076 -0.3457  0.1172
 1695SOL    HW216722   0.819   3.492   3.077 -2.1058  1.6158  0.9246
 1696SOL     OW16723   0.616   2.771  10.731  0.0774 -0.1775  0.0137
 1696SOL    HW116724   0.565   2.789  10.652 -1.3276 -2.3997  0.3995
 1696SOL    HW216725   0.633   2.677  10.729  1.9060  0.1485 -0.8587
 1697SOL     OW16726   4.225   3.068   5.734  0.3288 -0.0048 -0.1728
 1697SOL    HW116727   4.287   3.000   5.711 -0.4310 -0.2806 -1.4100
 1697SOL    HW216728   4.138   3.032   5.715  1.3375 -1.9470 -1.0615
 1698SOL     OW16729   3.834   2.897   2.608  0.5532  0.2312 -0.5171
 1698SOL    HW116730   3.869   2.980   2.640  0.8626 -0.3256  0.5787
 1698SOL    HW216731   3.843   2.841   2.686 -0.6634 -0.0486 -0.5808
 1699SOL     OW16732   1.921   4.474   7.357  0.3216  0.3467  1.4611
 1699SOL    HW116733   1.836   4.473   7.311  0.1378  1.3997  1.7878
 1699SOL    HW216734   1.932   4.380   7.372  0.8933 -0.0919 -1.7011
 1700SOL     OW16735   2.362   1.482   7.071  0.5523  0.2350  0.0305
 1700SOL    HW116736   2.431   1.429   7.033  1.7376 -0.3565  2.9886
 1700SOL    HW216737   2.395   1.571   7.060 -3.4074  1.8110  0.8312
 1701SOL     OW16738   0.592   3.410   2.857 -0.5827 -0.2014 -0.3468
 1701SOL    HW116739   0.600   3.486   2.800 -3.6247 -1.3293 -2.2229
 1701SOL    HW216740   0.628   3.340   2.803 -2.4003 -0.8937 -0.6330
 1702SOL     OW16741   1.104   2.704   7.182  0.3622 -0.2358 -0.0979
 1702SOL    HW116742   1.104   2.800   7.182 -2.5452 -0.2482 -1.9641
 1702SOL    HW216743   1.199   2.695   7.173  0.9407  3.3369  2.3872
 1703SOL     OW16744   2.520   0.225  10.559  0.0177 -0.3223 -0.3496
 1703SOL    HW116745   2.547   0.271  10.479  3.0162 -2.4250 -0.5224
 1703SOL    HW216746   2.602   0.212  10.607  0.2389  0.2604 -0.5701
 1704SOL     OW16747   0.904   0.726  12.354 -0.5493 -0.0462 -0.0059
 1704SOL    HW116748   0.938   0.678  12.279 -0.2152  0.0660  0.0724
 1704SOL    HW216749   0.955   0.686  12.424  1.5729 -1.1579 -2.2034
 1705SOL     OW16750   3.137   0.182   7.441  0.0572  0.1147  0.0968
 1705SOL    HW116751   3.147   0.244   7.513 -2.3154  0.2540  0.3187
 1705SOL    HW216752   3.077   0.228   7.382  0.2158 -0.3528 -0.4263
 1706SOL     OW16753   2.264   1.827  11.783  0.9326 -0.2202  0.2899
 1706SOL    HW116754   2.244   1.921  11.784 -2.0314 -0.8405 -0.5128
 1706SOL    HW216755   2.255   1.799  11.692 -2.7316 -1.1641  0.9397
 1707SOL     OW16756   0.323   4.283   5.577 -0.1517 -0.3389  0.1077
 1707SOL    HW116757   0.292   4.240   5.656  1.6870 -1.1801  0.3767
 1707SOL    HW216758   0.412   4.254   5.559 -0.1008 -0.8383  1.1785
 1708SOL     OW16759   4.046   2.716   1.395  0.3198  0.4046 -0.0999
 1708SOL    HW116760   4.036   2.698   1.301  1.6689 -0.0953 -0.1502
 1708SOL    HW216761   4.062   2.811   1.399  0.4760  0.4737 -2.0308
 1709SOL     OW16762   4.456   0.635  14.463 -0.1175 -0.4191  0.5277
 1709SOL    HW116763   4.437   0.546  14.432 -0.0218 -0.4934  0.6777
 1709SOL    HW216764   4.371   0.669  14.490  0.6400  1.2399  0.7791
 1710SOL     OW16765   3.334   1.362   1.516  0.2018  0.4232  0.0320
 1710SOL    HW116766   3.417   1.361   1.564  0.3523 -0.1240 -0.2406
 1710SOL    HW216767   3.289   1.298   1.571 -1.8405 -0.3343 -2.5361
 1711SOL     OW16768   0.955   2.573   4.207 -0.6776 -0.2425 -0.3739
 1711SOL    HW116769   0.879   2.524   4.240  0.2075 -1.2364  0.1891
 1711SOL    HW216770   0.949   2.660   4.245 -0.9104 -0.9022  1.1042
 1712SOL     OW16771   4.407   3.620   9.465 -0.0912  0.4978  0.2180
 1712SOL    HW116772   4.375   3.654   9.382  1.3376 -0.4620 -0.7310
 1712SOL    HW216773   4.492   3.661   9.479  0.1835  0.3068 -0.9346
 1713SOL     OW16774   3.062   1.006   3.872 -0.4929  0.1541  0.2072
 1713SOL    HW116775   3.007   1.059   3.930  1.9587  0.4125  2.2791
 1713SOL    HW216776   3.060   0.915   3.904  2.3287  0.4529  1.2020
 1714SOL     OW16777   0.752   1.393   2.108  0.0455  0.2324 -0.3562
 1714SOL    HW116778   0.846   1.382   2.091  0.0128  0.9721 -1.0208
 1714SOL    HW216779   0.718   1.375   2.021 -2.2126 -0.7457  0.7375
 1715SOL     OW16780   3.024   1.437   2.896  0.1102  0.0780 -0.1505
 1715SOL    HW116781   3.009   1.445   2.991  0.0207 -1.1434 -0.0617
 1715SOL    HW216782   2.949   1.382   2.876 -1.3904  1.5378  1.4047
 1716SOL     OW16783   4.272   3.236   1.873 -0.4015  0.1134 -0.1769
 1716SOL    HW116784   4.306   3.146   1.876 -0.8940 -0.1362 -1.8106
 1716SOL    HW216785   4.320   3.275   1.800 -0.8619  1.8542  0.4588
 1717SOL     OW16786   1.511   0.344   4.935  0.0095  0.1483 -0.5076
 1717SOL    HW116787   1.537   0.435   4.947  0.2532 -0.0208  0.2684
 1717SOL    HW216788   1.525   0.305   5.021 -0.1268  3.6857  1.0816
 1718SOL     OW16789   4.022   0.195   6.511 -0.0643 -0.2222  0.5154
 1718SOL    HW116790   4.001   0.249   6.434 -3.3244 -1.0744  0.8065
 1718SOL    HW216791   4.098   0.238   6.547  1.3504 -0.0267 -2.6577
 1719SOL     OW16792   2.551   2.130  17.473  0.1189  0.3963 -0.3294
 1719SOL    HW116793   2.523   2.059  17.530  0.1065 -0.0986 -0.9630
 1719SOL    HW216794   2.633   2.154  17.517 -1.3515  1.5618  1.7807
 1720SOL     OW16795   0.505   4.463   1.828 -0.2335  0.3589  0.0107
 1720SOL    HW116796   0.577   4.524   1.816  0.6286 -0.5603  0.5435
 1720SOL    HW216797   0.506   4.415   1.745  0.3739 -0.0327  0.2442
 1721SOL     OW16798   4.721   4.342  14.474 -0.3594  0.0083 -0.0455
 1721SOL    HW116799   4.665   4.297  14.412  1.3954 -0.4927 -1.2683
 1721SOL    HW216800   0.018   4.403  14.409 -0.2968 -0.7482 -0.7172
 1722SOL     OW16801   1.489   2.575   7.451 -0.4313  0.4690  0.3086
 1722SOL    HW116802   1.467   2.629   7.375  1.6485 -0.8561 -1.2444
 1722SOL    HW216803   1.552   2.521   7.404 -0.5682  1.4566 -0.9979
 1723SOL     OW16804   1.171   3.318   7.031 -0.5697  0.7263 -0.2111
 1723SOL    HW116805   1.087   3.363   7.045 -0.7848  0.2820 -0.0605
 1723SOL    HW216806   1.232   3.342   7.101 -2.3668  0.1915  1.5352
 1724SOL     OW16807   3.097   4.373   2.397 -0.0145 -0.1540 -0.2937
 1724SOL    HW116808   3.003   4.357   2.402  0.3228 -1.5043  1.6586
 1724SOL    HW216809   3.124   4.347   2.485  2.4069 -2.5422 -1.7607
 1725SOL     OW16810   2.979   3.507   1.180  0.4273 -0.1654  0.6828
 1725SOL    HW116811   2.933   3.533   1.260  1.2491  0.9267  0.7928
 1725SOL    HW216812   3.065   3.533   1.213  2.4386 -2.4620 -2.7789
 1726SOL     OW16813   3.375   2.394  16.957 -0.2468  0.1438  0.6453
 1726SOL    HW116814   3.296   2.342  16.945 -0.1949  0.6918 -2.0320
 1726SOL    HW216815   3.411   2.411  16.870  1.5256  0.2907  1.3897
 1727SOL     OW16816   0.135   2.409   2.621 -0.0265 -0.0367  0.3564
 1727SOL    HW116817   0.125   2.475   2.689  0.6946  0.9620 -0.4924
 1727SOL    HW216818   0.046   2.406   2.585  0.5196 -0.4637 -0.9761
 1728SOL     OW16819   1.450   3.253  11.472  0.9069 -0.5388 -0.4829
 1728SOL    HW116820   1.380   3.201  11.512  0.9394 -0.6121 -0.5205
 1728SOL    HW216821   1.485   3.194  11.405  0.5915 -1.4631  0.1727
 1729SOL     OW16822   4.410   0.504   5.757 -0.5205 -0.1572  0.2887
 1729SOL    HW116823   4.372   0.551   5.831  0.6002  0.2961  0.5827
 1729SOL    HW216824   4.361   0.523   5.677  2.1835  2.8069 -0.6610
 1730SOL     OW16825   3.202   4.261   6.537  0.1675  0.5816 -0.1484
 1730SOL    HW116826   3.267   4.197   6.563  1.0325  1.7433  0.5481
 1730SOL    HW216827   3.160   4.259   6.623 -0.4809 -1.0037 -0.4997
 1731SOL     OW16828   1.913   4.058   8.045  0.0385 -0.5094 -0.3641
 1731SOL    HW116829   1.938   3.984   7.989  1.6898  0.2201 -0.5677
 1731SOL    HW216830   1.850   4.014   8.103  0.1327 -1.9401 -1.3444
 1732SOL     OW16831   4.436   4.387   9.470 -0.1452  0.1732 -0.1670
 1732SOL    HW116832   4.463   4.309   9.518  2.0618  1.3743  0.5507
 1732SOL    HW216833   4.344   4.398   9.498 -0.6556 -0.4002 -1.6479
 1733SOL     OW16834   0.507   1.807   3.130 -0.2974  0.7865 -0.0640
 1733SOL    HW116835   0.455   1.743   3.082 -0.6500  0.5162  0.6825
 1733SOL    HW216836   0.530   1.868   3.059 -0.4322 -1.9168 -2.4391
 1734SOL     OW16837   4.589   0.994   0.650  0.0897 -0.2225 -0.0135
 1734SOL    HW116838   4.514   0.959   0.603  0.4673 -0.2538 -0.5932
 1734SOL    HW216839   4.654   0.998   0.580  0.8863  1.3737  0.8004
 1735SOL     OW16840   3.002   4.568   1.324 -0.1336  0.1963  0.1052
 1735SOL    HW116841   3.096   4.581   1.321 -0.4419  2.4368 -0.3366
 1735SOL    HW216842   3.017   4.496   1.385 -1.8907  1.7330  2.3913
 1736SOL     OW16843   3.002   1.073   9.300 -0.6100  0.1241  0.0059
 1736SOL    HW116844   3.090   1.055   9.333 -1.0106  0.3123  1.1684
 1736SOL    HW216845   3.022   1.165   9.283  1.5600 -0.3502 -0.0150
 1737SOL     OW16846   4.326   3.379   9.864 -0.3867 -0.3093 -0.2280
 1737SOL    HW116847   4.317   3.407   9.773  2.3747  1.6523  0.0867
 1737SOL    HW216848   4.303   3.287   9.871 -2.5026  0.4324  2.3155
 1738SOL     OW16849   0.292   4.556   7.164  0.0014  0.2236  0.2744
 1738SOL    HW116850   0.309   4.520   7.251 -1.1554 -0.5717  0.1692
 1738SOL    HW216851   0.199   4.570   7.177 -0.4161 -2.3181 -0.0498
 1739SOL     OW16852   0.177   2.063   4.339 -0.0030 -0.2015  0.1684
 1739SOL    HW116853   0.129   2.140   4.371 -0.1484 -0.4776  0.5989
 1739SOL    HW216854   0.100   2.009   4.325  1.2369 -2.0837  0.5778
 1740SOL     OW16855   4.230   3.366  14.523 -0.1105  0.1158 -0.1859
 1740SOL    HW116856   4.323   3.368  14.499 -0.4254 -1.9054 -1.5637
 1740SOL    HW216857   4.191   3.438  14.474 -1.4559  1.4175  2.7973
 1741SOL     OW16858   3.014   3.128   5.072 -0.4384  0.3901 -0.0393
 1741SOL    HW116859   3.001   3.222   5.059  0.8982  0.2464 -2.4926
 1741SOL    HW216860   2.954   3.115   5.145  0.6685 -0.9063  0.6460
 1742SOL     OW16861   4.314   1.359  11.504  0.1324  0.2807  0.3287
 1742SOL    HW116862   4.362   1.288  11.547  1.4310  0.1111 -1.4299
 1742SOL    HW216863   4.276   1.401  11.582  0.0178  2.4449 -0.8884
 1743SOL     OW16864   0.984   1.990   0.523 -0.0992 -0.2633 -0.3965
 1743SOL    HW116865   1.039   2.065   0.546 -2.2164  1.3667 -0.6732
 1743SOL    HW216866   0.972   1.947   0.608 -1.4912 -0.6787 -0.8075
 1744SOL     OW16867   3.441   0.300   0.299  0.7934 -0.1764 -0.3332
 1744SOL    HW116868   3.437   0.344   0.214 -3.4111  0.2935  0.1060
 1744SOL    HW216869   3.421   0.369   0.363  0.8987  1.3059 -1.8949
 1745SOL     OW16870   1.121   3.437  10.193  0.1287  0.5561 -0.3448
 1745SOL    HW116871   1.029   3.444  10.216  0.7688 -1.1742  2.7670
 1745SOL    HW216872   1.111   3.426  10.099  0.8779 -3.5045  0.0379
 1746SOL     OW16873   3.119   1.762  10.929  0.3779 -0.5458  0.1073
 1746SOL    HW116874   3.058   1.688  10.935  0.0572 -0.1315  1.9336
 1746SOL    HW216875   3.086   1.828  10.989  1.0794  0.2845 -0.4220
 1747SOL     OW16876   3.809   4.178  16.727 -0.5607  0.4244 -0.1038
 1747SOL    HW116877   3.744   4.111  16.705  1.7538 -1.9092  0.1242
 1747SOL    HW216878   3.832   4.214  16.642  1.1659  0.5413  0.4176
 1748SOL     OW16879   0.769   3.258   4.914 -0.1303  0.3995 -0.4034
 1748SOL    HW116880   0.733   3.329   4.863  0.7826  1.4471  0.4009
 1748SOL    HW216881   0.693   3.222   4.959 -0.8635 -2.5140 -4.0084
 1749SOL     OW16882   3.536   3.495   1.248  0.5710 -0.1720 -0.1056
 1749SOL    HW116883   3.597   3.514   1.318 -0.5841  0.7890  0.6358
 1749SOL    HW216884   3.585   3.423   1.207 -0.7449 -0.8016 -0.5858
 1750SOL     OW16885   4.284   0.892  12.457 -0.1703 -0.2232  0.3683
 1750SOL    HW116886   4.215   0.918  12.396  0.0218  2.6560  1.3548
 1750SOL    HW216887   4.237   0.900  12.539 -0.3241 -1.8087  0.4217
 1751SOL     OW16888   1.084   4.242  15.296 -0.1321 -0.1213 -0.1342
 1751SOL    HW116889   1.164   4.200  15.263  0.6722 -0.9021  2.8490
 1751SOL    HW216890   1.123   4.285  15.371 -0.6321  0.0187  0.0466
 1752SOL     OW16891   2.881   1.931   6.977  0.2534 -0.1578 -0.1885
 1752SOL    HW116892   2.928   1.984   6.913 -2.0203  1.0647 -0.8376
 1752SOL    HW216893   2.929   1.937   7.060  0.5178  0.2877 -0.3730
 1753SOL     OW16894   2.994   2.007   8.841 -0.1546 -0.0809  0.5140
 1753SOL    HW116895   3.055   2.022   8.914  1.3849  0.5067 -0.8843
 1753SOL    HW216896   2.941   2.085   8.857  0.8225  0.2155  2.2971
 1754SOL     OW16897   2.854   1.536   7.595  0.0873 -0.0287 -0.3019
 1754SOL    HW116898   2.835   1.598   7.666 -2.2908 -1.8615  0.6601
 1754SOL    HW216899   2.861   1.453   7.642  0.4346 -0.0957 -0.4755
 1755SOL     OW16900   4.475   0.454   6.664 -0.1372  0.1561  0.6391
 1755SOL    HW116901   4.428   0.482   6.742 -0.9291 -0.7840  0.4940
 1755SOL    HW216902   4.553   0.413   6.702 -1.5450 -2.2882  0.8909
 1756SOL     OW16903   4.453   0.649   7.125  0.1232  0.3073  0.2754
 1756SOL    HW116904   4.414   0.618   7.206  1.3918  2.3788  1.6922
 1756SOL    HW216905   4.406   0.730   7.106 -0.0920 -0.1708 -1.2288
 1757SOL     OW16906   0.585   0.806  15.368 -0.0073 -0.2614  0.4980
 1757SOL    HW116907   0.613   0.881  15.420 -0.8967 -1.5070  2.7942
 1757SOL    HW216908   0.668   0.761  15.355 -0.2756 -0.5103 -0.3918
 1758SOL     OW16909   3.731   1.551   4.327  0.5868 -0.0320 -0.2119
 1758SOL    HW116910   3.732   1.589   4.239 -0.0606 -0.3816 -0.3674
 1758SOL    HW216911   3.731   1.630   4.383  0.2410  0.4684 -0.9157
 1759SOL     OW16912   3.210   4.024   8.943  0.3573  0.1152  0.4365
 1759SOL    HW116913   3.238   3.939   8.976 -0.5493  0.2921  1.6373
 1759SOL    HW216914   3.118   4.011   8.963  0.7617 -2.0388  0.8698
 1760SOL     OW16915   0.556   2.208  10.511  0.7519 -0.2260 -0.2295
 1760SOL    HW116916   0.622   2.161  10.561  0.2426 -1.3770 -0.6499
 1760SOL    HW216917   0.609   2.217  10.431 -0.3196  1.8038 -0.7167
 1761SOL     OW16918   0.036   0.826   7.229 -0.3444 -0.0838 -0.8657
 1761SOL    HW116919   0.123   0.797   7.257  0.8724  2.7890 -1.7019
 1761SOL    HW216920   4.734   0.740   7.221 -1.8413  0.8006 -2.8282
 1762SOL     OW16921   1.460   3.057  13.508  1.0794  0.1088 -0.0628
 1762SOL    HW116922   1.543   3.063  13.556 -0.2166 -0.1248  2.2066
 1762SOL    HW216923   1.467   3.146  13.473 -4.2003  0.8654  0.8218
 1763SOL     OW16924   0.903   2.896   3.542 -0.0996 -0.8081  0.1831
 1763SOL    HW116925   0.859   2.847   3.612 -1.7763  0.8914  0.3125
 1763SOL    HW216926   0.956   2.826   3.505 -1.3450 -0.5339 -2.1284
 1764SOL     OW16927   2.156   1.903   1.427  0.1965 -0.0499 -0.1650
 1764SOL    HW116928   2.066   1.936   1.426  0.8296  1.6419 -0.7741
 1764SOL    HW216929   2.162   1.864   1.514 -1.2756 -0.1211 -0.0904
 1765SOL     OW16930   4.065   2.677   3.488  0.7381  0.1071 -0.4681
 1765SOL    HW116931   4.043   2.589   3.521  0.2088  0.1818 -0.6135
 1765SOL    HW216932   3.981   2.709   3.454  0.4843  0.5565  0.5744
 1766SOL     OW16933   1.391   4.376  10.091 -0.4188 -0.0336 -0.1475
 1766SOL    HW116934   1.350   4.291  10.072  1.2409 -0.6411 -0.9787
 1766SOL    HW216935   1.318   4.431  10.120 -2.3512 -2.4049 -0.4768
 1767SOL     OW16936   1.790   1.849   1.027 -0.0393 -0.1546  0.1269
 1767SOL    HW116937   1.809   1.942   1.022  0.4037 -0.2455  0.1325
 1767SOL    HW216938   1.879   1.816   1.033 -0.0484 -0.2081 -0.0245
 1768SOL     OW16939   3.255   3.555   1.289 -0.0925 -0.0630  0.1650
 1768SOL    HW116940   3.243   3.510   1.372 -2.3042 -0.0268 -0.1389
 1768SOL    HW216941   3.350   3.545   1.280 -0.0540  0.4550 -0.0138
 1769SOL     OW16942   0.324   2.859  13.234  0.3178  0.3457 -0.5303
 1769SOL    HW116943   0.377   2.837  13.311 -1.3691 -2.8676 -0.2913
 1769SOL    HW216944   0.250   2.800  13.250  0.0384  0.7568 -0.3020
 1770SOL     OW16945   4.203   3.286   8.880  0.5163  0.0362  0.0247
 1770SOL    HW116946   4.126   3.258   8.831  0.8412 -0.6077 -0.1115
 1770SOL    HW216947   4.268   3.286   8.810 -1.2983 -1.6077 -1.6636
 1771SOL     OW16948   2.341   1.234   6.342 -0.1643 -0.4248  0.2273
 1771SOL    HW116949   2.339   1.288   6.420  0.1500  1.9908 -1.4258
 1771SOL    HW216950   2.300   1.298   6.284  1.8233  0.4365 -0.2291
 1772SOL     OW16951   0.451   3.184   9.303  0.7833 -0.7747 -0.7606
 1772SOL    HW116952   0.451   3.188   9.208 -1.9138  0.3791 -0.7243
 1772SOL    HW216953   0.487   3.271   9.323  1.0662 -1.0581 -0.0375
 1773SOL     OW16954   1.852   3.096  11.185 -0.1546  0.3484  0.7799
 1773SOL    HW116955   1.910   3.028  11.151 -1.3048 -0.5070  0.5609
 1773SOL    HW216956   1.908   3.146  11.245 -0.2505  1.1549  0.2015
 1774SOL     OW16957   0.645   2.138   5.450 -0.4984  0.5908 -0.8088
 1774SOL    HW116958   0.603   2.218   5.481  2.0824  1.2884  0.8964
 1774SOL    HW216959   0.699   2.118   5.527 -0.8484  1.0751 -0.4385
 1775SOL     OW16960   2.688   1.712   2.743 -0.2806 -0.3415 -0.3712
 1775SOL    HW116961   2.718   1.770   2.672 -0.6628 -0.8379 -0.9386
 1775SOL    HW216962   2.683   1.630   2.694 -1.3792  0.2429 -1.2590
 1776SOL     OW16963   1.185   0.468   6.594 -0.4591  0.0829 -0.3039
 1776SOL    HW116964   1.143   0.544   6.633  3.5178  0.7579  2.5910
 1776SOL    HW216965   1.123   0.448   6.523  2.0980  1.2665 -2.8808
 1777SOL     OW16966   2.558   2.456   2.778 -0.2653 -0.4808 -0.2242
 1777SOL    HW116967   2.482   2.501   2.740 -0.4315 -0.9621 -0.4636
 1777SOL    HW216968   2.517   2.388   2.832 -1.2203 -0.5342 -1.0085
 1778SOL     OW16969   0.908   0.426   7.456  0.0932 -0.2826  0.0399
 1778SOL    HW116970   0.996   0.447   7.487  0.4140  1.0183 -1.7034
 1778SOL    HW216971   0.856   0.439   7.535  0.0222 -0.2422 -0.0126
 1779SOL     OW16972   1.828   3.310   5.813 -0.2132 -0.1976 -0.7149
 1779SOL    HW116973   1.866   3.395   5.836  0.6166 -1.0305  0.9867
 1779SOL    HW216974   1.866   3.251   5.878 -0.6734  0.0931 -0.1854
 1780SOL     OW16975   1.856   0.702   6.013 -0.0316  0.1309  0.0414
 1780SOL    HW116976   1.806   0.763   6.067 -0.0714  1.2161 -1.2275
 1780SOL    HW216977   1.810   0.619   6.025 -0.3556  0.5771  1.8955
 1781SOL     OW16978   3.441   4.383   5.584 -0.2720 -0.0967 -0.1246
 1781SOL    HW116979   3.356   4.426   5.572 -0.3776  0.2831  2.0719
 1781SOL    HW216980   3.475   4.425   5.662  0.1654 -0.7804  0.0546
 1782SOL     OW16981   1.693   4.313  11.539  0.0372  0.5993  0.3603
 1782SOL    HW116982   1.731   4.271  11.617  2.3230  1.2255 -0.4070
 1782SOL    HW216983   1.609   4.267  11.543  0.9629 -1.1519 -0.4188
 1783SOL     OW16984   3.135   0.021   9.425 -0.3850  0.1984 -0.2015
 1783SOL    HW116985   3.071   4.733   9.359  0.6596 -0.2810 -1.0344
 1783SOL    HW216986   3.172   0.095   9.377  0.0349  0.7367  0.9529
 1784SOL     OW16987   3.221   2.461   6.061  0.2695  0.2586 -0.2178
 1784SOL    HW116988   3.255   2.529   6.120  0.4996 -1.4957  1.6495
 1784SOL    HW216989   3.235   2.505   5.978 -0.3160  0.0082 -0.4508
 1785SOL     OW16990   3.512   0.251   2.955  0.1669  0.3262 -0.2234
 1785SOL    HW116991   3.458   0.195   2.899  0.8674 -0.9543  0.3682
 1785SOL    HW216992   3.541   0.193   3.025 -2.4473 -0.9737 -0.2144
 1786SOL     OW16993   2.396   4.345   6.895 -0.2785 -0.5196  0.1230
 1786SOL    HW116994   2.352   4.305   6.820  1.4854 -1.4127 -0.4340
 1786SOL    HW216995   2.323   4.402   6.917 -0.2971 -1.0378  1.4256
 1787SOL     OW16996   0.527   4.067   4.114 -0.5169 -0.0551  0.4628
 1787SOL    HW116997   0.470   4.074   4.191 -3.2175  0.0383 -1.5226
 1787SOL    HW216998   0.580   3.988   4.121  0.5538  0.7218  1.0561
 1788SOL     OW16999   3.823   3.419   7.403  0.9381  0.3831  0.2506
 1788SOL    HW117000   3.815   3.333   7.361  1.7000 -0.0147  0.9084
 1788SOL    HW217001   3.880   3.400   7.478 -1.6094  0.5834  2.2397
 1789SOL     OW17002   2.953   1.614   0.310  0.1018  0.3769  0.3533
 1789SOL    HW117003   3.041   1.621   0.273 -0.5139 -0.3959 -1.2242
 1789SOL    HW217004   2.969   1.571   0.394 -0.0050  1.0813  0.7391
 1790SOL     OW17005   4.556   3.672   5.262 -0.1469  0.4294 -0.0120
 1790SOL    HW117006   4.489   3.738   5.280 -0.6914 -0.3053  0.6880
 1790SOL    HW217007   4.510   3.614   5.201  1.0559  1.0030 -1.4719
 1791SOL     OW17008   2.743   0.933   0.615 -0.2980 -0.0775 -0.1873
 1791SOL    HW117009   2.680   0.983   0.564  0.1984  1.3812  0.6204
 1791SOL    HW217010   2.787   0.997   0.671 -1.3634 -0.4082  1.0270
 1792SOL     OW17011   1.034   3.383   7.467  0.4453  0.3623  0.4708
 1792SOL    HW117012   0.950   3.429   7.467  0.5463  0.5465 -0.8023
 1792SOL    HW217013   1.090   3.437   7.411 -0.5601  0.6473 -0.2637
 1793SOL     OW17014   4.394   0.689  14.148 -0.2604  0.0403  0.1653
 1793SOL    HW117015   4.312   0.663  14.189  0.8290  0.0579  2.3688
 1793SOL    HW217016   4.354   0.719  14.066  0.1631  3.3834  1.1863
 1794SOL     OW17017   1.391   2.715   0.217  0.1878  0.0246  0.0405
 1794SOL    HW117018   1.340   2.736   0.295  1.5495 -0.1389  0.9537
 1794SOL    HW217019   1.316   2.677   0.170 -1.1646  2.2850  0.3809
 1795SOL     OW17020   3.181   3.961   9.530  0.2733  0.2748 -0.0901
 1795SOL    HW117021   3.175   3.870   9.558 -1.7554  0.8086  1.2024
 1795SOL    HW217022   3.189   3.954   9.435 -1.0739 -2.4640  0.0259
 1796SOL     OW17023   2.229   0.539   6.028 -0.5260  0.5118 -0.1770
 1796SOL    HW117024   2.157   0.596   6.002 -1.8704 -0.3334  1.7578
 1796SOL    HW217025   2.302   0.594   5.999 -0.7521  1.9923  2.0908
 1797SOL     OW17026   2.761   0.193   3.861  0.8359 -0.1658 -0.1359
 1797SOL    HW117027   2.725   0.144   3.787  0.3149  1.0731 -0.6958
 1797SOL    HW217028   2.712   0.273   3.839 -0.1576 -0.8623 -0.4969
 1798SOL     OW17029   3.491   4.712   6.987  0.0507  0.3647 -0.0327
 1798SOL    HW117030   3.465   0.036   7.054 -1.6430  1.4301 -1.6674
 1798SOL    HW217031   3.440   0.002   6.911  2.7060 -0.7486 -2.2477
 1799SOL     OW17032   3.873   3.017  11.504 -0.2640  0.0571  0.1791
 1799SOL    HW117033   3.952   3.068  11.483  0.1806 -0.6361  0.1696
 1799SOL    HW217034   3.796   3.074  11.499 -0.1331  0.3693  1.5497
 1800SOL     OW17035   1.797   2.086  15.744 -0.0618 -0.0994 -0.1009
 1800SOL    HW117036   1.841   2.168  15.766 -1.4194  0.5799  0.0294
 1800SOL    HW217037   1.836   2.061  15.660  1.0318 -2.4218  1.0651
 1801SOL     OW17038   4.397   1.829   0.288 -0.2196 -0.0077 -0.3696
 1801SOL    HW117039   4.464   1.893   0.312 -1.5270  0.7971  1.2042
 1801SOL    HW217040   4.429   1.784   0.210  0.3218 -0.3147  0.0301
 1802SOL     OW17041   2.824   2.407   4.535  0.3482 -0.4429  0.0838
 1802SOL    HW117042   2.851   2.460   4.459 -0.3383 -0.7714 -0.3980
 1802SOL    HW217043   2.795   2.474   4.597 -1.6898 -0.3369 -0.9566
 1803SOL     OW17044   3.236   2.840   7.663  0.0806  0.2745 -0.8208
 1803SOL    HW117045   3.292   2.764   7.644 -0.6329  0.3437 -3.1407
 1803SOL    HW217046   3.174   2.797   7.721  0.0859 -0.9089 -1.7065
 1804SOL     OW17047   1.764   2.398   3.205  0.0854  0.1927 -0.2743
 1804SOL    HW117048   1.699   2.357   3.262 -0.5184 -0.9637 -1.8100
 1804SOL    HW217049   1.846   2.378   3.251 -0.6261 -0.7886  0.5475
 1805SOL     OW17050   3.435   2.282   9.554  0.2645 -0.0292 -0.0470
 1805SOL    HW117051   3.484   2.358   9.585  0.8784 -0.6641  0.5242
 1805SOL    HW217052   3.469   2.210   9.607 -2.1336 -0.1169  1.4102
 1806SOL     OW17053   3.051   2.187   2.120  0.0185 -0.4443 -0.8141
 1806SOL    HW117054   3.047   2.186   2.024 -0.9240  3.9592 -0.8257
 1806SOL    HW217055   3.019   2.098   2.131 -1.4206  0.7241  4.2818
 1807SOL     OW17056   3.010   2.550   8.890  0.2260 -0.0033 -0.5774
 1807SOL    HW117057   2.994   2.542   8.984  2.0971 -1.6470 -0.3900
 1807SOL    HW217058   2.986   2.642   8.875 -0.3055 -0.2889 -1.4940
 1808SOL     OW17059   1.215   4.316   8.376 -0.5744 -0.3713  0.5343
 1808SOL    HW117060   1.260   4.308   8.460  0.0531  1.4140  0.3686
 1808SOL    HW217061   1.127   4.282   8.394 -0.5576 -1.0862 -0.7355
 1809SOL     OW17062   2.188   2.750   6.339  0.3262 -0.1246 -0.4558
 1809SOL    HW117063   2.256   2.722   6.278  2.4328  0.5663  1.5795
 1809SOL    HW217064   2.139   2.674   6.370 -0.2891  0.5211  0.1631
 1810SOL     OW17065   2.003   1.085   6.532 -0.1917 -0.5565 -0.6624
 1810SOL    HW117066   1.910   1.065   6.532 -0.3719  0.2833 -0.9699
 1810SOL    HW217067   1.996   1.162   6.476  0.9009 -0.1718 -0.2784
 1811SOL     OW17068   4.646   4.149   5.796 -0.8413 -0.2775  0.3494
 1811SOL    HW117069   4.651   4.065   5.842  0.3488 -0.2700  0.2169
 1811SOL    HW217070   4.734   4.184   5.811 -1.0222 -0.2754  1.3937
 1812SOL     OW17071   3.588   3.843   5.430  0.3882  0.0899  0.1310
 1812SOL    HW117072   3.594   3.789   5.352  0.1113  1.6820 -0.9777
 1812SOL    HW217073   3.502   3.883   5.425 -0.4543 -1.5929  0.8895
 1813SOL     OW17074   2.668   0.761   1.417  0.9024  0.2184  0.3916
 1813SOL    HW117075   2.743   0.702   1.422  1.0012  0.4361  1.3406
 1813SOL    HW217076   2.648   0.764   1.323 -0.0818 -1.6455  0.5525
 1814SOL     OW17077   3.676   2.790   7.066 -0.5950 -0.2673 -0.4299
 1814SOL    HW117078   3.680   2.846   6.988 -1.5121  0.0523 -0.2386
 1814SOL    HW217079   3.645   2.705   7.034  0.6203 -0.3474 -1.4139
 1815SOL     OW17080   0.789   0.609   6.312 -0.3173  0.0472 -0.4241
 1815SOL    HW117081   0.779   0.640   6.222 -0.5373 -2.0251 -1.1239
 1815SOL    HW217082   0.708   0.563   6.331  0.6061 -2.0051 -1.4109
 1816SOL     OW17083   0.576   1.147  11.130  0.1905 -0.4564 -0.1676
 1816SOL    HW117084   0.562   1.167  11.222 -0.7672  1.4653 -0.7286
 1816SOL    HW217085   0.633   1.072  11.140  1.6281  0.5238 -0.9935
 1817SOL     OW17086   2.391   2.546   0.954 -0.0958 -0.1693  0.3970
 1817SOL    HW117087   2.348   2.475   0.907  2.2624 -1.0677 -0.3731
 1817SOL    HW217088   2.334   2.552   1.031 -1.2359  0.4396 -0.4928
 1818SOL     OW17089   1.066   2.437  10.243  0.0934  0.1515 -0.3118
 1818SOL    HW117090   1.081   2.347  10.214 -1.7671 -0.4882  0.6946
 1818SOL    HW217091   1.151   2.479  10.240  0.7599 -1.2835 -1.4048
 1819SOL     OW17092   0.168   1.490   6.871  0.9381  0.4600 -0.0951
 1819SOL    HW117093   0.128   1.549   6.807 -2.6889 -0.1696  1.5991
 1819SOL    HW217094   0.259   1.519   6.870  1.4232 -1.1084 -0.6490
 1820SOL     OW17095   3.550   4.681   5.384 -0.1824 -0.1640  0.4858
 1820SOL    HW117096   3.500   4.621   5.328  0.3073 -2.0526  2.0495
 1820SOL    HW217097   3.565   0.015   5.323 -0.4210 -0.4985  0.0266
 1821SOL     OW17098   4.522   2.115   2.849 -0.0944  0.1420 -0.4756
 1821SOL    HW117099   4.537   2.208   2.830 -0.0415 -0.0205 -1.2417
 1821SOL    HW217100   4.494   2.078   2.765  0.5951  0.7053 -0.9548
 1822SOL     OW17101   0.726   0.730   8.089 -0.1205 -0.1188  0.0217
 1822SOL    HW117102   0.702   0.685   8.170  0.8262 -2.4785 -1.0191
 1822SOL    HW217103   0.678   0.813   8.098 -0.3687 -0.4396  1.7257
 1823SOL     OW17104   1.702   3.175   6.402  0.3033 -0.0012 -0.0018
 1823SOL    HW117105   1.760   3.111   6.444  0.3032 -0.2464 -0.3773
 1823SOL    HW217106   1.665   3.124   6.331 -2.1067  0.1622  1.1444
 1824SOL     OW17107   2.524   3.150  12.880  0.1175  0.0048  0.2379
 1824SOL    HW117108   2.473   3.092  12.937  0.4339 -1.7937 -1.3120
 1824SOL    HW217109   2.527   3.098  12.800 -2.2434 -1.0821  0.8630
 1825SOL     OW17110   2.853   4.733   5.695 -0.2923  0.0004 -0.2796
 1825SOL    HW117111   2.836   4.647   5.733 -0.7069 -0.6779 -1.9916
 1825SOL    HW217112   2.772   0.042   5.718  0.2598  0.2285  1.1764
 1826SOL     OW17113   3.211   2.700   5.283 -0.1474  0.1692  0.4059
 1826SOL    HW117114   3.139   2.764   5.283 -0.2033  0.1009  2.4693
 1826SOL    HW217115   3.284   2.760   5.291  1.4649 -1.7657  0.1048
 1827SOL     OW17116   4.716   1.289  17.436 -0.4665  0.0028 -0.1849
 1827SOL    HW117117   4.674   1.262  17.355  0.6807 -2.3406 -0.0355
 1827SOL    HW217118   0.035   1.360  17.408  2.4547 -2.0447  0.5033
 1828SOL     OW17119   1.643   3.188  16.065  0.0529 -0.0042  0.0638
 1828SOL    HW117120   1.588   3.149  16.133 -0.6572  2.9116  1.1758
 1828SOL    HW217121   1.617   3.135  15.990 -1.3707  2.2602 -1.0397
 1829SOL     OW17122   3.726   0.184   7.230 -0.5421 -0.5199  0.4877
 1829SOL    HW117123   3.680   0.258   7.190  0.0519 -0.5186 -0.1684
 1829SOL    HW217124   3.753   0.226   7.312  0.1527 -0.3900  0.1838
 1830SOL     OW17125   0.916   2.238   3.893 -0.1711 -0.7313  0.1394
 1830SOL    HW117126   0.951   2.255   3.980 -2.1482  0.1701  0.7639
 1830SOL    HW217127   0.832   2.193   3.906 -0.5879 -0.4131 -1.4305
 1831SOL     OW17128   3.218   1.250   1.928  0.3051 -0.1234 -0.0426
 1831SOL    HW117129   3.145   1.209   1.882 -0.7336  0.5679  0.9991
 1831SOL    HW217130   3.195   1.341   1.909 -1.0758 -0.5180 -0.2616
 1832SOL     OW17131   3.688   3.119  16.824 -0.1354  0.5812 -0.1242
 1832SOL    HW117132   3.631   3.189  16.792 -0.3852  0.9227  1.0728
 1832SOL    HW217133   3.759   3.142  16.764  0.9167 -0.2081  0.8240
 1833SOL     OW17134   3.860   3.267   2.482  0.2311  0.1829  0.0537
 1833SOL    HW117135   3.863   3.189   2.426  0.8043  0.1546  0.1212
 1833SOL    HW217136   3.775   3.300   2.454  0.4726 -1.0378 -2.1851
 1834SOL     OW17137   1.791   3.943   2.593 -0.0056  0.2085  0.1528
 1834SOL    HW117138   1.801   4.037   2.574 -1.0495 -0.0215 -1.4687
 1834SOL    HW217139   1.696   3.933   2.586 -0.0615 -0.1664  1.3720
 1835SOL     OW17140   4.236   3.305   5.589 -0.3846  0.3126  0.1857
 1835SOL    HW117141   4.239   3.223   5.638  0.0624  1.8353  2.6884
 1835SOL    HW217142   4.296   3.353   5.646 -1.4211  0.1389  1.4107
 1836SOL     OW17143   0.188   0.965   3.305  0.0414  0.3834 -0.3079
 1836SOL    HW117144   0.275   0.985   3.341  0.3058 -0.5707 -0.4166
 1836SOL    HW217145   0.134   1.005   3.373 -0.4300  0.7950 -0.9240
 1837SOL     OW17146   1.184   3.871   4.634 -0.0518 -0.3788  0.3989
 1837SOL    HW117147   1.233   3.924   4.697 -3.3936  0.6192  2.1416
 1837SOL    HW217148   1.099   3.887   4.674 -0.0745  4.1279 -1.5432
 1838SOL     OW17149   4.137   3.147   7.975  0.2538  0.4764  0.8626
 1838SOL    HW117150   4.186   3.140   7.893 -1.1323  0.1942  0.0535
 1838SOL    HW217151   4.053   3.179   7.942  1.0849  0.6507 -1.0656
 1839SOL     OW17152   1.411   4.666   8.533 -0.1324  0.2539 -0.0717
 1839SOL    HW117153   1.480   4.729   8.514 -0.4174  0.8097  0.7406
 1839SOL    HW217154   1.445   4.588   8.489  0.0597  0.1798  0.2129
 1840SOL     OW17155   0.339   4.413   3.599  0.0510 -0.2585 -0.1323
 1840SOL    HW117156   0.287   4.346   3.644 -0.0402 -0.1797 -0.1213
 1840SOL    HW217157   0.337   4.473   3.673  0.6491  1.1838 -1.2936
 1841SOL     OW17158   2.517   0.658  17.355  0.3530  0.2053 -0.1854
 1841SOL    HW117159   2.523   0.753  17.342  0.2554  0.3694  0.9782
 1841SOL    HW217160   2.608   0.646  17.384 -0.0403  0.1674  1.0516
 1842SOL     OW17161   4.070   2.234  15.979 -0.1408 -0.2643  0.1758
 1842SOL    HW117162   4.101   2.307  16.033  1.0856 -1.0223  0.5029
 1842SOL    HW217163   4.082   2.157  16.035  0.7436 -0.8154 -0.7625
 1843SOL     OW17164   4.171   0.199   0.282 -0.4994 -0.3748 -0.5510
 1843SOL    HW117165   4.111   0.144   0.231 -0.3846 -0.6538 -0.3830
 1843SOL    HW217166   4.192   0.270   0.221  1.7625  0.7420  1.5118
 1844SOL     OW17167   4.334   0.538   6.890 -0.3495 -0.3782 -0.0363
 1844SOL    HW117168   4.250   0.566   6.929  0.3303  0.9296  0.4859
 1844SOL    HW217169   4.387   0.549   6.969 -0.1077 -2.0744  0.0350
 1845SOL     OW17170   2.259   0.240   1.441  0.4352  0.4266 -0.3309
 1845SOL    HW117171   2.319   0.301   1.398  2.3674 -0.7683  0.6623
 1845SOL    HW217172   2.196   0.302   1.478 -0.5530  0.0356 -1.3632
 1846SOL     OW17173   0.206   0.355  10.855 -0.3356  0.7916  0.2242
 1846SOL    HW117174   0.291   0.399  10.853 -0.9627  2.0279  1.3578
 1846SOL    HW217175   0.198   0.308  10.938  0.6827  0.3713  0.0859
 1847SOL     OW17176   0.153   4.183  16.790 -0.5036  0.6350 -0.4226
 1847SOL    HW117177   0.180   4.248  16.855 -0.1900  0.8993 -0.8220
 1847SOL    HW217178   0.083   4.231  16.748 -1.6792 -0.4621  0.2860
 1848SOL     OW17179   2.091   2.835   0.087 -0.1359 -0.5894  0.1992
 1848SOL    HW117180   2.169   2.793   0.123  0.7435 -0.4479 -1.5748
 1848SOL    HW217181   2.108   2.816  17.745  1.5199  0.3731  0.2928
 1849SOL     OW17182   3.374   0.232   8.573  0.1467  0.2013  0.1536
 1849SOL    HW117183   3.454   0.181   8.566  0.7306  1.4344 -2.4578
 1849SOL    HW217184   3.411   0.311   8.613  0.5207  0.2963 -0.3778
 1850SOL     OW17185   3.964   2.314   7.753 -0.6128 -0.0444 -0.1749
 1850SOL    HW117186   4.030   2.347   7.692  0.1875 -0.5663  0.4113
 1850SOL    HW217187   3.937   2.234   7.709  2.2986 -2.0334  1.6910
 1851SOL     OW17188   0.080   1.810   0.703 -0.6718 -0.4501  0.2623
 1851SOL    HW117189   0.107   1.884   0.648  1.9194 -1.8075 -0.2901
 1851SOL    HW217190   0.165   1.786   0.742 -0.2702  1.2250  0.4358
 1852SOL     OW17191   0.653   0.163   0.808 -0.3388 -0.0117 -0.1224
 1852SOL    HW117192   0.663   0.200   0.721 -0.0217  1.2125  0.4326
 1852SOL    HW217193   0.736   0.203   0.836 -0.2557 -1.3732  1.5992
 1853SOL     OW17194   3.830   2.431   1.571 -0.0769  0.0019 -0.2001
 1853SOL    HW117195   3.768   2.371   1.531 -0.7261  0.9034 -0.5597
 1853SOL    HW217196   3.900   2.428   1.506 -0.8713  0.9105 -1.0999
 1854SOL     OW17197   1.249   4.352   5.298 -0.0566 -0.2207  0.1077
 1854SOL    HW117198   1.214   4.382   5.214  0.6096 -0.0260 -0.1007
 1854SOL    HW217199   1.285   4.265   5.280 -0.2832 -0.8682  2.7254
 1855SOL     OW17200   2.987   2.500   6.798 -0.1711  0.0815  0.3725
 1855SOL    HW117201   3.064   2.452   6.770 -0.2737 -0.1015  0.4017
 1855SOL    HW217202   2.925   2.431   6.776  0.1772  0.2501 -1.0990
 1856SOL     OW17203   0.284   1.323  12.278 -0.1706  0.3570  0.2400
 1856SOL    HW117204   0.275   1.230  12.255 -1.5973  0.9330 -1.5260
 1856SOL    HW217205   0.322   1.360  12.198 -0.5524 -0.2988 -0.2396
 1857SOL     OW17206   4.407   2.715   1.528  0.7415  0.1290  0.1768
 1857SOL    HW117207   4.441   2.804   1.514 -0.2744  0.4113 -0.5671
 1857SOL    HW217208   4.414   2.688   1.436  1.0950  0.0801  0.2177
 1858SOL     OW17209   0.182   0.975   4.785 -0.1103  0.1579  0.7749
 1858SOL    HW117210   0.143   1.062   4.784  3.1665  1.5985 -1.4141
 1858SOL    HW217211   0.158   0.925   4.707 -2.9035  1.9210  0.4943
 1859SOL     OW17212   3.497   3.243   0.799  0.3520 -0.6629 -0.0652
 1859SOL    HW117213   3.439   3.287   0.861  2.5180  0.2416  1.3564
 1859SOL    HW217214   3.468   3.153   0.809  1.0577 -1.0182 -1.2278
 1860SOL     OW17215   1.980   0.953   2.200  0.4012 -0.1893  0.2387
 1860SOL    HW117216   2.071   0.924   2.209  0.5021 -0.2774 -1.1672
 1860SOL    HW217217   1.962   0.961   2.107 -0.7552  1.5104  0.6059
 1861SOL     OW17218   3.438   2.364  11.393  0.6393  0.3989  0.4702
 1861SOL    HW117219   3.489   2.283  11.402 -0.3736 -0.1408  1.4041
 1861SOL    HW217220   3.444   2.390  11.301 -0.7015  1.6390  0.7351
 1862SOL     OW17221   1.258   4.581   6.143 -0.0337  0.3253  0.0292
 1862SOL    HW117222   1.253   4.613   6.052  1.2535 -1.6107 -0.7105
 1862SOL    HW217223   1.344   4.613   6.168  1.2977 -2.1750 -1.4493
 1863SOL     OW17224   1.867   3.317   9.963 -0.2401 -0.1725 -0.4473
 1863SOL    HW117225   1.923   3.317  10.041 -0.5429 -2.9052 -0.2480
 1863SOL    HW217226   1.863   3.411   9.947  0.2869  0.2868  2.1385
 1864SOL     OW17227   1.603   1.130  14.154  0.1653  0.4078 -0.3127
 1864SOL    HW117228   1.600   1.222  14.127  2.0475  0.8758  1.0522
 1864SOL    HW217229   1.640   1.098  14.072  2.8942 -2.3567  2.0035
 1865SOL     OW17230   3.173   1.358  14.174 -0.0401 -0.4270 -0.8036
 1865SOL    HW117231   3.099   1.398  14.127 -1.8655 -2.9663 -0.0913
 1865SOL    HW217232   3.196   1.433  14.229  2.9846 -0.0630 -2.5510
 1866SOL     OW17233   3.439   2.142   1.315  0.3357 -0.3560  0.1620
 1866SOL    HW117234   3.374   2.086   1.272 -0.0191  0.8950 -0.9142
 1866SOL    HW217235   3.375   2.189   1.368 -1.0347 -2.2544  0.2180
 1867SOL     OW17236   4.389   4.306   1.603 -0.3712 -0.3852  0.4862
 1867SOL    HW117237   4.317   4.348   1.650  0.3331 -2.1796  3.1596
 1867SOL    HW217238   4.349   4.264   1.527  0.6239  1.1432 -0.8790
 1868SOL     OW17239   0.970   2.948  16.480  0.0235  0.6294  0.0968
 1868SOL    HW117240   1.039   3.008  16.452  1.0995  0.0327  1.4583
 1868SOL    HW217241   0.892   2.998  16.456 -1.4122 -2.6506 -2.0106
 1869SOL     OW17242   4.492   2.292   4.985  0.5292 -0.2017 -0.1711
 1869SOL    HW117243   4.506   2.212   5.035 -0.4809 -0.1369  0.2185
 1869SOL    HW217244   4.397   2.307   4.985  0.1990 -2.2963  2.2295
 1870SOL     OW17245   0.071   2.247  14.984  0.1842  0.9548  0.8845
 1870SOL    HW117246   4.715   2.228  14.990  0.6863 -1.9891 -0.5359
 1870SOL    HW217247   0.063   2.314  14.916  0.2515  1.2883  1.2051
 1871SOL     OW17248   4.709   0.157   4.173  0.5642 -0.3255  0.4428
 1871SOL    HW117249   4.659   0.075   4.173  0.7183 -0.4128  1.2477
 1871SOL    HW217250   4.632   0.209   4.196  0.8687  0.2395  0.1758
 1872SOL     OW17251   4.420   2.607   9.230  0.3115  0.2116 -0.1981
 1872SOL    HW117252   4.400   2.641   9.143  1.0488 -0.6995 -0.7271
 1872SOL    HW217253   4.377   2.677   9.278  0.8345  1.5544 -1.6876
 1873SOL     OW17254   3.399   0.514   7.253  0.4201 -0.4960 -0.1256
 1873SOL    HW117255   3.349   0.520   7.335  1.3793 -1.2018  0.5117
 1873SOL    HW217256   3.351   0.573   7.196  0.3835  2.7895  3.3505
 1874SOL     OW17257   2.151   1.399   4.989  0.4812 -0.3004  0.1181
 1874SOL    HW117258   2.211   1.455   4.939  1.0204  0.1992  1.3133
 1874SOL    HW217259   2.203   1.381   5.067  1.0697 -1.2136 -0.4856
 1875SOL     OW17260   3.293   0.894  14.317  0.0855  0.1423 -0.0930
 1875SOL    HW117261   3.234   0.832  14.360  0.4044 -0.7601 -0.9310
 1875SOL    HW217262   3.238   0.972  14.320 -1.2483 -0.8324  0.5982
 1876SOL     OW17263   2.508   2.895  15.141  0.3110  0.2630  0.1175
 1876SOL    HW117264   2.506   2.986  15.173 -0.3321  0.0864  0.5828
 1876SOL    HW217265   2.426   2.906  15.092 -0.5243  1.1172  1.7107
 1877SOL     OW17266   3.963   3.632   8.189 -0.0638  0.3819 -0.1994
 1877SOL    HW117267   3.974   3.545   8.229 -0.6331  0.2296 -0.3707
 1877SOL    HW217268   3.962   3.691   8.263  3.7143  0.9643 -0.6078
 1878SOL     OW17269   0.058   2.573   7.710  0.3318  0.3023 -0.4891
 1878SOL    HW117270   0.138   2.575   7.762 -0.3448 -1.9420  0.6760
 1878SOL    HW217271   0.025   2.486   7.733 -0.3943  0.7752  0.2500
 1879SOL     OW17272   2.545   4.622   6.675  0.7312  0.4074 -0.2070
 1879SOL    HW117273   2.450   4.634   6.674  0.7173  0.3699  1.7008
 1879SOL    HW217274   2.566   4.619   6.581 -3.9257  0.2287 -1.2761
 1880SOL     OW17275   1.854   4.363   9.197  0.5556 -0.4092  0.2553
 1880SOL    HW117276   1.907   4.384   9.274  1.6054 -1.5545 -0.1615
 1880SOL    HW217277   1.916   4.376   9.125  0.4192  0.1974  0.2445
 1881SOL     OW17278   0.299   1.262  12.558  0.5472  0.8099 -0.1229
 1881SOL    HW117279   0.378   1.208  12.566  0.3380  0.2328 -2.0008
 1881SOL    HW217280   0.284   1.283  12.465 -0.8581  1.3110  0.2137
 1882SOL     OW17281   0.760   3.917  13.984 -0.0671  0.1859  0.6235
 1882SOL    HW117282   0.742   3.973  14.059 -2.3730 -2.0555  1.7442
 1882SOL    HW217283   0.710   3.954  13.911 -0.8196 -1.3704  0.3564
 1883SOL     OW17284   3.942   2.282   8.251  0.0999  0.1960  0.4302
 1883SOL    HW117285   3.957   2.187   8.256 -2.3849 -0.2656 -1.1183
 1883SOL    HW217286   3.848   2.291   8.261  0.0392 -1.5970  1.5266
 1884SOL     OW17287   4.294   0.046   7.490  0.1314  0.2944  0.0419
 1884SOL    HW117288   4.347   0.112   7.535 -1.5190  0.5868  1.5734
 1884SOL    HW217289   4.340   0.044   7.406 -1.0876  1.4376 -0.6678
 1885SOL     OW17290   4.192   1.345  11.265 -0.6092 -0.3544  0.4324
 1885SOL    HW117291   4.116   1.300  11.302  1.1690 -1.9690  2.1384
 1885SOL    HW217292   4.256   1.346  11.335 -0.0417 -1.5402 -0.0743
 1886SOL     OW17293   2.195   2.415   7.007  0.6857  0.3702  0.3079
 1886SOL    HW117294   2.169   2.439   7.095 -0.3806  1.5361 -0.3324
 1886SOL    HW217295   2.154   2.483   6.954 -2.1312 -0.5205  1.3370
 1887SOL     OW17296   1.423   1.019   7.828 -0.0666 -0.0460  0.1736
 1887SOL    HW117297   1.379   1.043   7.746 -1.5391  1.1009  1.2804
 1887SOL    HW217298   1.356   0.990   7.891 -0.5034  0.7673  0.0865
 1888SOL     OW17299   1.739   2.758  13.621  0.0548  0.4617 -0.4382
 1888SOL    HW117300   1.650   2.766  13.586 -0.1431  2.0260  0.4224
 1888SOL    HW217301   1.741   2.818  13.695 -0.5183  0.5630 -0.5054
 1889SOL     OW17302   3.909   3.684   8.881  0.4342  0.6697  0.1917
 1889SOL    HW117303   3.872   3.759   8.835 -0.1939  0.2660  0.0485
 1889SOL    HW217304   3.954   3.639   8.809 -2.0671  0.2319 -1.0891
 1890SOL     OW17305   3.777   1.925   7.106  0.0977 -0.3606  0.5567
 1890SOL    HW117306   3.721   1.983   7.157  1.4584  0.7357  0.7983
 1890SOL    HW217307   3.858   1.973   7.122  1.3857 -1.9407 -1.3642
 1891SOL     OW17308   2.178   1.113  14.570 -0.0085 -0.2718 -0.4694
 1891SOL    HW117309   2.255   1.104  14.626 -0.5070 -1.1384  0.0736
 1891SOL    HW217310   2.133   1.181  14.621 -0.2008 -1.5209  1.0329
 1892SOL     OW17311   2.424   2.672   4.158 -0.2127 -0.1492 -0.1806
 1892SOL    HW117312   2.332   2.664   4.181  0.5638  0.6142  3.1275
 1892SOL    HW217313   2.453   2.620   4.233  0.4481 -1.4155 -1.3052
 1893SOL     OW17314   0.678   3.378   3.120  0.4416  0.2928 -0.5796
 1893SOL    HW117315   0.620   3.399   3.046 -0.5111 -1.5386 -0.3416
 1893SOL    HW217316   0.673   3.283   3.125  1.1534  0.2069 -1.5496
 1894SOL     OW17317   3.877   1.335   4.444  0.5133 -0.1106  0.1759
 1894SOL    HW117318   3.818   1.395   4.398  0.6493 -1.1472 -1.3277
 1894SOL    HW217319   3.935   1.400   4.484  0.6325 -0.8216  1.1572
 1895SOL     OW17320   2.704   4.228   7.490 -0.5549  0.0586  0.2450
 1895SOL    HW117321   2.638   4.220   7.559 -1.2413 -1.1614 -0.5540
 1895SOL    HW217322   2.765   4.157   7.510  0.4636  1.4459  1.9900
 1896SOL     OW17323   2.805   3.120   4.171 -0.7651 -0.5819  0.2919
 1896SOL    HW117324   2.811   3.025   4.181 -1.7865 -0.5938  0.6768
 1896SOL    HW217325   2.861   3.139   4.095  1.9604 -0.0621  2.4401
 1897SOL     OW17326   0.067   0.679   2.062 -0.4703 -0.1322 -0.2498
 1897SOL    HW117327   0.064   0.774   2.066 -1.4784 -0.2067  0.6022
 1897SOL    HW217328   4.727   0.662   2.114 -0.4071 -1.4555 -0.5710
 1898SOL     OW17329   2.409   3.141   3.925 -0.2806 -0.0403 -0.3362
 1898SOL    HW117330   2.464   3.216   3.902  1.2689 -0.9137  0.5415
 1898SOL    HW217331   2.449   3.101   4.002 -1.5960  2.8212  1.8414
 1899SOL     OW17332   2.333   2.386  17.178  0.5365 -0.0960  0.6511
 1899SOL    HW117333   2.246   2.420  17.161  1.5955  2.2363 -0.1079
 1899SOL    HW217334   2.389   2.458  17.149 -1.9070  1.3097 -0.5247
 1900SOL     OW17335   4.620   1.417   5.268  0.6824 -0.1908  0.5442
 1900SOL    HW117336   4.715   1.430   5.264  0.4958  0.1937 -2.1847
 1900SOL    HW217337   4.614   1.322   5.275  2.2212 -0.3252  0.0126
 1901SOL     OW17338   1.446   2.593   3.656  0.1744 -0.4813  0.6733
 1901SOL    HW117339   1.422   2.561   3.743 -0.0669  1.0737  1.1826
 1901SOL    HW217340   1.533   2.558   3.640 -0.7850 -2.7488  0.4092
 1902SOL     OW17341   0.152   1.856   3.825 -0.2066  0.1917 -0.0336
 1902SOL    HW117342   0.096   1.816   3.891 -0.7763 -1.1468 -1.3182
 1902SOL    HW217343   0.234   1.843   3.874 -1.0250  0.8502  1.5080
 1903SOL     OW17344   0.054   1.485   5.631 -0.1336  0.0486 -0.5166
 1903SOL    HW117345   0.119   1.422   5.600  0.4548  0.4452 -0.1015
 1903SOL    HW217346   0.027   1.444   5.713  0.6632  1.0360  0.2278
 1904SOL     OW17347   0.664   3.133  15.663 -0.4686  0.1320  0.0852
 1904SOL    HW117348   0.756   3.115  15.684  0.0714  0.8416 -1.6913
 1904SOL    HW217349   0.651   3.074  15.588  1.9233  1.8130 -1.6595
 1905SOL     OW17350   3.061   3.873   2.095  0.6219 -0.2817  0.2527
 1905SOL    HW117351   3.005   3.796   2.096  0.3517 -0.0424  2.4879
 1905SOL    HW217352   3.011   3.924   2.158 -0.0261  1.3081 -1.5239
 1906SOL     OW17353   4.544   4.403   2.307 -0.2377  0.0501  0.5524
 1906SOL    HW117354   4.602   4.345   2.357  0.3471  0.1754  0.0177
 1906SOL    HW217355   4.580   4.378   2.222  0.9926  1.1827  0.7257
 1907SOL     OW17356   1.525   0.811  13.146  0.2700  0.2225 -0.1410
 1907SOL    HW117357   1.446   0.757  13.136 -0.0176  0.3593  1.3667
 1907SOL    HW217358   1.513   0.860  13.064  0.3736  0.6111  0.0780
 1908SOL     OW17359   3.424   1.032   7.739 -0.0369 -0.4015 -0.3151
 1908SOL    HW117360   3.365   0.969   7.698 -0.0953 -0.5845  0.0480
 1908SOL    HW217361   3.413   1.114   7.691 -1.3408  0.2186  1.0460
 1909SOL     OW17362   0.232   0.364   8.397 -0.1114  0.0940 -0.5704
 1909SOL    HW117363   0.270   0.302   8.336  0.5872  0.6587 -0.7132
 1909SOL    HW217364   0.158   0.317   8.436 -0.3081 -0.3109 -1.4370
 1910SOL     OW17365   3.770   2.527   8.468  0.3488 -0.1582 -0.2601
 1910SOL    HW117366   3.681   2.523   8.503  0.8489 -1.4340  0.8631
 1910SOL    HW217367   3.791   2.620   8.473 -0.7739  0.0973 -0.3036
 1911SOL     OW17368   4.580   4.281  10.274  0.2891  0.0105 -0.3139
 1911SOL    HW117369   4.502   4.268  10.219 -0.1764 -0.7285  0.5341
 1911SOL    HW217370   4.586   4.197  10.320  0.8239 -0.5655 -1.4373
 1912SOL     OW17371   3.932   1.987   0.736  0.2403 -0.1288  0.0129
 1912SOL    HW117372   3.859   1.934   0.767 -0.5290  0.3779 -0.9565
 1912SOL    HW217373   3.918   2.067   0.785 -0.7387 -1.0989  1.3089
 1913SOL     OW17374   1.232   3.849   2.421  0.1839  0.1281  0.1321
 1913SOL    HW117375   1.141   3.865   2.397 -0.8348 -1.6189  2.9371
 1913SOL    HW217376   1.220   3.761   2.457 -0.4959  0.5875  1.0319
 1914SOL     OW17377   4.725   2.822   2.621  0.1504 -0.0575  0.1226
 1914SOL    HW117378   0.071   2.805   2.664  1.3526  1.2665 -1.6957
 1914SOL    HW217379   4.682   2.736   2.614  0.0475 -0.1910  2.2640
 1915SOL     OW17380   2.948   0.693   1.387 -0.0341 -0.2030  0.0510
 1915SOL    HW117381   2.973   0.647   1.468 -1.6917 -0.5094  0.4034
 1915SOL    HW217382   2.958   0.782   1.419 -0.0755 -0.6842  1.4298
 1916SOL     OW17383   0.396   0.511   5.691 -0.4638 -0.1627 -0.0922
 1916SOL    HW117384   0.422   0.602   5.703 -2.0881  0.6089 -2.3609
 1916SOL    HW217385   0.312   0.513   5.644  0.5709  0.1154 -1.9272
 1917SOL     OW17386   2.771   2.013   1.074 -0.2441  0.1715  0.6085
 1917SOL    HW117387   2.682   1.977   1.083 -0.2428 -0.2952 -1.2359
 1917SOL    HW217388   2.832   1.940   1.083  0.9308  1.4531  3.0111
 1918SOL     OW17389   0.967   3.955   4.240  0.0589 -0.4049 -0.3342
 1918SOL    HW117390   0.966   4.032   4.297 -0.0020 -1.2357  0.7870
 1918SOL    HW217391   1.053   3.914   4.252 -0.8675 -2.3616 -0.4200
 1919SOL     OW17392   3.202   2.185   9.095 -0.5943 -0.4810  0.3155
 1919SOL    HW117393   3.212   2.190   9.190 -1.0168 -1.2816  0.3965
 1919SOL    HW217394   3.111   2.213   9.095 -0.3371  0.3782  0.4132
 1920SOL     OW17395   0.848   1.948   7.336 -0.0826  0.1640 -0.1657
 1920SOL    HW117396   0.895   2.029   7.315  1.2723 -0.5240  0.2392
 1920SOL    HW217397   0.836   1.947   7.430  0.4166  0.9001 -0.0864
 1921SOL     OW17398   2.678   3.942   6.058 -0.1283  0.2782  0.1604
 1921SOL    HW117399   2.627   3.885   6.115  0.6487 -0.2483  0.3347
 1921SOL    HW217400   2.706   3.876   5.994 -3.5467 -1.8525  0.8557
 1922SOL     OW17401   1.581   0.419   6.208 -0.5235  0.1609 -0.2229
 1922SOL    HW117402   1.627   0.437   6.126  0.0888  1.8501  0.5064
 1922SOL    HW217403   1.655   0.451   6.259  0.7930 -0.0396 -1.9756
 1923SOL     OW17404   1.952   2.314  15.700 -0.5093  0.1841 -0.3177
 1923SOL    HW117405   1.921   2.344  15.615  1.6048  2.1708 -0.3906
 1923SOL    HW217406   2.045   2.313  15.677 -0.5786 -3.5638 -0.4337
 1924SOL     OW17407   1.497   0.620  17.199 -0.9596  0.5368  0.2211
 1924SOL    HW117408   1.499   0.525  17.195 -2.5729  0.6056 -2.2416
 1924SOL    HW217409   1.550   0.638  17.276 -0.6781  3.1746 -0.5676
 1925SOL     OW17410   2.081   4.071  11.852  0.1057 -0.5908  0.0672
 1925SOL    HW117411   2.049   4.015  11.922  0.7518 -1.5285 -0.3896
 1925SOL    HW217412   2.119   4.144  11.901  1.3913 -1.2422  0.0118
 1926SOL     OW17413   0.326   2.470   4.046  0.1594 -0.5649  0.1541
 1926SOL    HW117414   0.374   2.472   3.963 -0.7305  0.1067 -0.3395
 1926SOL    HW217415   0.336   2.377   4.065  1.9781 -0.0017  1.9607
 1927SOL     OW17416   0.330   1.058   7.590  0.6522  0.2444 -0.1705
 1927SOL    HW117417   0.239   1.038   7.613 -0.0815  1.5380 -1.9287
 1927SOL    HW217418   0.307   1.115   7.516  1.1923  1.5415  0.6691
 1928SOL     OW17419   2.367   2.356   5.881  0.4626  0.0857  0.6489
 1928SOL    HW117420   2.296   2.399   5.835  0.5922 -0.4673 -0.0576
 1928SOL    HW217421   2.401   2.433   5.926  0.0811  1.5383 -1.5753
 1929SOL     OW17422   3.458   3.499   4.380 -0.2270 -0.0731  0.4060
 1929SOL    HW117423   3.493   3.588   4.380 -0.4238  0.0045  1.8741
 1929SOL    HW217424   3.539   3.460   4.347 -1.3985 -1.7415 -0.5185
 1930SOL     OW17425   2.977   1.547  10.973  0.1880 -0.1144 -0.5423
 1930SOL    HW117426   2.936   1.586  11.049 -1.2551 -1.5748 -0.5580
 1930SOL    HW217427   3.006   1.465  11.014 -2.0882  1.5191  4.2358
 1931SOL     OW17428   0.497   1.123   7.167 -0.1589 -0.3463 -0.3989
 1931SOL    HW117429   0.569   1.061   7.180  0.3911  0.2956 -0.3623
 1931SOL    HW217430   0.443   1.068   7.110  0.3671  0.2696 -1.4824
 1932SOL     OW17431   2.774   1.522   0.120 -0.3354 -0.1799 -0.1337
 1932SOL    HW117432   2.764   1.456   0.189 -3.0502  0.6632  0.2801
 1932SOL    HW217433   2.834   1.580   0.166 -0.5653 -0.8067  0.9690
 1933SOL     OW17434   3.545   1.577   2.487  0.2270 -0.3380  0.2071
 1933SOL    HW117435   3.519   1.658   2.442 -0.2972  0.1137  1.3295
 1933SOL    HW217436   3.464   1.541   2.522  0.2161 -0.4337  0.0845
 1934SOL     OW17437   3.821   2.297   4.190 -0.4278  0.2476 -0.1060
 1934SOL    HW117438   3.861   2.357   4.253  0.0891 -1.7208  1.4571
 1934SOL    HW217439   3.890   2.241   4.155 -0.8337 -1.4904  1.8988
 1935SOL     OW17440   1.223   4.724   4.532  0.1188 -0.2169  0.5810
 1935SOL    HW117441   1.313   4.728   4.500 -0.3830 -1.1112 -0.9286
 1935SOL    HW217442   1.180   0.043   4.467  0.5210 -0.1845  0.3466
 1936SOL     OW17443   1.810   2.299   7.107  0.2663  0.3240  0.0603
 1936SOL    HW117444   1.865   2.222   7.097 -3.6384 -2.4329 -0.0293
 1936SOL    HW217445   1.868   2.367   7.072  0.1167 -0.2523 -1.3031
 1937SOL     OW17446   2.413   0.232   6.117 -0.8339  0.3439  0.3262
 1937SOL    HW117447   2.480   0.264   6.177  0.4321  0.1234 -0.9807
 1937SOL    HW217448   2.466   0.220   6.038 -1.6602 -1.6205  0.0846
 1938SOL     OW17449   4.243   2.180   0.686 -0.2557  0.5361  0.2868
 1938SOL    HW117450   4.201   2.166   0.601 -0.0132  3.1297 -0.2613
 1938SOL    HW217451   4.196   2.261   0.708  0.7045  1.6588 -1.7718
 1939SOL     OW17452   1.722   0.655   4.581  0.3123  0.6012 -0.3701
 1939SOL    HW117453   1.743   0.703   4.661  1.0991  0.0165 -0.2257
 1939SOL    HW217454   1.713   0.566   4.614 -1.1507  1.2475  0.9289
 1940SOL     OW17455   3.228   3.628   3.303  0.3775  0.3513 -0.2908
 1940SOL    HW117456   3.273   3.561   3.252 -0.7193 -0.4957 -0.1425
 1940SOL    HW217457   3.308   3.677   3.324  0.7380 -1.1060  1.7027
 1941SOL     OW17458   3.184   4.059   4.914 -1.0311 -0.0336  0.2418
 1941SOL    HW117459   3.093   4.062   4.942 -1.8587  0.0129 -2.4211
 1941SOL    HW217460   3.169   4.007   4.834 -1.2653 -0.4034  0.5259
 1942SOL     OW17461   4.584   4.671  13.011  0.7818  0.6526 -0.1447
 1942SOL    HW117462   4.493   4.647  13.027  1.5950 -2.3698  0.0460
 1942SOL    HW217463   4.614   4.594  12.962 -0.2375  0.5559 -0.6198
 1943SOL     OW17464   4.163   1.821   5.562  0.1823 -0.2961 -0.0633
 1943SOL    HW117465   4.142   1.729   5.577 -0.5290 -0.1129  0.0486
 1943SOL    HW217466   4.256   1.822   5.586  0.8246  0.7580 -2.6642
 1944SOL     OW17467   4.456   3.080   4.259 -0.0014  0.1949  0.6972
 1944SOL    HW117468   4.386   3.144   4.274  0.4736  0.9387 -0.3264
 1944SOL    HW217469   4.534   3.134   4.275  0.9742 -1.0727  0.1789
 1945SOL     OW17470   1.713   1.991   5.892  0.0571  0.7466 -0.4881
 1945SOL    HW117471   1.756   2.034   5.817 -1.4560  1.7430 -0.7831
 1945SOL    HW217472   1.692   1.909   5.849 -0.3414  0.3237  0.5193
 1946SOL     OW17473   2.960   1.361   5.455 -0.1684  0.2950  0.2741
 1946SOL    HW117474   2.963   1.315   5.539  0.7794 -0.0560  0.0503
 1946SOL    HW217475   3.008   1.439   5.483 -0.7504  0.6838  0.1998
 1947SOL     OW17476   1.901   0.728   9.338 -0.1029  0.5909  0.1050
 1947SOL    HW117477   1.937   0.775   9.262  0.2497 -0.9413 -0.6723
 1947SOL    HW217478   1.940   0.769   9.415  1.8793  0.6868 -0.9566
 1948SOL     OW17479   0.961   0.066   2.471  0.2127 -0.0241 -0.0060
 1948SOL    HW117480   1.032   0.052   2.534 -0.2769 -0.6769  0.3950
 1948SOL    HW217481   0.930   4.714   2.469 -0.5717  0.2481 -0.2803
 1949SOL     OW17482   1.850   4.185   6.217 -0.2170 -0.5062 -0.1348
 1949SOL    HW117483   1.917   4.142   6.164 -1.1184 -0.8602 -0.9963
 1949SOL    HW217484   1.855   4.142   6.302 -1.1320  0.4322  0.3977
 1950SOL     OW17485   1.917   1.521   7.231 -0.0121  0.1277  0.4195
 1950SOL    HW117486   1.964   1.480   7.158 -0.2118  0.4541  0.1024
 1950SOL    HW217487   1.931   1.461   7.304 -2.7945 -2.4659 -1.1663
 1951SOL     OW17488   4.058   2.680   9.164 -0.2501  0.2885 -0.0935
 1951SOL    HW117489   4.082   2.597   9.205 -0.2972  0.0270 -0.6023
 1951SOL    HW217490   4.014   2.717   9.242 -0.0930 -1.8976  1.0200
 1952SOL     OW17491   0.675   3.917   8.610 -0.2837  0.0948  0.1855
 1952SOL    HW117492   0.609   3.855   8.638  0.6917 -1.1389 -0.2322
 1952SOL    HW217493   0.754   3.870   8.638  0.0362  0.2140 -0.5096
 1953SOL     OW17494   1.186   1.361   2.235 -0.2297 -0.3012  0.1130
 1953SOL    HW117495   1.179   1.449   2.196  0.2506 -0.4700 -0.3578
 1953SOL    HW217496   1.127   1.379   2.308 -1.7737 -3.7936 -0.3000
 1954SOL     OW17497   0.607   3.739   6.742  0.0948 -0.5222 -0.3845
 1954SOL    HW117498   0.585   3.682   6.669  1.6775 -1.2060 -0.3328
 1954SOL    HW217499   0.563   3.818   6.711 -0.1053 -0.2452  0.5885
 1955SOL     OW17500   3.371   3.995   5.354  0.1440  0.6771  0.6733
 1955SOL    HW117501   3.323   4.023   5.432  3.5629  2.4986  2.1343
 1955SOL    HW217502   3.436   4.063   5.369  1.8518 -0.8042 -0.0222
 1956SOL     OW17503   0.730   3.876  10.990 -0.2248  0.0564 -0.0710
 1956SOL    HW117504   0.818   3.848  10.964 -0.9855 -1.2156 -1.2747
 1956SOL    HW217505   0.681   3.798  10.963  0.3895 -0.1867 -0.4930
 1957SOL     OW17506   4.033   4.029   8.039  0.1831 -0.1054  0.1028
 1957SOL    HW117507   4.059   4.017   8.130  0.0856  0.1996  0.1740
 1957SOL    HW217508   3.939   4.039   8.055 -0.0297 -0.2483 -1.0867
 1958SOL     OW17509   4.448   3.264   8.073  0.2404  0.3368 -0.0043
 1958SOL    HW117510   4.533   3.270   8.117 -1.1370  0.4314  2.6761
 1958SOL    HW217511   4.488   3.244   7.988  0.8402  2.2689 -0.1744
 1959SOL     OW17512   1.437   1.413  11.894  0.1090 -0.0380  0.0426
 1959SOL    HW117513   1.504   1.481  11.885  0.8337 -0.8631 -0.6876
 1959SOL    HW217514   1.478   1.342  11.846  0.7291  0.1504  0.2945
 1960SOL     OW17515   1.134   1.801  16.991  0.4913 -0.8086 -0.0887
 1960SOL    HW117516   1.162   1.810  16.899  1.5758  0.2942  0.3489
 1960SOL    HW217517   1.082   1.721  16.985 -2.6004  1.2082 -0.4504
 1961SOL     OW17518   3.998   2.994   1.428  0.8024 -0.8263 -0.9273
 1961SOL    HW117519   4.030   3.024   1.343 -0.6859 -0.1599 -1.2557
 1961SOL    HW217520   4.022   3.064   1.489 -0.7719 -1.4920  0.4543
 1962SOL     OW17521   0.258   4.688   3.736 -0.2341 -0.0227  0.0051
 1962SOL    HW117522   0.234   4.656   3.823  1.2578 -2.8707 -0.6328
 1962SOL    HW217523   0.179   4.736   3.710 -0.4639 -0.5576 -0.2907
 1963SOL     OW17524   0.938   2.617  17.651 -0.2048  0.3145  0.0345
 1963SOL    HW117525   0.926   2.530  17.613  0.9745  0.1847 -0.0660
 1963SOL    HW217526   0.852   2.627  17.690 -1.1832  0.7412 -2.2233
 1964SOL     OW17527   3.485   4.400   7.042  0.8260  0.2360 -0.2648
 1964SOL    HW117528   3.576   4.397   7.071  0.2028  0.7111  1.6904
 1964SOL    HW217529   3.472   4.492   7.021  1.4415  0.0795 -1.3562
 1965SOL     OW17530   4.265   4.538   6.337 -0.2536 -0.0826  0.4974
 1965SOL    HW117531   4.272   4.452   6.297 -0.9741 -0.1447  0.5110
 1965SOL    HW217532   4.348   4.581   6.314 -0.4463 -0.5637 -1.0930
 1966SOL     OW17533   3.753   0.577   3.551 -0.2210  0.0650  0.1150
 1966SOL    HW117534   3.775   0.669   3.564 -0.3235  0.6498 -3.7292
 1966SOL    HW217535   3.659   0.587   3.560 -0.4163 -2.7065  1.2147
 1967SOL     OW17536   3.410   2.561  12.981 -0.0493 -0.2910  0.0855
 1967SOL    HW117537   3.496   2.601  12.971 -0.0961 -0.6715 -1.7990
 1967SOL    HW217538   3.398   2.568  13.076 -1.0526  0.8548 -0.1218
 1968SOL     OW17539   1.464   3.352  12.333 -0.1789 -0.1902 -0.2787
 1968SOL    HW117540   1.385   3.387  12.376  2.3298  2.9301  1.7408
 1968SOL    HW217541   1.498   3.431  12.291  0.0391 -0.7185 -1.0885
 1969SOL     OW17542   3.047   0.492   3.738  0.4681  0.1648 -0.1790
 1969SOL    HW117543   3.113   0.552   3.703  2.0177 -0.3153  1.9018
 1969SOL    HW217544   2.998   0.481   3.657 -0.5666 -2.8218  0.8317
 1970SOL     OW17545   3.322   0.323   6.911  0.8311 -0.1612 -0.3430
 1970SOL    HW117546   3.402   0.371   6.890  2.0495 -1.2946  1.6891
 1970SOL    HW217547   3.321   0.321   7.007 -1.2756  1.0251 -0.3377
 1971SOL     OW17548   3.204   2.722   2.391 -0.0498 -0.3448 -0.3428
 1971SOL    HW117549   3.268   2.694   2.457  0.7223 -0.1227 -1.0004
 1971SOL    HW217550   3.235   2.665   2.320 -0.9180 -2.0588  0.6410
 1972SOL     OW17551   3.557   3.367  16.755  0.1359  0.2065  0.2092
 1972SOL    HW117552   3.500   3.325  16.819  2.2359 -0.2779  1.7852
 1972SOL    HW217553   3.552   3.457  16.784  0.4767 -0.0900  1.1915
 1973SOL     OW17554   3.108   0.556   5.398 -0.2315  0.7101  0.4687
 1973SOL    HW117555   3.097   0.463   5.420 -1.4060  0.2463 -1.9837
 1973SOL    HW217556   3.197   0.549   5.363 -0.3117  1.6018  0.0906
 1974SOL     OW17557   1.455   0.378  17.070  0.1813  0.2651  0.7115
 1974SOL    HW117558   1.411   0.361  16.986 -0.1502 -0.1170  0.9661
 1974SOL    HW217559   1.546   0.350  17.058  0.5319  1.6510  0.1710
 1975SOL     OW17560   1.498   4.595   9.332  0.9150  0.1171 -0.4147
 1975SOL    HW117561   1.429   4.570   9.270 -1.1759 -0.0991  1.9663
 1975SOL    HW217562   1.535   4.512   9.362 -1.8914 -0.7059  0.7793
 1976SOL     OW17563   4.438   1.457   7.552  0.4012  0.2659 -0.1093
 1976SOL    HW117564   4.431   1.551   7.569 -1.1463  0.1913 -0.3382
 1976SOL    HW217565   4.350   1.453   7.514  0.7563  0.0578 -0.8880
 1977SOL     OW17566   1.894   0.357   7.222 -0.0967 -0.1164 -0.1621
 1977SOL    HW117567   1.917   0.315   7.305 -2.0635 -0.6576  0.0995
 1977SOL    HW217568   1.932   0.291   7.164 -0.6046  0.6947 -1.4045
 1978SOL     OW17569   1.417   1.692   3.401 -0.3957  0.4679  0.5843
 1978SOL    HW117570   1.422   1.689   3.305  4.0380  1.6430  0.7486
 1978SOL    HW217571   1.325   1.717   3.408  0.0472  2.5493 -0.8885
 1979SOL     OW17572   1.121   2.171  15.560 -0.2139  0.0794 -0.5376
 1979SOL    HW117573   1.082   2.090  15.526  3.2007 -2.0989  0.7386
 1979SOL    HW217574   1.209   2.144  15.585 -0.6402  0.8221  1.7778
 1980SOL     OW17575   2.125   2.084   9.246  0.2256  0.6130  0.6956
 1980SOL    HW117576   2.214   2.059   9.270 -0.4067 -3.2541 -0.9963
 1980SOL    HW217577   2.132   2.118   9.156  0.9204  0.5728  0.7372
 1981SOL     OW17578   3.649   4.207   5.983  0.1348 -0.4075  0.2591
 1981SOL    HW117579   3.726   4.174   6.030  0.0215  0.6229  1.1528
 1981SOL    HW217580   3.590   4.131   5.990  2.4219 -2.0859  1.1055
 1982SOL     OW17581   3.785   0.309   9.100 -0.1827  0.1459 -0.3445
 1982SOL    HW117582   3.844   0.257   9.046 -1.6560 -1.0171 -0.8569
 1982SOL    HW217583   3.700   0.282   9.065  0.0528  1.6664 -2.1141
 1983SOL     OW17584   3.942   3.437   1.442  0.0940 -0.0611 -0.0101
 1983SOL    HW117585   3.890   3.517   1.436  1.4715  0.8411  0.1849
 1983SOL    HW217586   3.967   3.453   1.533 -1.0998 -0.4689  0.3857
 1984SOL     OW17587   3.583   0.231   4.573 -1.0708  0.2372 -0.9042
 1984SOL    HW117588   3.662   0.245   4.625 -2.1052  0.7040  0.5459
 1984SOL    HW217589   3.535   0.166   4.625 -1.1811  0.7905 -0.3137
 1985SOL     OW17590   4.446   0.031  16.618  0.1046  0.4052  0.4074
 1985SOL    HW117591   4.435   4.706  16.547 -0.6156  1.4296 -0.3742
 1985SOL    HW217592   4.471   4.705  16.684 -0.1361  0.3540  0.4484
 1986SOL     OW17593   1.126   4.107   4.961 -0.1533 -0.0886  0.0433
 1986SOL    HW117594   1.193   4.145   5.017  0.8865 -2.9637  0.7047
 1986SOL    HW217595   1.174   4.054   4.898  1.1518 -1.1647  1.9750
 1987SOL     OW17596   1.563   4.579  14.403  0.0242  0.2336 -0.1949
 1987SOL    HW117597   1.621   4.547  14.472 -0.4380  0.1244  0.1444
 1987SOL    HW217598   1.619   4.562  14.328 -1.5148 -0.2636 -1.2328
 1988SOL     OW17599   0.609   1.844   4.594  0.5001 -0.4656 -0.1986
 1988SOL    HW117600   0.555   1.766   4.607  0.2610 -0.3160 -0.2906
 1988SOL    HW217601   0.543   1.884   4.538  0.7278  0.8731  0.4611
 1989SOL     OW17602   1.506   0.103  17.185  0.0612 -0.1569 -0.2376
 1989SOL    HW117603   1.530   0.196  17.195 -0.0148 -0.2018  0.4030
 1989SOL    HW217604   1.416   0.101  17.153  0.1524  1.6017 -0.6137
 1990SOL     OW17605   4.724   2.711  17.359  0.1425 -0.6760 -0.3633
 1990SOL    HW117606   4.701   2.627  17.319 -0.7004 -1.1389  1.1096
 1990SOL    HW217607   4.637   2.749  17.362  0.5724  0.2220  0.5948
 1991SOL     OW17608   1.072   1.655   3.701 -0.6984  0.1644 -0.0553
 1991SOL    HW117609   1.095   1.679   3.611 -1.6240 -3.1816 -1.1673
 1991SOL    HW217610   1.078   1.741   3.744 -1.2339  1.1741 -1.9935
 1992SOL     OW17611   3.911   1.665  10.155 -0.2819 -0.0088 -0.3471
 1992SOL    HW117612   3.996   1.700  10.130  0.0209 -0.9346 -0.6028
 1992SOL    HW217613   3.884   1.615  10.079  0.0182 -0.1899 -0.3355
 1993SOL     OW17614   3.198   2.249  13.465 -0.2499  0.3190  0.0509
 1993SOL    HW117615   3.287   2.284  13.466 -0.3294  0.5175  0.1654
 1993SOL    HW217616   3.162   2.265  13.552 -2.2117 -1.1129 -0.5177
 1994SOL     OW17617   0.514   3.723   3.274 -0.0618 -0.0885 -0.2192
 1994SOL    HW117618   0.515   3.698   3.182 -2.0765 -1.1871  0.0762
 1994SOL    HW217619   0.574   3.798   3.278  1.2073 -1.0211 -1.8324
 1995SOL     OW17620   0.123   1.611   2.453  0.0696  0.0138  0.3843
 1995SOL    HW117621   0.139   1.534   2.506  0.9710 -1.0951 -1.4829
 1995SOL    HW217622   0.062   1.666   2.502 -0.3831 -0.4303  0.3064
 1996SOL     OW17623   0.566   1.794   8.976 -0.1244  0.2240  0.2485
 1996SOL    HW117624   0.549   1.715   8.926 -3.2480 -0.7714  2.8179
 1996SOL    HW217625   0.596   1.850   8.905  0.6494 -0.4944  0.0123
 1997SOL     OW17626   1.276   2.080   6.700  0.2768 -0.3755  0.0585
 1997SOL    HW117627   1.253   1.987   6.691 -0.0835 -0.3833  1.1325
 1997SOL    HW217628   1.276   2.119   6.613  0.7264  0.1479  0.2969
 1998SOL     OW17629   4.205   2.614   2.727  0.4539  0.0843 -0.2716
 1998SOL    HW117630   4.162   2.618   2.641  1.9232  3.5280 -0.8547
 1998SOL    HW217631   4.125   2.596   2.775  0.8552  0.8272  0.6759
 1999SOL     OW17632   0.011   0.268  12.477  0.1576  0.1988  0.1326
 1999SOL    HW117633   0.105   0.283  12.474  0.3394 -1.3226 -1.4148
 1999SOL    HW217634   4.716   0.309  12.397 -4.0659 -2.6409  0.4390
 2000SOL     OW17635   3.722   2.500   7.701  0.2254  0.0347  0.2609
 2000SOL    HW117636   3.758   2.418   7.735 -0.4916  0.1795  1.3873
 2000SOL    HW217637   3.765   2.502   7.616 -1.5123 -0.7094 -0.6326
 2001SOL     OW17638   1.839   0.169   7.712  0.0245  0.0395 -0.7915
 2001SOL    HW117639   1.845   0.190   7.619  1.7016 -0.9218 -0.9168
 2001SOL    HW217640   1.889   0.087   7.717 -0.6890 -0.4412 -1.5227
 2002SOL     OW17641   1.953   1.218   1.801 -0.2430  0.0680  0.2787
 2002SOL    HW117642   1.887   1.204   1.868 -0.9225 -0.2886 -0.4607
 2002SOL    HW217643   2.032   1.188   1.846  0.9316  0.3969 -1.5618
 2003SOL     OW17644   1.488   3.306   5.281 -0.3325 -0.4265  0.3114
 2003SOL    HW117645   1.475   3.256   5.201  1.6911  2.8369 -2.0709
 2003SOL    HW217646   1.396   3.330   5.287 -0.0651  0.0616  2.3064
 2004SOL     OW17647   2.736   4.611  15.576 -0.4338 -0.1579  0.2407
 2004SOL    HW117648   2.664   4.581  15.520 -0.0875 -1.2604  0.4008
 2004SOL    HW217649   2.692   4.652  15.651 -2.6523  1.3283 -1.8921
 2005SOL     OW17650   0.753   1.346  11.284 -0.0252 -0.1700 -0.6243
 2005SOL    HW117651   0.668   1.318  11.318  0.0831  2.1520  1.5948
 2005SOL    HW217652   0.773   1.406  11.356 -0.6859  0.8849 -1.3070
 2006SOL     OW17653   2.370   0.003  16.048 -0.2634 -0.1266  0.1144
 2006SOL    HW117654   2.370   0.084  16.099 -1.2135 -0.0176 -0.0496
 2006SOL    HW217655   2.333   0.047  15.971 -1.3910 -0.1521  0.6385
 2007SOL     OW17656   3.093   2.909   3.854  0.3088 -0.3320 -0.4873
 2007SOL    HW117657   3.142   2.991   3.843 -0.3266  0.0612 -0.3845
 2007SOL    HW217658   3.055   2.926   3.768  0.1136  1.2169 -0.0835
 2008SOL     OW17659   3.554   0.150   9.084 -0.5270 -0.3322  0.0757
 2008SOL    HW117660   3.468   0.190   9.100  0.3496  1.4177  0.4808
 2008SOL    HW217661   3.572   0.121   9.174 -2.1979  0.5061  0.6763
 2009SOL     OW17662   2.967   0.765  13.839  0.4347  0.5037 -0.2796
 2009SOL    HW117663   3.036   0.734  13.896  0.1593  1.3072  0.4868
 2009SOL    HW217664   3.011   0.846  13.812 -0.0073  0.9348  0.2946
 2010SOL     OW17665   4.430   3.295   1.651 -0.8534 -0.1071  0.1587
 2010SOL    HW117666   4.505   3.241   1.626 -0.8267 -0.7188  1.5860
 2010SOL    HW217667   4.371   3.268   1.581  1.9940 -1.1573 -1.8607
 2011SOL     OW17668   3.473   4.282  14.404 -0.3425 -1.0734  0.6212
 2011SOL    HW117669   3.395   4.323  14.366  0.6711 -0.1973 -0.4950
 2011SOL    HW217670   3.467   4.289  14.499  1.3047  0.7022  0.5801
 2012SOL     OW17671   1.925   1.156   8.979 -0.7147 -0.1432 -0.0593
 2012SOL    HW117672   1.994   1.148   8.913  0.4490  0.7075  1.0745
 2012SOL    HW217673   1.846   1.160   8.924 -0.0519  0.8981 -0.9369
 2013SOL     OW17674   1.915   2.136   5.451 -0.4080 -0.6499 -0.1817
 2013SOL    HW117675   1.963   2.071   5.399  1.0249  0.4037 -0.1808
 2013SOL    HW217676   1.922   2.211   5.392  0.4177 -0.1823  0.5114
 2014SOL     OW17677   3.044   3.587   7.603  0.5441 -0.0244  0.0848
 2014SOL    HW117678   3.098   3.653   7.559 -1.1635  0.0162 -1.9499
 2014SOL    HW217679   3.101   3.572   7.679 -1.0335 -0.3110  1.1998
 2015SOL     OW17680   3.550   1.389   2.146 -0.3692  0.5423  0.2087
 2015SOL    HW117681   3.638   1.420   2.125 -0.2814 -1.2129 -1.9608
 2015SOL    HW217682   3.542   1.382   2.241  1.8738  2.2105  0.5133
 2016SOL     OW17683   1.623   1.998  15.941  0.1085 -0.1391 -0.1255
 2016SOL    HW117684   1.571   2.078  15.936  0.3066  0.1523  2.4864
 2016SOL    HW217685   1.683   2.012  15.867  3.6583 -0.1933  2.7114
 2017SOL     OW17686   2.137   1.282   8.140  0.0830  0.0026 -0.4004
 2017SOL    HW117687   2.065   1.241   8.188 -0.1450 -1.1120 -1.6727
 2017SOL    HW217688   2.085   1.341   8.086 -0.8889 -2.1540 -1.8626
 2018SOL     OW17689   2.950   3.219   7.759 -0.5897 -0.5105 -0.7947
 2018SOL    HW117690   2.861   3.213   7.795  0.3114 -0.8551  1.3823
 2018SOL    HW217691   3.003   3.158   7.811  0.0770  0.5898 -0.1684
 2019SOL     OW17692   4.114   1.115   4.462  0.2476 -0.0311 -0.0246
 2019SOL    HW117693   4.084   1.177   4.396 -1.5108 -0.5567  0.2936
 2019SOL    HW217694   4.207   1.131   4.447 -0.6413  1.1631 -3.9818
 2020SOL     OW17695   0.558   0.738  10.645 -0.4761  0.4422 -0.5168
 2020SOL    HW117696   0.633   0.771  10.695 -2.4386  0.8807  2.1129
 2020SOL    HW217697   0.501   0.814  10.656 -2.3458 -1.1781  0.9276
 2021SOL     OW17698   4.280   2.491   7.321  0.1432 -0.7651  0.1789
 2021SOL    HW117699   4.264   2.437   7.398 -1.0372  0.3455  0.7077
 2021SOL    HW217700   4.368   2.524   7.340 -0.9854  0.6885  2.7531
 2022SOL     OW17701   2.291   4.261   8.606  0.1306 -0.4016 -0.5860
 2022SOL    HW117702   2.332   4.178   8.582  1.1599 -0.0361 -0.0899
 2022SOL    HW217703   2.201   4.247   8.576  0.3128  0.7711 -1.6800
 2023SOL     OW17704   1.472   4.144  13.671 -0.0959 -0.0617 -0.3026
 2023SOL    HW117705   1.417   4.222  13.678  0.2905  0.3087 -1.3754
 2023SOL    HW217706   1.402   4.089  13.635  1.8091 -1.0700 -2.4722
 2024SOL     OW17707   2.268   4.645   3.107 -0.0458 -0.0976 -0.2939
 2024SOL    HW117708   2.184   4.683   3.130  0.5126  0.1218  1.4252
 2024SOL    HW217709   2.326   4.721   3.109 -2.6636  1.8972 -0.6028
 2025SOL     OW17710   2.571   1.999  14.025 -0.1138  0.4403  0.0445
 2025SOL    HW117711   2.571   2.042  13.940 -3.9293 -1.3249 -0.8619
 2025SOL    HW217712   2.662   1.978  14.049  0.2778 -1.3148 -3.0494
 2026SOL     OW17713   1.216   3.379  16.424 -0.1903 -0.1150  0.3684
 2026SOL    HW117714   1.124   3.390  16.447 -0.0014  0.1729  0.9873
 2026SOL    HW217715   1.237   3.459  16.376 -1.5042 -0.8082 -1.3791
 2027SOL     OW17716   0.246   2.999  17.686 -0.2656 -0.2981 -0.0846
 2027SOL    HW117717   0.169   3.005  17.630  0.0786  0.8956 -0.4399
 2027SOL    HW217718   0.318   3.012  17.624  1.0979 -1.5844  1.2264
 2028SOL     OW17719   2.047   0.917   8.426  0.3726 -0.5045 -0.5043
 2028SOL    HW117720   1.979   0.851   8.415 -1.1490  1.1151 -0.7882
 2028SOL    HW217721   2.115   0.851   8.433  1.2626  0.6728  1.9962
 2029SOL     OW17722   2.982   1.060   1.204  0.4878 -0.0278  0.4913
 2029SOL    HW117723   3.065   1.012   1.210 -1.1588 -2.9727 -0.2530
 2029SOL    HW217724   2.956   1.066   1.295 -1.8697 -0.9666 -0.1227
 2030SOL     OW17725   3.230   1.505   9.099 -0.6594  0.2566 -0.0310
 2030SOL    HW117726   3.167   1.486   9.168  0.6355 -0.4117  0.9783
 2030SOL    HW217727   3.210   1.598   9.093 -2.3147 -0.1451 -0.9168
 2031SOL     OW17728   2.000   0.894  12.652 -0.3162  0.1112  0.1266
 2031SOL    HW117729   2.078   0.917  12.702  0.0924  0.0499 -0.4883
 2031SOL    HW217730   2.034   0.922  12.567  0.9573 -0.4599  0.4561
 2032SOL     OW17731   3.899   1.550   2.715 -0.6453  0.0429 -0.6079
 2032SOL    HW117732   3.933   1.505   2.793  1.6459  1.8405 -0.5507
 2032SOL    HW217733   3.825   1.595   2.757 -0.1800 -0.7150  1.0388
 2033SOL     OW17734   4.305   2.689   3.289  0.1669 -0.4803 -0.0964
 2033SOL    HW117735   4.227   2.673   3.343 -0.0696  0.3828 -0.1785
 2033SOL    HW217736   4.326   2.596   3.277 -0.3877 -0.4371 -1.3675
 2034SOL     OW17737   4.360   1.413  12.436 -0.3976 -0.0050  0.4319
 2034SOL    HW117738   4.368   1.445  12.346  3.6057 -1.0716  0.3983
 2034SOL    HW217739   4.276   1.456  12.454 -1.4990 -2.5382  1.2605
 2035SOL     OW17740   1.157   0.471   5.187  0.0180 -0.5735  0.9603
 2035SOL    HW117741   1.140   0.537   5.254  0.0041 -1.5473  1.8979
 2035SOL    HW217742   1.251   0.474   5.172  0.2577 -2.2271  2.2109
 2036SOL     OW17743   1.735   0.091   6.216  0.5622 -0.0927  0.2409
 2036SOL    HW117744   1.791   0.155   6.172  0.2316  0.2355  0.2998
 2036SOL    HW217745   1.748   0.022   6.151 -0.8972  1.1620 -1.3641
 2037SOL     OW17746   0.738   3.660  10.483  0.4337  0.1094 -0.3241
 2037SOL    HW117747   0.805   3.712  10.526 -0.6835  2.0697 -0.9780
 2037SOL    HW217748   0.786   3.592  10.437 -1.5413 -0.3848 -1.6770
 2038SOL     OW17749   4.121   4.074  16.600 -0.1570 -0.1734 -0.8473
 2038SOL    HW117750   4.105   4.095  16.508 -0.3863 -3.4584 -1.5482
 2038SOL    HW217751   4.176   3.997  16.585  0.4969  0.1463 -0.0672
 2039SOL     OW17752   1.059   0.082   3.525 -0.0801  0.6781  0.3844
 2039SOL    HW117753   1.076   0.159   3.579 -2.1156  1.2190  0.2166
 2039SOL    HW217754   1.140   0.073   3.475 -0.6608 -1.0873 -0.2412
 2040SOL     OW17755   0.693   4.605   4.799 -0.3780 -0.3116  0.4413
 2040SOL    HW117756   0.759   4.611   4.730 -0.4315 -1.7939  0.2616
 2040SOL    HW217757   0.626   4.672   4.785  0.7739  0.8139  0.3177
 2041SOL     OW17758   1.867   1.707  11.712 -0.0630 -0.4638  0.1740
 2041SOL    HW117759   1.957   1.675  11.708  0.4791  1.0249  0.1136
 2041SOL    HW217760   1.883   1.800  11.692 -1.7460 -0.2504 -0.1810
 2042SOL     OW17761   0.679   0.287  13.472  0.0774  0.0778 -0.2035
 2042SOL    HW117762   0.638   0.239  13.400 -0.7838 -0.9454  0.9838
 2042SOL    HW217763   0.693   0.217  13.535  1.3037 -1.1145 -1.8135
 2043SOL     OW17764   1.367   4.239   6.229  1.0256  0.1913  0.0888
 2043SOL    HW117765   1.311   4.171   6.266  0.8851  0.4314  0.3180
 2043SOL    HW217766   1.414   4.260   6.311  0.9409  1.4140 -0.1809
 2044SOL     OW17767   2.509   0.722   0.529  0.3185 -0.1569  0.0231
 2044SOL    HW117768   2.553   0.650   0.484  2.3921 -0.4903  2.5655
 2044SOL    HW217769   2.521   0.692   0.620  1.1951  0.0158 -0.0361
 2045SOL     OW17770   2.529   0.554   8.984 -0.2276  0.3713 -0.1241
 2045SOL    HW117771   2.497   0.489   9.047 -0.5972 -0.6733 -1.4140
 2045SOL    HW217772   2.459   0.619   8.985 -0.9942 -0.4671  0.0428
 2046SOL     OW17773   0.085   1.622   4.978  0.1579  0.1913  0.1850
 2046SOL    HW117774   0.098   1.608   5.072  2.2042  0.0220 -0.1206
 2046SOL    HW217775   0.156   1.571   4.938 -0.8104 -1.5164  0.6260
 2047SOL     OW17776   3.791   4.215   1.825  0.3400  0.8199  0.9226
 2047SOL    HW117777   3.779   4.286   1.761  0.2868  2.0560  2.2961
 2047SOL    HW217778   3.863   4.240   1.883  0.3205 -0.9768  1.7155
 2048SOL     OW17779   4.689   4.335   6.802 -0.0310  0.0757 -0.0311
 2048SOL    HW117780   4.596   4.336   6.825 -0.1742  0.9157 -0.6377
 2048SOL    HW217781   4.719   4.272   6.867 -1.7912  1.6084  2.2659
 2049SOL     OW17782   0.739   1.216   9.700  0.4817  0.1686 -0.0677
 2049SOL    HW117783   0.820   1.255   9.667  0.7903 -0.5881 -0.2048
 2049SOL    HW217784   0.693   1.290   9.740 -0.3029 -0.9860  1.1831
 2050SOL     OW17785   4.610   4.335   2.711 -0.1223 -0.9025 -0.0453
 2050SOL    HW117786   4.590   4.308   2.800 -0.0983 -0.2003  0.1766
 2050SOL    HW217787   4.614   4.255   2.659  1.6860 -0.3449 -0.7614
 2051SOL     OW17788   1.843   0.034   4.416  0.0301 -0.1769  0.9952
 2051SOL    HW117789   1.862   4.697   4.360  1.7139 -0.9614  2.6354
 2051SOL    HW217790   1.907   0.092   4.375  1.2390 -2.5063 -0.3702
 2052SOL     OW17791   1.817   0.142   0.629 -0.0049  0.6073 -0.1198
 2052SOL    HW117792   1.817   0.191   0.547 -0.8787 -2.6261 -2.0346
 2052SOL    HW217793   1.851   0.207   0.691 -0.5014  1.2385 -0.5056
 2053SOL     OW17794   3.825   0.641   6.299  0.0035 -0.1617 -0.7571
 2053SOL    HW117795   3.841   0.666   6.390  3.0089 -2.5717 -0.6213
 2053SOL    HW217796   3.775   0.717   6.269  1.0161  0.8929  0.2201
 2054SOL     OW17797   1.025   0.260   5.337  0.1825 -0.3378  0.2095
 2054SOL    HW117798   1.097   0.307   5.295  0.7179 -1.1989  0.1871
 2054SOL    HW217799   1.043   0.271   5.431 -2.1250  0.9287  0.5029
 2055SOL     OW17800   3.724   2.556  12.252 -0.0289 -0.2516  0.0063
 2055SOL    HW117801   3.704   2.466  12.279  1.0704 -0.1447  1.1324
 2055SOL    HW217802   3.817   2.563  12.273 -0.4811  2.0351  1.2550
 2056SOL     OW17803   2.413   2.924   3.667  0.5134 -0.1419  0.2381
 2056SOL    HW117804   2.376   2.942   3.580 -0.7845  0.9863  1.0333
 2056SOL    HW217805   2.471   2.999   3.660 -0.2551  0.3251 -1.2322
 2057SOL     OW17806   4.031   3.740   7.638 -0.5516  0.2736 -0.1415
 2057SOL    HW117807   4.056   3.783   7.720 -0.5765  0.1899 -0.0897
 2057SOL    HW217808   4.012   3.822   7.593  1.9236  0.5082 -0.7793
 2058SOL     OW17809   4.031   2.216   9.106  0.0327 -0.0838 -0.6570
 2058SOL    HW117810   4.119   2.188   9.130  0.1369 -0.2103 -1.1808
 2058SOL    HW217811   4.023   2.207   9.011  0.5489  0.4507 -0.7533
 2059SOL     OW17812   3.610   2.124   8.949 -0.3836  0.5176 -0.8538
 2059SOL    HW117813   3.557   2.190   8.994 -2.1525 -2.1402  0.9167
 2059SOL    HW217814   3.559   2.089   8.876  1.5377  0.1195 -2.0118
 2060SOL     OW17815   0.667   3.493   9.069  0.4932  0.1863 -0.2163
 2060SOL    HW117816   0.636   3.485   8.979 -1.2739  1.1411  0.3074
 2060SOL    HW217817   0.724   3.416   9.073 -1.4249 -1.3011 -1.2493
 2061SOL     OW17818   3.109   1.541   2.651  0.0345 -0.0205  0.3426
 2061SOL    HW117819   3.043   1.592   2.604 -0.5308  0.9893  2.2096
 2061SOL    HW217820   3.070   1.523   2.737  2.1721 -0.0947  1.3111
 2062SOL     OW17821   3.897   3.137   7.550 -0.0794 -0.0616 -0.0559
 2062SOL    HW117822   3.887   3.145   7.456 -3.8254  1.4472  0.4618
 2062SOL    HW217823   3.924   3.047   7.565 -0.0763  0.3989  2.8806
 2063SOL     OW17824   1.171   2.273   0.723 -0.0339  0.3644  0.3167
 2063SOL    HW117825   1.223   2.215   0.667 -2.4907 -1.0759 -0.4447
 2063SOL    HW217826   1.136   2.321   0.648 -1.5233  0.5202  1.1227
 2064SOL     OW17827   1.489   2.376   7.747 -0.2278  0.1731 -0.0694
 2064SOL    HW117828   1.463   2.468   7.739 -1.3428 -0.3246 -2.0242
 2064SOL    HW217829   1.584   2.377   7.756 -0.0957 -0.9369 -1.4073
 2065SOL     OW17830   2.415   1.235   7.696 -0.0449  0.1519  0.5269
 2065SOL    HW117831   2.326   1.200   7.685  0.6200 -1.2541 -0.3532
 2065SOL    HW217832   2.401   1.322   7.658  1.4502 -0.7532 -2.0889
 2066SOL     OW17833   2.300   0.607  17.561  0.3141  0.5592  0.0378
 2066SOL    HW117834   2.372   0.598  17.499 -1.1943  2.9719 -2.1172
 2066SOL    HW217835   2.333   0.544  17.624  1.9290  0.4665 -0.9136
 2067SOL     OW17836   2.450   3.241   1.547  0.1906 -0.0544 -0.3729
 2067SOL    HW117837   2.445   3.329   1.582  3.8224  1.0022 -2.5274
 2067SOL    HW217838   2.541   3.245   1.515  0.4013  2.8932  0.6039
 2068SOL     OW17839   3.224   1.031   9.429 -0.0508  0.0752 -0.2677
 2068SOL    HW117840   3.289   1.100   9.415 -0.9225  0.6985 -1.2796
 2068SOL    HW217841   3.287   0.973   9.470 -0.8039 -1.0579 -0.7336
 2069SOL     OW17842   2.724   2.918   8.584  0.0335  0.3049 -0.4698
 2069SOL    HW117843   2.645   2.878   8.547 -0.2062 -1.0119  1.4259
 2069SOL    HW217844   2.767   2.840   8.620 -1.0497  0.4238  1.0895
 2070SOL     OW17845   4.143   2.614   5.840  0.1047  0.3693  0.1186
 2070SOL    HW117846   4.119   2.586   5.752  3.0208  2.5085 -1.3398
 2070SOL    HW217847   4.233   2.580   5.840  0.1955  0.6133  0.7422
 2071SOL     OW17848   4.093   3.887   4.626 -0.3055  0.3585 -0.5639
 2071SOL    HW117849   4.006   3.879   4.666 -0.0099  2.6620  0.4923
 2071SOL    HW217850   4.089   3.982   4.616 -0.9821  0.3517 -0.3570
 2072SOL     OW17851   0.927   1.787   2.850  0.2894  0.2188  0.2998
 2072SOL    HW117852   0.938   1.694   2.870 -0.4012 -0.1929 -1.2388
 2072SOL    HW217853   0.950   1.827   2.934 -2.4720 -1.3348  1.7912
 2073SOL     OW17854   3.196   2.251   5.748  0.2013 -0.2474  0.0356
 2073SOL    HW117855   3.251   2.262   5.671  0.7048 -3.0310 -0.0155
 2073SOL    HW217856   3.177   2.345   5.757 -1.4409 -0.5395 -0.2494
 2074SOL     OW17857   0.930   1.959  16.760  0.3804 -0.1890  0.0782
 2074SOL    HW117858   0.968   1.969  16.673 -0.6960 -1.6259 -0.5628
 2074SOL    HW217859   0.998   1.908  16.804  0.0449 -1.1066 -0.4609
 2075SOL     OW17860   4.534   0.125  11.685  0.0133 -0.0789 -0.5944
 2075SOL    HW117861   4.619   0.125  11.640  0.4855  1.2810  0.2789
 2075SOL    HW217862   4.511   0.217  11.669 -0.0162  0.2548  1.3484
 2076SOL     OW17863   3.329   4.555   4.205  0.1347 -0.2223  0.2711
 2076SOL    HW117864   3.264   4.617   4.170  0.8769 -0.3951 -1.4245
 2076SOL    HW217865   3.395   4.561   4.136 -1.7522 -1.4430 -1.6485
 2077SOL     OW17866   1.176   1.720   4.491 -0.2175  0.0919  0.3208
 2077SOL    HW117867   1.267   1.746   4.506 -0.5621  1.3304  0.2795
 2077SOL    HW217868   1.125   1.733   4.571 -0.4191  0.4239  0.1387
 2078SOL     OW17869   3.344   2.899  13.771 -0.2087 -0.2314 -0.2063
 2078SOL    HW117870   3.276   2.840  13.740 -0.3746 -1.0464  1.7787
 2078SOL    HW217871   3.310   2.937  13.852  1.5926 -2.4146  1.5764
 2079SOL     OW17872   0.467   3.095   5.910  0.3835 -0.2309  0.3095
 2079SOL    HW117873   0.474   3.046   5.828  1.8134 -1.7111  1.3004
 2079SOL    HW217874   0.372   3.100   5.922  0.3376  1.6861 -0.9637
 2080SOL     OW17875   4.455   3.487  13.083  0.5100  0.2581  0.5353
 2080SOL    HW117876   4.424   3.408  13.128 -0.9411  0.8534  0.5879
 2080SOL    HW217877   4.407   3.473  13.002  0.7321 -2.5759  0.8764
 2081SOL     OW17878   0.187   4.242   5.863 -0.1185 -0.1849  0.1861
 2081SOL    HW117879   0.149   4.327   5.882  2.0701  0.2175  2.7021
 2081SOL    HW217880   0.209   4.202   5.947 -0.1140 -0.6616 -0.0405
 2082SOL     OW17881   3.546   2.306  13.044 -0.0394 -0.0773 -0.0801
 2082SOL    HW117882   3.467   2.252  13.050  0.8584 -1.4259 -0.4844
 2082SOL    HW217883   3.512   2.368  12.980 -0.4178 -1.2165 -0.9737
 2083SOL     OW17884   1.822   2.201   1.227 -0.2358  0.0353  0.1413
 2083SOL    HW117885   1.731   2.171   1.220 -0.8030  1.5445  1.2419
 2083SOL    HW217886   1.851   2.166   1.143 -0.3715  0.0957  0.0686
 2084SOL     OW17887   0.847   4.391   2.175  0.0880 -0.2336  0.2353
 2084SOL    HW117888   0.836   4.297   2.158 -0.8363  0.1848 -1.4537
 2084SOL    HW217889   0.762   4.434   2.169  0.3438  0.5507  2.3095
 2085SOL     OW17890   2.454   2.190   9.909  0.0416 -0.1893 -0.2535
 2085SOL    HW117891   2.393   2.133   9.956 -0.8828  1.6147  0.7303
 2085SOL    HW217892   2.424   2.276   9.939  1.9826  0.1005  0.9113
 2086SOL     OW17893   4.392   3.303   3.443  0.0428 -0.0035  0.7682
 2086SOL    HW117894   4.470   3.267   3.402 -0.3029  0.2388 -0.1097
 2086SOL    HW217895   4.324   3.283   3.379 -0.1826  0.3190  0.9041
 2087SOL     OW17896   4.556   3.553   6.105 -0.2249  0.4631  0.3745
 2087SOL    HW117897   4.570   3.546   6.200 -2.4369 -0.1659  0.6582
 2087SOL    HW217898   4.623   3.489   6.083  1.1360  1.8239  0.5744
 2088SOL     OW17899   4.328   0.217   5.405  0.1669  0.1423  0.0534
 2088SOL    HW117900   4.350   0.138   5.354 -0.3518 -0.6235  1.0082
 2088SOL    HW217901   4.377   0.287   5.362 -0.9755  0.9922  0.1331
 2089SOL     OW17902   4.494   2.084   8.292 -0.0639 -0.3346  0.5205
 2089SOL    HW117903   4.488   2.179   8.290 -0.1712 -0.3591 -0.4951
 2089SOL    HW217904   4.446   2.062   8.372 -0.5439  0.1719  0.3713
 2090SOL     OW17905   1.123   1.845  10.382  0.1795 -0.3703  0.4300
 2090SOL    HW117906   1.051   1.905  10.402  1.0585  1.1949 -1.1735
 2090SOL    HW217907   1.137   1.804  10.468  1.4257  1.6504  1.1946
 2091SOL     OW17908   4.152   0.059   6.258  0.0642 -0.2159  0.3086
 2091SOL    HW117909   4.101   0.025   6.185 -0.4109  1.6985 -0.2405
 2091SOL    HW217910   4.199   4.716   6.278 -1.0987 -1.3692 -1.6033
 2092SOL     OW17911   3.175   2.819  12.804  0.6590 -0.2609 -0.8690
 2092SOL    HW117912   3.265   2.852  12.803  0.5144  0.1269 -1.1254
 2092SOL    HW217913   3.150   2.840  12.894 -0.5122 -0.1987 -1.2097
 2093SOL     OW17914   1.366   1.256   6.781 -0.4059  0.1158 -0.5667
 2093SOL    HW117915   1.394   1.306   6.858 -0.6032  0.9088 -1.0040
 2093SOL    HW217916   1.442   1.199   6.771 -0.6541  0.2009 -2.9784
 2094SOL     OW17917   0.363   1.821   5.242 -0.2904 -0.0604  0.0457
 2094SOL    HW117918   0.389   1.761   5.171  2.8147  0.5279  0.7267
 2094SOL    HW217919   0.446   1.826   5.289 -1.3820 -1.7849  2.1849
 2095SOL     OW17920   2.051   0.054   4.049 -0.3589  0.2295 -0.2277
 2095SOL    HW117921   2.113   4.727   4.013 -1.9813 -1.9170  0.8428
 2095SOL    HW217922   2.012   0.075   3.965  2.0301 -1.8204 -1.8817
 2096SOL     OW17923   4.399   2.309   9.219  0.4366 -0.4050  0.1063
 2096SOL    HW117924   4.456   2.324   9.143  0.3939 -2.8207 -0.4227
 2096SOL    HW217925   4.371   2.398   9.238 -0.9628 -1.0449  1.0736
 2097SOL     OW17926   1.340   2.319   1.527 -0.0662 -0.3269  0.0395
 2097SOL    HW117927   1.259   2.316   1.579 -0.2957 -0.0371 -0.3021
 2097SOL    HW217928   1.354   2.413   1.532  0.2091 -0.3917  0.5530
 2098SOL     OW17929   0.426   0.131   3.509  0.3197  0.0847 -0.3720
 2098SOL    HW117930   0.483   0.207   3.500  1.5910 -0.7127  0.9151
 2098SOL    HW217931   0.485   0.056   3.515  0.3072  0.1235  0.2328
 2099SOL     OW17932   4.342   3.610   2.969  0.3045 -0.0579  0.4001
 2099SOL    HW117933   4.436   3.612   2.947 -0.0022  1.2371 -0.8150
 2099SOL    HW217934   4.325   3.699   2.998  2.7039 -0.2693  2.4830
 2100SOL     OW17935   0.827   2.545  10.692 -0.1235  0.4337  0.0638
 2100SOL    HW117936   0.845   2.529  10.600  0.3817  0.1147  0.2142
 2100SOL    HW217937   0.733   2.526  10.691  0.0950 -0.6734  0.0340
 2101SOL     OW17938   2.104   4.243  13.384  0.2690  0.2140  0.5261
 2101SOL    HW117939   2.154   4.285  13.454  1.7272 -1.4009  0.4700
 2101SOL    HW217940   2.181   4.226  13.330  0.4836  2.4078  0.1411
 2102SOL     OW17941   4.298   1.052   8.133 -0.1915 -0.0083  0.1280
 2102SOL    HW117942   4.351   1.120   8.091 -2.6255  1.9664  0.2225
 2102SOL    HW217943   4.335   1.045   8.221 -2.6384  0.3954  1.1895
 2103SOL     OW17944   3.782   3.220   4.492 -0.3821  0.1832 -0.2279
 2103SOL    HW117945   3.775   3.301   4.441  1.8270  0.1708 -0.5464
 2103SOL    HW217946   3.714   3.166   4.451  1.2866 -1.2181 -1.1087
 2104SOL     OW17947   2.026   2.924   2.831 -0.1784  0.0509  0.1753
 2104SOL    HW117948   2.074   2.868   2.770  0.5523  1.8382 -0.8890
 2104SOL    HW217949   1.952   2.946   2.774 -1.3880 -0.1620  1.6595
 2105SOL     OW17950   1.856   2.381   1.785 -0.0878  0.0805 -0.2348
 2105SOL    HW117951   1.900   2.322   1.725 -2.0737  2.1694 -3.7395
 2105SOL    HW217952   1.881   2.337   1.866 -0.6342  1.8445  0.9058
 2106SOL     OW17953   3.224   1.632   1.713 -0.1386  0.4744 -0.1559
 2106SOL    HW117954   3.303   1.583   1.738 -0.2623 -1.3887 -3.4686
 2106SOL    HW217955   3.245   1.664   1.625 -1.9287  1.9879 -0.0326
 2107SOL     OW17956   1.495   3.800   7.925  0.7130  0.1349  0.3221
 2107SOL    HW117957   1.552   3.868   7.889  0.0660  0.9112  0.7742
 2107SOL    HW217958   1.512   3.809   8.018  2.0486 -1.8951  0.2716
 2108SOL     OW17959   2.556   3.487   8.119  0.1527 -0.4263 -0.1053
 2108SOL    HW117960   2.545   3.439   8.201  0.9000 -0.3128  0.0583
 2108SOL    HW217961   2.618   3.554   8.149 -0.5042 -0.7938  2.0538
 2109SOL     OW17962   0.469   2.544   4.469 -0.5694 -0.5456  0.0513
 2109SOL    HW117963   0.489   2.453   4.449 -0.6024 -0.0373 -2.3129
 2109SOL    HW217964   0.382   2.557   4.430 -1.2003  0.0663  1.6823
 2110SOL     OW17965   3.684   3.574   2.777 -0.3901 -0.1785 -0.3761
 2110SOL    HW117966   3.778   3.580   2.794 -0.3470 -2.2985  0.0331
 2110SOL    HW217967   3.677   3.635   2.703 -1.7689  2.6332  2.0936
 2111SOL     OW17968   3.286   1.181  16.841 -0.6998 -0.4402 -0.1046
 2111SOL    HW117969   3.264   1.124  16.766 -0.9844 -0.1117 -0.2715
 2111SOL    HW217970   3.217   1.152  16.900 -2.4696  0.8274 -1.5494
 2112SOL     OW17971   0.299   0.446  17.381 -0.3417  0.4334  0.1185
 2112SOL    HW117972   0.326   0.509  17.448 -0.9023  0.6091  0.1836
 2112SOL    HW217973   0.204   0.447  17.392 -0.1081 -0.2901  2.2970
 2113SOL     OW17974   1.345   1.380  15.277  0.0786 -0.1849 -0.3831
 2113SOL    HW117975   1.420   1.341  15.323  0.5687  1.1765 -0.0308
 2113SOL    HW217976   1.380   1.464  15.249  1.0371 -0.3754  0.2151
 2114SOL     OW17977   0.988   1.894  16.100 -0.0361 -0.3373  0.5140
 2114SOL    HW117978   0.976   1.912  16.007 -3.1443  1.2804  1.2340
 2114SOL    HW217979   1.052   1.960  16.128 -0.6888 -0.4067  2.2077
 2115SOL     OW17980   1.815   0.649  16.354  0.7961 -0.1005  0.1341
 2115SOL    HW117981   1.864   0.574  16.388  1.2023  0.4700  0.8219
 2115SOL    HW217982   1.875   0.723  16.364  0.1114  0.7448 -1.8562
 2116SOL     OW17983   3.444   3.557   0.288  0.0536  0.3829 -0.1856
 2116SOL    HW117984   3.381   3.595   0.226  1.0841 -1.1089 -2.1617
 2116SOL    HW217985   3.409   3.478   0.330  0.5212  0.8388  1.0659
 2117SOL     OW17986   2.678   3.723   8.792  0.3045 -0.0772 -0.1921
 2117SOL    HW117987   2.705   3.649   8.847 -0.3498  0.2980  0.6255
 2117SOL    HW217988   2.584   3.726   8.806  0.2934  0.2354 -0.3486
 2118SOL     OW17989   4.632   3.924   4.667  0.1914  0.2548 -0.2712
 2118SOL    HW117990   4.606   4.011   4.637 -2.8304 -1.3005 -2.1112
 2118SOL    HW217991   4.641   3.875   4.586  2.1972 -0.6720  0.5050
 2119SOL     OW17992   4.329   1.482   5.177  0.3702  0.2964  0.4746
 2119SOL    HW117993   4.309   1.529   5.258  1.8968  2.0034 -0.1427
 2119SOL    HW217994   4.414   1.445   5.202  0.4476  0.0289 -0.1843
 2120SOL     OW17995   0.799   4.062   6.779 -0.6762  0.3569 -0.4484
 2120SOL    HW117996   0.737   3.990   6.790 -1.2114  0.4443 -2.9463
 2120SOL    HW217997   0.756   4.127   6.834  0.6686 -0.9634  2.1734
 2121SOL     OW17998   2.663   3.913   6.498 -0.2451  0.4465  0.5556
 2121SOL    HW117999   2.695   4.001   6.474 -0.3776 -0.0246 -1.3794
 2121SOL    HW218000   2.573   3.934   6.521 -0.4444 -0.3044  0.4383
 2122SOL     OW18001   3.912   3.333   5.585 -0.0298  0.1534 -0.0332
 2122SOL    HW118002   3.984   3.270   5.587 -0.8205 -0.7515  0.4735
 2122SOL    HW218003   3.850   3.264   5.562  0.5443  0.3565 -2.2027
 2123SOL     OW18004   3.805   3.430   8.892  0.3381 -0.0492 -0.2099
 2123SOL    HW118005   3.828   3.523   8.901 -0.7698  0.1356  0.6837
 2123SOL    HW218006   3.830   3.399   8.979  0.0039  1.0084  0.2605
 2124SOL     OW18007   0.481   2.240  14.120 -0.2995  0.8096  0.3885
 2124SOL    HW118008   0.418   2.310  14.137 -0.7998  0.5388 -0.3762
 2124SOL    HW218009   0.440   2.154  14.134  1.8695 -0.4283 -0.9796
 2125SOL     OW18010   3.786   2.939   7.911  0.2113  0.5170 -0.3294
 2125SOL    HW118011   3.850   2.869   7.899 -0.3982 -0.3962  1.6524
 2125SOL    HW218012   3.700   2.906   7.883 -0.1297 -0.1947  1.5428
 2126SOL     OW18013   4.350   2.576   0.074  0.6831 -0.1463 -0.4022
 2126SOL    HW118014   4.296   2.638   0.025 -0.7713 -0.8164  0.3454
 2126SOL    HW218015   4.396   2.634   0.134  2.4605  1.1827 -3.0904
 2127SOL     OW18016   0.865   0.979   2.326 -0.6292 -0.1775 -0.1092
 2127SOL    HW118017   0.876   0.900   2.273  2.7093 -0.7749  1.4818
 2127SOL    HW218018   0.822   1.047   2.275  1.2795  2.5608  1.9202
 2128SOL     OW18019   2.186   1.220   4.721 -0.0166  0.2786  0.6352
 2128SOL    HW118020   2.097   1.235   4.689  0.4476  2.0523  0.1925
 2128SOL    HW218021   2.198   1.266   4.804  1.2782 -1.3927  1.3795
 2129SOL     OW18022   4.506   0.803  16.454 -0.2144  0.1790 -0.5699
 2129SOL    HW118023   4.503   0.897  16.438  1.8469  0.2936 -0.1957
 2129SOL    HW218024   4.587   0.793  16.504 -0.2875 -1.6239 -0.8160
 2130SOL     OW18025   2.084   0.113   6.876  0.4195  0.0659  0.0819
 2130SOL    HW118026   2.156   0.150   6.825 -0.1624 -0.8395 -1.3884
 2130SOL    HW218027   2.029   0.062   6.816 -4.2308  2.5259  2.1880
 2131SOL     OW18028   1.596   4.247   9.829 -0.0231 -0.7013 -0.7207
 2131SOL    HW118029   1.614   4.337   9.857 -0.8187 -0.9916  0.7541
 2131SOL    HW218030   1.550   4.253   9.745  0.2335  2.4517 -0.6268
 2132SOL     OW18031   3.187   3.239   4.727 -0.2469 -0.5408  0.0649
 2132SOL    HW118032   3.191   3.318   4.780  0.5974  2.1941 -4.0698
 2132SOL    HW218033   3.261   3.244   4.667 -0.9857  3.5403 -0.4569
 2133SOL     OW18034   0.732   2.013   2.154 -0.0505  0.0957  0.2871
 2133SOL    HW118035   0.748   2.106   2.171 -0.4671  0.0223  1.0515
 2133SOL    HW218036   0.640   2.014   2.179  0.0361 -0.8341  0.6417
 2134SOL     OW18037   3.238   3.054   4.927  0.3839 -0.4081  0.0927
 2134SOL    HW118038   3.150   3.065   4.962  0.8869  2.8219  0.3824
 2134SOL    HW218039   3.232   3.116   4.854 -2.1112 -2.8070 -1.7343
 2135SOL     OW18040   1.986   3.082   8.456  0.0694 -0.2383  0.5327
 2135SOL    HW118041   1.933   3.021   8.508 -0.2665  0.2343  0.7441
 2135SOL    HW218042   2.053   3.104   8.520 -0.3736 -0.4675  1.0818
 2136SOL     OW18043   2.200   3.277   3.242 -0.0616 -0.4167  0.1265
 2136SOL    HW118044   2.275   3.233   3.202  0.7912  0.8702  0.3059
 2136SOL    HW218045   2.250   3.342   3.293 -1.1074  1.7554 -1.6210
 2137SOL     OW18046   0.043   3.123   8.880  0.0034 -0.2641  0.3516
 2137SOL    HW118047   0.021   3.216   8.882 -2.0746 -0.7481  0.0996
 2137SOL    HW218048   4.721   3.099   8.809  0.2546 -0.6587  0.2714
 2138SOL     OW18049   0.574   0.497  14.464 -0.4142 -0.2114  0.6821
 2138SOL    HW118050   0.649   0.439  14.479 -0.0329  0.1460  0.1386
 2138SOL    HW218051   0.582   0.547  14.546 -1.1671  0.5721  0.2788
 2139SOL     OW18052   3.702   2.401   8.077  0.2224 -0.3389  0.1139
 2139SOL    HW118053   3.672   2.491   8.069 -0.7436 -0.5941  0.8224
 2139SOL    HW218054   3.632   2.360   8.026  0.6616  0.0010 -0.7524
 2140SOL     OW18055   1.182   3.275   6.597 -0.4439  0.1205 -0.1215
 2140SOL    HW118056   1.238   3.284   6.519  0.6177 -0.9667  0.5148
 2140SOL    HW218057   1.212   3.348   6.650  2.1362 -1.6468  0.8486
 2141SOL     OW18058   4.107   1.672   1.973 -0.3385 -0.2199 -0.1084
 2141SOL    HW118059   4.109   1.654   2.067 -0.1125  0.8878  0.1003
 2141SOL    HW218060   4.131   1.764   1.970  1.4785 -0.7363 -1.5074
 2142SOL     OW18061   1.330   4.178  12.061 -0.2258 -0.7636  0.5450
 2142SOL    HW118062   1.300   4.159  12.149 -2.2999  0.1374  0.0486
 2142SOL    HW218063   1.341   4.090  12.025 -0.0457 -1.6132  2.7030
 2143SOL     OW18064   1.903   0.624   7.954 -0.2061 -0.2433 -0.4876
 2143SOL    HW118065   1.956   0.634   8.033 -5.4832 -0.1973  3.0813
 2143SOL    HW218066   1.918   0.531   7.940 -1.7725 -0.7344  0.9574
 2144SOL     OW18067   3.193   3.920   1.260 -0.2274 -0.1983 -0.3207
 2144SOL    HW118068   3.285   3.935   1.282 -0.1332 -2.6793  1.0466
 2144SOL    HW218069   3.150   3.939   1.344  1.3525 -0.2183  0.4953
 2145SOL     OW18070   0.691   4.338   6.787 -0.0942  0.1753 -0.3337
 2145SOL    HW118071   0.749   4.409   6.814  1.3863 -0.8580 -0.8131
 2145SOL    HW218072   0.657   4.296   6.866 -1.8447  0.4374 -0.9364
 2146SOL     OW18073   4.623   2.351   3.992  0.2984  0.1079 -0.3636
 2146SOL    HW118074   4.541   2.368   4.037  1.3748 -0.1645  1.7074
 2146SOL    HW218075   4.684   2.415   4.029  0.5962 -0.4337  0.0923
 2147SOL     OW18076   2.130   0.355   2.683 -0.9103 -0.2327 -0.2881
 2147SOL    HW118077   2.086   0.315   2.608 -1.8801 -0.1732  0.2565
 2147SOL    HW218078   2.053   0.396   2.721  0.1759  0.7534  0.8550
 2148SOL     OW18079   0.777   0.262   4.665 -0.0077 -0.1503 -0.4249
 2148SOL    HW118080   0.872   0.259   4.676 -0.3640 -1.9125  2.0758
 2148SOL    HW218081   0.764   0.312   4.584  1.5891  0.2104 -0.4797
 2149SOL     OW18082   2.927   2.200  14.205 -0.3704 -0.2747  0.2342
 2149SOL    HW118083   2.893   2.290  14.202  0.8752  0.1987  0.0198
 2149SOL    HW218084   2.924   2.189  14.300  2.0542  1.4426  0.5151
 2150SOL     OW18085   0.382   0.188   8.219 -0.2798  0.5221 -0.6275
 2150SOL    HW118086   0.460   0.167   8.271 -0.0980 -2.4570 -2.0988
 2150SOL    HW218087   0.353   0.098   8.205  1.7711 -0.4567  1.5291
 2151SOL     OW18088   2.423   1.384   3.061  0.6419 -0.6981  0.6367
 2151SOL    HW118089   2.367   1.363   2.985 -0.1124 -1.0652  1.2949
 2151SOL    HW218090   2.500   1.327   3.054 -0.2294 -1.5240 -2.4619
 2152SOL     OW18091   2.625   2.677   7.714 -0.0172 -0.2526 -0.6721
 2152SOL    HW118092   2.548   2.734   7.718 -0.3376 -0.5193 -2.9189
 2152SOL    HW218093   2.690   2.747   7.702  1.1962 -0.7273  3.0693
 2153SOL     OW18094   2.854   0.593  17.078  0.1075 -0.1359 -0.1423
 2153SOL    HW118095   2.933   0.601  17.131  1.2263  0.8970 -2.0058
 2153SOL    HW218096   2.849   0.679  17.038  3.5989  1.9093  3.8477
 2154SOL     OW18097   0.643   1.582   6.973 -0.4232 -0.1103 -0.1825
 2154SOL    HW118098   0.693   1.630   7.040  3.7096 -0.4322 -3.0129
 2154SOL    HW218099   0.614   1.512   7.032  0.0074  1.1421  1.5032
 2155SOL     OW18100   2.712   1.155  11.673 -0.5986  0.4991 -0.6835
 2155SOL    HW118101   2.796   1.147  11.628  0.6162  2.5096  1.2392
 2155SOL    HW218102   2.737   1.084  11.732 -0.4548  0.4455 -0.8072
 2156SOL     OW18103   4.078   3.030   1.181 -0.0900 -0.0016 -0.0282
 2156SOL    HW118104   4.112   3.120   1.175 -0.3780  0.1023 -0.0805
 2156SOL    HW218105   4.018   3.026   1.106  0.6355 -1.1206 -0.5607
 2157SOL     OW18106   2.557   3.124  10.457 -0.4954  0.5465 -0.1068
 2157SOL    HW118107   2.618   3.066  10.502  2.1512  2.8211 -0.8096
 2157SOL    HW218108   2.533   3.193  10.519 -0.6069  0.8700 -0.5072
 2158SOL     OW18109   3.845   0.284   9.366 -0.3776  0.4694  0.4360
 2158SOL    HW118110   3.767   0.228   9.358  1.9299 -2.5365 -0.6826
 2158SOL    HW218111   3.856   0.317   9.277 -1.7578 -2.3338 -0.7738
 2159SOL     OW18112   2.857   0.111  10.592 -1.0268 -0.4874  0.3103
 2159SOL    HW118113   2.910   0.039  10.625 -0.5858 -0.0577  0.5408
 2159SOL    HW218114   2.913   0.187  10.609 -2.2131  0.3589  0.4200
 2160SOL     OW18115   1.553   1.172   9.879 -0.4757  0.0100  0.3201
 2160SOL    HW118116   1.458   1.168   9.864 -0.3584  1.8226 -1.0194
 2160SOL    HW218117   1.573   1.155   9.971  0.7617  0.7202  0.1792
 2161SOL     OW18118   0.704   3.705   7.478 -0.5691 -0.3297  0.2016
 2161SOL    HW118119   0.787   3.733   7.439  0.8977  0.7097  4.1039
 2161SOL    HW218120   0.700   3.614   7.449  1.1197 -1.6537  4.1390
 2162SOL     OW18121   2.642   3.171  17.341  0.5996 -0.9386 -0.6612
 2162SOL    HW118122   2.705   3.226  17.387 -0.1584 -1.5262  1.0850
 2162SOL    HW218123   2.706   3.130  17.283 -0.4249 -0.6511 -1.9949
 2163SOL     OW18124   1.115   1.218   3.611  0.7461 -0.1296 -0.0699
 2163SOL    HW118125   1.177   1.270   3.662  1.0677  0.2510 -0.8443
 2163SOL    HW218126   1.138   1.259   3.527  1.2378 -1.5499 -0.6253
 2164SOL     OW18127   4.212   1.807   3.952 -0.0878 -0.3114  0.1383
 2164SOL    HW118128   4.212   1.720   3.913  4.4813  0.3782 -1.4312
 2164SOL    HW218129   4.153   1.845   3.888  1.0704 -1.4914 -1.6409
 2165SOL     OW18130   3.067   0.727   3.924  0.1907 -0.0016 -0.4852
 2165SOL    HW118131   3.049   0.644   3.879  3.6210 -0.1524 -1.5542
 2165SOL    HW218132   3.140   0.708   3.983  0.6265  0.4262 -0.9042
 2166SOL     OW18133   2.216   0.695   6.721 -0.0794  0.0850 -0.4911
 2166SOL    HW118134   2.186   0.605   6.732  2.4788 -1.0974 -3.0715
 2166SOL    HW218135   2.276   0.689   6.646  0.4420 -1.4845  0.0583
 2167SOL     OW18136   2.876   4.681   6.816  0.4721 -0.0108  0.9932
 2167SOL    HW118137   2.919   4.604   6.854  0.7511  0.5617  1.8460
 2167SOL    HW218138   2.848   4.731   6.892 -1.7680 -1.8900  1.3932
 2168SOL     OW18139   2.246   2.462  13.723 -0.3783  0.1686 -0.1189
 2168SOL    HW118140   2.283   2.479  13.636  2.7509  1.7157  1.5203
 2168SOL    HW218141   2.182   2.392  13.714  0.5906 -1.0106  2.1284
 2169SOL     OW18142   3.151   0.018   3.623 -0.0430 -0.6292  0.0296
 2169SOL    HW118143   3.141   0.107   3.589 -0.4479 -0.3663  0.8407
 2169SOL    HW218144   3.068   4.722   3.589 -0.5754 -0.3747  1.0738
 2170SOL     OW18145   0.667   4.147  16.713  0.3219 -0.0949 -0.2803
 2170SOL    HW118146   0.667   4.109  16.801 -0.2350  1.2409  0.2920
 2170SOL    HW218147   0.735   4.215  16.719  0.1583  0.0674 -0.2699
 2171SOL     OW18148   3.657   4.411  15.149  0.4932  1.2172  0.2252
 2171SOL    HW118149   3.728   4.347  15.148  0.5044  1.2903 -2.2422
 2171SOL    HW218150   3.584   4.355  15.179  1.1467  0.0574 -0.3487
 2172SOL     OW18151   2.275   0.086   5.495  0.3919  0.1806 -0.6762
 2172SOL    HW118152   2.257   0.161   5.438 -0.1279  0.6738  0.1334
 2172SOL    HW218153   2.327   0.125   5.565 -0.1034 -3.3128  1.6314
 2173SOL     OW18154   1.585   1.402   9.099  0.4720  0.3404 -0.2389
 2173SOL    HW118155   1.609   1.440   9.183  0.7756 -0.6534  0.1232
 2173SOL    HW218156   1.642   1.460   9.048  0.8756  1.1849  1.1893
 2174SOL     OW18157   4.736   3.383   8.962  0.1180  0.3766  0.5889
 2174SOL    HW118158   4.729   3.404   9.055  0.4994  0.8661  0.5087
 2174SOL    HW218159   0.090   3.402   8.941  0.4273 -2.9067 -0.9540
 2175SOL     OW18160   2.188   0.374   7.633 -0.2514 -0.6800  0.1278
 2175SOL    HW118161   2.280   0.399   7.635 -0.4445 -0.0093  0.3982
 2175SOL    HW218162   2.177   0.294   7.581 -0.5192 -1.0572  0.7638
 2176SOL     OW18163   4.361   3.628   2.528  0.3988  0.7665 -0.0676
 2176SOL    HW118164   4.337   3.557   2.587 -3.6163  3.7435  1.9141
 2176SOL    HW218165   4.273   3.650   2.497 -0.0143 -0.0941  0.5144
 2177SOL     OW18166   3.274   0.844   5.446  0.1341  0.3673  0.2293
 2177SOL    HW118167   3.270   0.748   5.451 -2.3343  0.4832  0.3174
 2177SOL    HW218168   3.303   0.864   5.356  1.4941  1.5206  0.9200
 2178SOL     OW18169   1.762   1.864   6.862  0.0227  1.1915  0.3387
 2178SOL    HW118170   1.784   1.954   6.840  1.9691  0.8776  0.9369
 2178SOL    HW218171   1.668   1.870   6.879 -0.4830 -2.1331 -1.2425
 2179SOL     OW18172   4.291   3.153   1.440 -0.2655  0.1614 -1.3018
 2179SOL    HW118173   4.224   3.156   1.508  1.2286  0.5665  0.1598
 2179SOL    HW218174   4.244   3.161   1.357 -0.8722  0.0384 -0.9696
 2180SOL     OW18175   3.710   2.741   6.479 -0.0542  0.6267  0.0248
 2180SOL    HW118176   3.775   2.805   6.508  0.2474 -0.4218  1.6996
 2180SOL    HW218177   3.761   2.689   6.418 -0.0004 -1.7540  2.1007
 2181SOL     OW18178   0.982   0.417   8.823 -0.3485  0.0831 -0.5139
 2181SOL    HW118179   0.962   0.332   8.785 -0.3958 -0.9849  1.8738
 2181SOL    HW218180   0.897   0.460   8.817 -0.0607  0.6101 -0.8069
 2182SOL     OW18181   0.741   0.984   5.682 -0.0687  0.2001 -0.3613
 2182SOL    HW118182   0.688   0.977   5.762  1.4261 -1.4723  0.4762
 2182SOL    HW218183   0.686   0.934   5.622  2.0044 -2.3770 -0.1249
 2183SOL     OW18184   0.668   2.526   5.977  0.0377 -0.5428 -0.6752
 2183SOL    HW118185   0.651   2.463   5.906 -1.3353 -0.1062 -0.7318
 2183SOL    HW218186   0.613   2.596   5.942  2.0792  0.1468 -2.5124
 2184SOL     OW18187   2.123   0.187   4.675 -0.1988 -0.1109  0.0134
 2184SOL    HW118188   2.131   0.281   4.665  0.4081 -0.3769 -1.9886
 2184SOL    HW218189   2.131   0.155   4.586 -0.4567 -1.3717  0.4385
 2185SOL     OW18190   0.863   3.051   8.828 -0.4898 -0.5053  0.2015
 2185SOL    HW118191   0.826   2.967   8.856  2.3819 -0.9481  2.6333
 2185SOL    HW218192   0.956   3.033   8.839  0.0807  1.7310 -1.0656
 2186SOL     OW18193   1.650   0.310   3.124 -0.5604  0.0232 -0.3442
 2186SOL    HW118194   1.625   0.218   3.131  1.5502 -0.3107  2.6998
 2186SOL    HW218195   1.717   0.309   3.192 -0.8202 -0.6031 -0.0896
 2187SOL     OW18196   0.491   1.389   7.751  0.7228  0.9213 -0.3378
 2187SOL    HW118197   0.402   1.370   7.724  2.1048 -1.2225 -3.3037
 2187SOL    HW218198   0.480   1.476   7.791  2.9942  0.6917  0.7962
 2188SOL     OW18199   3.428   0.848   3.171 -0.2332 -0.4921  0.3217
 2188SOL    HW118200   3.380   0.930   3.160  0.3757  0.0417  1.6666
 2188SOL    HW218201   3.432   0.825   3.078 -1.9237  3.9751 -0.8509
 2189SOL     OW18202   2.846   1.885   8.127 -0.0137  0.7383  1.0113
 2189SOL    HW118203   2.788   1.864   8.200  0.5183 -0.3622  1.1087
 2189SOL    HW218204   2.872   1.797   8.101  1.7464  1.8346 -0.9728
 2190SOL     OW18205   2.433   3.710   5.033  0.2408  0.0507  0.6345
 2190SOL    HW118206   2.471   3.785   4.986  0.4756 -0.2917  0.2795
 2190SOL    HW218207   2.407   3.758   5.112  1.0603  0.1972  0.8226
 2191SOL     OW18208   3.657   1.193   3.868 -0.1088 -0.6047 -0.3576
 2191SOL    HW118209   3.585   1.233   3.917 -0.1461 -1.5407  0.3378
 2191SOL    HW218210   3.617   1.107   3.858  1.2152 -1.2234 -0.3732
 2192SOL     OW18211   0.629   2.986   6.728  0.0402  0.3608  0.9901
 2192SOL    HW118212   0.706   2.940   6.762  0.7154  0.2854 -0.6033
 2192SOL    HW218213   0.615   2.941   6.644  0.5342  2.5657 -0.2707
 2193SOL     OW18214   0.973   1.476  12.306  0.0365  0.1777  0.4739
 2193SOL    HW118215   0.908   1.530  12.352 -0.2684  0.2258 -0.0067
 2193SOL    HW218216   1.050   1.521  12.339  0.8986 -1.7837  1.0886
 2194SOL     OW18217   2.752   3.465   3.513  0.2166 -0.6958  0.0610
 2194SOL    HW118218   2.688   3.426   3.453 -0.7380 -2.8561  2.4801
 2194SOL    HW218219   2.823   3.451   3.452 -0.4359 -0.1099 -0.8384
 2195SOL     OW18220   0.905   3.406   1.991 -0.2314  0.3356 -0.6391
 2195SOL    HW118221   0.933   3.374   1.905 -0.8106 -0.0779 -0.6743
 2195SOL    HW218222   0.900   3.322   2.037 -1.3371 -0.1183 -1.5779
 2196SOL     OW18223   0.960   0.879  16.889 -0.0121 -0.1521 -0.1425
 2196SOL    HW118224   1.032   0.925  16.845 -0.7914  0.6361 -0.5942
 2196SOL    HW218225   0.903   0.854  16.817  0.1519 -0.9732  0.0156
 2197SOL     OW18226   3.835   4.076   6.141 -0.1168 -0.1559  0.2677
 2197SOL    HW118227   3.805   4.029   6.219  0.4893 -1.0790 -0.0614
 2197SOL    HW218228   3.857   3.996   6.093 -1.1748  1.2110 -2.5363
 2198SOL     OW18229   3.254   3.047   2.966 -0.0501  0.5859 -0.2913
 2198SOL    HW118230   3.228   2.956   2.955 -1.4650  1.1038 -1.2191
 2198SOL    HW218231   3.346   3.051   2.937  0.1577  1.0372  0.4433
 2199SOL     OW18232   2.969   1.909   7.769 -0.0683  0.0512 -0.5331
 2199SOL    HW118233   3.022   1.859   7.830 -0.0609  0.2787 -0.3534
 2199SOL    HW218234   2.895   1.849   7.757 -1.0655  1.0199  0.7115
 2200SOL     OW18235   1.363   1.558   4.931 -0.0063  0.1930  0.1089
 2200SOL    HW118236   1.318   1.522   5.007  1.8236 -2.4384 -0.0263
 2200SOL    HW218237   1.453   1.568   4.963  0.6418  0.5868 -1.7957
 2201SOL     OW18238   0.123   4.694   5.943  0.7264  0.2389 -0.6566
 2201SOL    HW118239   0.080   4.716   5.860 -1.1749  2.7003  0.9889
 2201SOL    HW218240   0.086   4.606   5.955  1.6659 -0.4334 -2.5248
 2202SOL     OW18241   4.732   0.526  11.050 -0.2154 -0.0502 -0.0610
 2202SOL    HW118242   4.672   0.538  10.976  1.9457 -0.8844 -1.9311
 2202SOL    HW218243   0.079   0.551  11.014 -0.4760 -1.0662 -1.3968
 2203SOL     OW18244   0.922   2.902   6.540 -0.0544 -0.1662  0.9928
 2203SOL    HW118245   0.947   2.975   6.597 -1.2071  1.0835 -0.1087
 2203SOL    HW218246   0.965   2.825   6.577  2.4721 -0.3944 -2.3724
 2204SOL     OW18247   1.660   1.792   4.738  0.3795  0.0008 -0.6392
 2204SOL    HW118248   1.670   1.750   4.653  0.9520  0.6256 -0.8866
 2204SOL    HW218249   1.566   1.782   4.751  0.8936 -3.4334  0.6565
 2205SOL     OW18250   3.187   1.012   3.605 -0.0146 -0.1124 -0.1859
 2205SOL    HW118251   3.157   0.998   3.695 -0.4226  2.6001  0.0963
 2205SOL    HW218252   3.121   1.074   3.574 -0.3772  0.1424  1.1005
 2206SOL     OW18253   1.669   0.989   1.341 -0.3690  0.5445  0.9523
 2206SOL    HW118254   1.720   0.912   1.366 -0.0460  0.9496  1.5197
 2206SOL    HW218255   1.734   1.055   1.364  0.0146  0.1105  1.1203
 2207SOL     OW18256   2.538   1.212   4.537 -0.1948 -0.3137  0.2705
 2207SOL    HW118257   2.546   1.117   4.539  0.2641 -0.2804  0.0988
 2207SOL    HW218258   2.563   1.242   4.624  0.1883  2.0665 -0.6352
 2208SOL     OW18259   2.117   4.146   4.266 -0.1596  0.7084  0.1470
 2208SOL    HW118260   2.184   4.079   4.252 -0.3346  0.9773 -1.9787
 2208SOL    HW218261   2.135   4.206   4.194  0.1958 -1.5158 -1.6219
 2209SOL     OW18262   4.328   2.243   5.636  0.0988  0.6353 -0.6163
 2209SOL    HW118263   4.245   2.196   5.626 -0.5496  1.3696  1.4693
 2209SOL    HW218264   4.387   2.183   5.589 -0.6696  1.4169 -2.5882
 2210SOL     OW18265   4.719   4.701   5.703 -0.1813 -0.4156 -0.7536
 2210SOL    HW118266   0.017   0.013   5.630  2.2717 -0.2322  0.5798
 2210SOL    HW218267   4.637   4.675   5.661  1.9310 -3.1609 -3.2020
 2211SOL     OW18268   0.485   3.207   9.036  0.0526  1.1163 -1.0142
 2211SOL    HW118269   0.577   3.212   9.012 -0.0713 -0.9477 -1.8781
 2211SOL    HW218270   0.459   3.295   9.009 -3.5241  0.2649 -0.3886
 2212SOL     OW18271   2.411   4.521   8.599 -0.2806 -0.3037  0.2436
 2212SOL    HW118272   2.388   4.428   8.595 -0.1566 -0.3301  0.1349
 2212SOL    HW218273   2.339   4.544   8.657  0.2049  0.7278  0.4327
 2213SOL     OW18274   2.913   2.733  16.691  0.3828 -0.3499  0.5054
 2213SOL    HW118275   2.879   2.767  16.609  0.4421 -1.9129 -0.1729
 2213SOL    HW218276   3.006   2.722  16.670  0.3851  1.4077 -0.3939
 2214SOL     OW18277   1.906   0.897  16.132  0.3151  0.0650  0.0837
 2214SOL    HW118278   1.992   0.933  16.152  1.0328 -1.3739 -0.3959
 2214SOL    HW218279   1.866   0.966  16.080  0.7341  0.1981 -0.0583
 2215SOL     OW18280   0.238   4.599   7.751  0.4859  0.5531 -0.4463
 2215SOL    HW118281   0.256   4.543   7.827 -0.3202  0.4095 -0.3665
 2215SOL    HW218282   0.178   4.545   7.700  0.6516 -1.5578  1.6036
 2216SOL     OW18283   3.676   3.300   8.706 -0.9723  0.0883 -0.0288
 2216SOL    HW118284   3.711   3.366   8.645  0.7371 -0.5236  0.2944
 2216SOL    HW218285   3.717   3.340   8.783  3.3894 -5.6208  0.6131
 2217SOL     OW18286   2.508   0.142   6.896 -0.2518  0.2450  0.1508
 2217SOL    HW118287   2.517   0.207   6.966 -0.0235 -0.5164  0.8361
 2217SOL    HW218288   2.497   0.058   6.941  0.6382 -0.6087 -1.2275
 2218SOL     OW18289   1.412   1.081  14.549  0.2619 -0.0788 -0.3768
 2218SOL    HW118290   1.390   1.007  14.492  1.2835  0.8309 -1.9456
 2218SOL    HW218291   1.387   1.058  14.639  1.3519 -1.0382 -0.3161
 2219SOL     OW18292   3.200   3.724   4.070 -0.3124  0.3195 -0.0758
 2219SOL    HW118293   3.183   3.810   4.108  1.0890  0.6583 -0.2266
 2219SOL    HW218294   3.232   3.745   3.982  2.8901  0.2785  1.0664
 2220SOL     OW18295   2.401   1.370   8.116 -0.2344 -0.2789  0.1357
 2220SOL    HW118296   2.453   1.331   8.187 -0.4378 -1.2407 -0.2481
 2220SOL    HW218297   2.320   1.322   8.132 -0.0036 -1.3271 -1.8757
 2221SOL     OW18298   2.615   1.586  12.622  0.4715 -0.7898  0.2220
 2221SOL    HW118299   2.566   1.623  12.695  0.1198  1.6305 -1.2394
 2221SOL    HW218300   2.553   1.600  12.551  0.2372 -1.6633  0.2533
 2222SOL     OW18301   3.900   3.709   3.241 -0.3232 -0.2310 -0.3100
 2222SOL    HW118302   3.960   3.712   3.167  0.3864  1.7211  0.3274
 2222SOL    HW218303   3.919   3.621   3.272 -1.2734 -0.2886  0.1223
 2223SOL     OW18304   2.435   1.870  13.364  0.0914 -0.0487 -0.5828
 2223SOL    HW118305   2.522   1.843  13.395  0.3706  0.5239 -0.8710
 2223SOL    HW218306   2.387   1.861  13.447  1.9573  0.3404  0.5394
 2224SOL     OW18307   2.301   2.171   8.993  0.0779 -0.1859 -0.1035
 2224SOL    HW118308   2.391   2.173   9.026 -0.0971  2.2806  0.2132
 2224SOL    HW218309   2.311   2.129   8.907  1.0217  0.7783 -0.4687
 2225SOL     OW18310   4.230   1.209   2.784  0.3482 -0.5215  0.4037
 2225SOL    HW118311   4.314   1.164   2.774  1.3154  1.3728 -0.1418
 2225SOL    HW218312   4.166   1.140   2.771 -1.2864  1.1917 -0.6336
 2226SOL     OW18313   4.724   0.887   3.730  0.3444  0.4754 -0.4477
 2226SOL    HW118314   4.640   0.890   3.776 -0.7467 -1.7996 -2.2873
 2226SOL    HW218315   4.731   0.793   3.744  0.0910 -0.0443 -3.6313
 2227SOL     OW18316   4.311   1.139   7.654  0.1344 -0.3144 -0.3736
 2227SOL    HW118317   4.374   1.161   7.586  2.9106 -1.3831  1.8821
 2227SOL    HW218318   4.251   1.214   7.656  1.6991  0.8363  2.6125
 2228SOL     OW18319   0.313   2.041  10.631  0.1781 -0.4382 -0.3204
 2228SOL    HW118320   0.392   2.074  10.590 -0.2840  1.0538 -0.0163
 2228SOL    HW218321   0.305   1.953  10.595 -0.8151 -1.0616  1.3935
 2229SOL     OW18322   1.185   2.746   4.818  0.7329  0.3853 -0.2707
 2229SOL    HW118323   1.280   2.735   4.831  0.8123  0.7476 -0.5402
 2229SOL    HW218324   1.158   2.800   4.891  2.2922  2.8892 -1.5395
 2230SOL     OW18325   0.969   0.199  11.170  0.1461  0.4186  0.0168
 2230SOL    HW118326   1.016   0.147  11.105 -0.3186 -0.1629  0.1462
 2230SOL    HW218327   0.973   0.141  11.245  0.5090 -0.3488 -0.6010
 2231SOL     OW18328   4.664   4.486   8.607 -0.2867 -0.0605 -0.7554
 2231SOL    HW118329   4.687   4.418   8.669  0.6351 -1.0515 -2.1615
 2231SOL    HW218330   4.718   4.558   8.640  0.3151 -1.2380  0.7846
 2232SOL     OW18331   3.777   0.761   1.795 -0.0240 -0.0679 -0.1280
 2232SOL    HW118332   3.684   0.742   1.787  0.2934 -2.1065  1.1538
 2232SOL    HW218333   3.778   0.854   1.773 -0.6808  0.1850  0.9263
 2233SOL     OW18334   0.191   4.621  17.505  0.1383  0.0653  0.2612
 2233SOL    HW118335   0.283   4.638  17.483  0.3194 -1.8749 -0.5205
 2233SOL    HW218336   0.178   4.696  17.563  1.1855  0.9327 -0.6285
 2234SOL     OW18337   1.447   2.129   7.383 -0.0146  0.3562 -0.2349
 2234SOL    HW118338   1.509   2.086   7.324  1.2258 -0.1430  1.4726
 2234SOL    HW218339   1.422   2.208   7.335  0.3150  2.9305  3.8527
 2235SOL     OW18340   3.551   0.564  14.914  0.2451  0.0364  0.0141
 2235SOL    HW118341   3.553   0.479  14.871 -2.5328 -0.2192  0.4263
 2235SOL    HW218342   3.582   0.620  14.843 -1.1903 -0.1191 -0.7351
 2236SOL     OW18343   4.157   1.265  17.725 -1.0541  0.2296 -0.2068
 2236SOL    HW118344   4.133   1.354  17.699 -0.9767  0.2119 -0.3357
 2236SOL    HW218345   4.103   1.270   0.054 -0.5986 -0.2486  0.1359
 2237SOL     OW18346   0.048   0.982   3.069 -0.3027 -0.7448  0.2763
 2237SOL    HW118347   4.711   0.922   3.068 -1.1616  0.3474 -0.7371
 2237SOL    HW218348   0.100   0.954   3.145 -2.7483 -1.9279  1.5240
 2238SOL     OW18349   1.100   4.059   1.688 -0.2607  0.6651  0.4108
 2238SOL    HW118350   1.089   4.009   1.607  0.1488 -2.2511  2.1577
 2238SOL    HW218351   1.177   4.016   1.723 -0.2241 -0.1733 -0.7137
 2239SOL     OW18352   2.760   3.890  16.963 -0.5526 -0.1905  0.7500
 2239SOL    HW118353   2.751   3.953  16.892  1.3338 -0.9319 -0.1514
 2239SOL    HW218354   2.853   3.911  16.973 -1.1184  1.8496  1.6846
 2240SOL     OW18355   4.216   1.211   2.009  0.0979  0.1586 -0.1009
 2240SOL    HW118356   4.144   1.162   1.968  2.1822 -1.0571 -2.3208
 2240SOL    HW218357   4.205   1.298   1.972  1.0903 -0.2566 -1.3897
 2241SOL     OW18358   1.735   4.018   9.007  0.1691 -0.1728  0.0241
 2241SOL    HW118359   1.704   4.109   9.009  2.6678  0.7045 -1.4926
 2241SOL    HW218360   1.773   3.997   9.092  1.2682  0.1732 -0.3818
 2242SOL     OW18361   0.728   1.730  10.412 -0.0156  0.1914 -0.1015
 2242SOL    HW118362   0.760   1.655  10.462  1.1387 -0.1690 -1.3924
 2242SOL    HW218363   0.657   1.691  10.361 -0.5756  0.0668  0.7766
 2243SOL     OW18364   2.606   0.354   5.141  0.7808 -0.9575 -0.2903
 2243SOL    HW118365   2.530   0.348   5.197 -1.1952 -0.6549 -2.9325
 2243SOL    HW218366   2.575   0.408   5.068 -0.2486 -0.4605  0.5190
 2244SOL     OW18367   0.947   3.281   4.068  0.3186  0.5990 -0.2249
 2244SOL    HW118368   0.898   3.204   4.098 -0.5133  0.2172 -2.5471
 2244SOL    HW218369   0.926   3.292   3.976  0.9631 -0.5597 -0.5029
 2245SOL     OW18370   0.081   3.524   4.195  0.4997 -0.2825 -0.0108
 2245SOL    HW118371   0.155   3.510   4.136  1.5790  3.7131  0.3749
 2245SOL    HW218372   0.114   3.457   4.254 -1.7315 -1.5512 -0.1991
 2246SOL     OW18373   2.379   0.799   1.156  0.3228 -0.6136  0.4261
 2246SOL    HW118374   2.472   0.802   1.179  0.3194 -1.3023  0.5464
 2246SOL    HW218375   2.379   0.839   1.069 -1.5942 -0.6245  0.4282
 2247SOL     OW18376   3.943   0.355   3.575  0.2105  0.0402 -0.1407
 2247SOL    HW118377   3.888   0.433   3.579 -1.2021 -0.9453 -0.1082
 2247SOL    HW218378   3.967   0.346   3.667  1.0168  1.6445 -0.2075
 2248SOL     OW18379   3.078   3.075  14.709  0.6885  0.2213  0.3845
 2248SOL    HW118380   3.060   3.059  14.617 -1.7345 -0.5217  0.9857
 2248SOL    HW218381   3.154   3.023  14.734  1.0113  0.5554  0.0971
 2249SOL     OW18382   0.606   0.236   6.205  0.7402  0.0649 -0.6227
 2249SOL    HW118383   0.520   0.249   6.245  0.6746 -0.2421 -0.6561
 2249SOL    HW218384   0.637   0.167   6.264  0.2122 -0.5517 -1.0698
 2250SOL     OW18385   4.584   1.576   3.192 -0.0350  0.2266  0.6357
 2250SOL    HW118386   4.555   1.535   3.274 -0.1729 -2.3293 -0.6843
 2250SOL    HW218387   4.590   1.669   3.213 -0.7131 -0.0831  2.2323
 2251SOL     OW18388   3.732   3.659   7.191 -0.4545 -0.1785  0.2919
 2251SOL    HW118389   3.638   3.641   7.196 -0.3557 -0.4653  1.1018
 2251SOL    HW218390   3.759   3.606   7.266 -0.2296  1.7368  1.5867
 2252SOL     OW18391   1.504   0.962   5.992 -0.5210  0.4690 -0.8969
 2252SOL    HW118392   1.537   1.010   6.068 -0.7891 -3.4190  1.6966
 2252SOL    HW218393   1.423   0.923   6.024 -1.1155  0.5263 -2.3145
 2253SOL     OW18394   3.478   1.793   2.367  0.0068 -0.6953 -0.0880
 2253SOL    HW118395   3.520   1.865   2.415  0.9812 -0.8041 -0.7780
 2253SOL    HW218396   3.467   1.824   2.278  0.3057 -0.6883 -0.1226
 2254SOL     OW18397   0.109   0.397   3.967 -0.1451 -0.1876 -0.1339
 2254SOL    HW118398   0.018   0.398   3.999  0.2770  1.0942  1.0056
 2254SOL    HW218399   0.134   0.308   3.991 -2.0778 -1.2800 -2.1269
 2255SOL     OW18400   0.320   3.173   6.414  0.0421  0.1144 -0.3548
 2255SOL    HW118401   0.358   3.085   6.416 -0.6493 -0.2062 -1.5969
 2255SOL    HW218402   0.362   3.206   6.494 -0.4327  1.0034 -0.4673
 2256SOL     OW18403   4.344   1.883  16.832  0.0238 -0.5997 -0.3569
 2256SOL    HW118404   4.379   1.883  16.743  1.2435 -0.2707  0.1228
 2256SOL    HW218405   4.262   1.927  16.812 -0.7443 -1.6991  0.3131
 2257SOL     OW18406   1.180   3.460   5.962 -0.6176  0.5542 -0.2516
 2257SOL    HW118407   1.248   3.496   6.020 -0.0901 -0.4058 -0.2821
 2257SOL    HW218408   1.107   3.450   6.023 -0.7462 -0.7566 -0.6181
 2258SOL     OW18409   3.814   1.795   0.404 -0.4873 -0.0028  0.6081
 2258SOL    HW118410   3.746   1.751   0.354 -1.5790  0.2814  1.8358
 2258SOL    HW218411   3.770   1.862   0.457 -0.5536  0.8051 -0.4747
 2259SOL     OW18412   4.313   3.191  12.277  0.4023 -0.1912 -0.1831
 2259SOL    HW118413   4.398   3.190  12.233 -0.0543 -1.8051 -1.0124
 2259SOL    HW218414   4.293   3.284  12.286 -2.1042 -0.8342  0.6193
 2260SOL     OW18415   1.044   1.892  12.804  0.0915  0.3759 -0.4437
 2260SOL    HW118416   0.971   1.847  12.760  0.4888  0.2255 -0.9420
 2260SOL    HW218417   1.104   1.818  12.809  1.0109  1.1203 -0.5775
 2261SOL     OW18418   3.046   1.634   3.325  0.0673  0.2565  0.0377
 2261SOL    HW118419   3.075   1.724   3.316  2.4379 -0.4013  1.2458
 2261SOL    HW218420   3.050   1.628   3.421 -0.2006 -1.4053 -0.0432
 2262SOL     OW18421   2.106   4.172   6.923 -0.1215  0.0113  0.1036
 2262SOL    HW118422   2.086   4.264   6.904  2.6282  0.3519 -1.2497
 2262SOL    HW218423   2.138   4.172   7.013  0.1120 -0.6174  0.0168
 2263SOL     OW18424   0.837   2.797   4.290  0.4006 -0.3060 -0.4670
 2263SOL    HW118425   0.820   2.738   4.363  1.1248 -0.3692 -0.3507
 2263SOL    HW218426   0.784   2.872   4.317  1.7184  1.3507 -2.4332
 2264SOL     OW18427   4.083   3.196  11.413  0.0179  0.4331  0.3981
 2264SOL    HW118428   4.154   3.242  11.368  0.7847 -1.0294  0.1059
 2264SOL    HW218429   4.046   3.267  11.465 -2.3522  0.4259 -1.3301
 2265SOL     OW18430   3.622   2.405   6.722  0.1517 -0.4815 -0.5650
 2265SOL    HW118431   3.653   2.363   6.642 -2.6093 -1.4954 -1.1036
 2265SOL    HW218432   3.604   2.494   6.693  2.2235 -0.2084 -1.0299
 2266SOL     OW18433   2.915   2.928   9.780  0.4822  0.0918  0.2225
 2266SOL    HW118434   2.851   2.937   9.850  1.0224 -0.1028  0.7381
 2266SOL    HW218435   2.968   2.853   9.807 -1.2298 -0.1077  2.9546
 2267SOL     OW18436   3.520   1.876   8.387 -0.0411  0.4747  0.1522
 2267SOL    HW118437   3.451   1.834   8.335 -2.3441  5.3054 -0.6902
 2267SOL    HW218438   3.593   1.889   8.327 -1.0030  3.9532 -0.2741
 2268SOL     OW18439   0.260   0.272  13.929  0.0950 -0.2237 -0.0064
 2268SOL    HW118440   0.201   0.197  13.916  1.7999 -1.1721 -2.2135
 2268SOL    HW218441   0.232   0.281  14.020 -0.7273  1.0429 -0.3997
 2269SOL     OW18442   1.253   1.450   3.738  0.3280 -0.5083  0.4085
 2269SOL    HW118443   1.263   1.441   3.833  1.6905  0.2629  0.3278
 2269SOL    HW218444   1.211   1.536   3.737 -0.7613 -1.0378  0.3460
 2270SOL     OW18445   0.784   2.889  15.670 -0.2026  0.0374  0.2073
 2270SOL    HW118446   0.824   2.831  15.606  1.5509  2.5828 -0.9749
 2270SOL    HW218447   0.730   2.823  15.714 -2.1424  2.1815  1.0484
 2271SOL     OW18448   0.624   0.819  15.071  0.0928 -0.2264  0.1263
 2271SOL    HW118449   0.662   0.799  14.986  0.1192 -0.4971  0.1995
 2271SOL    HW218450   0.686   0.773  15.129 -0.5845  1.1950  1.9802
 2272SOL     OW18451   3.542   4.408   3.368 -0.6251  0.2105 -0.2118
 2272SOL    HW118452   3.515   4.348   3.438 -1.7019 -0.7784 -1.4937
 2272SOL    HW218453   3.454   4.440   3.352  0.3181  2.2014 -1.3761
 2273SOL     OW18454   1.527   1.777   6.309 -0.6418 -0.9335 -0.5404
 2273SOL    HW118455   1.582   1.819   6.243  1.2575 -0.1682  1.5702
 2273SOL    HW218456   1.591   1.790   6.378 -2.2829 -1.6003  1.1180
 2274SOL     OW18457   4.186   2.066   3.032  0.0408  0.1721 -0.0332
 2274SOL    HW118458   4.203   2.033   2.944 -4.2120 -0.8924 -0.4543
 2274SOL    HW218459   4.139   1.995   3.076 -0.1134  0.9880  1.1293
 2275SOL     OW18460   1.197   4.167   7.554 -0.0200 -0.3477  0.0759
 2275SOL    HW118461   1.116   4.121   7.579 -0.7075  1.3512  0.9818
 2275SOL    HW218462   1.207   4.119   7.471 -0.3807  2.8634 -1.8440
 2276SOL     OW18463   0.075   4.209   8.522  0.2263 -0.2247 -0.0495
 2276SOL    HW118464   0.060   4.200   8.616  0.2187 -2.7052 -0.2872
 2276SOL    HW218465   0.010   4.154   8.479 -0.3871  1.3966 -1.2109
 2277SOL     OW18466   3.458   2.905   0.956  0.3035  0.3152  0.0570
 2277SOL    HW118467   3.521   2.921   0.886  0.6391 -0.5852  0.1475
 2277SOL    HW218468   3.497   2.829   1.000 -0.5849  0.2463  0.7274
 2278SOL     OW18469   0.273   2.187   3.755  0.2051 -0.0816 -0.1620
 2278SOL    HW118470   0.357   2.214   3.793  1.5109 -1.8361 -1.7943
 2278SOL    HW218471   0.218   2.192   3.833 -1.4960 -1.3613 -1.2883
 2279SOL     OW18472   2.916   2.224   0.091  0.3446 -0.8593 -0.3374
 2279SOL    HW118473   2.868   2.142   0.078  0.1663 -0.6131 -1.2748
 2279SOL    HW218474   2.847   2.275   0.133  2.0159 -0.5099  1.9585
 2280SOL     OW18475   3.344   3.409   0.623  0.2718  0.0880  0.4446
 2280SOL    HW118476   3.414   3.356   0.660  0.3876 -0.5654 -0.6868
 2280SOL    HW218477   3.278   3.340   0.610  1.4286 -1.0875  0.8655
 2281SOL     OW18478   3.518   4.465   4.466 -0.0063  0.4679  0.3458
 2281SOL    HW118479   3.474   4.540   4.425  0.0217 -1.0480 -2.4414
 2281SOL    HW218480   3.449   4.401   4.449  0.8143 -0.0365 -1.0706
 2282SOL     OW18481   4.347   3.988   0.060 -0.2550 -0.0343 -0.1963
 2282SOL    HW118482   4.433   4.030   0.068 -0.0706 -0.5245  0.4319
 2282SOL    HW218483   4.373   3.896   0.070 -0.3277 -0.2144 -1.6645
 2283SOL     OW18484   0.666   2.393   4.166  0.3510  0.3618 -0.2697
 2283SOL    HW118485   0.604   2.322   4.182 -0.2067  0.8243 -0.4041
 2283SOL    HW218486   0.684   2.419   4.256  0.2934 -0.9366  0.1135
 2284SOL     OW18487   2.886   1.294  16.093 -0.6812 -0.5346 -0.3879
 2284SOL    HW118488   2.836   1.353  16.036 -1.6570 -0.2639  0.7488
 2284SOL    HW218489   2.865   1.327  16.181  0.6238  2.2388 -1.1344
 2285SOL     OW18490   2.229   4.672   9.478  0.8039  0.7336  0.2491
 2285SOL    HW118491   2.191   4.615   9.545 -0.2069  0.5237 -0.5026
 2285SOL    HW218492   2.152   4.726   9.462 -0.5149 -1.7780 -1.7446
 2286SOL     OW18493   3.245   1.952   6.061 -0.2061  0.3454  0.1971
 2286SOL    HW118494   3.322   2.008   6.070  1.3015 -1.7904  0.7462
 2286SOL    HW218495   3.282   1.873   6.100 -2.7339 -0.5670  0.7214
 2287SOL     OW18496   1.270   1.458   5.656  0.1799  0.2466 -0.2286
 2287SOL    HW118497   1.213   1.490   5.725  0.5332  0.5134 -0.0610
 2287SOL    HW218498   1.206   1.458   5.585  0.8612  0.9573 -0.8497
 2288SOL     OW18499   4.443   2.697   5.010 -0.0988  0.6795  0.5191
 2288SOL    HW118500   4.419   2.646   5.088 -1.7682  0.3019 -0.2398
 2288SOL    HW218501   4.515   2.646   4.973 -0.7295  0.2453 -0.1077
 2289SOL     OW18502   0.487   2.260   8.760 -0.0721  0.1796 -0.3934
 2289SOL    HW118503   0.422   2.331   8.758 -0.0147  0.2402 -0.0923
 2289SOL    HW218504   0.435   2.196   8.808 -3.3692  2.5169 -0.8326
 2290SOL     OW18505   1.190   2.123  12.795 -0.0528 -0.2351 -0.8809
 2290SOL    HW118506   1.130   2.050  12.783 -0.8184  0.1656  0.5643
 2290SOL    HW218507   1.216   2.107  12.885 -0.5715 -1.0053 -0.8660
 2291SOL     OW18508   3.448   4.680   6.233  0.2582  0.4753 -0.0119
 2291SOL    HW118509   3.440   4.588   6.255  1.3250  0.5681  0.7574
 2291SOL    HW218510   3.465   4.723   6.317 -2.9697  0.4583  0.6455
 2292SOL     OW18511   1.144   1.213   9.250  0.8884 -0.1123 -0.4790
 2292SOL    HW118512   1.194   1.132   9.239  1.2314  0.1954 -1.1694
 2292SOL    HW218513   1.058   1.176   9.268  1.9113 -2.2227  0.0304
 2293SOL     OW18514   2.253   1.486   6.165 -0.3282  0.1052  0.1572
 2293SOL    HW118515   2.160   1.487   6.188 -0.4737 -0.2809 -0.4090
 2293SOL    HW218516   2.301   1.553   6.214 -1.2075 -0.5477  1.8938
 2294SOL     OW18517   1.959   2.333   4.946 -0.0393  1.0463 -0.2451
 2294SOL    HW118518   1.966   2.238   4.959  0.4153  1.0889 -0.1671
 2294SOL    HW218519   2.039   2.355   4.899  0.8590  0.7132  1.1370
 2295SOL     OW18520   1.369   1.131   5.584 -0.0435 -0.0618  0.1528
 2295SOL    HW118521   1.348   1.081   5.505  0.1121  1.0848 -0.6095
 2295SOL    HW218522   1.283   1.152   5.622  0.1854 -0.5622  0.9425
 2296SOL     OW18523   3.828   0.377  17.207 -0.0191 -0.4433  0.6252
 2296SOL    HW118524   3.904   0.412  17.161 -1.1064 -1.0950 -1.6394
 2296SOL    HW218525   3.863   0.289  17.219 -1.1147 -0.5705  2.8218
 2297SOL     OW18526   4.024   3.413   5.021 -0.0891  0.0805  0.1585
 2297SOL    HW118527   4.011   3.414   5.116  0.4321 -0.9453  0.2490
 2297SOL    HW218528   4.081   3.336   5.009 -0.7748 -0.3302 -0.5193
 2298SOL     OW18529   1.631   1.690   8.231  0.4808 -0.3034 -0.1186
 2298SOL    HW118530   1.702   1.657   8.176  1.0788 -0.1760  0.5682
 2298SOL    HW218531   1.638   1.782   8.206 -0.4840 -0.7723 -2.0828
 2299SOL     OW18532   4.109   3.224  10.756  0.0723 -0.1319 -0.4025
 2299SOL    HW118533   4.091   3.266  10.840  1.2771  0.4610 -0.4473
 2299SOL    HW218534   4.141   3.143  10.796 -0.7929  0.2811  1.1196
 2300SOL     OW18535   4.017   4.460   5.741  0.0544  1.1078 -0.0712
 2300SOL    HW118536   3.953   4.391   5.728 -1.0364  1.8819  1.2371
 2300SOL    HW218537   4.014   4.514   5.662 -1.2095 -0.3193 -0.9917
 2301SOL     OW18538   4.378   1.102   6.965  0.2159 -0.1933 -0.8334
 2301SOL    HW118539   4.331   1.022   6.943  1.0891 -0.8217 -0.4008
 2301SOL    HW218540   4.464   1.062   6.977  0.1359  0.4305  1.8812
 2302SOL     OW18541   2.677   3.300   7.926 -0.5494  0.0253 -0.3773
 2302SOL    HW118542   2.725   3.363   7.871 -3.0266  1.7739 -0.5148
 2302SOL    HW218543   2.652   3.349   8.004 -2.5801  2.9825 -2.8779
 2303SOL     OW18544   1.115   2.936   8.745 -0.4276 -0.3260  0.2489
 2303SOL    HW118545   1.167   2.998   8.694  1.0218 -1.8438 -0.1084
 2303SOL    HW218546   1.166   2.918   8.823 -2.3753 -0.5560  1.4619
 2304SOL     OW18547   4.180   3.801   7.379 -0.2919  0.1501  0.0325
 2304SOL    HW118548   4.212   3.889   7.359 -1.6076  0.3756 -1.1013
 2304SOL    HW218549   4.090   3.820   7.408 -1.1379 -1.5977 -1.4722
 2305SOL     OW18550   3.214   3.217   3.923  0.0384 -0.7155 -0.2081
 2305SOL    HW118551   3.190   3.298   3.969 -0.8827 -0.5616 -0.9615
 2305SOL    HW218552   3.281   3.175   3.978  1.1348 -1.8652 -2.4445
 2306SOL     OW18553   4.128   0.158   0.664  0.8620 -0.5611  1.0803
 2306SOL    HW118554   4.066   0.134   0.732 -0.0178 -1.5287 -0.0505
 2306SOL    HW218555   4.075   0.200   0.596  1.9856 -0.4616  0.2702
 2307SOL     OW18556   4.718   0.996   1.127 -0.9075 -0.5538 -0.1392
 2307SOL    HW118557   4.699   0.948   1.047 -2.9631  0.5565 -0.3052
 2307SOL    HW218558   4.729   0.918   1.183  2.2272  0.6694  0.9324
 2308SOL     OW18559   1.770   0.719   7.403  0.4333 -0.2779 -0.1391
 2308SOL    HW118560   1.823   0.670   7.466  1.2839 -1.4700 -1.7900
 2308SOL    HW218561   1.821   0.798   7.385  1.5285 -1.2637 -1.3420
 2309SOL     OW18562   2.127   2.876   6.108  0.2053  0.0377  0.7451
 2309SOL    HW118563   2.149   2.840   6.194  0.8802  0.7694  0.8717
 2309SOL    HW218564   2.206   2.928   6.090  0.4320 -0.3288  0.6669
 2310SOL     OW18565   2.517   1.398  14.490  0.2960 -0.0359 -0.0330
 2310SOL    HW118566   2.583   1.390  14.559  0.5203 -0.9191 -0.3510
 2310SOL    HW218567   2.483   1.486  14.507  2.2990  0.7602 -0.2185
 2311SOL     OW18568   1.798   4.031   6.523  0.4965  0.3339  0.0710
 2311SOL    HW118569   1.811   4.045   6.617 -0.0039  0.8961  0.0582
 2311SOL    HW218570   1.703   4.021   6.523  0.4855  0.4421 -0.0647
 2312SOL     OW18571   0.039   2.298   8.332  0.1412  0.1314 -0.4506
 2312SOL    HW118572   0.082   2.317   8.248  1.4387 -2.3625 -0.3528
 2312SOL    HW218573   4.698   2.352   8.335 -0.5992 -1.0637  1.8244
 2313SOL     OW18574   4.261   2.435   5.271 -0.0017  0.0813 -0.3130
 2313SOL    HW118575   4.203   2.368   5.305  1.3443 -1.2225 -0.6164
 2313SOL    HW218576   4.241   2.508   5.330  0.4586  0.2428 -0.3532
 2314SOL     OW18577   0.881   0.446   9.853 -0.3064 -0.2480 -0.1940
 2314SOL    HW118578   0.972   0.469   9.869 -0.1019 -1.7618  0.8203
 2314SOL    HW218579   0.885   0.353   9.834  0.3703 -0.2258 -0.1414
 2315SOL     OW18580   1.109   2.412  13.596  0.3561  0.4643  0.0359
 2315SOL    HW118581   1.020   2.380  13.609  1.0817 -0.8417  1.7635
 2315SOL    HW218582   1.127   2.378  13.508 -1.9110  0.9273 -0.6026
 2316SOL     OW18583   3.238   4.319   4.349  0.8485  0.6509  0.7821
 2316SOL    HW118584   3.207   4.356   4.432  1.2386  0.2122  1.1244
 2316SOL    HW218585   3.257   4.391   4.289  1.3443  0.1521  0.3357
 2317SOL     OW18586   2.388   1.018   2.155  0.5165  0.4463 -0.0872
 2317SOL    HW118587   2.343   0.936   2.131 -1.4243  1.3872  0.3560
 2317SOL    HW218588   2.463   1.022   2.095  0.4349  3.4002  0.0182
 2318SOL     OW18589   3.241   2.708  10.742  0.7312 -0.3018  0.2633
 2318SOL    HW118590   3.234   2.796  10.779 -1.4715 -0.4683  0.2407
 2318SOL    HW218591   3.289   2.743  10.668  0.4717  1.3204  0.8654
 2319SOL     OW18592   2.064   1.753   7.510  0.2572  0.3371 -0.2408
 2319SOL    HW118593   2.084   1.779   7.600 -0.3023  1.5070 -0.4476
 2319SOL    HW218594   2.077   1.658   7.517 -2.5141 -0.1121 -1.1457
 2320SOL     OW18595   4.311   2.329   2.520  0.1976  0.1960 -0.3735
 2320SOL    HW118596   4.368   2.335   2.443 -0.1738 -0.7943 -0.7209
 2320SOL    HW218597   4.274   2.243   2.502 -0.9023  0.8207 -1.0961
 2321SOL     OW18598   0.412   3.433   4.470 -0.1699  0.0706  0.3967
 2321SOL    HW118599   0.336   3.380   4.446  0.8516 -0.9050 -0.6787
 2321SOL    HW218600   0.474   3.363   4.489  0.9418  1.3771  1.6128
 2322SOL     OW18601   3.434   0.642  14.570  0.1007 -0.2382 -0.0192
 2322SOL    HW118602   3.492   0.567  14.559 -0.5624 -0.8180  0.4563
 2322SOL    HW218603   3.361   0.601  14.616  1.0612 -0.6580  1.1202
 2323SOL     OW18604   1.868   0.389   6.826  0.0186  0.6304  0.7196
 2323SOL    HW118605   1.846   0.303   6.791  0.1408  0.3147  1.4092
 2323SOL    HW218606   1.821   0.386   6.910  2.2457 -1.4864  1.9054
 2324SOL     OW18607   1.777   1.116   0.809 -0.1059 -0.3352  0.0296
 2324SOL    HW118608   1.803   1.173   0.881  0.3400  0.6646 -0.9281
 2324SOL    HW218609   1.693   1.080   0.837 -0.2676  0.6037  0.7454
 2325SOL     OW18610   1.896   0.743   8.730  0.4265  0.6069  0.1051
 2325SOL    HW118611   1.842   0.812   8.768  0.6418  1.1159 -0.5150
 2325SOL    HW218612   1.870   0.669   8.785  0.2985 -0.7707 -1.7888
 2326SOL     OW18613   4.705   0.672   5.261  0.2827 -0.1170  0.0049
 2326SOL    HW118614   0.047   0.665   5.315  0.7681 -0.1195 -0.7209
 2326SOL    HW218615   4.652   0.708   5.332 -1.9108 -1.3036 -1.0249
 2327SOL     OW18616   2.114   0.519  13.264  0.2649 -0.1705 -0.2621
 2327SOL    HW118617   2.049   0.537  13.332 -0.7202 -0.1969 -1.1831
 2327SOL    HW218618   2.151   0.434  13.288  1.6607  0.3566 -0.5626
 2328SOL     OW18619   4.286   1.032   1.267 -0.4929  0.6521 -0.7287
 2328SOL    HW118620   4.316   1.104   1.323 -0.7268 -1.8424  2.6216
 2328SOL    HW218621   4.348   1.056   1.198 -0.8474 -0.8693 -1.5613
 2329SOL     OW18622   3.553   4.259   1.082 -0.0871 -0.6441 -0.0947
 2329SOL    HW118623   3.627   4.306   1.045 -1.4671  1.6791  0.0785
 2329SOL    HW218624   3.596   4.209   1.151 -2.1926 -1.9628  0.2790
 2330SOL     OW18625   4.116   1.650   4.376  0.0877  0.0969 -0.2321
 2330SOL    HW118626   4.102   1.727   4.321 -2.1051 -1.7402 -2.2278
 2330SOL    HW218627   4.208   1.666   4.397  0.2582 -0.6219 -0.4441
 2331SOL     OW18628   1.338   2.280   2.996 -0.2961  0.9910 -0.3967
 2331SOL    HW118629   1.376   2.245   2.916 -1.2291  2.2703 -1.3926
 2331SOL    HW218630   1.407   2.343   3.018  0.9615 -0.9313  1.1671
 2332SOL     OW18631   1.237   1.773  10.644 -0.0432 -0.2269  0.6605
 2332SOL    HW118632   1.248   1.864  10.669  1.2664  0.2183 -1.5949
 2332SOL    HW218633   1.219   1.727  10.726 -0.4970 -0.9026  0.1864
 2333SOL     OW18634   0.503   1.933   4.050  0.0358  0.2775  0.5078
 2333SOL    HW118635   0.574   1.875   4.078 -1.8025 -2.4651 -0.4670
 2333SOL    HW218636   0.437   1.875   4.010 -1.3725  1.5229  1.0202
 2334SOL     OW18637   0.943   1.099  10.876 -0.4929 -0.3470 -0.9946
 2334SOL    HW118638   0.885   1.164  10.916  0.3454 -0.7963  0.9506
 2334SOL    HW218639   1.024   1.133  10.913 -0.0533 -1.9099 -0.5371
 2335SOL     OW18640   1.537   1.871   3.630  0.8786  0.0185  0.5076
 2335SOL    HW118641   1.476   1.904   3.697 -1.0608 -1.9590 -0.2800
 2335SOL    HW218642   1.481   1.852   3.555  1.7878 -0.4349 -0.0445
 2336SOL     OW18643   4.161   1.655  15.207 -0.2799  0.0988 -0.2976
 2336SOL    HW118644   4.105   1.693  15.275 -1.0926 -0.6575 -0.5455
 2336SOL    HW218645   4.243   1.683  15.247  0.2279 -1.3388 -0.3166
 2337SOL     OW18646   1.628   1.971   7.183 -0.0302 -0.4755 -0.0036
 2337SOL    HW118647   1.600   1.892   7.137  2.0634 -1.3683  0.2162
 2337SOL    HW218648   1.693   1.929   7.241 -0.1961  1.2001  1.4127
 2338SOL     OW18649   3.339   3.517   8.830 -0.4169  0.4252 -0.0066
 2338SOL    HW118650   3.405   3.544   8.766  0.7439 -0.3245  0.8727
 2338SOL    HW218651   3.360   3.433   8.870  2.5683  1.2790  0.2027
 2339SOL     OW18652   2.187   0.622   2.208 -0.3218 -0.1232 -0.0820
 2339SOL    HW118653   2.190   0.527   2.192  0.2861  0.0584 -1.0319
 2339SOL    HW218654   2.283   0.623   2.218 -0.3866  0.8538  0.4540
 2340SOL     OW18655   2.464   4.688   5.307  0.0622 -0.1561  0.5945
 2340SOL    HW118656   2.401   4.724   5.370  0.4263 -1.8100  1.9011
 2340SOL    HW218657   2.550   4.725   5.326  1.1720 -2.3565 -0.1403
 2341SOL     OW18658   3.831   2.810   0.312  0.8016 -0.7172  0.5481
 2341SOL    HW118659   3.751   2.775   0.271  0.2193  0.7651  0.4128
 2341SOL    HW218660   3.862   2.734   0.360 -1.2697 -2.1444 -0.3536
 2342SOL     OW18661   4.082   2.308  13.057 -0.3728  0.8280 -0.1930
 2342SOL    HW118662   4.004   2.254  13.051  0.6971 -0.8108  0.6756
 2342SOL    HW218663   4.066   2.387  13.005  0.3829  0.6996 -0.6179
 2343SOL     OW18664   0.374   1.775   2.398 -0.4150 -0.5209 -0.4313
 2343SOL    HW118665   0.299   1.727   2.364 -1.8518  0.7411  0.9096
 2343SOL    HW218666   0.419   1.702   2.440 -0.5645 -0.3873 -0.0355
 2344SOL     OW18667   0.447   3.935   6.658  0.2271  0.1698  0.1042
 2344SOL    HW118668   0.488   4.021   6.648 -1.7260  0.9930 -0.6607
 2344SOL    HW218669   0.355   3.956   6.668  0.5533  0.5766  2.2826
 2345SOL     OW18670   3.074   0.885   3.143  0.2659  0.0080  0.5712
 2345SOL    HW118671   3.164   0.917   3.151  0.1848  0.7442 -1.2720
 2345SOL    HW218672   3.017   0.954   3.177 -2.1326 -1.3515 -0.6735
 2346SOL     OW18673   3.949   3.241   3.088 -0.2211  0.1923  0.1581
 2346SOL    HW118674   3.900   3.159   3.089  0.9033 -0.4669  1.3502
 2346SOL    HW218675   4.020   3.218   3.029 -0.2416 -0.1144  0.2554
 2347SOL     OW18676   2.189   3.318  16.796  0.2044 -0.0569 -0.2414
 2347SOL    HW118677   2.138   3.370  16.858  2.0740 -0.9924  2.0853
 2347SOL    HW218678   2.266   3.317  16.852  0.5712  1.3409 -0.7186
 2348SOL     OW18679   4.441   4.589   9.274  0.2120  0.4864  0.4129
 2348SOL    HW118680   4.453   4.501   9.309  1.1450 -0.0750 -1.2922
 2348SOL    HW218681   4.433   4.572   9.180 -2.4170 -1.7467  1.0688
 2349SOL     OW18682   2.694   1.893   3.264  0.5280  0.1864  0.1272
 2349SOL    HW118683   2.723   1.832   3.332  0.5824  1.0672  0.8860
 2349SOL    HW218684   2.749   1.968   3.286  1.6383 -0.9487  1.2938
 2350SOL     OW18685   3.710   0.482   7.990 -0.3025 -0.1433 -0.1578
 2350SOL    HW118686   3.709   0.576   7.971  1.0898  0.1720  1.3031
 2350SOL    HW218687   3.646   0.470   8.060  0.7192 -3.7963  0.1588
 2351SOL     OW18688   2.598   1.033  13.071 -0.0728  0.0074  0.0946
 2351SOL    HW118689   2.546   0.960  13.037  0.1124  0.1406 -0.4795
 2351SOL    HW218690   2.601   1.023  13.166 -0.6213 -0.1219  0.0957
 2352SOL     OW18691   3.910   3.265   7.809 -0.6747 -0.2226 -0.3106
 2352SOL    HW118692   3.905   3.213   7.729  0.3512 -1.0228  0.1544
 2352SOL    HW218693   3.935   3.345   7.763 -2.0387  0.8397  0.8069
 2353SOL     OW18694   4.699   3.158  17.571 -0.3304 -0.1529 -0.2866
 2353SOL    HW118695   0.019   3.192  17.639  0.0571  2.0482 -1.7156
 2353SOL    HW218696   0.017   3.123  17.502 -0.0813 -1.7898  0.7457
 2354SOL     OW18697   3.705   3.006   9.430 -0.0632 -0.1133 -0.8781
 2354SOL    HW118698   3.616   3.003   9.396 -0.8614 -0.7847  1.2735
 2354SOL    HW218699   3.705   3.054   9.512 -0.1126  0.0544 -0.9756
 2355SOL     OW18700   4.341   2.359   6.193  0.2347  0.5232  0.3183
 2355SOL    HW118701   4.332   2.354   6.097 -1.8575  0.5397  0.5227
 2355SOL    HW218702   4.369   2.269   6.210 -1.8024 -0.6520 -2.5247
 2356SOL     OW18703   0.340   1.479   8.844  0.2686  0.4762 -0.3388
 2356SOL    HW118704   0.277   1.410   8.824  1.3903 -0.3879 -0.9307
 2356SOL    HW218705   0.279   1.552   8.830  0.7793  0.8881 -0.4224
 2357SOL     OW18706   1.953   4.018  15.630 -0.3267  0.6724  0.2211
 2357SOL    HW118707   1.960   3.947  15.566  0.4723  1.4064 -0.5009
 2357SOL    HW218708   2.014   3.984  15.695  0.1006 -1.0906 -1.1254
 2358SOL     OW18709   2.692   2.419   7.673  0.2937  0.0769 -0.2082
 2358SOL    HW118710   2.621   2.402   7.610 -1.0806  0.6966  1.2005
 2358SOL    HW218711   2.683   2.512   7.691 -0.8584 -0.2279  0.7286
 2359SOL     OW18712   2.235   2.327   9.307  0.2455 -0.4538  0.1027
 2359SOL    HW118713   2.160   2.272   9.327  0.0556 -0.3014 -0.2017
 2359SOL    HW218714   2.192   2.373   9.235 -0.5031 -3.0612 -1.0927
 2360SOL     OW18715   3.985   3.941   6.450 -0.2666 -0.1818 -0.5926
 2360SOL    HW118716   3.948   3.883   6.383 -0.1083 -0.4934 -0.4067
 2360SOL    HW218717   3.931   4.021   6.450 -0.5013 -0.3412  0.6767
 2361SOL     OW18718   0.279   3.868  10.562  0.3459  0.1221 -0.0643
 2361SOL    HW118719   0.354   3.907  10.518  0.1615  3.1589  2.3763
 2361SOL    HW218720   0.230   3.840  10.484 -2.1338 -0.4929  1.7160
 2362SOL     OW18721   0.728   4.293   8.003  0.1632 -0.0969 -0.2036
 2362SOL    HW118722   0.658   4.247   8.051  0.9780 -0.3971  0.7012
 2362SOL    HW218723   0.674   4.342   7.941  2.3316  1.6955 -0.6935
 2363SOL     OW18724   3.328   1.576   7.415 -1.0330  1.2156  0.1429
 2363SOL    HW118725   3.339   1.549   7.324  1.2993  1.4303  0.3756
 2363SOL    HW218726   3.416   1.580   7.452 -0.2262 -0.2307 -1.6091
 2364SOL     OW18727   4.495   3.458   3.942  0.1529 -0.0497  0.6443
 2364SOL    HW118728   4.411   3.414   3.931  1.0011 -1.8399  1.4093
 2364SOL    HW218729   4.465   3.528   4.000 -0.4241  0.1462  0.1053
 2365SOL     OW18730   0.054   4.134  14.853 -0.4573  0.0753 -0.5147
 2365SOL    HW118731   0.101   4.191  14.792 -0.2778  0.1260 -0.3306
 2365SOL    HW218732   0.117   4.135  14.925 -0.6112 -1.1253 -0.3650
 2366SOL     OW18733   2.958   3.246   1.285  0.2479  0.2009  0.1859
 2366SOL    HW118734   2.942   3.340   1.283  0.3460  0.2259  0.5901
 2366SOL    HW218735   2.902   3.209   1.216  1.0418  1.0054 -0.8753
 2367SOL     OW18736   0.471   4.419   2.311  0.0802  0.3556  0.4506
 2367SOL    HW118737   0.397   4.469   2.277  0.9119  1.2588 -0.0166
 2367SOL    HW218738   0.544   4.474   2.282  0.4326  0.2472  1.1162
 2368SOL     OW18739   2.297   0.203   6.738  0.4565  0.1149 -0.3185
 2368SOL    HW118740   2.327   0.277   6.686 -3.5799  1.6961 -0.3759
 2368SOL    HW218741   2.374   0.174   6.787  1.4119  2.4494 -0.4628
 2369SOL     OW18742   0.381   2.440   4.746  0.5478  0.3288  0.8312
 2369SOL    HW118743   0.377   2.527   4.787  0.4630  1.4248 -1.5215
 2369SOL    HW218744   0.460   2.402   4.784 -0.0012  0.0093  1.6523
 2370SOL     OW18745   1.679   4.489   5.727  0.4680 -0.2008 -1.1258
 2370SOL    HW118746   1.737   4.553   5.687  1.9097 -0.5591  0.4105
 2370SOL    HW218747   1.590   4.524   5.735  0.6042  0.0888 -0.8986
 2371SOL     OW18748   3.358   1.279   2.444  0.2505  0.0662  0.8239
 2371SOL    HW118749   3.270   1.262   2.478  1.1408 -0.3939  2.8722
 2371SOL    HW218750   3.332   1.282   2.351  1.3428  0.3788  0.5327
 2372SOL     OW18751   0.700   0.353   2.989 -0.1401 -0.6757  0.1832
 2372SOL    HW118752   0.686   0.432   2.937  1.6275 -0.6919 -0.3179
 2372SOL    HW218753   0.621   0.356   3.043  0.4906 -0.5873  1.1012
 2373SOL     OW18754   2.250   2.306   5.587  0.6963 -0.6161  0.2105
 2373SOL    HW118755   2.308   2.361   5.536  0.1840 -0.1145  0.1683
 2373SOL    HW218756   2.217   2.372   5.648  1.0967 -1.0449  0.8928
 2374SOL     OW18757   3.127   1.176   4.898  0.0150  0.7927  0.3878
 2374SOL    HW118758   3.067   1.240   4.858 -1.5473 -0.2234  1.0936
 2374SOL    HW218759   3.174   1.157   4.817  0.2623  0.0501  0.7100
 2375SOL     OW18760   0.133   2.424   9.568  0.4206  0.5086  0.2162
 2375SOL    HW118761   0.069   2.366   9.528  1.1289 -0.1048 -0.0203
 2375SOL    HW218762   0.152   2.487   9.498 -0.8100  1.0211  0.3471
 2376SOL     OW18763   2.389   2.629   0.654  0.0371  0.4125 -0.1361
 2376SOL    HW118764   2.327   2.612   0.725  1.3976  2.1616  1.4738
 2376SOL    HW218765   2.330   2.650   0.582  1.1732  0.7407 -0.9679
 2377SOL     OW18766   0.045   0.722   9.190 -0.6309  0.0583 -0.1755
 2377SOL    HW118767   0.093   0.766   9.120 -3.1290  1.0376 -1.2765
 2377SOL    HW218768   4.737   0.651   9.145 -1.1999 -0.4902  1.2528
 2378SOL     OW18769   1.174   1.868   8.130 -0.1076 -0.1433 -0.2964
 2378SOL    HW118770   1.209   1.903   8.212 -1.4575  0.0570  0.1916
 2378SOL    HW218771   1.230   1.792   8.112 -0.7923 -0.3049 -1.7553
 2379SOL     OW18772   0.447   4.324   3.370  0.1409 -0.3234 -0.1767
 2379SOL    HW118773   0.376   4.360   3.317  0.9352  0.4668 -0.6962
 2379SOL    HW218774   0.418   4.341   3.459 -2.3044  1.2554 -1.2793
 2380SOL     OW18775   2.397   2.850   2.545 -0.4415  0.3410  0.5700
 2380SOL    HW118776   2.389   2.912   2.472 -0.0714  1.1134  1.1874
 2380SOL    HW218777   2.434   2.774   2.499  0.8118 -0.7578  3.3806
 2381SOL     OW18778   3.365   0.086   2.783  0.0789  0.2198  0.4832
 2381SOL    HW118779   3.286   0.133   2.756  0.2428  0.5393  0.5526
 2381SOL    HW218780   3.412   0.079   2.700 -0.0306  0.5359  0.3929
 2382SOL     OW18781   4.645   2.884   1.889  0.2803  0.0618 -0.0613
 2382SOL    HW118782   4.675   2.793   1.892  3.5003  1.0650 -1.4859
 2382SOL    HW218783   4.684   2.913   1.807 -0.1350  1.1878  0.1473
 2383SOL     OW18784   0.615   2.811   2.937 -0.2221 -0.1599  0.7652
 2383SOL    HW118785   0.654   2.730   2.969 -1.7426 -1.6166 -1.0717
 2383SOL    HW218786   0.633   2.865   3.014 -0.7938 -1.1296  1.5745
 2384SOL     OW18787   2.099   0.202   8.276 -0.0766 -0.0674  0.4410
 2384SOL    HW118788   2.096   0.279   8.220 -1.6794  0.4409  1.2264
 2384SOL    HW218789   2.173   0.215   8.335  0.5024 -0.3801 -0.2157
 2385SOL     OW18790   2.051   3.955  10.562 -0.2232  0.8364  0.0280
 2385SOL    HW118791   2.057   3.863  10.587 -0.4488  0.1682 -2.3198
 2385SOL    HW218792   2.113   3.995  10.623  0.2646  0.8556 -0.4797
 2386SOL     OW18793   2.787   4.481   9.134  0.7642  0.1030 -0.4935
 2386SOL    HW118794   2.807   4.389   9.116 -2.5517 -0.8226  0.4563
 2386SOL    HW218795   2.743   4.502   9.051 -0.4827  0.5727  0.2881
 2387SOL     OW18796   2.153   2.247   6.595 -0.0731 -0.1857  0.2263
 2387SOL    HW118797   2.215   2.319   6.605 -1.9088  1.4997 -0.4285
 2387SOL    HW218798   2.190   2.208   6.516  1.0627 -0.1708  0.7513
 2388SOL     OW18799   0.877   2.651   3.289 -0.1485 -0.0335  0.2118
 2388SOL    HW118800   0.815   2.722   3.305 -0.5853 -0.7979  1.9189
 2388SOL    HW218801   0.843   2.574   3.334 -0.5471  1.7557  2.9744
 2389SOL     OW18802   0.275   1.397   4.527 -0.2339  0.0487 -0.0505
 2389SOL    HW118803   0.306   1.336   4.460 -2.1563 -1.1495  0.1458
 2389SOL    HW218804   0.184   1.367   4.531 -0.8916  1.9185 -1.1803
 2390SOL     OW18805   1.814   2.127   4.376  0.0696 -0.1394  0.4398
 2390SOL    HW118806   1.832   2.147   4.284  0.9004 -2.9065  0.0231
 2390SOL    HW218807   1.731   2.079   4.379  0.2363 -0.3342  2.0174
 2391SOL     OW18808   2.090   1.582   6.854  0.0434 -0.2196  0.1316
 2391SOL    HW118809   2.124   1.531   6.928  0.6252 -0.3512 -0.2228
 2391SOL    HW218810   2.163   1.641   6.835 -1.3557  0.9676 -1.5167
 2392SOL     OW18811   4.215   2.230  12.387 -0.0252  0.3601 -0.7174
 2392SOL    HW118812   4.189   2.232  12.479  1.9100 -1.3585 -0.1291
 2392SOL    HW218813   4.136   2.198  12.344 -1.0377  2.2884 -0.2875
 2393SOL     OW18814   4.270   4.458  10.374 -0.0312  0.4355 -0.0872
 2393SOL    HW118815   4.354   4.497  10.348  0.5230  0.3405  1.5632
 2393SOL    HW218816   4.282   4.368  10.344 -1.7114 -0.2696  1.3654
 2394SOL     OW18817   1.361   0.357   9.421  0.1121 -0.1715 -0.1085
 2394SOL    HW118818   1.338   0.400   9.339  4.1841 -1.1723 -1.7862
 2394SOL    HW218819   1.362   0.264   9.395  0.9767  0.0104 -0.7279
 2395SOL     OW18820   2.203   0.196  15.091 -0.3262  0.5533 -0.3995
 2395SOL    HW118821   2.267   0.185  15.020 -0.2678 -0.6511 -0.1668
 2395SOL    HW218822   2.128   0.170  15.037  0.1231 -0.7659 -0.3956
 2396SOL     OW18823   3.371   4.151   0.893  0.1811 -0.0296  0.3895
 2396SOL    HW118824   3.428   4.192   0.958 -0.5865 -3.5059  3.2247
 2396SOL    HW218825   3.409   4.063   0.891 -0.4025 -0.2756 -0.2513
 2397SOL     OW18826   4.370   2.734   8.702  0.0510 -0.1445  0.3453
 2397SOL    HW118827   4.447   2.681   8.721  0.7874  1.2017  1.0683
 2397SOL    HW218828   4.331   2.721   8.788  0.9050 -2.8731  0.3196
 2398SOL     OW18829   0.974   3.909   6.389  0.9398 -0.1284  0.0759
 2398SOL    HW118830   0.948   3.991   6.431  1.2071  0.5124 -1.0307
 2398SOL    HW218831   0.937   3.915   6.301 -0.3409  0.0072  0.6253
 2399SOL     OW18832   0.779   2.505   5.437 -0.1626  0.3086  0.4293
 2399SOL    HW118833   0.785   2.495   5.532  0.5291 -1.7140  0.1671
 2399SOL    HW218834   0.864   2.463   5.422 -1.4361 -2.3563  0.6170
 2400SOL     OW18835   4.508   2.559   7.456 -0.4181 -0.4476  0.3970
 2400SOL    HW118836   4.497   2.652   7.477  0.8687  0.0449 -1.0166
 2400SOL    HW218837   4.594   2.569   7.414 -0.4391 -0.0714  0.4456
 2401SOL     OW18838   4.630   0.375   3.716  0.0311  0.1860  0.3096
 2401SOL    HW118839   4.719   0.386   3.749  0.0331  1.1987 -0.0292
 2401SOL    HW218840   4.652   0.390   3.624  4.9622  0.1518  1.4632
 2402SOL     OW18841   4.658   1.227   7.075 -0.0369  0.0258 -0.0485
 2402SOL    HW118842   4.661   1.144   7.027  0.3495 -1.5669  2.6591
 2402SOL    HW218843   4.733   1.220   7.135  0.1396  0.5026 -0.2158
 2403SOL     OW18844   1.787   2.331   6.568  0.2101  0.1494 -0.3346
 2403SOL    HW118845   1.698   2.298   6.563  0.6306 -1.2546  1.5471
 2403SOL    HW218846   1.774   2.423   6.544  0.0792 -0.5303 -2.9516
 2404SOL     OW18847   3.079   0.931   6.023 -0.1673  0.2124  0.3269
 2404SOL    HW118848   3.106   1.004   5.967  3.8236 -1.6858 -0.2161
 2404SOL    HW218849   3.109   0.954   6.110 -1.2345  1.3545  0.3851
 2405SOL     OW18850   1.366   4.723   7.850 -0.0648 -0.1640 -0.3264
 2405SOL    HW118851   1.452   4.689   7.823 -0.3092 -0.9732 -0.0763
 2405SOL    HW218852   1.348   0.051   7.783 -0.5335 -0.4744 -0.4983
 2406SOL     OW18853   1.780   0.602   6.304  0.1886 -0.2826  0.3334
 2406SOL    HW118854   1.821   0.670   6.357 -2.1639  0.8653  0.7128
 2406SOL    HW218855   1.848   0.540   6.328  0.9137  0.1751 -0.5606
 2407SOL     OW18856   3.523   2.531   3.933 -0.2704 -0.1845  0.7731
 2407SOL    HW118857   3.527   2.445   3.975  1.4683 -0.1483  0.6774
 2407SOL    HW218858   3.571   2.521   3.851 -0.1086 -0.8073  0.9391
 2408SOL     OW18859   1.307   2.977  13.022  0.0842  0.3075 -0.1773
 2408SOL    HW118860   1.374   2.985  12.954  1.0291  0.3051  0.7531
 2408SOL    HW218861   1.227   2.996  12.974 -1.6466 -2.5363  1.5744
 2409SOL     OW18862   4.422   0.669  11.287 -0.1519  0.0660 -0.2020
 2409SOL    HW118863   4.505   0.644  11.329  0.5176  1.1870 -0.8486
 2409SOL    HW218864   4.444   0.756  11.252 -3.3489  0.6774 -0.6827
 2410SOL     OW18865   2.645   1.942   5.123  0.0145  0.6302  0.8585
 2410SOL    HW118866   2.703   1.868   5.109 -0.2327 -0.1409  3.8776
 2410SOL    HW218867   2.699   2.004   5.074 -0.7612 -0.0194 -0.8267
 2411SOL     OW18868   0.638   3.453   4.780 -0.4748  0.1661 -0.1713
 2411SOL    HW118869   0.678   3.522   4.727 -0.4702 -0.0557 -0.4528
 2411SOL    HW218870   0.619   3.382   4.719  0.3319  1.5889 -2.0455
 2412SOL     OW18871   2.944   2.208   3.585 -0.4776 -0.0717 -0.0964
 2412SOL    HW118872   2.904   2.286   3.623 -0.2500  0.5124 -1.0546
 2412SOL    HW218873   3.036   2.236   3.593 -0.2884 -1.3446  2.0578
 2413SOL     OW18874   1.780   3.139   4.381 -0.0934  0.3362 -0.5803
 2413SOL    HW118875   1.800   3.211   4.442 -1.5478  0.7418 -0.5988
 2413SOL    HW218876   1.845   3.143   4.311  1.7199 -0.0179  1.0655
 2414SOL     OW18877   4.032   3.012   0.277  0.4336  0.3545  0.2491
 2414SOL    HW118878   3.951   2.961   0.274 -0.8843  2.4135  1.4271
 2414SOL    HW218879   4.014   3.089   0.223 -3.1654 -1.5617 -1.2197
 2415SOL     OW18880   4.596   2.982   5.063 -0.5230  0.4366  0.7637
 2415SOL    HW118881   4.691   2.996   5.069 -0.5430  0.3355  1.2927
 2415SOL    HW218882   4.586   2.892   5.034  2.0156  0.1542  0.7205
 2416SOL     OW18883   4.263   2.616   9.516  0.2507 -0.5202  0.5487
 2416SOL    HW118884   4.346   2.573   9.538  0.7338  0.6085  0.8997
 2416SOL    HW218885   4.289   2.693   9.466 -1.0344  0.4545  1.3932
 2417SOL     OW18886   2.808   2.034   6.167  0.9573 -0.2846  0.1670
 2417SOL    HW118887   2.805   2.100   6.235  1.0129  0.1818 -0.2791
 2417SOL    HW218888   2.769   2.074   6.089 -0.1072  0.0398  0.8866
 2418SOL     OW18889   4.326   4.258  12.341  0.7291 -0.3775  0.1978
 2418SOL    HW118890   4.357   4.335  12.293 -2.8114  1.5893  1.0805
 2418SOL    HW218891   4.402   4.202  12.327  1.3807  0.0556  2.0097
 2419SOL     OW18892   2.668   1.316  16.842 -0.5601  0.5256 -0.1734
 2419SOL    HW118893   2.763   1.316  16.854 -0.5382 -0.7735 -0.2962
 2419SOL    HW218894   2.639   1.240  16.893  0.6825 -0.1805 -0.5098
 2420SOL     OW18895   1.692   4.362   3.372 -0.5032  0.7730  0.6654
 2420SOL    HW118896   1.750   4.294   3.405 -0.3236 -0.2071 -1.6265
 2420SOL    HW218897   1.735   4.445   3.394  0.4925  0.2317  0.7550
 2421SOL     OW18898   0.150   3.937  17.365  0.2940  0.2697 -0.1378
 2421SOL    HW118899   0.112   3.887  17.437  1.9341  0.0941  0.6149
 2421SOL    HW218900   0.199   3.999  17.419  0.8106  0.9259 -1.3724
 2422SOL     OW18901   0.918   3.659   5.807  0.0793  0.1786 -0.1402
 2422SOL    HW118902   0.914   3.565   5.820 -0.2580 -0.0196 -1.6517
 2422SOL    HW218903   0.832   3.687   5.837  1.2439  1.6217  1.8390
 2423SOL     OW18904   4.081   1.414  15.164 -0.2531 -0.1001 -0.3696
 2423SOL    HW118905   4.055   1.436  15.254  1.1162  1.9169 -0.4620
 2423SOL    HW218906   4.124   1.497  15.143 -0.2579 -0.1102 -0.4187
 2424SOL     OW18907   2.762   2.493   8.506 -0.4831  0.0217 -0.2565
 2424SOL    HW118908   2.798   2.409   8.476 -0.5162 -0.6715  1.6248
 2424SOL    HW218909   2.723   2.524   8.425  1.2752  0.6507 -0.8697
 2425SOL     OW18910   4.443   3.077  17.534 -0.3500 -0.2626  0.1988
 2425SOL    HW118911   4.460   3.061  17.441 -1.6686 -3.3621  0.4900
 2425SOL    HW218912   4.528   3.110  17.564 -0.0447 -0.1465 -0.8188
 2426SOL     OW18913   3.371   0.472  15.549 -0.7681 -0.0728 -0.2985
 2426SOL    HW118914   3.460   0.501  15.529 -1.4116  0.4325 -2.4711
 2426SOL    HW218915   3.391   0.418  15.625 -0.5863 -2.7443 -2.2443
 2427SOL     OW18916   2.526   2.716  10.502  0.1110 -0.3437 -0.2189
 2427SOL    HW118917   2.473   2.772  10.446 -2.1288 -2.0394  0.1906
 2427SOL    HW218918   2.516   2.751  10.591 -0.1775 -0.7790 -0.0745
 2428SOL     OW18919   0.057   1.384   5.894  0.2168  0.4709 -0.3743
 2428SOL    HW118920   0.084   1.450   5.958 -0.2741  1.2107 -0.9288
 2428SOL    HW218921   0.058   1.304   5.946 -3.4208 -0.2245 -1.3503
 2429SOL     OW18922   0.182   1.557  15.976  0.8440  0.0265 -0.1814
 2429SOL    HW118923   0.192   1.620  16.048 -0.5397 -1.3434  1.2100
 2429SOL    HW218924   0.145   1.609  15.905  1.0599 -0.7487 -0.8751
 2430SOL     OW18925   0.398   0.093   5.660  0.2293  0.6252 -0.4543
 2430SOL    HW118926   0.404   0.099   5.756 -0.5814  0.0817 -0.3747
 2430SOL    HW218927   0.397   4.738   5.639  0.1376  0.8690 -1.5160
 2431SOL     OW18928   3.070   2.242   2.758 -0.4013 -0.5870 -0.2414
 2431SOL    HW118929   3.054   2.220   2.850  0.2154  0.9929  0.2346
 2431SOL    HW218930   3.141   2.178   2.749  0.8963  0.8616 -0.3184
 2432SOL     OW18931   3.810   0.037   7.723 -0.0577 -0.6542  0.4931
 2432SOL    HW118932   3.719   0.014   7.702 -0.9649  2.2886  1.2032
 2432SOL    HW218933   3.805   0.088   7.804  0.5782  0.7496 -0.3650
 2433SOL     OW18934   2.415   1.124   8.916  0.2574 -0.1654  0.1201
 2433SOL    HW118935   2.456   1.204   8.949 -1.7180  1.1308 -0.5718
 2433SOL    HW218936   2.397   1.081   9.000 -0.3422 -1.2259 -0.5530
 2434SOL     OW18937   3.889   1.656  13.234  0.0746  0.1635  0.6449
 2434SOL    HW118938   3.901   1.721  13.302 -1.7133 -1.4398  2.4966
 2434SOL    HW218939   3.872   1.712  13.158 -1.9458 -1.5080 -0.1501
 2435SOL     OW18940   0.578   2.840   6.120 -0.5594  0.0421  0.1088
 2435SOL    HW118941   0.559   2.791   6.041  0.7568  0.7440 -0.6342
 2435SOL    HW218942   0.584   2.928   6.082 -2.6105  0.7356  1.3481
 2436SOL     OW18943   4.063   1.781   7.021 -0.1812  0.1101 -0.3300
 2436SOL    HW118944   3.982   1.748   7.060  0.7029 -2.1040 -0.3570
 2436SOL    HW218945   4.043   1.785   6.928 -0.7152 -1.1875 -0.2720
 2437SOL     OW18946   1.752   0.179   6.697  0.1727  0.0003 -0.4749
 2437SOL    HW118947   1.659   0.157   6.688  1.2898 -4.3620 -1.3969
 2437SOL    HW218948   1.787   0.123   6.627  2.4723  0.4135  0.3577
 2438SOL     OW18949   0.732   3.898   5.521  0.4446  0.3820  0.6471
 2438SOL    HW118950   0.728   3.867   5.611 -1.5278  2.9831  1.4515
 2438SOL    HW218951   0.781   3.825   5.483  0.9765  1.1512 -0.1449
 2439SOL     OW18952   4.495   3.953   4.256  0.1200 -0.3013  0.1695
 2439SOL    HW118953   4.565   3.905   4.301 -1.4038  0.2854  3.1854
 2439SOL    HW218954   4.485   3.903   4.176 -1.0576  1.7928 -1.0034
 2440SOL     OW18955   3.086   0.102   1.892 -0.0768 -0.6889 -0.1109
 2440SOL    HW118956   3.148   0.033   1.913 -1.2777 -1.8525 -0.3558
 2440SOL    HW218957   3.005   0.072   1.935 -1.2414  0.8305 -1.2343
 2441SOL     OW18958   1.744   1.394   7.993 -0.3588 -0.2073 -0.4464
 2441SOL    HW118959   1.767   1.423   8.081  0.8498  1.8598 -1.4198
 2441SOL    HW218960   1.656   1.357   8.003  0.1408 -1.1004  0.6332
 2442SOL     OW18961   0.994   1.659  14.984 -1.0865  0.2484  0.0496
 2442SOL    HW118962   1.088   1.638  14.979 -0.4867  2.3395  2.0633
 2442SOL    HW218963   0.961   1.681  14.897  1.3207  3.3647 -0.1045
 2443SOL     OW18964   1.124   4.360   6.237 -0.2635  0.0210  0.6193
 2443SOL    HW118965   1.189   4.291   6.225 -2.9632 -2.5055  0.6315
 2443SOL    HW218966   1.183   4.435   6.224  0.9721 -0.9350  0.7067
 2444SOL     OW18967   2.897   0.864   8.807 -0.4939  0.4861 -0.5674
 2444SOL    HW118968   2.917   0.901   8.893  1.8559  0.3847 -1.0573
 2444SOL    HW218969   2.838   0.791   8.821  0.1147 -0.2042 -1.5739
 2445SOL     OW18970   4.211   0.422   2.623 -0.4463 -0.1491  0.1256
 2445SOL    HW118971   4.278   0.363   2.589 -2.3958 -1.7432 -0.9990
 2445SOL    HW218972   4.250   0.464   2.699 -0.0512 -0.0625 -0.1267
 2446SOL     OW18973   1.808   0.519   9.194 -0.3208 -0.2192 -0.2480
 2446SOL    HW118974   1.835   0.590   9.251  2.1236 -1.2362 -0.1633
 2446SOL    HW218975   1.721   0.546   9.163  0.3528  1.3434 -0.7552
 2447SOL     OW18976   3.874   2.872  10.473  0.2804 -0.6271 -0.3507
 2447SOL    HW118977   3.885   2.964  10.498  1.1901 -1.6402  2.9301
 2447SOL    HW218978   3.942   2.827  10.523  0.2694  0.9496  1.0975
 2448SOL     OW18979   1.451   1.489   6.266  0.2369  0.5441  0.7378
 2448SOL    HW118980   1.425   1.580   6.251 -1.7083 -0.2394 -0.5980
 2448SOL    HW218981   1.403   1.475   6.348 -0.8883 -1.9846 -0.3712
 2449SOL     OW18982   0.149   4.635   1.983  0.9940  0.6109 -0.1613
 2449SOL    HW118983   0.151   4.727   1.957 -3.3241  0.9470  0.7568
 2449SOL    HW218984   0.143   4.587   1.900 -1.2060 -0.9778  0.9304
 2450SOL     OW18985   0.853   2.976   1.955 -0.5934 -0.2408  0.0192
 2450SOL    HW118986   0.941   2.938   1.948 -1.2310 -1.2306 -2.7705
 2450SOL    HW218987   0.874   3.054   2.007 -0.0444 -1.5271  1.7247
 2451SOL     OW18988   4.665   3.792  12.000  0.1986 -0.0659 -0.3985
 2451SOL    HW118989   4.726   3.726  12.033 -1.0104 -1.8720 -1.7934
 2451SOL    HW218990   4.634   3.833  12.081 -1.5487 -0.0571 -1.0756
 2452SOL     OW18991   2.338   3.050  13.059 -0.5622  0.5100 -0.9075
 2452SOL    HW118992   2.378   3.041  13.146  0.6536  0.9007 -1.4290
 2452SOL    HW218993   2.247   3.065  13.086 -0.3267  0.0702  0.1445
 2453SOL     OW18994   1.152   3.621   2.625 -0.8317 -0.4120 -0.3528
 2453SOL    HW118995   1.082   3.556   2.618 -1.2965 -0.4530  4.8644
 2453SOL    HW218996   1.127   3.676   2.699 -2.2188 -0.6859 -0.6268
 2454SOL     OW18997   0.873   0.461  16.543  0.1832 -0.0181  0.4210
 2454SOL    HW118998   0.937   0.395  16.514 -0.3667  0.3130 -1.5494
 2454SOL    HW218999   0.937   0.527  16.570  1.8073 -1.6034  0.4684
 2455SOL     OW19000   3.861   4.470   1.390 -0.4418 -0.5892  0.2426
 2455SOL    HW119001   3.861   4.563   1.370  1.1661 -0.7615 -0.5412
 2455SOL    HW219002   3.940   4.439   1.346 -0.3689  0.2011 -0.1653
 2456SOL     OW19003   3.210   1.193   7.610  0.0927 -0.2009 -0.1924
 2456SOL    HW119004   3.157   1.115   7.630 -0.7715  0.8525  1.6161
 2456SOL    HW219005   3.161   1.248   7.549  1.7855  0.6582 -0.7525
 2457SOL     OW19006   2.566   1.616   9.292 -0.4094 -0.0135  0.3973
 2457SOL    HW119007   2.536   1.526   9.299 -0.6250  0.0107 -0.2296
 2457SOL    HW219008   2.577   1.621   9.387  1.9201  1.5257  0.0564
 2458SOL     OW19009   0.452   3.397   5.625  0.0220 -0.1756  0.3268
 2458SOL    HW119010   0.484   3.402   5.715  2.8305 -0.3285 -0.6853
 2458SOL    HW219011   0.390   3.324   5.618  0.7141 -0.4861 -2.4430
 2459SOL     OW19012   1.451   4.666   2.002  0.1476  0.4846  0.6041
 2459SOL    HW119013   1.436   4.615   2.081  0.4104 -0.7084 -0.1267
 2459SOL    HW219014   1.463   0.017   2.037 -0.9525  1.7440 -2.1721
 2460SOL     OW19015   1.915   1.026   3.743  0.2224 -0.5025  0.4433
 2460SOL    HW119016   1.985   1.002   3.804  1.3245 -0.7429 -0.8904
 2460SOL    HW219017   1.884   1.108   3.783 -0.6835 -1.1053  0.9707
 2461SOL     OW19018   3.379   3.504   3.120  0.0326 -0.2909  0.2141
 2461SOL    HW119019   3.433   3.563   3.069  0.2602  0.6783  1.5689
 2461SOL    HW219020   3.316   3.480   3.051 -0.7568  1.4315  0.3388
 2462SOL     OW19021   1.446   3.162   7.562 -0.4435  0.6394  0.0082
 2462SOL    HW119022   1.460   3.169   7.657  0.8347 -2.2530  0.0238
 2462SOL    HW219023   1.517   3.101   7.543  0.3454  1.7095 -0.4834
 2463SOL     OW19024   4.419   3.937  10.025  0.3947 -0.3951  0.0020
 2463SOL    HW119025   4.498   3.930   9.971 -0.4244 -2.2242 -0.9507
 2463SOL    HW219026   4.454   3.950  10.114 -0.4865  0.2394  0.2572
 2464SOL     OW19027   4.087   2.684   7.450 -0.6806  0.1767  0.4436
 2464SOL    HW119028   4.167   2.685   7.399  0.4895 -1.1809  2.2616
 2464SOL    HW219029   4.035   2.741   7.393 -0.4279 -1.8608 -1.8036
 2465SOL     OW19030   3.320   0.908  13.659  0.4600 -0.0815 -0.7639
 2465SOL    HW119031   3.323   0.821  13.700 -0.6202 -0.4845 -1.5230
 2465SOL    HW219032   3.233   0.938  13.687  0.0089  0.2915 -2.5826
 2466SOL     OW19033   2.715   3.076   2.074 -0.0581 -0.2714  0.0966
 2466SOL    HW119034   2.736   2.992   2.033  2.5207  0.3850  0.0434
 2466SOL    HW219035   2.798   3.115   2.102 -0.8072  0.5739  1.1253
 2467SOL     OW19036   4.382   0.714   9.231  0.3483 -0.3371  0.8084
 2467SOL    HW119037   4.348   0.664   9.305 -2.4113  0.3307 -0.0278
 2467SOL    HW219038   4.468   0.672   9.222 -0.3137 -0.8509 -3.1213
 2468SOL     OW19039   2.343   2.533   1.312 -0.1353 -0.6643 -0.3785
 2468SOL    HW119040   2.374   2.601   1.373 -0.8370  0.5262 -1.3495
 2468SOL    HW219041   2.430   2.499   1.290 -0.3067 -2.0235  1.0705
 2469SOL     OW19042   2.125   3.193   4.733 -0.1646  0.4048 -0.1471
 2469SOL    HW119043   2.062   3.240   4.680  0.5601 -0.3436 -1.6876
 2469SOL    HW219044   2.197   3.167   4.674 -1.6794 -2.3292 -0.7813
 2470SOL     OW19045   2.470   1.032  14.387 -0.3582 -0.2592  0.2691
 2470SOL    HW119046   2.482   1.060  14.478  0.7224 -1.6150  0.5611
 2470SOL    HW219047   2.485   0.938  14.397  0.6792 -0.1344 -0.0620
 2471SOL     OW19048   0.888   3.271  11.698  0.1781 -0.8361 -0.4870
 2471SOL    HW119049   0.880   3.361  11.668  0.4285 -1.2501 -1.8353
 2471SOL    HW219050   0.805   3.278  11.744  1.3098  1.8055  1.1405
 2472SOL     OW19051   2.251   4.696   2.632 -0.4642  0.2811  0.0948
 2472SOL    HW119052   2.291   4.610   2.622  1.5260  1.1367  0.7090
 2472SOL    HW219053   2.159   4.672   2.640 -0.5706  0.3179 -1.0323
 2473SOL     OW19054   3.676   3.809  17.372 -0.1300  1.0243 -0.2737
 2473SOL    HW119055   3.588   3.791  17.339  0.4578 -3.4221  0.6636
 2473SOL    HW219056   3.668   3.818  17.467 -3.9292  1.1144 -0.6334
 2474SOL     OW19057   3.449   3.324   9.872  0.0505  0.1391  0.1530
 2474SOL    HW119058   3.543   3.335   9.857 -0.2824  1.5124 -0.8625
 2474SOL    HW219059   3.439   3.234   9.841  1.2266 -0.5117  1.6540
 2475SOL     OW19060   3.478   1.823   5.186  0.2287  0.0891 -0.5627
 2475SOL    HW119061   3.416   1.804   5.115  0.2981  2.0788 -1.1348
 2475SOL    HW219062   3.425   1.882   5.239  0.0030 -1.8114  1.3479
 2476SOL     OW19063   2.836   2.498   5.441 -0.1563  0.0238  0.4024
 2476SOL    HW119064   2.920   2.480   5.483 -0.8030  1.7228  2.4094
 2476SOL    HW219065   2.837   2.442   5.363 -0.7888  1.8668 -0.9448
 2477SOL     OW19066   2.715   3.464   5.165 -0.3565  0.8169  0.2428
 2477SOL    HW119067   2.634   3.427   5.129 -1.1393  2.6370  0.1442
 2477SOL    HW219068   2.683   3.515   5.240  0.5187  1.3345  0.2617
 2478SOL     OW19069   4.077   1.355   1.598  0.3771 -0.4025  1.3964
 2478SOL    HW119070   4.061   1.340   1.691  2.2355  1.9067  2.0878
 2478SOL    HW219071   4.063   1.449   1.610 -0.2412 -0.5304  1.6775
 2479SOL     OW19072   3.637   2.686   9.314  0.6500 -0.0468 -0.4629
 2479SOL    HW119073   3.720   2.707   9.271 -0.3906  2.9588 -0.9376
 2479SOL    HW219074   3.665   2.642   9.395  1.3453  0.5821 -0.3547
 2480SOL     OW19075   3.597   0.213  13.513  0.2106  0.0319  0.0761
 2480SOL    HW119076   3.595   0.248  13.602  1.2113 -1.7783  0.8125
 2480SOL    HW219077   3.619   0.297  13.472  0.0903  0.2230  0.3979
 2481SOL     OW19078   2.585   4.172   2.486  0.3975 -1.0686  0.3260
 2481SOL    HW119079   2.596   4.079   2.465 -0.5976 -1.6898  2.5717
 2481SOL    HW219080   2.495   4.179   2.516  0.7866 -0.6969  1.4241
 2482SOL     OW19081   3.415   2.644   4.357 -0.3933  0.0151 -0.0866
 2482SOL    HW119082   3.498   2.664   4.400  0.3973  1.4227 -2.2768
 2482SOL    HW219083   3.367   2.711   4.404  0.8312  1.7609 -1.3078
 2483SOL     OW19084   2.227   0.592   5.333 -0.0935  0.0988  0.2358
 2483SOL    HW119085   2.200   0.683   5.346 -0.3729  0.1809 -0.8758
 2483SOL    HW219086   2.160   0.558   5.393 -1.1636  0.4231 -0.7648
 2484SOL     OW19087   3.988   0.003   1.112 -0.4369  0.4016 -0.4328
 2484SOL    HW119088   4.053   0.042   1.170  1.6843 -1.5410 -1.5452
 2484SOL    HW219089   3.918   4.723   1.176  1.5398  0.8360  1.8593
 2485SOL     OW19090   1.722   2.010   7.819  0.0842 -0.2664  0.2834
 2485SOL    HW119091   1.642   2.012   7.871  0.8754  0.5378  1.4552
 2485SOL    HW219092   1.706   2.043   7.730  0.5226  1.5771  0.9024
 2486SOL     OW19093   0.435   2.859  15.968 -0.7984 -0.0554 -0.0401
 2486SOL    HW119094   0.423   2.921  15.896 -1.5591 -0.3803 -0.1879
 2486SOL    HW219095   0.370   2.888  16.031  0.7135  1.4401  0.8530
 2487SOL     OW19096   3.583   1.527   6.220 -0.1703 -0.2188  0.2095
 2487SOL    HW119097   3.559   1.438   6.245 -3.5404  0.1112 -1.8952
 2487SOL    HW219098   3.648   1.512   6.152  0.8018 -0.3641  1.1803
 2488SOL     OW19099   1.263   1.150  16.379  0.3254 -0.4081  0.4727
 2488SOL    HW119100   1.244   1.203  16.456  0.8144 -2.0945  1.7555
 2488SOL    HW219101   1.322   1.088  16.421  0.9819 -0.5568 -0.6576
 2489SOL     OW19102   2.235   4.431   9.841 -0.4563 -0.4675 -0.0208
 2489SOL    HW119103   2.208   4.348   9.881 -0.0634 -0.3127  0.5681
 2489SOL    HW219104   2.268   4.403   9.756  0.6084 -1.6550  0.7752
 2490SOL     OW19105   0.640   4.336   7.391 -0.5063  0.1547 -0.2868
 2490SOL    HW119106   0.686   4.406   7.437 -1.4026 -1.1190  2.5883
 2490SOL    HW219107   0.550   4.368   7.395 -1.5977 -2.8026 -0.5546
 2491SOL     OW19108   3.076   0.906  11.959  0.1054 -0.2471  0.4445
 2491SOL    HW119109   3.001   0.853  11.985  1.1951 -2.4912 -0.9148
 2491SOL    HW219110   3.140   0.882  12.027  2.0536 -0.8601 -1.5834
 2492SOL     OW19111   4.226   3.881   8.783  0.2241  0.3134  0.6411
 2492SOL    HW119112   4.146   3.885   8.835 -0.4327  0.5089 -0.3937
 2492SOL    HW219113   4.228   3.959   8.728  2.1816  1.5391  2.4419
 2493SOL     OW19114   1.525   0.502   6.469  0.2795  0.3859 -0.5168
 2493SOL    HW119115   1.503   0.469   6.382  0.2747 -0.7681 -0.0722
 2493SOL    HW219116   1.605   0.452   6.486 -1.0362 -0.6399  2.7066
 2494SOL     OW19117   2.397   2.744   4.789 -0.0731 -0.3370 -0.2344
 2494SOL    HW119118   2.339   2.668   4.781  0.7913 -0.9731 -0.4494
 2494SOL    HW219119   2.484   2.709   4.767  0.2687  1.2447 -1.3390
 2495SOL     OW19120   1.252   2.183   1.795  0.4227  0.7105  0.2301
 2495SOL    HW119121   1.193   2.255   1.773 -0.6934 -0.6037 -0.9813
 2495SOL    HW219122   1.193   2.117   1.830  1.1949 -0.1240 -0.0378
 2496SOL     OW19123   0.365   3.455   6.135 -0.4662 -0.2831  0.7774
 2496SOL    HW119124   0.275   3.434   6.110  0.0208 -0.4849 -0.7811
 2496SOL    HW219125   0.364   3.550   6.125  1.4736 -0.2269  1.1896
 2497SOL     OW19126   1.037   2.619  11.578  0.4102 -0.5759 -0.0587
 2497SOL    HW119127   0.973   2.684  11.551 -0.8157 -2.7752 -2.4160
 2497SOL    HW219128   0.991   2.537  11.558 -1.5794  0.6758 -0.5780
 2498SOL     OW19129   2.107   0.907   8.719  0.4919  0.1156 -0.3819
 2498SOL    HW119130   2.115   0.918   8.624  0.8869  0.9077 -0.2558
 2498SOL    HW219131   2.070   0.819   8.722  0.4433  0.2199  2.1035
 2499SOL     OW19132   1.230   0.329  17.218 -0.5452  0.2035  0.2656
 2499SOL    HW119133   1.303   0.335  17.157 -0.4862  0.9527  0.4147
 2499SOL    HW219134   1.193   0.415  17.200 -2.0893 -0.0559  2.1474
 2500SOL     OW19135   2.639   2.444  15.326 -0.1133  0.6800  0.1780
 2500SOL    HW119136   2.560   2.497  15.318 -0.5082  0.2922  1.5105
 2500SOL    HW219137   2.678   2.459  15.240  1.6788  2.6663  1.3493
 2501SOL     OW19138   2.246   2.561   9.879  0.1049  0.4384 -0.1773
 2501SOL    HW119139   2.327   2.538   9.924  0.6727  0.8449 -1.0097
 2501SOL    HW219140   2.263   2.652   9.853 -2.2456  1.5949  2.2571
 2502SOL     OW19141   4.544   3.488   2.362 -0.6184  0.0207  0.2090
 2502SOL    HW119142   4.462   3.508   2.317 -2.6598 -1.1530  3.3758
 2502SOL    HW219143   4.526   3.531   2.446  0.0740  1.6635 -0.4957
 2503SOL     OW19144   2.862   3.399   5.431 -1.0080 -0.1369  0.3185
 2503SOL    HW119145   2.878   3.485   5.469 -0.0434 -0.2030  0.0466
 2503SOL    HW219146   2.844   3.348   5.510  1.8466 -0.1747  0.9525
 2504SOL     OW19147   3.163   4.335  14.725  0.1386 -0.2574  0.2829
 2504SOL    HW119148   3.081   4.384  14.727 -0.4169 -1.1768  0.4201
 2504SOL    HW219149   3.219   4.377  14.660  2.1351 -2.5771  0.5003
 2505SOL     OW19150   1.000   3.405  15.690 -0.1647 -0.3468 -0.2591
 2505SOL    HW119151   0.995   3.377  15.598 -1.4846  1.4396 -0.7287
 2505SOL    HW219152   0.986   3.323  15.736 -0.5441  0.5222  1.1575
 2506SOL     OW19153   3.668   3.561   2.285 -0.1693  0.3922  0.0287
 2506SOL    HW119154   3.598   3.595   2.229 -0.4545  0.8440  0.6583
 2506SOL    HW219155   3.706   3.485   2.241  1.0433  0.3828  1.0788
 2507SOL     OW19156   1.791   3.675  10.851  0.8047  0.1959 -0.2498
 2507SOL    HW119157   1.728   3.745  10.867  2.0468  0.7666  2.1277
 2507SOL    HW219158   1.759   3.656  10.763 -0.6813 -0.9263  0.5355
 2508SOL     OW19159   0.628   0.397   1.838  0.0142  0.2709 -0.0758
 2508SOL    HW119160   0.666   0.364   1.757 -1.9555 -1.2688 -0.3814
 2508SOL    HW219161   0.549   0.342   1.838  0.4352 -0.3287  0.9963
 2509SOL     OW19162   0.722   2.243  10.254 -0.1878 -0.1343  0.2994
 2509SOL    HW119163   0.639   2.234  10.208 -1.5832  1.7801  2.4658
 2509SOL    HW219164   0.727   2.157  10.295  0.3465  0.3981  1.3531
 2510SOL     OW19165   4.581   4.207  12.254  0.0553 -0.1953  1.2325
 2510SOL    HW119166   4.643   4.188  12.184 -1.2441 -0.2501  0.1045
 2510SOL    HW219167   4.634   4.240  12.327  0.0017  1.1348  0.6779
 2511SOL     OW19168   0.463   3.275   3.393 -0.2475 -0.3497 -0.4173
 2511SOL    HW119169   0.539   3.334   3.388  0.3622 -1.1132 -0.1887
 2511SOL    HW219170   0.512   3.193   3.398  0.8611  0.2873 -0.8557
 2512SOL     OW19171   4.534   0.891  14.546  0.3253  0.4619 -0.0145
 2512SOL    HW119172   4.447   0.931  14.536 -0.3589 -0.2198  3.1167
 2512SOL    HW219173   4.518   0.803  14.513  3.7166 -0.1328 -0.0369
 2513SOL     OW19174   3.433   1.090   6.396 -0.2251  0.4554 -0.8278
 2513SOL    HW119175   3.484   1.121   6.472 -0.6682  2.7233 -1.4580
 2513SOL    HW219176   3.470   1.003   6.381  0.5097  0.2210  2.2644
 2514SOL     OW19177   1.447   1.666   4.238 -0.5709 -0.4932  0.6235
 2514SOL    HW119178   1.382   1.724   4.201 -1.9218 -2.4388 -0.0411
 2514SOL    HW219179   1.428   1.593   4.179  1.7451 -2.5557  2.4289
 2515SOL     OW19180   3.245   0.712  13.852  0.7056 -0.4805  0.0188
 2515SOL    HW119181   3.250   0.798  13.893 -0.2147 -0.3340 -0.2000
 2515SOL    HW219182   3.337   0.684  13.863  1.1707  1.1877  0.3288
 2516SOL     OW19183   1.744   1.170   7.488  0.2176 -0.0702 -0.1481
 2516SOL    HW119184   1.685   1.245   7.478  0.2895 -0.2411 -1.7944
 2516SOL    HW219185   1.682   1.106   7.521 -1.1536  1.7747  0.8232
 2517SOL     OW19186   0.549   4.086   2.589 -0.1701  0.2153 -0.1891
 2517SOL    HW119187   0.628   4.073   2.537  0.3589  1.1533  0.3771
 2517SOL    HW219188   0.518   3.996   2.589  0.6408 -0.0579 -0.9346
 2518SOL     OW19189   3.847   2.449  16.883  0.2112 -0.2484  0.0064
 2518SOL    HW119190   3.758   2.465  16.914  0.7676  0.1792  1.3817
 2518SOL    HW219191   3.893   2.458  16.967  2.2239 -0.4215 -1.0753
 2519SOL     OW19192   1.222   0.451  12.939 -0.5197 -0.0882  0.3947
 2519SOL    HW119193   1.167   0.491  12.872  1.3535 -0.9454 -1.6430
 2519SOL    HW219194   1.228   0.358  12.916  2.9217  0.7236 -1.9029
 2520SOL     OW19195   4.250   3.683  11.359 -0.2562 -0.1258  0.4061
 2520SOL    HW119196   4.207   3.768  11.369 -0.9146 -0.0394 -3.0166
 2520SOL    HW219197   4.330   3.693  11.411  2.6380 -2.0142 -3.6764
 2521SOL     OW19198   0.181   3.596  10.446  0.1819  0.4220 -0.1319
 2521SOL    HW119199   0.178   3.546  10.365  0.2876 -0.9595  0.7160
 2521SOL    HW219200   0.092   3.593  10.480  0.6579 -2.5833  0.8772
 2522SOL     OW19201   0.572   0.739   5.113  0.4552  0.1009  0.4896
 2522SOL    HW119202   0.609   0.697   5.035 -0.5737  0.7501 -0.3458
 2522SOL    HW219203   0.565   0.672   5.181  1.8134  1.4347  1.9475
 2523SOL     OW19204   1.299   3.249   9.339  0.0132  0.0259  0.0737
 2523SOL    HW119205   1.210   3.237   9.306 -0.2085  0.0110  0.6750
 2523SOL    HW219206   1.328   3.159   9.353  0.6330  0.1524 -0.4321
 2524SOL     OW19207   4.153   0.774  17.691 -0.1120 -0.3453  0.3356
 2524SOL    HW119208   4.198   0.849  17.730 -1.7975  0.7634  0.1998
 2524SOL    HW219209   4.219   0.727  17.641 -1.4839 -0.8739 -0.9834
 2525SOL     OW19210   0.447   1.507   6.787 -0.5159 -0.4074  0.1328
 2525SOL    HW119211   0.516   1.534   6.847 -1.4400  1.7053  0.2386
 2525SOL    HW219212   0.502   1.479   6.715  0.4635 -0.0053  0.7271
 2526SOL     OW19213   0.150   2.498   3.379 -0.0373  0.1979 -0.3275
 2526SOL    HW119214   0.204   2.563   3.334  0.7448 -1.6981 -2.1088
 2526SOL    HW219215   0.132   2.455   3.296  1.1810 -1.8994  0.4745
 2527SOL     OW19216   2.139   3.534   0.052 -0.2114  0.5265  0.4143
 2527SOL    HW119217   2.064   3.533  17.743 -0.7602  0.0128  1.1102
 2527SOL    HW219218   2.118   3.613   0.101  1.6544  1.4581 -0.2944
 2528SOL     OW19219   3.510   1.677   7.730 -0.3107  0.1738  0.0854
 2528SOL    HW119220   3.416   1.686   7.715  0.0565 -1.8783 -3.3019
 2528SOL    HW219221   3.503   1.657   7.824 -0.1809  0.4022  0.1444
 2529SOL     OW19222   1.917   3.913   8.844  0.3236  0.4099 -0.3835
 2529SOL    HW119223   1.904   3.819   8.835  0.2414  0.2702  1.1686
 2529SOL    HW219224   1.841   3.925   8.901  1.9126  2.2861  1.3953
 2530SOL     OW19225   2.500   0.874   6.513  0.2034 -0.0742 -0.0715
 2530SOL    HW119226   2.481   0.780   6.519  0.1566 -0.0273  0.5034
 2530SOL    HW219227   2.409   0.891   6.487  0.8974 -0.3449 -2.6708
 2531SOL     OW19228   3.480   4.578  16.257 -0.1134 -0.6292 -0.6712
 2531SOL    HW119229   3.429   4.658  16.253 -1.1712 -1.2855 -0.2872
 2531SOL    HW219230   3.425   4.525  16.200 -0.0997 -2.2792  0.8322
 2532SOL     OW19231   1.302   0.232   8.648  0.4463 -0.1672  0.4169
 2532SOL    HW119232   1.280   0.146   8.684 -0.4138  0.0174  0.3454
 2532SOL    HW219233   1.253   0.285   8.711  0.2733 -0.2668  0.3690
 2533SOL     OW19234   1.574   2.261  17.582  0.3828 -0.5799  0.3351
 2533SOL    HW119235   1.585   2.334  17.522 -2.3442 -1.6335 -1.4573
 2533SOL    HW219236   1.636   2.291  17.649 -1.1535  0.5091  1.2570
 2534SOL     OW19237   3.706   4.103   3.692  1.1477  0.0077 -0.2029
 2534SOL    HW119238   3.666   4.182   3.729  1.2400 -0.0455  0.0098
 2534SOL    HW219239   3.801   4.117   3.695  1.2105  0.1221 -2.5502
 2535SOL     OW19240   0.113   4.321   6.602 -0.7926  0.1866  0.5881
 2535SOL    HW119241   0.035   4.325   6.658 -2.1361 -0.9977 -1.2157
 2535SOL    HW219242   0.164   4.265   6.659 -1.8243 -0.3750  0.9672
 2536SOL     OW19243   1.053   3.909   8.966 -0.2148  0.0763 -0.0068
 2536SOL    HW119244   1.002   3.885   9.044 -0.1620 -1.0894 -0.3272
 2536SOL    HW219245   1.031   4.001   8.954 -2.8767 -0.2444  2.2700
 2537SOL     OW19246   0.270   3.518   9.277 -0.6953 -0.5204  0.1890
 2537SOL    HW119247   0.222   3.593   9.311 -0.1640  1.1478 -2.7138
 2537SOL    HW219248   0.362   3.531   9.300 -0.6671  0.8904 -0.7288
 2538SOL     OW19249   1.528   2.852   7.715 -0.3879  0.5477  0.6784
 2538SOL    HW119250   1.558   2.765   7.740  0.5781  0.2465 -1.5423
 2538SOL    HW219251   1.604   2.899   7.751  1.0560 -0.8912 -0.5324
 2539SOL     OW19252   2.709   1.389   3.885 -0.0524  0.6388 -0.1805
 2539SOL    HW119253   2.715   1.312   3.941  2.4822 -0.8043 -2.4175
 2539SOL    HW219254   2.687   1.463   3.942  1.5167  0.5724  0.5335
 2540SOL     OW19255   2.756   3.773   3.393 -0.0799  0.3469  0.0734
 2540SOL    HW119256   2.784   3.863   3.380  2.3688 -0.4948 -0.4042
 2540SOL    HW219257   2.741   3.767   3.488  1.3837 -3.0829  0.0942
 2541SOL     OW19258   4.603   3.816   8.186 -0.8599  0.2618  0.4456
 2541SOL    HW119259   4.624   3.784   8.274 -0.1245  1.5871  0.7680
 2541SOL    HW219260   4.508   3.821   8.188 -0.9579 -1.1374 -1.0449
 2542SOL     OW19261   3.684   0.658   2.126 -0.1534 -0.6576  0.0129
 2542SOL    HW119262   3.771   0.635   2.091  0.1639 -0.6678  0.8073
 2542SOL    HW219263   3.679   0.594   2.197 -0.0412  0.1638  0.7490
 2543SOL     OW19264   3.115   3.037   4.412  0.1382  0.2088  0.6079
 2543SOL    HW119265   3.136   3.131   4.411 -0.9488  0.4605  2.7760
 2543SOL    HW219266   3.110   3.012   4.320  1.4183  0.6188  0.4267
 2544SOL     OW19267   1.090   1.518   5.889 -0.1852 -0.3623 -0.1414
 2544SOL    HW119268   1.049   1.537   5.973  0.8363 -1.1912  0.5435
 2544SOL    HW219269   1.005   1.504   5.847 -1.0203 -1.0777  1.7685
 2545SOL     OW19270   2.136   3.694   6.131  0.1837 -0.0476 -0.2798
 2545SOL    HW119271   2.139   3.645   6.214  1.1800 -0.2675 -0.4444
 2545SOL    HW219272   2.042   3.703   6.121 -0.1218 -1.4188  1.2615
 2546SOL     OW19273   1.540   3.177   6.857 -0.2107 -0.3078 -0.2636
 2546SOL    HW119274   1.536   3.104   6.796  0.2112  0.4666 -1.2166
 2546SOL    HW219275   1.496   3.139   6.933  2.5245  0.6493  1.7880
 2547SOL     OW19276   3.058   3.298  16.114 -0.2900 -0.6609  0.0587
 2547SOL    HW119277   3.115   3.287  16.038 -1.2786  0.7990 -0.8876
 2547SOL    HW219278   2.998   3.365  16.082  2.2372  1.8713  0.6692
 2548SOL     OW19279   1.712   3.434   3.519 -0.0562  0.0296  0.3066
 2548SOL    HW119280   1.714   3.485   3.438  0.6849  0.6230  0.6984
 2548SOL    HW219281   1.680   3.499   3.581  0.9601  0.5530  0.2868
 2549SOL     OW19282   0.825   3.533   4.153  0.1799 -0.3106  0.1783
 2549SOL    HW119283   0.849   3.442   4.138 -0.4198 -0.5340  0.5529
 2549SOL    HW219284   0.869   3.579   4.081 -1.6189  0.5067 -0.4030
 2550SOL     OW19285   0.236   3.915  11.788 -0.2420  0.2423  0.3426
 2550SOL    HW119286   0.163   3.969  11.758 -2.2230 -2.7609 -0.2596
 2550SOL    HW219287   0.222   3.833  11.742 -1.9366  0.5613  0.2621
 2551SOL     OW19288   4.506   4.671   6.293 -1.0693 -0.3278 -0.0147
 2551SOL    HW119289   4.501   4.707   6.205  0.9140 -1.4734 -0.5902
 2551SOL    HW219290   4.600   4.677   6.309 -1.4011  1.4671  1.3393
 2552SOL     OW19291   4.681   4.311  16.673 -0.0433  0.0047  0.1125
 2552SOL    HW119292   4.593   4.324  16.639 -0.0466 -0.8255 -0.2140
 2552SOL    HW219293   4.715   4.399  16.684 -1.9943  1.0855 -2.4373
 2553SOL     OW19294   0.447   0.611   1.897 -0.1585  0.1078 -0.0327
 2553SOL    HW119295   0.365   0.563   1.902 -1.0200  1.7982  1.9891
 2553SOL    HW219296   0.507   0.540   1.874  1.4064  1.9401 -1.6209
 2554SOL     OW19297   2.626   1.691   6.494  0.1006 -0.0031  0.3106
 2554SOL    HW119298   2.666   1.697   6.408  0.1257  0.8443  0.3852
 2554SOL    HW219299   2.660   1.771   6.534 -1.8710  0.6524  0.6958
 2555SOL     OW19300   2.136   4.004   8.283  0.0639 -0.2469 -0.1674
 2555SOL    HW119301   2.112   4.068   8.350  0.6060 -1.6043  1.3297
 2555SOL    HW219302   2.058   3.950   8.269  0.6655 -0.7398 -1.6641
 2556SOL     OW19303   3.163   0.857   8.696  0.2918 -0.2710 -0.2091
 2556SOL    HW119304   3.085   0.890   8.740  0.6265  1.5533 -0.9956
 2556SOL    HW219305   3.161   0.771   8.739  1.3215 -0.2739 -0.1581
 2557SOL     OW19306   1.564   0.060   3.203 -0.0537 -0.0349 -0.5757
 2557SOL    HW119307   1.560   4.702   3.198 -0.8725  0.0467 -1.4750
 2557SOL    HW219308   1.553   0.068   3.298  0.6085  2.6544 -0.7314
 2558SOL     OW19309   1.391   2.661   9.483 -0.1913 -0.4327 -0.0035
 2558SOL    HW119310   1.441   2.625   9.410  1.6748  3.6450 -0.7562
 2558SOL    HW219311   1.312   2.685   9.433 -0.1577  1.0054  0.6364
 2559SOL     OW19312   0.622   3.117   3.816 -0.1703  0.6031 -0.4547
 2559SOL    HW119313   0.657   3.031   3.843  0.4106  2.1467  3.7153
 2559SOL    HW219314   0.685   3.137   3.747  1.5651  2.6709  1.7616
 2560SOL     OW19315   0.729   2.591  17.113 -0.0965  0.3095  0.2956
 2560SOL    HW119316   0.656   2.529  17.114  1.1732 -1.1556  2.2238
 2560SOL    HW219317   0.683   2.672  17.093  0.4817  0.2547 -1.2225
 2561SOL     OW19318   2.828   4.315   2.394 -0.1029 -0.3520 -0.3265
 2561SOL    HW119319   2.758   4.270   2.441  1.4247 -1.8197  0.5408
 2561SOL    HW219320   2.786   4.399   2.375 -0.0357 -0.4730 -1.0071
 2562SOL     OW19321   4.562   3.241  12.702  0.2120 -0.2428 -0.6435
 2562SOL    HW119322   4.642   3.194  12.723  0.5301  0.8850  0.6810
 2562SOL    HW219323   4.516   3.222  12.784 -2.4401  1.1059 -1.8195
 2563SOL     OW19324   4.635   4.544  17.575  0.5163  0.2981 -0.0512
 2563SOL    HW119325   4.722   4.540  17.614 -0.6124  1.4484  2.5679
 2563SOL    HW219326   4.607   4.452  17.576 -0.3263  0.5438 -1.3915
 2564SOL     OW19327   3.341   1.380   6.642  0.4236 -0.0477 -0.4045
 2564SOL    HW119328   3.333   1.405   6.734  3.4118 -0.2762 -0.0614
 2564SOL    HW219329   3.433   1.355   6.626  0.6649  1.5720 -1.5502
 2565SOL     OW19330   2.206   1.884  10.664 -0.2239  0.4002  0.3319
 2565SOL    HW119331   2.125   1.930  10.684 -0.5326  0.0773 -0.1709
 2565SOL    HW219332   2.240   1.931  10.588  0.0513 -0.9327 -0.3659
 2566SOL     OW19333   1.531   2.689   3.920  0.2902 -0.3895  0.0405
 2566SOL    HW119334   1.594   2.617   3.912  0.7073 -0.0364  0.1972
 2566SOL    HW219335   1.456   2.651   3.873  1.0096 -1.5127 -0.2125
 2567SOL     OW19336   1.262   3.476   3.822  0.2575 -0.3475 -0.3060
 2567SOL    HW119337   1.244   3.397   3.873 -1.4319 -0.3038 -0.8102
 2567SOL    HW219338   1.208   3.548   3.856  0.5887  0.1037 -0.7329
 2568SOL     OW19339   2.875   3.303   8.336 -0.3534 -0.8352 -0.0941
 2568SOL    HW119340   2.948   3.342   8.288 -0.6235 -1.2566 -0.8508
 2568SOL    HW219341   2.903   3.314   8.427  2.4981  0.7131 -1.1294
 2569SOL     OW19342   3.106   2.253   1.177  0.0192  0.1506  0.0730
 2569SOL    HW119343   3.165   2.327   1.164 -2.1651  2.1105  1.2825
 2569SOL    HW219344   3.027   2.294   1.212  0.8829  0.4327  1.7138
 2570SOL     OW19345   3.880   3.915   4.792  0.1904  0.0600  0.7315
 2570SOL    HW119346   3.811   3.961   4.840  0.4193  4.7072 -3.4663
 2570SOL    HW219347   3.944   3.925   4.863 -0.9105  0.9830  1.5897
 2571SOL     OW19348   0.605   3.647  10.910 -0.8357  0.3598  0.0674
 2571SOL    HW119349   0.530   3.659  10.852 -0.3603 -0.4494 -0.7121
 2571SOL    HW219350   0.646   3.588  10.847 -0.3638  1.2920 -0.4955
 2572SOL     OW19351   2.902   4.008   3.374  0.5165  0.2871 -0.1634
 2572SOL    HW119352   2.891   4.036   3.283 -1.6947 -0.7487 -0.2386
 2572SOL    HW219353   2.919   4.094   3.412  0.0041  1.2467 -2.0924
 2573SOL     OW19354   0.555   1.290  16.634  0.2734  0.1456 -0.7335
 2573SOL    HW119355   0.592   1.205  16.610  0.7095  0.0803  0.1754
 2573SOL    HW219356   0.613   1.311  16.706 -0.6349  0.7931 -0.1906
 2574SOL     OW19357   4.155   3.955   3.767  0.1130  0.3755  0.3441
 2574SOL    HW119358   4.239   3.961   3.721  0.1033  0.4194  0.3317
 2574SOL    HW219359   4.131   3.864   3.752  0.4801  0.2169  0.7293
 2575SOL     OW19360   3.288   1.419   0.645 -0.2949 -0.1186  0.7415
 2575SOL    HW119361   3.274   1.366   0.567 -0.3361 -1.5521  1.7029
 2575SOL    HW219362   3.339   1.358   0.699 -0.1264  0.7356  1.5490
 2576SOL     OW19363   1.954   0.675  10.707  0.1445 -0.0718 -0.0817
 2576SOL    HW119364   1.944   0.756  10.656  1.7801 -0.1657 -0.5650
 2576SOL    HW219365   1.948   0.703  10.798  2.3714  1.4709 -0.4135
 2577SOL     OW19366   0.158   3.260   9.319  0.6557  0.0761  0.3604
 2577SOL    HW119367   0.198   3.173   9.326 -0.8569 -0.6488  0.1978
 2577SOL    HW219368   0.234   3.317   9.311  0.6947 -0.1660 -0.8805
 2578SOL     OW19369   1.265   0.717  15.027 -0.1262  0.2016 -0.3614
 2578SOL    HW119370   1.172   0.736  15.042  0.4492  1.6704  1.4688
 2578SOL    HW219371   1.299   0.729  15.116  1.6788 -2.1355 -0.7454
 2579SOL     OW19372   3.975   2.531   4.628 -1.0526 -0.7733 -1.0079
 2579SOL    HW119373   3.926   2.611   4.648 -0.2838 -0.6690  0.4773
 2579SOL    HW219374   4.053   2.565   4.586 -0.8318  0.1436  0.1431
 2580SOL     OW19375   3.983   2.923  14.741  0.2701 -0.8421 -0.0739
 2580SOL    HW119376   4.058   2.911  14.800  0.9773  2.0889 -0.3933
 2580SOL    HW219377   4.031   2.964  14.669  0.7321 -0.6343  0.3577
 2581SOL     OW19378   2.321   2.000  15.265  0.2774  0.0247 -0.2449
 2581SOL    HW119379   2.284   1.970  15.182 -3.2913  0.9459  0.9989
 2581SOL    HW219380   2.367   1.920  15.289  0.3554  0.1655  0.0736
 2582SOL     OW19381   1.529   2.915   3.678 -0.3520 -0.2748  0.3744
 2582SOL    HW119382   1.556   2.995   3.634  2.8543 -2.1648 -1.0990
 2582SOL    HW219383   1.531   2.862   3.599  2.3288  0.8917 -0.3244
 2583SOL     OW19384   2.576   2.163   9.053 -0.1564 -0.0895 -0.1906
 2583SOL    HW119385   2.591   2.254   9.031  1.5775 -0.8996 -2.2838
 2583SOL    HW219386   2.611   2.121   8.975 -0.0893 -1.6188  0.6411
 2584SOL     OW19387   2.298   2.133  11.430  0.9813  0.2107 -0.1112
 2584SOL    HW119388   2.355   2.066  11.468 -0.4214  0.1990  1.9910
 2584SOL    HW219389   2.229   2.078  11.393  2.2937 -1.7481  0.3664
 2585SOL     OW19390   2.357   4.303   9.638 -0.8272 -0.1026 -0.3476
 2585SOL    HW119391   2.386   4.231   9.582  0.6277  0.5298 -0.4152
 2585SOL    HW219392   2.414   4.369   9.598 -1.8508 -0.2493 -2.0355
 2586SOL     OW19393   0.816   1.745   5.160 -0.4718 -0.2158  0.0954
 2586SOL    HW119394   0.780   1.791   5.084  1.3709  0.0708 -0.6068
 2586SOL    HW219395   0.830   1.817   5.221  0.5158 -0.5735  0.2987
 2587SOL     OW19396   2.512   3.983   1.746 -0.3391 -0.5260 -0.2399
 2587SOL    HW119397   2.493   3.948   1.660  2.2040 -2.8422  0.1237
 2587SOL    HW219398   2.563   3.908   1.778 -1.2236 -1.3693 -0.8322
 2588SOL     OW19399   3.995   0.671   6.090 -0.4090  0.3528 -0.2269
 2588SOL    HW119400   3.949   0.747   6.054 -1.5755  0.1369  0.8097
 2588SOL    HW219401   3.946   0.648   6.170  1.2176 -1.3172  0.2904
 2589SOL     OW19402   4.345   0.191   8.967  0.2000  0.2690  0.4937
 2589SOL    HW119403   4.292   0.172   9.045 -1.4096  0.9929 -0.4279
 2589SOL    HW219404   4.430   0.153   8.991  1.2469  0.6174 -2.7006
 2590SOL     OW19405   1.079   3.553  10.624  0.2574 -0.0307 -0.1527
 2590SOL    HW119406   1.011   3.492  10.596  1.1898 -0.0517 -2.3733
 2590SOL    HW219407   1.093   3.517  10.711 -0.8335  0.9612  0.4329
 2591SOL     OW19408   2.229   1.528   7.880 -0.2510 -0.3986 -0.2795
 2591SOL    HW119409   2.148   1.476   7.875 -1.0055  0.8249 -0.7971
 2591SOL    HW219410   2.213   1.594   7.948  1.9497 -0.4868  0.3085
 2592SOL     OW19411   1.081   2.783  13.241 -0.4488 -0.4797  0.0665
 2592SOL    HW119412   1.001   2.797  13.292  0.5010  0.1965  1.3623
 2592SOL    HW219413   1.100   2.865  13.196  0.1136  0.0480  1.2464
 2593SOL     OW19414   0.926   4.719   7.089  0.0922 -0.0248  0.7908
 2593SOL    HW119415   0.882   4.693   7.170  0.1250 -0.2027  0.7503
 2593SOL    HW219416   0.970   0.061   7.120 -0.2626 -0.2638  1.9256
 2594SOL     OW19417   3.850   1.571   5.432  1.2026  0.2973 -0.0033
 2594SOL    HW119418   3.811   1.483   5.428 -1.0797  1.3174 -0.2018
 2594SOL    HW219419   3.875   1.582   5.524 -1.4835 -2.3175  1.0561
 2595SOL     OW19420   3.383   1.800   3.107 -0.5726 -0.3143  0.5713
 2595SOL    HW119421   3.348   1.886   3.084 -1.0382 -0.3051  1.3338
 2595SOL    HW219422   3.365   1.755   3.024  0.3502 -0.3478  0.3824
 2596SOL     OW19423   3.151   0.425  15.785  0.0430  0.2057 -0.2319
 2596SOL    HW119424   3.166   0.520  15.778 -1.7932  0.5179 -0.0135
 2596SOL    HW219425   3.058   0.416  15.766  0.9140 -3.4204 -2.6592
 2597SOL     OW19426   2.899   1.421   3.694 -0.3121  0.5070  0.4198
 2597SOL    HW119427   2.856   1.383   3.770  0.5797 -0.4701  0.4248
 2597SOL    HW219428   2.924   1.339   3.652  0.8728  1.3796 -0.5757
 2598SOL     OW19429   2.368   0.595   2.676 -0.2932 -0.0034  0.3532
 2598SOL    HW119430   2.278   0.574   2.651  0.1810 -1.8891  0.1745
 2598SOL    HW219431   2.355   0.590   2.771 -2.1082  2.5273  0.2430
 2599SOL     OW19432   2.944   1.326  15.148  0.1458 -0.0555 -0.2926
 2599SOL    HW119433   3.028   1.287  15.172  0.4915  0.7582 -0.1714
 2599SOL    HW219434   2.910   1.356  15.233 -1.4509 -2.1464 -0.2013
 2600SOL     OW19435   3.832   0.520   3.261  0.1854  0.4361 -0.2473
 2600SOL    HW119436   3.759   0.541   3.203 -0.9886  1.8304  1.7317
 2600SOL    HW219437   3.789   0.532   3.346 -2.0990  2.2512 -1.6651
 2601SOL     OW19438   3.366   0.828   2.453  0.1673 -0.4618 -0.2054
 2601SOL    HW119439   3.457   0.801   2.454 -0.0172 -1.1593 -2.1976
 2601SOL    HW219440   3.372   0.894   2.522 -0.8200  0.4067 -0.9452
 2602SOL     OW19441   0.355   0.816  14.238  0.4878  0.1090  0.3803
 2602SOL    HW119442   0.317   0.754  14.176  0.0243  0.0384  0.7370
 2602SOL    HW219443   0.297   0.789  14.308  1.2023 -2.0984  0.0987
 2603SOL     OW19444   4.058   0.806   7.355  0.4454 -0.1498  0.6076
 2603SOL    HW119445   4.064   0.769   7.442 -0.4344  0.3940  0.8988
 2603SOL    HW219446   4.064   0.902   7.363  1.9438 -0.1672 -0.2035
 2604SOL     OW19447   1.226   3.133   7.409 -0.6247 -0.7915  0.4273
 2604SOL    HW119448   1.171   3.211   7.417  1.8290  0.9777  0.1177
 2604SOL    HW219449   1.308   3.161   7.449 -1.0135 -1.0978  1.4274
 2605SOL     OW19450   2.413   0.415   9.490 -0.0951 -0.0862 -0.4473
 2605SOL    HW119451   2.477   0.486   9.498  0.7278 -0.6893 -1.7293
 2605SOL    HW219452   2.459   0.332   9.478 -1.8114 -1.0959 -0.2027
 2606SOL     OW19453   3.655   0.279   5.293  0.3848  0.6489  0.2505
 2606SOL    HW119454   3.621   0.335   5.363 -1.9494  0.6541 -0.8952
 2606SOL    HW219455   3.584   0.239   5.242  0.1606 -1.1592  1.9807
 2607SOL     OW19456   0.831   0.516   2.021 -0.4872 -0.0158  0.2243
 2607SOL    HW119457   0.769   0.454   1.982 -1.0975  1.6571 -1.5198
 2607SOL    HW219458   0.845   0.480   2.108  0.2117  2.0355  0.9473
 2608SOL     OW19459   2.886   1.860   8.634 -0.0785  0.0457 -0.2781
 2608SOL    HW119460   2.919   1.936   8.682  0.3759  0.2615 -0.9341
 2608SOL    HW219461   2.847   1.813   8.708 -1.3608  0.1863 -0.8600
 2609SOL     OW19462   4.473   1.435  17.527  0.2036  0.0125 -0.2229
 2609SOL    HW119463   4.457   1.410  17.617  3.2446  0.2241  0.3894
 2609SOL    HW219464   4.481   1.349  17.486 -0.7196 -1.0886  1.9164
 2610SOL     OW19465   4.155   0.762   6.483 -0.2893 -0.0222  0.4998
 2610SOL    HW119466   4.195   0.724   6.405  1.3621  0.2470  1.2130
 2610SOL    HW219467   4.232   0.796   6.530  0.5254 -0.2819 -0.6436
 2611SOL     OW19468   3.771   2.015   9.174  0.3416  0.1543 -0.9937
 2611SOL    HW119469   3.726   2.009   9.089  0.7011  2.0884 -1.3171
 2611SOL    HW219470   3.824   2.093   9.159 -0.6185  0.7991 -1.0443
 2612SOL     OW19471   2.898   2.241  13.581 -0.0837 -0.2195  0.4470
 2612SOL    HW119472   2.967   2.209  13.638  1.5066  1.5200 -0.5087
 2612SOL    HW219473   2.853   2.308  13.633  2.1377  0.1196  1.8869
 2613SOL     OW19474   1.897   2.850   3.323 -0.5230 -0.3098 -0.0541
 2613SOL    HW119475   1.825   2.801   3.281 -1.2795  0.4713  0.3426
 2613SOL    HW219476   1.917   2.798   3.401 -1.4667  0.3559  0.6276
 2614SOL     OW19477   1.309   1.359   4.268  0.7382  0.2926 -0.7058
 2614SOL    HW119478   1.348   1.391   4.187  2.0228 -0.8827 -0.5304
 2614SOL    HW219479   1.379   1.306   4.305 -0.5420 -0.5384  0.5501
 2615SOL     OW19480   0.709   4.336   5.944 -0.2645 -0.0162  0.0310
 2615SOL    HW119481   0.733   4.300   5.858 -0.2701 -0.2046  0.1088
 2615SOL    HW219482   0.792   4.314   5.986 -0.5720  0.1404  0.7192
 2616SOL     OW19483   1.433   0.838   0.079 -0.0858  0.0588  0.6791
 2616SOL    HW119484   1.348   0.813   0.115 -0.7132  0.7845 -0.3029
 2616SOL    HW219485   1.433   0.934   0.076  0.7496 -0.0121 -1.5497
 2617SOL     OW19486   2.900   4.110   9.336 -0.1649 -0.7274  0.1356
 2617SOL    HW119487   2.890   4.123   9.430 -0.5995 -0.5440  0.0643
 2617SOL    HW219488   2.902   4.015   9.329  0.2625 -0.7821  0.9586
 2618SOL     OW19489   1.952   4.511   0.355 -0.2028  0.0404  0.0156
 2618SOL    HW119490   1.918   4.428   0.389 -0.6616  0.7381  1.2521
 2618SOL    HW219491   1.980   4.551   0.437  1.5900 -2.7085  0.7804
 2619SOL     OW19492   2.873   4.128   4.246  0.2794 -0.7387  0.4596
 2619SOL    HW119493   2.865   4.187   4.321  0.1252  0.1731 -0.2692
 2619SOL    HW219494   2.966   4.111   4.255  0.1860 -0.3745  2.0617
 2620SOL     OW19495   1.782   4.669  10.123 -0.2501 -0.4536  0.0000
 2620SOL    HW119496   1.853   4.606  10.119  0.2360  0.0780  0.1984
 2620SOL    HW219497   1.825   0.006  10.164 -0.6174  0.5781 -1.4928
 2621SOL     OW19498   1.464   0.368   4.178 -0.1706 -0.3962 -0.2021
 2621SOL    HW119499   1.476   0.311   4.102  0.9278 -0.3689 -0.0529
 2621SOL    HW219500   1.528   0.328   4.237 -1.2013 -2.6019 -0.5775
 2622SOL     OW19501   2.247   0.179  10.926  0.2091  0.4689 -0.5741
 2622SOL    HW119502   2.278   0.125  10.999 -2.2862  0.4016  0.4235
 2622SOL    HW219503   2.278   0.268  10.939  1.0159  0.0812  0.1277
 2623SOL     OW19504   3.029   4.051   7.359  0.0852 -0.5813  0.1690
 2623SOL    HW119505   3.061   4.140   7.371 -1.3000 -0.0382 -0.1789
 2623SOL    HW219506   2.989   4.058   7.272  0.5750 -3.2010 -0.2797
 2624SOL     OW19507   1.312   4.091   9.625 -0.4171  0.0602 -0.5185
 2624SOL    HW119508   1.400   4.071   9.595 -0.0135  0.0639  0.6673
 2624SOL    HW219509   1.291   4.179   9.593 -1.6428  0.1619  0.5415
 2625SOL     OW19510   0.784   0.754   0.415  0.6028  0.3346  0.0472
 2625SOL    HW119511   0.831   0.835   0.395 -3.5406  2.7802  0.1145
 2625SOL    HW219512   0.693   0.781   0.403  1.1990  1.4549 -1.9701
 2626SOL     OW19513   2.610   0.336   8.570 -0.3371  0.3375  0.2408
 2626SOL    HW119514   2.543   0.275   8.600  1.4034 -2.3737 -1.4085
 2626SOL    HW219515   2.652   0.293   8.496 -1.2617  0.0446 -0.1126
 2627SOL     OW19516   1.428   2.026   1.652 -0.3258  0.8256 -0.2066
 2627SOL    HW119517   1.368   2.095   1.680 -3.0122 -1.0132 -1.2728
 2627SOL    HW219518   1.368   1.963   1.610 -0.0464  2.0932 -2.5496
 2628SOL     OW19519   2.790   4.573  12.393  0.3185 -0.4516 -0.7904
 2628SOL    HW119520   2.802   4.551  12.300  1.3812 -2.4990 -0.1896
 2628SOL    HW219521   2.701   4.608  12.400  0.5010  0.0464 -0.9949
 2629SOL     OW19522   4.607   1.643   7.749 -0.3581 -0.2131 -0.0496
 2629SOL    HW119523   4.569   1.710   7.691 -4.1477 -2.1476  0.1835
 2629SOL    HW219524   4.537   1.652   7.814  0.9164  1.1891  1.1136
 2630SOL     OW19525   4.135   2.049   7.957 -0.1366 -0.0871  0.1400
 2630SOL    HW119526   4.200   1.981   7.939  0.9212  1.3770 -1.6200
 2630SOL    HW219527   4.153   2.063   8.050  1.3913 -2.5987  0.2351
 2631SOL     OW19528   3.035   2.419   1.602  0.2079  0.5002  0.3235
 2631SOL    HW119529   2.981   2.342   1.587  0.8174 -0.0435  0.8864
 2631SOL    HW219530   3.010   2.442   1.692 -0.6057  1.5395 -0.1755
 2632SOL     OW19531   3.893   3.895   7.238 -0.2653 -0.2772  0.0176
 2632SOL    HW119532   3.850   3.971   7.199 -0.8396 -0.2211  0.7596
 2632SOL    HW219533   3.825   3.830   7.218  0.4680 -0.9232 -0.3870
 2633SOL     OW19534   2.841   0.337   8.775 -0.1329  0.4263  0.2758
 2633SOL    HW119535   2.747   0.342   8.758 -0.1250 -0.6187 -0.1049
 2633SOL    HW219536   2.872   0.379   8.695 -3.1968  0.2853 -0.9998
 2634SOL     OW19537   2.619   3.983   8.430  0.2360  0.5236  0.1247
 2634SOL    HW119538   2.589   3.892   8.433  0.3826  0.3806 -2.5620
 2634SOL    HW219539   2.657   3.990   8.342 -0.2917 -1.2104 -0.2461
 2635SOL     OW19540   4.396   0.857   7.464 -0.0174  0.1248  0.3359
 2635SOL    HW119541   4.345   0.776   7.453  0.7168 -0.2507 -0.2905
 2635SOL    HW219542   4.328   0.924   7.456  0.9907  1.1538  0.4070
 2636SOL     OW19543   1.211   3.851   4.308  0.3144 -0.8347 -0.4146
 2636SOL    HW119544   1.267   3.923   4.336 -1.4258  0.9215 -1.5245
 2636SOL    HW219545   1.194   3.812   4.393 -0.4323  0.5187  0.0467
 2637SOL     OW19546   1.962   4.026   3.964  0.0909  0.1394  0.3384
 2637SOL    HW119547   2.054   4.052   3.958 -0.1763  0.9781 -0.1365
 2637SOL    HW219548   1.960   3.954   3.900 -0.3037  0.8998 -0.5132
 2638SOL     OW19549   0.245   3.827  15.306 -0.0006  0.5739  0.2465
 2638SOL    HW119550   0.192   3.902  15.333 -0.9867 -0.1899  0.4366
 2638SOL    HW219551   0.176   3.759  15.303  0.6536 -0.0546 -0.4986
 2639SOL     OW19552   0.998   3.512  11.539  0.1681 -0.1879  0.0649
 2639SOL    HW119553   0.991   3.583  11.603 -0.4650 -0.9376  0.8285
 2639SOL    HW219554   0.921   3.535  11.485 -0.5285 -1.1293  0.6611
 2640SOL     OW19555   2.794   2.070   3.844  0.2301  0.4330 -0.4365
 2640SOL    HW119556   2.772   2.156   3.808 -2.0694 -0.7072 -1.7693
 2640SOL    HW219557   2.767   2.089   3.934 -0.3445  1.0627 -0.7405
 2641SOL     OW19558   1.632   3.366   1.939  0.7323 -0.2830  0.0290
 2641SOL    HW119559   1.641   3.445   1.991 -1.5145 -0.9753  1.4793
 2641SOL    HW219560   1.724   3.348   1.922  0.6749 -1.4035  0.8802
 2642SOL     OW19561   4.377   0.810   6.674 -0.0780 -0.0882 -0.4882
 2642SOL    HW119562   4.323   0.875   6.718  0.2362  0.6066 -1.1223
 2642SOL    HW219563   4.384   0.749   6.747  2.4585  0.4759 -0.2780
 2643SOL     OW19564   1.040   0.892   4.729  0.5807  0.2426  0.3282
 2643SOL    HW119565   1.023   0.932   4.643  0.6100  0.3634  0.3787
 2643SOL    HW219566   0.967   0.831   4.738  0.1468  0.6227 -0.5658
 2644SOL     OW19567   2.342   3.003   4.943  0.3301  0.0391  0.9308
 2644SOL    HW119568   2.386   2.924   4.911 -0.2420 -0.5958  1.7207
 2644SOL    HW219569   2.251   2.976   4.926  0.7360 -0.7857  0.0333
 2645SOL     OW19570   4.236   4.098   2.963 -0.4175 -0.0776  0.1702
 2645SOL    HW119571   4.275   4.185   2.951  1.2068 -0.9306 -0.6848
 2645SOL    HW219572   4.305   4.051   3.009  0.2020 -1.1397 -1.8310
 2646SOL     OW19573   3.451   4.721  11.798  0.0969  0.1408  0.0277
 2646SOL    HW119574   3.389   4.674  11.741  1.3589 -1.8000  0.2542
 2646SOL    HW219575   3.469   4.656  11.866 -0.4111 -1.1897 -1.0842
 2647SOL     OW19576   0.194   1.671   4.434 -0.1075 -0.1778  0.6083
 2647SOL    HW119577   0.215   1.588   4.477 -0.2528 -0.3998  0.2526
 2647SOL    HW219578   0.117   1.693   4.487  0.1543  2.1484 -0.0160
 2648SOL     OW19579   2.606   1.414   1.650  0.3055 -1.0023  0.1578
 2648SOL    HW119580   2.552   1.406   1.571 -0.3842 -0.5601  0.5846
 2648SOL    HW219581   2.553   1.364   1.713 -0.8913 -0.5092 -0.4663
 2649SOL     OW19582   4.117   0.197   7.329 -0.1093  0.2256  0.2499
 2649SOL    HW119583   4.188   0.157   7.379  0.8992  1.0372 -0.5140
 2649SOL    HW219584   4.048   0.142   7.365  0.6174 -1.5390 -1.0799
 2650SOL     OW19585   4.168   3.768  16.751  0.2127  0.1012 -0.2098
 2650SOL    HW119586   4.082   3.811  16.749  0.9376  1.6805  2.1440
 2650SOL    HW219587   4.216   3.785  16.670  2.4571 -1.8624  0.7166
 2651SOL     OW19588   2.859   2.020   4.124  0.2361 -0.3831 -0.5485
 2651SOL    HW119589   2.872   2.114   4.113 -1.9142  0.0783  0.7693
 2651SOL    HW219590   2.925   2.000   4.190  0.3818 -2.1672 -1.2271
 2652SOL     OW19591   0.511   4.455  13.078  0.5047 -0.3467  0.0325
 2652SOL    HW119592   0.494   4.532  13.023  1.0087  0.0260  0.4088
 2652SOL    HW219593   0.604   4.467  13.094  0.4120  2.3436 -1.4954
 2653SOL     OW19594   2.930   3.953   4.747  0.6695 -0.4536 -0.0426
 2653SOL    HW119595   2.862   3.978   4.811  0.7494 -1.1276  0.3052
 2653SOL    HW219596   2.877   3.935   4.669  0.7555 -0.6844 -0.0467
 2654SOL     OW19597   4.402   1.840  17.093 -0.2713  0.0087 -0.6238
 2654SOL    HW119598   4.351   1.906  17.140 -1.4427 -0.5287 -1.1433
 2654SOL    HW219599   4.376   1.857  17.002  0.4699 -0.1336 -0.8647
 2655SOL     OW19600   2.406   2.148   6.059 -0.5770  0.4633  0.0684
 2655SOL    HW119601   2.336   2.085   6.041  0.6907 -0.6278 -0.9391
 2655SOL    HW219602   2.389   2.215   5.993  0.9872  1.1794  0.4095
 2656SOL     OW19603   2.213   3.678   4.792 -0.1556  0.2815 -0.2411
 2656SOL    HW119604   2.236   3.763   4.753  0.6904  0.5213  0.7546
 2656SOL    HW219605   2.268   3.662   4.869 -0.5069  0.0408 -0.0411
 2657SOL     OW19606   2.808   2.820   1.542  0.4286 -0.1130 -0.3637
 2657SOL    HW119607   2.896   2.786   1.527  0.7369 -0.1066  1.3638
 2657SOL    HW219608   2.767   2.748   1.590  1.0393  0.9676  1.8256
 2658SOL     OW19609   1.670   2.114   7.578  0.3703  0.6110  0.2072
 2658SOL    HW119610   1.730   2.107   7.504  0.3507 -0.8658  0.3233
 2658SOL    HW219611   1.592   2.152   7.538 -0.1563  0.1178  0.7543
 2659SOL     OW19612   3.854   3.111  11.137 -0.4855  0.0544 -0.2642
 2659SOL    HW119613   3.920   3.179  11.123 -0.9961  0.5041 -0.5165
 2659SOL    HW219614   3.906   3.031  11.138  1.3130  1.1984 -2.1154
 2660SOL     OW19615   4.021   4.536   3.432 -0.3552 -0.1532 -0.0556
 2660SOL    HW119616   4.039   4.599   3.363  0.1410 -0.6467 -0.3805
 2660SOL    HW219617   3.926   4.549   3.437 -0.4613 -0.4697 -1.1928
 2661SOL     OW19618   1.203   3.245   4.505 -0.4007  0.4424  0.3829
 2661SOL    HW119619   1.190   3.221   4.596 -0.8413 -0.6353  0.0345
 2661SOL    HW219620   1.289   3.288   4.500  0.7879 -1.9929  0.0729
 2662SOL     OW19621   0.700   0.122   2.351 -0.5771  0.2370 -0.0437
 2662SOL    HW119622   0.760   0.109   2.425  3.1148 -1.1972 -3.2827
 2662SOL    HW219623   0.766   0.107   2.283 -0.7364  0.0867 -0.1651
 2663SOL     OW19624   0.833   2.613   2.333 -0.6258 -0.7133 -0.2222
 2663SOL    HW119625   0.845   2.700   2.296 -0.2093 -0.8919 -0.5084
 2663SOL    HW219626   0.907   2.574   2.287  1.0595  1.8579  0.3113
 2664SOL     OW19627   3.504   4.295   2.114 -0.6728 -0.5459  0.2935
 2664SOL    HW119628   3.535   4.377   2.074  1.0135 -1.5648 -0.4793
 2664SOL    HW219629   3.443   4.336   2.175  1.1316  0.7413  1.2374
 2665SOL     OW19630   2.959   4.149  10.585 -0.7362  0.0100  0.2727
 2665SOL    HW119631   2.893   4.196  10.534 -1.7273 -1.9534 -0.2698
 2665SOL    HW219632   2.903   4.102  10.647 -0.6288  0.8079  0.9799
 2666SOL     OW19633   3.772   2.411  12.797  0.4505 -0.3809 -0.3415
 2666SOL    HW119634   3.759   2.504  12.779  2.2112 -0.1045 -0.1819
 2666SOL    HW219635   3.683   2.377  12.800 -0.2332  1.4377 -0.1993
 2667SOL     OW19636   1.507   0.479   7.571  0.1366  0.4061 -0.4300
 2667SOL    HW119637   1.450   0.555   7.565  0.2902  0.4960 -0.7850
 2667SOL    HW219638   1.558   0.495   7.491  2.3648 -0.7724  0.7416
 2668SOL     OW19639   2.310   2.495   1.735  0.6881  0.4951 -0.1387
 2668SOL    HW119640   2.326   2.548   1.657  0.8507  1.1872  0.3687
 2668SOL    HW219641   2.306   2.564   1.801  2.7674  1.8087 -1.3734
 2669SOL     OW19642   3.083   1.555   5.820  0.3479  0.1634  0.5613
 2669SOL    HW119643   3.042   1.612   5.886 -0.9963 -0.2463  0.0716
 2669SOL    HW219644   3.031   1.589   5.747  1.6284  0.9131 -0.0092
 2670SOL     OW19645   4.221   2.936   6.463 -0.0596  0.3178 -0.5800
 2670SOL    HW119646   4.248   3.026   6.480  3.4107 -1.1613  1.9517
 2670SOL    HW219647   4.305   2.893   6.444 -0.3729 -0.2760 -0.6448
 2671SOL     OW19648   3.923   0.548   2.061 -0.2052 -0.3357  0.2223
 2671SOL    HW119649   3.927   0.465   2.013 -0.1123  0.4586 -1.1495
 2671SOL    HW219650   3.918   0.513   2.150  0.9885 -1.2612 -0.0725
 2672SOL     OW19651   1.881   3.395  10.798 -0.6051 -0.1416  0.0568
 2672SOL    HW119652   1.964   3.412  10.843  0.7811  0.6939 -2.8172
 2672SOL    HW219653   1.832   3.474  10.820 -1.2380 -0.6210  0.3639
 2673SOL     OW19654   0.170   3.980   2.282 -0.3941 -0.0967  0.1460
 2673SOL    HW119655   0.238   4.044   2.303 -0.9573  0.3561  0.5905
 2673SOL    HW219656   0.178   3.917   2.353 -0.3133 -1.4130 -1.0374
 2674SOL     OW19657   2.486   4.130  10.711  0.4267 -0.3462 -0.2770
 2674SOL    HW119658   2.483   4.216  10.670 -0.2467 -1.5087 -2.6780
 2674SOL    HW219659   2.417   4.136  10.777  1.3910 -1.0901  0.8008
 2675SOL     OW19660   4.100   0.293   6.120 -0.4406 -0.4928  0.1610
 2675SOL    HW119661   4.095   0.232   6.194 -0.2847 -0.3949  0.2511
 2675SOL    HW219662   4.013   0.333   6.123 -0.2292 -0.1496  1.8408
 2676SOL     OW19663   4.385   0.451   0.583 -0.4601  0.1317 -0.3538
 2676SOL    HW119664   4.335   0.503   0.521  0.2249 -0.8058 -1.6783
 2676SOL    HW219665   4.366   0.363   0.553  1.6070 -0.5702  0.4235
 2677SOL     OW19666   4.181   3.711   2.032  0.5321  0.1145  0.1531
 2677SOL    HW119667   4.104   3.654   2.024  0.3629  0.2781  0.6580
 2677SOL    HW219668   4.214   3.716   1.942 -0.9757 -0.3023 -0.4184
 2678SOL     OW19669   0.178   2.734  12.979  0.3369  0.0300  0.1274
 2678SOL    HW119670   0.197   2.719  13.072 -2.4314  0.1741  0.7193
 2678SOL    HW219671   0.192   2.647  12.942 -2.8422 -0.0504 -0.9323
 2679SOL     OW19672   3.287   2.933   8.052 -0.3506  0.2075  0.3712
 2679SOL    HW119673   3.239   2.855   8.081  0.0933  0.1384  0.9176
 2679SOL    HW219674   3.355   2.894   7.997 -0.0704 -0.6623  1.3129
 2680SOL     OW19675   1.413   0.552   5.256 -0.4230 -0.6020  0.6799
 2680SOL    HW119676   1.406   0.575   5.348  2.2161 -1.3073  1.0639
 2680SOL    HW219677   1.383   0.632   5.213  1.4656  0.7428  1.8814
 2681SOL     OW19678   0.029   1.721  11.822  0.2627  0.3100  0.7264
 2681SOL    HW119679   4.735   1.810  11.836 -1.8492 -0.0956 -1.5556
 2681SOL    HW219680   4.685   1.673  11.829  0.4728 -0.0530  0.7082
 2682SOL     OW19681   2.989   3.761   3.208 -0.3280 -0.2428 -0.7117
 2682SOL    HW119682   3.062   3.708   3.239 -0.5096  1.1372  2.1340
 2682SOL    HW219683   2.980   3.836   3.268  0.9457  1.0633 -2.1387
 2683SOL     OW19684   3.663   2.776  13.138  0.6225  0.1568 -0.1067
 2683SOL    HW119685   3.730   2.776  13.070  0.4922  1.9539 -0.2243
 2683SOL    HW219686   3.661   2.683  13.160  1.0723  0.3119  0.5925
 2684SOL     OW19687   0.143   1.201   1.422 -0.9100 -0.7476 -0.1230
 2684SOL    HW119688   0.058   1.201   1.378 -0.6083 -1.4864 -0.6958
 2684SOL    HW219689   0.128   1.241   1.508 -2.4704  1.1777 -1.2714
 2685SOL     OW19690   4.735   1.755   9.128  0.0139 -0.1693 -0.0096
 2685SOL    HW119691   0.017   1.847   9.111  2.3234 -0.8645 -1.1197
 2685SOL    HW219692   0.053   1.732   9.202  1.1606 -1.8594 -1.3834
 2686SOL     OW19693   3.329   3.875   2.229  0.1134  0.4141 -0.2868
 2686SOL    HW119694   3.250   3.881   2.177 -0.2680 -0.5866  0.1685
 2686SOL    HW219695   3.340   3.958   2.276 -0.3092 -0.3591  1.1793
 2687SOL     OW19696   0.669   1.465   9.789  0.2813 -0.5184  0.4263
 2687SOL    HW119697   0.585   1.495   9.825  0.8747  0.2156  1.2011
 2687SOL    HW219698   0.691   1.533   9.725  1.7514  0.7026  2.2273
 2688SOL     OW19699   3.298   4.309   7.938 -0.0271 -0.6375 -0.3507
 2688SOL    HW119700   3.270   4.349   7.856 -2.2970  1.3560  1.4102
 2688SOL    HW219701   3.378   4.264   7.912 -1.0701 -1.3205 -2.3763
 2689SOL     OW19702   4.154   0.606   4.320 -0.0263  0.2046  0.0181
 2689SOL    HW119703   4.125   0.620   4.410 -0.3641 -0.0464 -0.0520
 2689SOL    HW219704   4.085   0.645   4.267 -0.4474 -0.6002 -0.0211
 2690SOL     OW19705   3.605   3.691   8.965  0.2502  0.1689  0.4333
 2690SOL    HW119706   3.694   3.670   8.940  0.3027  1.3099 -0.3853
 2690SOL    HW219707   3.592   3.639   9.044 -1.2435  1.0429  0.7747
 2691SOL     OW19708   4.720   4.430   5.949 -0.1532  0.1910  0.2721
 2691SOL    HW119709   4.635   4.472   5.935 -1.3337 -1.9016  1.1310
 2691SOL    HW219710   4.711   4.398   6.038  1.5115 -1.3219 -0.1077
 2692SOL     OW19711   0.022   0.154   8.916  0.1188  0.1322  0.0446
 2692SOL    HW119712   4.721   0.068   8.933 -3.2700  1.5127 -0.7999
 2692SOL    HW219713   0.032   0.152   8.821  0.7203  2.1466  0.0732
 2693SOL     OW19714   0.310   4.139   8.844 -0.6251 -0.2801  0.4241
 2693SOL    HW119715   0.371   4.112   8.913 -2.0231 -0.3438  1.6473
 2693SOL    HW219716   0.327   4.083   8.768 -2.3088  1.5988 -1.3234
 2694SOL     OW19717   0.721   3.376   1.598  0.0261 -0.1548  0.4965
 2694SOL    HW119718   0.637   3.393   1.641  0.7845 -1.4830  2.5016
 2694SOL    HW219719   0.743   3.284   1.615 -1.8650 -0.6857  0.1219
 2695SOL     OW19720   4.099   0.375   3.150  0.2575  0.0413 -0.0478
 2695SOL    HW119721   4.089   0.384   3.055 -1.1416 -0.6686  0.0349
 2695SOL    HW219722   4.022   0.425   3.177 -0.3284  0.0271 -1.6887
 2696SOL     OW19723   2.112   0.013   7.214  0.3648 -0.2448  0.1417
 2696SOL    HW119724   2.128   4.704   7.296  2.3203  0.6143  0.2484
 2696SOL    HW219725   2.020   4.727   7.201 -0.1310  1.7360 -0.0527
 2697SOL     OW19726   0.893   2.708   9.330  0.1107  0.1527  0.9302
 2697SOL    HW119727   0.835   2.699   9.255  1.2659  0.6602 -0.0279
 2697SOL    HW219728   0.827   2.719   9.398  0.3324 -1.1690  1.3686
 2698SOL     OW19729   3.901   4.622   6.826  0.3963  0.1552 -0.0118
 2698SOL    HW119730   3.856   4.678   6.889 -0.0539  0.9102 -0.9968
 2698SOL    HW219731   3.983   4.671   6.816  0.6237  0.2300  2.1990
 2699SOL     OW19732   2.571   3.962   4.519 -0.1325  0.5191  0.9127
 2699SOL    HW119733   2.568   4.046   4.564 -1.0255  1.5035 -1.0055
 2699SOL    HW219734   2.478   3.960   4.496 -0.0243  2.4694  0.3155
 2700SOL     OW19735   0.719   2.747   3.740 -0.3338  0.2722  0.6327
 2700SOL    HW119736   0.625   2.759   3.745 -0.0422  2.3683  1.1076
 2700SOL    HW219737   0.724   2.664   3.786 -2.2447  0.5852  1.3858
 2701SOL     OW19738   2.355   3.056   9.552  0.0378 -0.3287 -0.1377
 2701SOL    HW119739   2.334   3.064   9.459  1.0545  1.3079 -0.2263
 2701SOL    HW219740   2.367   3.148   9.578 -0.7314 -0.1045 -0.5561
 2702SOL     OW19741   0.952   2.176   2.963  0.2020 -0.3241  0.1516
 2702SOL    HW119742   0.904   2.126   2.896 -1.0454  3.1599 -1.5984
 2702SOL    HW219743   0.902   2.191   3.043 -0.6121 -0.1710 -0.3849
 2703SOL     OW19744   4.736   3.921  11.562  0.3906 -0.0910  0.4174
 2703SOL    HW119745   4.724   4.015  11.553  3.0340  0.2609  0.7288
 2703SOL    HW219746   0.046   3.893  11.485  0.4839 -0.5446  0.6396
 2704SOL     OW19747   4.491   1.035  16.012  0.0863  0.2499 -0.3054
 2704SOL    HW119748   4.569   1.065  16.058 -0.1477  0.1250  0.1742
 2704SOL    HW219749   4.511   1.043  15.919  0.8007  0.2946 -0.1509
 2705SOL     OW19750   2.967   3.326  13.073  0.6278 -0.0325  0.5191
 2705SOL    HW119751   3.021   3.255  13.038 -0.4227 -0.2639 -0.6274
 2705SOL    HW219752   2.884   3.309  13.028  0.5826 -1.4113  1.1040
 2706SOL     OW19753   2.902   0.260   7.320  0.0985 -0.1627 -0.5347
 2706SOL    HW119754   2.888   0.349   7.287 -0.9664 -0.2579 -0.3332
 2706SOL    HW219755   2.857   0.256   7.404  1.9224 -0.9960  0.4024
 2707SOL     OW19756   4.407   1.784   8.879  0.2241 -0.6736  0.1967
 2707SOL    HW119757   4.372   1.860   8.925 -1.2491 -2.1670  1.5830
 2707SOL    HW219758   4.325   1.758   8.836 -0.5901  1.7035  0.3260
 2708SOL     OW19759   0.574   1.854   7.752  0.2596  0.2801  0.0718
 2708SOL    HW119760   0.499   1.795   7.739 -1.4042  1.9312  2.3159
 2708SOL    HW219761   0.583   1.858   7.847  1.6305 -0.9545 -0.0081
 2709SOL     OW19762   0.367   3.590   2.978  0.1405  0.1241  0.0427
 2709SOL    HW119763   0.405   3.502   2.983 -0.3260 -0.0708  0.2009
 2709SOL    HW219764   0.417   3.642   2.915 -0.4030  0.5668 -0.0202
 2710SOL     OW19765   0.286   0.967   1.394 -0.2266  0.2367 -0.1017
 2710SOL    HW119766   0.231   1.045   1.386 -2.5542 -1.3620  0.0827
 2710SOL    HW219767   0.334   0.982   1.476 -0.1203 -0.2046 -0.0828
 2711SOL     OW19768   1.487   3.263  11.102  0.0980 -0.7308 -0.2178
 2711SOL    HW119769   1.411   3.321  11.107  0.2748 -0.4461 -0.7982
 2711SOL    HW219770   1.467   3.213  11.023 -0.2015  0.0205 -0.6181
 2712SOL     OW19771   0.739   4.104   2.849  0.1919 -0.0778  0.4488
 2712SOL    HW119772   0.748   4.174   2.913 -0.4415  0.4673 -0.0451
 2712SOL    HW219773   0.676   4.150   2.792 -0.3628 -0.2650  0.9042
 2713SOL     OW19774   2.018   1.187   9.469 -0.0052  0.7723 -0.4445
 2713SOL    HW119775   2.016   1.203   9.563 -0.4400 -3.0282  0.2137
 2713SOL    HW219776   1.969   1.258   9.428 -1.2073  0.9722  1.3311
 2714SOL     OW19777   2.175   3.742   0.458 -1.0577 -0.3684  0.0937
 2714SOL    HW119778   2.228   3.662   0.456 -1.6119 -0.7044 -1.6983
 2714SOL    HW219779   2.100   3.728   0.399 -1.2723 -2.7999  0.9126
 2715SOL     OW19780   1.307   2.748  12.287  0.1813  0.9653  0.5155
 2715SOL    HW119781   1.243   2.818  12.276  0.9276  1.4477 -0.6664
 2715SOL    HW219782   1.298   2.714  12.198 -0.1830 -0.5949  1.1425
 2716SOL     OW19783   1.139   1.881  15.062  0.0417  0.4583  0.0510
 2716SOL    HW119784   1.090   1.809  15.103 -0.6992  1.4866  0.9492
 2716SOL    HW219785   1.149   1.935  15.140 -0.4033  0.0374  0.3978
 2717SOL     OW19786   0.425   1.008   2.396 -0.0732 -0.2253 -0.2030
 2717SOL    HW119787   0.380   0.925   2.383  0.4418 -0.4534 -0.5045
 2717SOL    HW219788   0.346   1.059   2.415  1.0079  1.0012  0.9912
 2718SOL     OW19789   0.266   0.525   5.279  0.1991 -0.7726  0.2959
 2718SOL    HW119790   0.244   0.435   5.255  0.1373 -0.7100  0.1113
 2718SOL    HW219791   0.324   0.539   5.205 -0.5428 -0.4147 -0.2283
 2719SOL     OW19792   2.577   0.262  15.930 -0.1898 -0.2152  0.5111
 2719SOL    HW119793   2.534   0.270  16.015  1.5519  0.1687  1.3519
 2719SOL    HW219794   2.627   0.343  15.923 -2.3878  1.2651  2.0506
 2720SOL     OW19795   2.541   1.975  12.655  0.1078 -0.1970  0.0686
 2720SOL    HW119796   2.632   1.974  12.686  1.1077 -1.1125 -2.9514
 2720SOL    HW219797   2.543   1.951  12.563  0.8536 -1.2126  0.3527
 2721SOL     OW19798   2.451   1.455  13.325 -0.1081 -0.5885 -0.3085
 2721SOL    HW119799   2.437   1.526  13.263  2.2947  0.5655  0.4647
 2721SOL    HW219800   2.410   1.488  13.404 -0.5507 -0.1983 -0.7061
 2722SOL     OW19801   2.292   2.195   2.469 -0.0711  0.0991 -0.2891
 2722SOL    HW119802   2.321   2.107   2.492  2.1143  0.6571 -0.9088
 2722SOL    HW219803   2.233   2.213   2.542 -0.3420  0.4348 -0.5922
 2723SOL     OW19804   4.596   3.282   6.633  0.7153 -0.9113  0.7219
 2723SOL    HW119805   4.563   3.334   6.706  1.6222  0.4845  0.1327
 2723SOL    HW219806   4.676   3.329   6.610  1.0153 -0.4474  2.6756
 2724SOL     OW19807   3.895   3.385   6.012  0.1612 -0.2737  0.0818
 2724SOL    HW119808   3.862   3.328   6.081  1.5190  1.0147  1.8001
 2724SOL    HW219809   3.893   3.323   5.939 -1.7641  1.6235 -1.4824
 2725SOL     OW19810   1.763   2.973   2.679  0.7377  0.0736 -0.2317
 2725SOL    HW119811   1.719   2.987   2.595  0.0634  1.3232  0.3303
 2725SOL    HW219812   1.707   2.908   2.723  1.8447  0.8793  2.3798
 2726SOL     OW19813   2.464   2.899   2.110  0.1633 -0.1221 -0.0862
 2726SOL    HW119814   2.413   2.944   2.043  2.2218  2.6051  0.2063
 2726SOL    HW219815   2.537   2.959   2.125 -0.7623  0.2917  2.7729
 2727SOL     OW19816   1.612   4.008  10.467 -0.3751  0.2169 -0.3800
 2727SOL    HW119817   1.565   3.955  10.531  0.7238  0.1852  0.3907
 2727SOL    HW219818   1.683   4.035  10.526 -1.4661 -1.4186  1.6879
 2728SOL     OW19819   1.163   2.974   9.733  0.6140 -0.0919 -0.6653
 2728SOL    HW119820   1.246   2.943   9.698  1.8176  0.7353  1.4172
 2728SOL    HW219821   1.111   2.968   9.653 -0.6592 -1.8456  0.3135
 2729SOL     OW19822   0.769   2.057   3.646 -0.1756  0.2993 -0.5165
 2729SOL    HW119823   0.863   2.076   3.637 -0.4618  1.9298 -0.0848
 2729SOL    HW219824   0.721   2.133   3.613  2.8164  1.9241 -1.1646
 2730SOL     OW19825   3.241   0.971   8.443 -0.2336  0.3852  0.5766
 2730SOL    HW119826   3.166   0.947   8.388  0.5473  0.3787 -0.4668
 2730SOL    HW219827   3.228   0.909   8.515 -1.2335  0.4697  0.4786
 2731SOL     OW19828   4.341   0.603   5.493  0.3973  0.8068  0.5094
 2731SOL    HW119829   4.313   0.563   5.411  0.2951  3.5049 -0.7818
 2731SOL    HW219830   4.262   0.620   5.545  0.0875 -1.0595  0.6232
 2732SOL     OW19831   0.505   4.580   4.289  0.1698  0.5616 -0.1650
 2732SOL    HW119832   0.576   4.582   4.225  0.7157 -0.5424  0.4046
 2732SOL    HW219833   0.556   4.545   4.362 -0.0926 -0.3319 -0.4113
 2733SOL     OW19834   0.007   3.268   3.084 -0.0613  0.0402  0.6889
 2733SOL    HW119835   0.011   3.253   2.989 -0.6124 -0.0322  0.6737
 2733SOL    HW219836   0.011   3.363   3.094  0.1227 -0.0450  1.3798
 2734SOL     OW19837   1.197   0.170   6.462  0.5800 -0.0935  0.3823
 2734SOL    HW119838   1.102   0.163   6.449  0.9587 -1.8750 -1.3879
 2734SOL    HW219839   1.196   0.241   6.527  2.0785 -1.5966  2.0356
 2735SOL     OW19840   2.839   3.692   2.133  0.6796  0.3380  0.2389
 2735SOL    HW119841   2.865   3.622   2.072 -0.2268  0.9113 -0.7921
 2735SOL    HW219842   2.881   3.654   2.211  2.0478  0.0745 -0.6227
 2736SOL     OW19843   4.388   1.481  12.153 -0.7532  0.2876 -0.4431
 2736SOL    HW119844   4.375   1.562  12.103 -0.9952  0.4864 -0.0623
 2736SOL    HW219845   4.326   1.420  12.114 -1.1717  1.0654 -0.9795
 2737SOL     OW19846   1.276   4.156   9.936  0.2716  0.2436  0.2197
 2737SOL    HW119847   1.266   4.162   9.841  1.9553 -0.1629  0.0174
 2737SOL    HW219848   1.323   4.074   9.950 -1.7929 -0.8763  0.5261
 2738SOL     OW19849   1.579   3.121   9.194 -0.0788  0.7738  0.2642
 2738SOL    HW119850   1.658   3.109   9.142 -2.1496 -1.9174 -2.2339
 2738SOL    HW219851   1.543   3.203   9.162 -1.2822 -0.8807 -2.5938
 2739SOL     OW19852   4.605   1.542   4.521  0.2907  0.2511 -0.3138
 2739SOL    HW119853   4.576   1.620   4.473  0.2128  0.3850 -0.0490
 2739SOL    HW219854   4.525   1.501   4.554  0.1946  0.0868 -0.7486
 2740SOL     OW19855   4.654   1.677  14.173  0.6840 -0.4840 -0.0442
 2740SOL    HW119856   4.678   1.756  14.221 -0.9977  1.1521 -1.8362
 2740SOL    HW219857   4.738   1.670  14.127  1.1127  2.5668  0.2561
 2741SOL     OW19858   3.361   3.256  15.569  0.0436  0.4370  0.2404
 2741SOL    HW119859   3.365   3.161  15.562 -0.5675  0.5226 -1.2416
 2741SOL    HW219860   3.271   3.270  15.600  0.5034  1.0839  1.2699
 2742SOL     OW19861   2.079   2.849   1.002 -0.6525 -0.2804 -0.1946
 2742SOL    HW119862   2.054   2.931   0.958  1.1598  1.0202  1.1843
 2742SOL    HW219863   2.148   2.878   1.062  3.0351  1.4008 -5.1936
 2743SOL     OW19864   1.457   2.791  13.581  0.5490  0.4097  0.9674
 2743SOL    HW119865   1.382   2.750  13.537  0.5167  0.1464  1.2691
 2743SOL    HW219866   1.439   2.884  13.567  2.3999  0.8954  1.8460
 2744SOL     OW19867   0.524   3.622  10.298 -0.3448  0.0911 -0.5077
 2744SOL    HW119868   0.601   3.635  10.353 -0.5938  0.7772 -0.3141
 2744SOL    HW219869   0.501   3.531  10.311  0.8722  0.0579  1.2645
 2745SOL     OW19870   3.850   0.793  10.962  0.4903  0.1686  0.4403
 2745SOL    HW119871   3.782   0.813  10.897  0.9085 -0.1728 -0.1012
 2745SOL    HW219872   3.797   0.803  11.041 -0.0701 -1.2627  0.2376
 2746SOL     OW19873   0.239   3.241   5.156 -0.1101 -0.0933  0.3874
 2746SOL    HW119874   0.175   3.310   5.144  0.9333  0.3177 -2.6279
 2746SOL    HW219875   0.290   3.260   5.235 -1.7346  1.5637  1.0101
 2747SOL     OW19876   1.526   0.705   8.593  0.0500  0.0913 -0.0199
 2747SOL    HW119877   1.513   0.626   8.541 -2.1017 -0.2460  1.0397
 2747SOL    HW219878   1.558   0.775   8.535 -0.4844  0.4956  0.1646
 2748SOL     OW19879   2.851   0.735   1.975  0.8597  0.0004  0.5006
 2748SOL    HW119880   2.798   0.763   1.900  2.3691  0.3537 -0.4418
 2748SOL    HW219881   2.870   0.818   2.018 -1.8477 -0.2628  2.1865
 2749SOL     OW19882   1.444   3.517   1.062 -0.5007 -0.2190  0.0935
 2749SOL    HW119883   1.535   3.495   1.082 -0.5779  0.3975  1.1369
 2749SOL    HW219884   1.454   3.612   1.051  0.7585 -0.2786  0.7648
 2750SOL     OW19885   1.614   0.832   5.518  0.5788 -0.2358 -0.5047
 2750SOL    HW119886   1.609   0.842   5.613  0.3270  0.4500 -0.5942
 2750SOL    HW219887   1.561   0.907   5.491  1.3468  0.9985  1.4841
 2751SOL     OW19888   3.021   2.994  14.464 -0.9143 -0.3630  0.2822
 2751SOL    HW119889   2.979   3.074  14.432  0.3244  0.7946  1.5595
 2751SOL    HW219890   3.034   2.963  14.374 -1.1508  0.1293  0.0773
 2752SOL     OW19891   4.529   1.326   5.940 -0.2502 -0.6879 -0.2733
 2752SOL    HW119892   4.617   1.355   5.915 -1.1979  2.7365  0.3569
 2752SOL    HW219893   4.475   1.362   5.869  1.1539  3.5445  0.7807
 2753SOL     OW19894   1.893   3.198   2.882  0.0998 -0.1788  0.2482
 2753SOL    HW119895   1.921   3.133   2.946  1.3038  1.6138  1.5355
 2753SOL    HW219896   1.851   3.150   2.811 -3.0193  0.2206  1.8410
 2754SOL     OW19897   0.113   1.830   3.538 -0.7711 -0.2663  0.2060
 2754SOL    HW119898   0.134   1.737   3.527  1.1878  0.0128  1.5444
 2754SOL    HW219899   0.094   1.828   3.632  1.0946 -1.1066  0.5795
 2755SOL     OW19900   0.941   3.869   7.082 -0.3487  0.2932  0.4859
 2755SOL    HW119901   0.898   3.885   6.999  0.3399 -1.6442 -0.2418
 2755SOL    HW219902   0.931   3.774   7.090 -0.7954  0.3503  0.5690
 2756SOL     OW19903   1.749   1.324   6.806  0.2767 -0.0226 -0.0817
 2756SOL    HW119904   1.738   1.409   6.849  2.3869 -0.4588  1.3171
 2756SOL    HW219905   1.769   1.356   6.718  1.3022  1.4310  0.6819
 2757SOL     OW19906   1.228   0.557   4.673 -0.1485 -0.0556  0.0831
 2757SOL    HW119907   1.147   0.601   4.647  1.2729  2.1948 -0.5450
 2757SOL    HW219908   1.237   0.577   4.766 -0.5890 -1.3799  0.4111
 2758SOL     OW19909   4.555   1.202   4.657 -0.4993 -0.0366 -0.1288
 2758SOL    HW119910   4.547   1.106   4.664 -0.1866 -0.0970 -0.6358
 2758SOL    HW219911   4.464   1.220   4.634  0.0226  0.0319 -2.1010
 2759SOL     OW19912   2.287   1.676  13.238 -0.1528 -0.0561 -0.0306
 2759SOL    HW119913   2.328   1.762  13.249  2.0203 -1.0829 -0.1565
 2759SOL    HW219914   2.228   1.668  13.313  1.3375 -1.3957  0.9880
 2760SOL     OW19915   1.025   0.562  12.738 -0.6295  0.1991  0.1050
 2760SOL    HW119916   1.074   0.596  12.664 -0.4902  0.2330  0.2135
 2760SOL    HW219917   0.949   0.620  12.735 -0.2514  0.7469  1.2455
 2761SOL     OW19918   0.484   0.354  13.806 -0.3773  0.2566  0.2597
 2761SOL    HW119919   0.513   0.263  13.814 -1.6715 -0.3438 -1.7753
 2761SOL    HW219920   0.398   0.342  13.847 -1.4911  1.2170 -1.8091
 2762SOL     OW19921   0.963   2.422   2.570  0.0113  0.3449  0.0579
 2762SOL    HW119922   0.937   2.335   2.598 -0.3536  0.1664 -0.8350
 2762SOL    HW219923   0.884   2.449   2.523 -0.8680  0.6611  1.7407
 2763SOL     OW19924   4.271   2.364  14.819  0.0311 -0.6985 -0.2441
 2763SOL    HW119925   4.231   2.409  14.893 -0.5305  1.0062 -1.5609
 2763SOL    HW219926   4.213   2.394  14.748  0.6103 -0.2023 -0.5103
 2764SOL     OW19927   3.286   2.462   8.617 -0.3662 -0.5015 -0.0753
 2764SOL    HW119928   3.273   2.502   8.703 -1.3688  1.0760 -0.9572
 2764SOL    HW219929   3.340   2.385   8.637 -0.1380 -0.2778  0.1765
 2765SOL     OW19930   2.568   1.395   6.887  0.5456  0.1790  0.4769
 2765SOL    HW119931   2.586   1.301   6.885  0.1202  0.0993  0.4385
 2765SOL    HW219932   2.648   1.435   6.920 -0.0461  1.7895 -0.0438
 2766SOL     OW19933   3.871   0.607   2.953 -0.3543  0.0926 -0.2878
 2766SOL    HW119934   3.925   0.535   2.922 -1.8812  0.2607 -3.3687
 2766SOL    HW219935   3.798   0.558   2.992  1.0527 -2.7600 -1.2577
 2767SOL     OW19936   1.715   4.699   8.668 -0.4325  0.0981  0.9662
 2767SOL    HW119937   1.801   4.716   8.706  1.0299 -0.7400 -2.0211
 2767SOL    HW219938   1.726   0.012   8.588 -2.3848  1.4601  1.5827
 2768SOL     OW19939   1.409   2.213   5.795  0.1291  0.0979  0.3621
 2768SOL    HW119940   1.327   2.168   5.811  0.7060 -1.9800 -2.4615
 2768SOL    HW219941   1.421   2.185   5.704  1.4786 -1.7161  1.0871
 2769SOL     OW19942   0.076   3.878   4.872  0.6090  0.1100  0.2265
 2769SOL    HW119943   0.016   3.898   4.944  1.6828  0.7158  0.9424
 2769SOL    HW219944   0.014   3.904   4.803 -0.9636  0.7332  1.8676
 2770SOL     OW19945   3.638   0.369   8.616  0.1750 -0.1862  0.0326
 2770SOL    HW119946   3.652   0.427   8.541  2.9539  0.8892  1.3630
 2770SOL    HW219947   3.689   0.291   8.596 -1.4678 -1.6529  1.5866
 2771SOL     OW19948   3.502   1.529   3.888  0.1007  0.1529  0.4307
 2771SOL    HW119949   3.486   1.445   3.932 -0.0061  1.1958  2.4080
 2771SOL    HW219950   3.521   1.489   3.804  0.3660  0.0264  0.5516
 2772SOL     OW19951   3.671   1.997   2.492  0.8436  0.4020 -0.2307
 2772SOL    HW119952   3.730   1.986   2.417 -1.3880 -0.8369 -1.8185
 2772SOL    HW219953   3.703   2.079   2.529  2.2732 -0.4009  0.2945
 2773SOL     OW19954   4.198   3.374   5.939 -0.1091  0.2915  0.0364
 2773SOL    HW119955   4.233   3.416   5.861  1.2164  0.8813  0.9482
 2773SOL    HW219956   4.222   3.439   6.005  2.2638  0.8929 -1.4159
 2774SOL     OW19957   1.822   2.635   5.109  0.3903 -0.4160  0.0235
 2774SOL    HW119958   1.912   2.628   5.078  0.7147  0.3357  0.7914
 2774SOL    HW219959   1.813   2.730   5.103 -2.8558 -0.9001 -3.0177
 2775SOL     OW19960   1.992   2.272  10.242 -0.0141 -0.4381  0.4330
 2775SOL    HW119961   2.076   2.281  10.197  0.1537  0.2165  0.8701
 2775SOL    HW219962   2.011   2.251  10.333  0.2294 -0.2380  0.4272
 2776SOL     OW19963   0.195   4.119   1.312  0.0069  0.3836  0.0462
 2776SOL    HW119964   0.149   4.097   1.393  1.4446  0.7119  0.9447
 2776SOL    HW219965   0.203   4.214   1.316  0.2451  0.4978 -3.2124
 2777SOL     OW19966   0.995   1.894   6.125 -0.3023  0.1790 -0.3090
 2777SOL    HW119967   0.932   1.823   6.134 -0.9180  0.8511  0.7177
 2777SOL    HW219968   1.065   1.862   6.181 -0.8907 -1.4270 -0.4856
 2778SOL     OW19969   0.878   3.462   6.206  0.4192 -0.5144 -0.0004
 2778SOL    HW119970   0.797   3.416   6.231  0.9570 -1.9239 -0.8202
 2778SOL    HW219971   0.910   3.388   6.154 -0.8284 -0.0625 -1.4205
 2779SOL     OW19972   4.579   0.777   3.125  0.0493  0.3334 -0.1776
 2779SOL    HW119973   4.579   0.717   3.051 -1.0870  0.3862 -0.2186
 2779SOL    HW219974   4.487   0.780   3.150 -0.1259 -1.1911 -0.6160
 2780SOL     OW19975   0.341   3.109   4.572  0.2301 -0.2205  0.5447
 2780SOL    HW119976   0.247   3.118   4.555  0.1506 -2.3983 -0.1750
 2780SOL    HW219977   0.344   3.138   4.663 -0.9230 -0.5033  0.6672
 2781SOL     OW19978   4.090   3.927   5.598 -0.2342 -0.0199  0.2703
 2781SOL    HW119979   4.010   3.875   5.603  0.0765 -0.2552  2.4762
 2781SOL    HW219980   4.154   3.866   5.635  0.9376  0.6026 -0.6851
 2782SOL     OW19981   2.921   1.351   4.267 -0.3968  0.3043 -0.0687
 2782SOL    HW119982   2.945   1.442   4.248 -0.4763  0.2113 -0.6082
 2782SOL    HW219983   2.862   1.359   4.342  0.6183  0.5845  0.7006
 2783SOL     OW19984   1.862   2.191   1.966 -0.0415 -0.2624 -0.2721
 2783SOL    HW119985   1.905   2.110   1.995 -1.9689 -0.6741  1.3892
 2783SOL    HW219986   1.774   2.162   1.942 -0.0201 -0.1027 -0.5418
 2784SOL     OW19987   3.097   3.518   3.787 -0.5206  0.4785 -0.5335
 2784SOL    HW119988   3.002   3.522   3.776 -0.7287  1.7546  1.7692
 2784SOL    HW219989   3.122   3.442   3.734 -0.9457 -1.1095  1.5854
 2785SOL     OW19990   4.156   3.672   7.127 -0.4593  0.5908 -1.0135
 2785SOL    HW119991   4.141   3.706   7.215 -0.5850 -0.1436 -0.7533
 2785SOL    HW219992   4.249   3.693   7.116  0.0717 -1.0642  0.4389
 2786SOL     OW19993   3.851   1.078   6.179 -0.5704 -0.6451 -0.0743
 2786SOL    HW119994   3.914   1.045   6.243 -0.5972  0.4512  0.5181
 2786SOL    HW219995   3.868   1.171   6.193  2.4283 -0.7702 -2.8289
 2787SOL     OW19996   4.495   0.858   3.851  0.0815  0.5185  0.0290
 2787SOL    HW119997   4.436   0.893   3.784  0.3308  1.0217  0.0706
 2787SOL    HW219998   4.428   0.852   3.919 -0.7278  0.2054 -0.7950
 2788SOL     OW19999   3.807   1.902   0.158 -0.5769 -0.0750 -0.0542
 2788SOL    HW120000   3.894   1.888   0.121  0.6362  0.6669  2.5852
 2788SOL    HW220001   3.813   1.872   0.248 -2.6206  1.6708  0.6574
 2789SOL     OW20002   0.672   3.636  11.922  0.3612 -0.2700  0.3521
 2789SOL    HW120003   0.658   3.668  12.011 -3.1840  0.7566 -0.5857
 2789SOL    HW220004   0.601   3.676  11.873  1.2288  2.0551  1.0222
 2790SOL     OW20005   3.672   1.015   2.000  0.3131 -0.3883 -0.2054
 2790SOL    HW120006   3.747   1.066   2.031 -1.7281  1.1776  2.1394
 2790SOL    HW220007   3.614   1.090   1.988 -0.2413 -0.6454  0.8580
 2791SOL     OW20008   2.182   4.324   4.069  0.0943 -0.4626  0.2850
 2791SOL    HW120009   2.166   4.389   4.001 -0.1807 -0.8412 -0.0133
 2791SOL    HW220010   2.277   4.324   4.077  0.1265  1.0212 -0.1350
 2792SOL     OW20011   0.647   3.645   3.866 -0.1168 -0.0429 -0.1879
 2792SOL    HW120012   0.607   3.558   3.863 -2.5531  1.0948 -0.1231
 2792SOL    HW220013   0.640   3.660   3.960  0.1852 -0.8794 -0.0361
 2793SOL     OW20014   3.286   1.513   8.782 -0.0605  0.3008  0.9958
 2793SOL    HW120015   3.196   1.479   8.784  1.1068 -3.0021 -1.3721
 2793SOL    HW220016   3.284   1.530   8.876 -1.0256  0.7643  0.8962
 2794SOL     OW20017   3.770   2.994   3.105  0.1641  0.0722 -0.4577
 2794SOL    HW120018   3.704   2.995   3.035  0.4993  1.5286 -0.7466
 2794SOL    HW220019   3.719   2.975   3.183  0.9976 -1.6892 -0.3333
 2795SOL     OW20020   1.209   2.901   3.412  0.2604  0.1723  0.1642
 2795SOL    HW120021   1.202   2.935   3.501 -1.5405  0.9936 -0.2984
 2795SOL    HW220022   1.299   2.871   3.424  0.0046 -0.6674 -0.0766
 2796SOL     OW20023   4.603   0.991   8.313  0.0472  0.1585 -0.0156
 2796SOL    HW120024   4.568   1.049   8.381 -2.0389 -1.1732  0.0209
 2796SOL    HW220025   4.662   0.937   8.366 -1.7209 -1.2153  0.5577
 2797SOL     OW20026   0.668   3.032   7.696 -0.1623  0.2659  0.0774
 2797SOL    HW120027   0.668   2.937   7.706 -2.2816  0.2188 -0.3442
 2797SOL    HW220028   0.667   3.042   7.601  2.3448  2.6148  0.3028
 2798SOL     OW20029   3.166   3.277   9.577  0.4483 -0.6740 -0.2220
 2798SOL    HW120030   3.111   3.323   9.515  0.7217 -1.5839 -1.1396
 2798SOL    HW220031   3.247   3.328   9.566 -1.3334  2.3464  0.7362
 2799SOL     OW20032   1.002   2.409   2.255 -0.0250  0.1927 -0.1886
 2799SOL    HW120033   1.040   2.412   2.343  2.9463 -4.5430 -1.3270
 2799SOL    HW220034   1.079   2.389   2.202  0.5551  3.3142 -0.5550
 2800SOL     OW20035   0.501   4.128  16.955 -0.0301 -0.0159  0.4027
 2800SOL    HW120036   0.533   4.045  16.989  0.7205  0.6219  1.2607
 2800SOL    HW220037   0.428   4.144  17.016 -1.8216  0.6081 -1.8870
 2801SOL     OW20038   4.458   4.614  10.247  0.0062  0.0631 -0.2838
 2801SOL    HW120039   4.484   4.694  10.201 -1.2493 -0.6638 -2.2467
 2801SOL    HW220040   4.544   4.572  10.249  0.0351  0.0578 -1.7239
 2802SOL     OW20041   0.885   0.737   5.150  0.6673  0.8058 -0.7204
 2802SOL    HW120042   0.887   0.777   5.237 -0.3314  1.6131 -1.0630
 2802SOL    HW220043   0.799   0.694   5.152  1.0423  0.0926  0.1788
 2803SOL     OW20044   2.959   4.031   7.080  0.2931 -0.3488 -0.2382
 2803SOL    HW120045   2.893   4.101   7.075  0.6772  0.1115  1.2014
 2803SOL    HW220046   3.017   4.050   7.006 -1.4735 -0.1888 -1.5766
 2804SOL     OW20047   3.423   3.661  14.471 -0.0002  0.0682 -0.5568
 2804SOL    HW120048   3.395   3.728  14.533 -1.3009 -2.3179  1.4496
 2804SOL    HW220049   3.391   3.585  14.519  0.2992 -0.3840 -1.0744
 2805SOL     OW20050   2.580   2.056   4.725 -0.0460  0.0725 -0.1586
 2805SOL    HW120051   2.597   1.964   4.704 -1.9224 -0.3132  0.0059
 2805SOL    HW220052   2.650   2.079   4.786 -1.1036  0.8309  0.7713
 2806SOL     OW20053   2.804   1.673   4.012  0.0886 -0.9161 -1.2488
 2806SOL    HW120054   2.742   1.615   4.056  1.2753 -0.7268  0.6501
 2806SOL    HW220055   2.796   1.750   4.069  1.8323 -1.0954 -0.7429
 2807SOL     OW20056   1.285   1.109   7.311 -0.1977 -0.2065  0.0356
 2807SOL    HW120057   1.276   1.119   7.216  1.1967 -2.3382 -0.3352
 2807SOL    HW220058   1.355   1.173   7.319 -0.5197  0.1617 -0.1228
 2808SOL     OW20059   4.592   2.883   8.257  0.1279 -0.0236 -0.1987
 2808SOL    HW120060   4.642   2.817   8.305  1.0098  1.3154  0.7430
 2808SOL    HW220061   4.638   2.886   8.173 -2.0861 -1.5916 -1.4517
 2809SOL     OW20062   0.471   0.166   1.705 -0.3639 -0.2706  0.1124
 2809SOL    HW120063   0.411   0.182   1.632 -0.4413  0.6317  0.3669
 2809SOL    HW220064   0.421   0.094   1.742  2.0348 -1.3373  1.2889
 2810SOL     OW20065   0.116   0.970   5.055  0.7924  0.5872 -0.2551
 2810SOL    HW120066   0.123   0.941   4.964 -1.7256 -0.4235 -0.1247
 2810SOL    HW220067   0.165   0.910   5.111  2.0192  0.6655 -1.2480
 2811SOL     OW20068   1.106   3.255   9.001  0.0237  0.1252 -0.6654
 2811SOL    HW120069   1.079   3.295   9.084  1.3652  1.2709 -0.7743
 2811SOL    HW220070   1.081   3.163   9.010 -0.3471  0.4958  2.2719
 2812SOL     OW20071   1.503   0.830  12.377  0.7190 -0.3552  0.0201
 2812SOL    HW120072   1.437   0.767  12.348  2.3152 -2.9321  1.9115
 2812SOL    HW220073   1.583   0.796  12.337  1.2616  0.5999  0.3018
 2813SOL     OW20074   1.418   1.185   4.970 -0.4005 -0.0932 -0.6988
 2813SOL    HW120075   1.427   1.109   4.913 -1.4101 -0.4999 -0.3153
 2813SOL    HW220076   1.361   1.242   4.917 -0.2789  0.8897  0.2142
 2814SOL     OW20077   3.526   3.912   9.344  0.3274 -0.1641 -0.1125
 2814SOL    HW120078   3.572   3.909   9.260  1.4014  1.3970  0.4272
 2814SOL    HW220079   3.561   3.830   9.381  0.1497 -0.7032 -1.1271
 2815SOL     OW20080   4.164   1.284   5.082 -0.4555  0.1290  0.5221
 2815SOL    HW120081   4.078   1.287   5.123 -0.8916  1.5714 -0.5030
 2815SOL    HW220082   4.207   1.361   5.119  0.7907  0.2716 -1.2233
 2816SOL     OW20083   1.102   4.520   5.134 -0.1215  0.2479 -0.7704
 2816SOL    HW120084   1.072   4.553   5.049  1.5579  0.8278 -1.1403
 2816SOL    HW220085   1.024   4.481   5.173 -1.9857  3.6828 -1.0720
 2817SOL     OW20086   1.140   2.705   0.348 -0.4031  0.6123 -0.3067
 2817SOL    HW120087   1.089   2.752   0.281 -0.2923 -2.0917 -2.2815
 2817SOL    HW220088   1.105   2.616   0.344  0.9527  0.0472  0.5262
 2818SOL     OW20089   0.192   4.178   4.197 -0.7180 -0.3046 -0.1004
 2818SOL    HW120090   0.127   4.139   4.138 -0.7413 -0.0635 -0.2306
 2818SOL    HW220091   0.155   4.157   4.283  0.1488  1.1493  0.6150
 2819SOL     OW20092   1.855   2.634   9.379  0.3155  0.0348  0.4444
 2819SOL    HW120093   1.873   2.607   9.469 -0.8186  0.9814  0.9464
 2819SOL    HW220094   1.824   2.724   9.379  0.8741  0.2315 -0.8121
 2820SOL     OW20095   0.853   4.653   7.390  0.4296 -0.2066  0.2021
 2820SOL    HW120096   0.858   4.557   7.388  1.2097 -0.2167  2.6298
 2820SOL    HW220097   0.760   4.674   7.388  0.1388 -1.7504 -2.0298
 2821SOL     OW20098   3.851   3.419   2.090 -0.2672 -0.3685 -0.0459
 2821SOL    HW120099   3.844   3.336   2.043 -1.4201  1.0461 -2.4059
 2821SOL    HW220100   3.944   3.425   2.110 -0.1339 -0.4332 -0.6410
 2822SOL     OW20101   2.558   4.188   2.194 -0.0951 -0.0838  0.0901
 2822SOL    HW120102   2.580   4.150   2.280 -0.4805 -0.6748 -0.0717
 2822SOL    HW220103   2.471   4.149   2.183 -0.9675  0.9184  3.5115
 2823SOL     OW20104   3.113   0.548   4.647 -0.3896  0.4068  0.0802
 2823SOL    HW120105   3.153   0.482   4.589 -1.4475 -0.8479  0.7675
 2823SOL    HW220106   3.067   0.478   4.693  0.8598  1.5161  3.0040
 2824SOL     OW20107   1.275   2.655   6.309 -0.0805 -0.2364 -0.2493
 2824SOL    HW120108   1.351   2.645   6.251  1.4854  2.8432  1.2794
 2824SOL    HW220109   1.241   2.743   6.291  2.1113  0.5894 -0.3265
 2825SOL     OW20110   0.876   3.332  13.648 -0.5822  0.3439  0.0324
 2825SOL    HW120111   0.860   3.260  13.708  0.1493  0.6253  0.5692
 2825SOL    HW220112   0.929   3.389  13.705  1.5429 -1.5281 -0.0723
 2826SOL     OW20113   2.422   2.796  15.901 -0.5756 -0.1353 -1.0101
 2826SOL    HW120114   2.459   2.775  15.815 -1.0875  0.4249 -1.3693
 2826SOL    HW220115   2.328   2.778  15.888 -0.5730  0.8602 -2.3125
 2827SOL     OW20116   0.907   4.690  14.921 -0.1094  0.2623  0.3353
 2827SOL    HW120117   0.930   4.618  14.979  1.3881 -1.1115 -1.9722
 2827SOL    HW220118   0.853   0.000  14.984 -0.7239 -0.3031  0.2404
 2828SOL     OW20119   0.259   4.048   1.717 -0.3002 -0.4377  0.6044
 2828SOL    HW120120   0.337   4.036   1.771 -0.1286  2.5968  1.0545
 2828SOL    HW220121   0.191   4.042   1.784 -0.0531  2.6482  1.1450
 2829SOL     OW20122   1.836   2.267   2.920  0.2153  0.4291  0.0251
 2829SOL    HW120123   1.816   2.271   3.013 -1.0226  2.6303 -0.3304
 2829SOL    HW220124   1.887   2.348   2.912 -1.7425  1.6629 -0.1023
 2830SOL     OW20125   1.023   0.453   6.374  0.1243 -0.5141  0.1004
 2830SOL    HW120126   0.981   0.386   6.319 -0.4167  0.8838 -1.1852
 2830SOL    HW220127   0.961   0.525   6.373  0.0223 -0.5950  0.6087
 2831SOL     OW20128   3.840   0.528   2.639 -0.8900 -0.1457 -0.6564
 2831SOL    HW120129   3.873   0.456   2.585  2.0058 -1.6523  3.0936
 2831SOL    HW220130   3.788   0.474   2.698 -2.9509  1.2251 -1.2313
 2832SOL     OW20131   0.214   3.171   2.140 -0.2194  0.5417 -0.0943
 2832SOL    HW120132   0.183   3.226   2.212  0.3523  1.9763 -0.9279
 2832SOL    HW220133   0.162   3.092   2.149  0.7695 -0.0422  0.4401
 2833SOL     OW20134   3.360   1.650   4.861 -0.1897  0.1604 -0.1512
 2833SOL    HW120135   3.368   1.559   4.832  1.1284 -0.4912  2.2917
 2833SOL    HW220136   3.427   1.689   4.805 -1.9721 -0.7603 -2.9127
 2834SOL     OW20137   0.105   2.843  13.564  0.2589 -0.1405 -0.1891
 2834SOL    HW120138   0.065   2.861  13.479  0.6489 -1.1824 -0.5935
 2834SOL    HW220139   0.167   2.916  13.564 -1.8847  1.6754  0.8828
 2835SOL     OW20140   2.295   4.210   2.963 -0.5080  0.4129  0.0407
 2835SOL    HW120141   2.297   4.218   3.059 -1.8211 -1.1104  0.2178
 2835SOL    HW220142   2.249   4.288   2.932  0.1596  0.6427 -0.3556
 2836SOL     OW20143   3.712   1.083   6.766 -0.3589 -0.0360 -0.1769
 2836SOL    HW120144   3.691   0.989   6.762 -0.7979  0.1577 -2.2641
 2836SOL    HW220145   3.647   1.111   6.831  1.4422 -0.0824  1.6317
 2837SOL     OW20146   1.236   0.990   3.838 -0.1314  0.3622 -0.1465
 2837SOL    HW120147   1.152   0.996   3.792 -0.1760  1.0257  0.0192
 2837SOL    HW220148   1.231   1.047   3.915  0.1926  1.3791 -0.8867
 2838SOL     OW20149   2.170   3.564   6.368  0.2405  0.5715  0.5620
 2838SOL    HW120150   2.227   3.617   6.424  3.0246 -2.0722  0.2228
 2838SOL    HW220151   2.128   3.511   6.436 -1.0091  1.0711  0.1881
 2839SOL     OW20152   0.976   2.115  11.518  0.2810  0.5141  0.4880
 2839SOL    HW120153   0.892   2.094  11.479 -0.7187 -0.1610  2.9993
 2839SOL    HW220154   0.980   2.210  11.533 -0.3460  0.9751 -2.2733
 2840SOL     OW20155   3.348   1.580  14.443 -0.5524  0.1263  0.2116
 2840SOL    HW120156   3.431   1.577  14.491  0.0044 -1.5375 -0.8563
 2840SOL    HW220157   3.378   1.614  14.358  1.9456  2.3526  1.9830
 2841SOL     OW20158   2.683   3.412   2.878 -0.1694 -0.0444  0.0405
 2841SOL    HW120159   2.774   3.431   2.900  0.0443  0.8449 -1.5835
 2841SOL    HW220160   2.704   3.332   2.830  0.4120  0.2910 -0.2643
 2842SOL     OW20161   3.419   0.633   8.549  0.0834  0.2719  0.5450
 2842SOL    HW120162   3.423   0.720   8.589  1.7819  0.3350  0.2172
 2842SOL    HW220163   3.512   0.618   8.533 -0.3416 -1.6818 -0.1627
 2843SOL     OW20164   0.968   2.708  10.496 -0.5658 -0.0671 -0.3399
 2843SOL    HW120165   0.967   2.612  10.485  1.2193 -0.2928  1.4172
 2843SOL    HW220166   1.053   2.731  10.460 -1.3550  1.6077 -1.1082
 2844SOL     OW20167   0.250   2.136   7.490 -0.2463 -0.3918 -0.3931
 2844SOL    HW120168   0.239   2.108   7.580  2.5432  1.2686  0.4504
 2844SOL    HW220169   0.313   2.074   7.455 -1.7747 -1.6947 -0.8639
 2845SOL     OW20170   0.805   4.283  14.925 -0.2852 -0.7256 -0.0446
 2845SOL    HW120171   0.896   4.280  14.894 -0.7722 -0.1802 -1.4938
 2845SOL    HW220172   0.782   4.366  14.966 -0.9728 -0.6123 -0.6833
 2846SOL     OW20173   3.617   1.316   2.536 -0.0458 -0.0344 -0.1036
 2846SOL    HW120174   3.605   1.411   2.533  0.4167 -0.0292 -2.2741
 2846SOL    HW220175   3.532   1.285   2.506  1.5992 -1.9511 -2.8046
 2847SOL     OW20176   2.839   2.772   5.516  0.2376  0.5038 -0.2044
 2847SOL    HW120177   2.830   2.677   5.505 -1.1770  0.6743 -0.6162
 2847SOL    HW220178   2.755   2.788   5.560  0.5945  0.8260  0.3537
 2848SOL     OW20179   0.753   4.234   1.854  0.0472  0.2726 -0.4940
 2848SOL    HW120180   0.759   4.189   1.938  0.9228  1.2558 -0.0273
 2848SOL    HW220181   0.836   4.281   1.847 -0.4364  1.3620  1.2380
 2849SOL     OW20182   1.321   0.690   7.112  0.2153  0.0385  0.0813
 2849SOL    HW120183   1.270   0.619   7.072 -2.0462  1.6822  0.0879
 2849SOL    HW220184   1.264   0.710   7.186  1.0178  2.0149  0.1542
 2850SOL     OW20185   0.277   2.424  14.151  0.2046 -0.4530 -0.2388
 2850SOL    HW120186   0.264   2.441  14.058  1.4413 -2.1049 -0.7228
 2850SOL    HW220187   0.190   2.406  14.187  0.1760 -0.1630 -0.1634
 2851SOL     OW20188   0.127   0.904   4.073 -0.4996  0.7584  0.5903
 2851SOL    HW120189   0.069   0.866   4.139  0.2821  0.8100  1.3099
 2851SOL    HW220190   0.086   0.875   3.992  1.9904 -0.5521 -0.2066
 2852SOL     OW20191   0.522   3.205   6.601  0.3863 -0.7390 -0.1151
 2852SOL    HW120192   0.545   3.122   6.644  2.0977  0.2655  0.9025
 2852SOL    HW220193   0.605   3.237   6.567  1.6884 -1.7539  2.1204
 2853SOL     OW20194   0.184   1.437   3.998 -0.7083 -0.2773  0.5425
 2853SOL    HW120195   0.154   1.373   4.063  0.1027 -0.4587  0.7288
 2853SOL    HW220196   0.219   1.502   4.058 -2.1813 -1.0902  2.2877
 2854SOL     OW20197   2.347   3.125   7.341 -0.0564 -0.0626  0.0252
 2854SOL    HW120198   2.396   3.207   7.331 -2.2008  1.0389 -1.3578
 2854SOL    HW220199   2.370   3.093   7.254  1.0689 -0.1351  0.3471
 2855SOL     OW20200   2.633   0.791  15.086 -0.0350 -0.0566 -0.4648
 2855SOL    HW120201   2.712   0.828  15.046 -1.2639  1.6093 -1.3866
 2855SOL    HW220202   2.668   0.706  15.109 -0.5379 -0.0284  0.3859
 2856SOL     OW20203   3.815   1.769   3.871 -0.6717  0.4504 -0.0921
 2856SOL    HW120204   3.774   1.773   3.957  2.6791  1.0971  1.4971
 2856SOL    HW220205   3.872   1.698   3.899 -1.5373 -0.4817 -0.7271
 2857SOL     OW20206   4.458   1.968  15.105 -0.3865 -1.0726  0.0542
 2857SOL    HW120207   4.384   1.923  15.145 -0.3465 -3.7286 -2.7994
 2857SOL    HW220208   4.512   1.890  15.092 -0.1570 -1.0245  0.7572
 2858SOL     OW20209   0.002   2.667   0.993  0.8758  0.5280  0.0288
 2858SOL    HW120210   0.035   2.593   1.044  1.3245  3.1579  3.5420
 2858SOL    HW220211   0.035   2.742   1.042 -0.8391  0.0678  1.8699
 2859SOL     OW20212   3.847   0.212   5.990 -0.3206 -0.2072  0.1877
 2859SOL    HW120213   3.780   0.192   6.055  1.2466 -2.3726  1.1615
 2859SOL    HW220214   3.864   0.123   5.958  4.7856  0.3993  1.1319
 2860SOL     OW20215   3.542   3.701   3.793 -0.1144  0.0169  0.2087
 2860SOL    HW120216   3.595   3.730   3.718  2.0582 -0.4817  1.5494
 2860SOL    HW220217   3.613   3.703   3.857  1.1282 -2.1807 -1.1122
 2861SOL     OW20218   4.663   0.601   5.662  0.2799  0.8148 -0.1112
 2861SOL    HW120219   4.738   0.581   5.719  1.2128  0.1419 -1.5587
 2861SOL    HW220220   4.588   0.551   5.693 -0.6501  1.6245 -1.0811
 2862SOL     OW20221   3.215   3.734   1.905  0.7861 -0.0038 -0.0446
 2862SOL    HW120222   3.166   3.775   1.976  3.0230  4.4011 -1.0283
 2862SOL    HW220223   3.304   3.767   1.919 -0.5085  2.2528  2.6878
 2863SOL     OW20224   2.992   1.198  11.595 -0.1215  0.1167  0.3438
 2863SOL    HW120225   3.048   1.237  11.528 -0.7437  0.1181 -0.1705
 2863SOL    HW220226   2.958   1.280  11.631  0.6035  0.0048  1.3067
 2864SOL     OW20227   3.499   4.474   4.863  0.5072 -0.3150  0.9782
 2864SOL    HW120228   3.472   4.565   4.874  0.5769 -0.2401  0.5385
 2864SOL    HW220229   3.520   4.479   4.769 -0.8398  1.5316  0.7772
 2865SOL     OW20230   3.362   1.604  12.565  0.2419  0.0706  0.4198
 2865SOL    HW120231   3.361   1.520  12.520 -2.0700  0.2360  0.1588
 2865SOL    HW220232   3.381   1.586  12.657  0.4463 -0.3091  0.3024
 2866SOL     OW20233   1.706   2.225   6.248 -0.2542  0.2459  0.9392
 2866SOL    HW120234   1.788   2.214   6.200  0.0997  0.8344  1.4100
 2866SOL    HW220235   1.649   2.206   6.173  3.1153  0.9660 -1.8117
 2867SOL     OW20236   2.696   0.726   7.124  0.7811  0.1507 -0.4558
 2867SOL    HW120237   2.645   0.718   7.043 -0.6576 -1.6017  0.6324
 2867SOL    HW220238   2.787   0.732   7.095 -0.0430  1.2962 -2.7889
 2868SOL     OW20239   0.752   4.570  13.137  0.3893 -0.3869  0.0101
 2868SOL    HW120240   0.721   4.598  13.223 -3.2233 -0.4167 -1.3202
 2868SOL    HW220241   0.838   4.541  13.168  0.7669 -0.1375 -0.8205
 2869SOL     OW20242   1.351   4.718   5.659  0.0155  0.8642 -0.2901
 2869SOL    HW120243   1.425   0.005   5.604 -0.8533  0.1535 -1.7846
 2869SOL    HW220244   1.297   4.683   5.588 -0.3576  2.9178 -1.0136
 2870SOL     OW20245   2.605   1.987   3.652 -0.1564  0.0862 -0.0555
 2870SOL    HW120246   2.673   1.990   3.719 -1.1401  1.1177  0.9082
 2870SOL    HW220247   2.605   2.077   3.617  0.2391  0.8596  1.9401
 2871SOL     OW20248   2.248   2.440   4.017  0.3600  0.5368  0.1834
 2871SOL    HW120249   2.311   2.398   3.958  0.5792  1.2679 -0.1028
 2871SOL    HW220250   2.263   2.400   4.102  3.6157  0.6901 -0.3165
 2872SOL     OW20251   2.119   2.389   0.465  0.0634 -0.1988  0.6742
 2872SOL    HW120252   2.142   2.472   0.423  1.0657  0.8226  3.2719
 2872SOL    HW220253   2.096   2.332   0.392 -0.6857  0.5349  0.3329
 2873SOL     OW20254   0.415   4.512   1.442  0.2276 -0.0039 -0.5658
 2873SOL    HW120255   0.344   4.576   1.452  0.0517  0.2180 -3.1590
 2873SOL    HW220256   0.381   4.428   1.471  0.0719  1.0654  2.3558
 2874SOL     OW20257   3.702   1.758   4.119 -0.1247 -0.4370  0.0900
 2874SOL    HW120258   3.609   1.736   4.120  0.5727 -3.4843 -1.5812
 2874SOL    HW220259   3.695   1.839   4.170 -0.3670  0.4220 -1.3125
 2875SOL     OW20260   3.347   4.031   9.722 -0.1482  0.0800  0.3597
 2875SOL    HW120261   3.284   4.013   9.653  0.7378 -0.5831 -0.2859
 2875SOL    HW220262   3.296   4.086   9.781 -1.5999 -0.3765 -0.4740
 2876SOL     OW20263   1.178   3.316   3.368 -0.5384 -0.3247 -0.5383
 2876SOL    HW120264   1.207   3.384   3.307  1.4427  0.1733  0.9578
 2876SOL    HW220265   1.099   3.362   3.396 -1.5494 -1.7907 -1.0241
 2877SOL     OW20266   3.357   3.141   1.431  0.5024  0.4222  0.0222
 2877SOL    HW120267   3.433   3.163   1.485  1.6903  0.4448 -1.6476
 2877SOL    HW220268   3.405   3.103   1.357  3.5323  0.9552  1.7077
 2878SOL     OW20269   0.077   0.536   6.581 -0.0250 -0.2154  0.2748
 2878SOL    HW120270   0.108   0.475   6.648 -0.0138 -0.0503  0.4178
 2878SOL    HW220271   0.030   0.474   6.525 -0.1247 -0.7497  0.9406
 2879SOL     OW20272   0.232   3.002   9.018 -0.1729  0.4147  0.0873
 2879SOL    HW120273   0.149   3.038   8.986 -0.3882 -1.7620 -1.8109
 2879SOL    HW220274   0.288   3.080   9.025  1.9009 -1.3705  3.1858
 2880SOL     OW20275   1.067   0.167   2.965 -0.2979  0.4154  0.5455
 2880SOL    HW120276   1.139   0.134   3.017  0.8943 -0.6171 -1.7542
 2880SOL    HW220277   0.998   0.116   3.007 -2.5591  1.1545 -2.2410
 2881SOL     OW20278   1.148   3.385  17.081  0.5536  0.2874  0.3634
 2881SOL    HW120279   1.199   3.314  17.118  1.2517  0.8954  0.5674
 2881SOL    HW220280   1.098   3.337  17.015  0.6288  1.4222 -0.5294
 2882SOL     OW20281   0.149   3.932   6.093  0.4400  0.4398 -0.2076
 2882SOL    HW120282   0.069   3.916   6.043  0.2288  4.3631 -1.1165
 2882SOL    HW220283   0.128   4.010   6.144 -1.1945 -0.3035  0.2498
 2883SOL     OW20284   1.420   3.038   1.786 -0.1079 -0.2295  0.1451
 2883SOL    HW120285   1.490   3.097   1.759  0.1691 -1.1762 -1.1843
 2883SOL    HW220286   1.347   3.094   1.811 -0.4665  0.1261 -1.7314
 2884SOL     OW20287   1.550   0.187   7.361  0.1077 -0.2651 -0.8177
 2884SOL    HW120288   1.540   0.173   7.267  0.8026  1.3871 -1.1313
 2884SOL    HW220289   1.573   0.280   7.366  3.5469 -1.2860  2.4762
 2885SOL     OW20290   3.342   4.559   1.641  0.5841 -0.0400 -0.0679
 2885SOL    HW120291   3.329   4.604   1.724  2.8067 -2.3365  1.5349
 2885SOL    HW220292   3.335   4.628   1.575  0.9603 -1.3857 -1.5208
 2886SOL     OW20293   0.085   2.945   2.960 -0.0419 -0.3696 -0.0741
 2886SOL    HW120294   0.104   2.951   3.054 -0.6513 -0.0394  0.0233
 2886SOL    HW220295   0.161   2.892   2.935 -0.4274 -0.9401 -0.0369
 2887SOL     OW20296   0.342   2.209   7.799  0.0740  0.9523 -0.2332
 2887SOL    HW120297   0.282   2.275   7.834 -0.1412  1.2211 -1.1212
 2887SOL    HW220298   0.388   2.167   7.872 -0.3561  1.9558  0.6157
 2888SOL     OW20299   0.787   2.919  13.923 -0.1518 -0.3606 -0.2513
 2888SOL    HW120300   0.810   2.826  13.916 -2.0776 -0.7416 -1.5773
 2888SOL    HW220301   0.723   2.912  13.993 -2.9585  0.7921 -2.7222
 2889SOL     OW20302   0.528   1.176   6.868  0.6485 -0.2168 -0.0902
 2889SOL    HW120303   0.439   1.205   6.884  0.6379  0.7812 -1.9401
 2889SOL    HW220304   0.517   1.091   6.911 -2.4378 -0.6309 -1.7279
 2890SOL     OW20305   2.604   1.187   6.233  0.1171 -0.3286 -0.2392
 2890SOL    HW120306   2.519   1.211   6.269  0.7821  1.0449  0.4272
 2890SOL    HW220307   2.593   1.099   6.197 -1.5769  0.5252 -1.8042
 2891SOL     OW20308   1.543   2.490   7.049 -0.0048 -0.4075 -0.0231
 2891SOL    HW120309   1.570   2.442   6.971  0.1814 -0.3858  0.0298
 2891SOL    HW220310   1.571   2.418   7.106 -0.4664  0.6779  1.5697
 2892SOL     OW20311   2.274   3.508   5.752 -0.6937  0.4782  1.0297
 2892SOL    HW120312   2.334   3.526   5.824 -0.3574 -0.1836  0.9113
 2892SOL    HW220313   2.289   3.590   5.706 -0.9468 -1.2668 -2.1394
 2893SOL     OW20314   3.469   0.170  15.553  0.0969  0.1391  0.3114
 2893SOL    HW120315   3.404   0.202  15.491  1.9395 -0.7140 -2.0817
 2893SOL    HW220316   3.525   0.126  15.489 -0.7766  1.0550 -1.0685
 2894SOL     OW20317   4.010   1.077   8.217  0.0622  0.0989 -0.5134
 2894SOL    HW120318   3.978   1.004   8.165  0.5298  0.2910 -1.0758
 2894SOL    HW220319   4.100   1.084   8.184  0.4640 -2.7363 -0.0105
 2895SOL     OW20320   1.666   1.155   8.241 -0.2030 -0.0093 -0.3493
 2895SOL    HW120321   1.593   1.209   8.271 -0.9460 -1.0291 -0.3129
 2895SOL    HW220322   1.634   1.109   8.163  1.3778  0.3324 -1.1958
 2896SOL     OW20323   0.127   3.458  17.510  0.9722  0.2754  0.2950
 2896SOL    HW120324   0.071   3.525  17.471  0.7375 -0.0919 -0.0013
 2896SOL    HW220325   0.185   3.511  17.564  0.1534  1.3443  0.1192
 2897SOL     OW20326   4.279   0.747   3.218  0.6393  0.0220 -0.0695
 2897SOL    HW120327   4.224   0.743   3.141 -0.2256 -0.2338  0.5655
 2897SOL    HW220328   4.230   0.690   3.277 -1.2063  1.1284 -0.5294
 2898SOL     OW20329   3.774   3.188   6.192  0.5546  0.0511  0.2717
 2898SOL    HW120330   3.753   3.101   6.158 -1.0578  0.8074 -0.6540
 2898SOL    HW220331   3.835   3.168   6.263 -0.2924 -2.2779  0.3563
 2899SOL     OW20332   1.869   3.613   6.137 -0.2069 -0.0050  0.3056
 2899SOL    HW120333   1.833   3.659   6.213 -1.1354  1.1722 -0.8364
 2899SOL    HW220334   1.885   3.685   6.076  1.1778  0.4211  1.1818
 2900SOL     OW20335   0.268   4.319   7.471  0.2609 -0.0951  0.3941
 2900SOL    HW120336   0.339   4.380   7.449 -0.7422  1.3362  1.0706
 2900SOL    HW220337   0.194   4.378   7.484 -0.9951 -2.3218  3.2117
 2901SOL     OW20338   3.706   3.047   8.142  0.3881 -0.2951  0.7811
 2901SOL    HW120339   3.722   3.138   8.119 -0.2438  0.3795  2.9814
 2901SOL    HW220340   3.723   3.003   8.059 -1.8699  0.9019 -0.3137
 2902SOL     OW20341   1.485   2.798   3.440 -0.3874 -0.0442 -0.4386
 2902SOL    HW120342   1.549   2.806   3.369  2.1977  0.0532  1.9109
 2902SOL    HW220343   1.489   2.706   3.467  0.5016  0.2171  0.3122
 2903SOL     OW20344   3.057   2.622   6.380  0.0349  0.7166 -0.4671
 2903SOL    HW120345   3.121   2.581   6.321 -1.7274  0.2013 -2.0413
 2903SOL    HW220346   3.119   2.681   6.424 -0.8824 -1.2723  3.4483
 2904SOL     OW20347   1.946   2.418  11.935 -0.6047 -0.1571  0.1588
 2904SOL    HW120348   1.982   2.385  12.018 -0.5581  1.5190  0.8056
 2904SOL    HW220349   1.921   2.508  11.956  0.7698  0.0926  0.7525
 2905SOL     OW20350   3.643   4.393   5.803 -0.5312 -0.1656  0.0207
 2905SOL    HW120351   3.626   4.470   5.857 -0.0071  0.0111 -0.0677
 2905SOL    HW220352   3.603   4.329   5.861 -0.2453  0.3471  0.7766
 2906SOL     OW20353   0.295   2.763   1.761  0.2839 -0.0978  0.3167
 2906SOL    HW120354   0.355   2.798   1.827  0.7137 -2.9235  1.3907
 2906SOL    HW220355   0.329   2.811   1.685  1.0821 -0.9001  0.1700
 2907SOL     OW20356   1.698   2.049   1.646  0.4646  0.1281  0.5543
 2907SOL    HW120357   1.689   2.143   1.637 -1.1267 -0.1100 -0.3954
 2907SOL    HW220358   1.615   2.028   1.688  0.4067 -0.2806  0.2364
 2908SOL     OW20359   0.438   2.756   3.489 -0.0455 -0.6520  0.3690
 2908SOL    HW120360   0.465   2.689   3.552 -1.5722 -0.2523  1.4257
 2908SOL    HW220361   0.432   2.830   3.548  1.2855 -0.6846  0.5489
 2909SOL     OW20362   1.055   2.517  16.549  0.1446  0.1516  0.4743
 2909SOL    HW120363   0.992   2.578  16.511  0.7321  1.2104  1.2303
 2909SOL    HW220364   1.123   2.575  16.582 -0.6462  1.6500 -0.5382
 2910SOL     OW20365   0.708   1.231   0.267  0.8213 -0.8361  0.1300
 2910SOL    HW120366   0.743   1.169   0.202 -0.4040  0.3908 -1.7218
 2910SOL    HW220367   0.621   1.191   0.269  0.8784 -0.8567  2.0212
 2911SOL     OW20368   1.576   0.111   3.459 -0.3552 -0.0069 -0.2327
 2911SOL    HW120369   1.672   0.110   3.469 -0.3334 -0.7867 -0.5391
 2911SOL    HW220370   1.549   0.054   3.530  0.2052 -1.6000 -1.2972
 2912SOL     OW20371   2.740   3.356   6.919 -0.4302 -0.2498 -0.2276
 2912SOL    HW120372   2.796   3.419   6.963  2.2841 -1.2823 -2.1631
 2912SOL    HW220373   2.752   3.280   6.976 -0.6847  1.0570  1.5654
 2913SOL     OW20374   0.652   4.563   7.582 -0.3589  0.1355  0.1014
 2913SOL    HW120375   0.728   4.515   7.614 -0.9843 -0.8527  0.1216
 2913SOL    HW220376   0.673   4.647   7.622 -0.2053  0.1506 -0.0137
 2914SOL     OW20377   3.951   4.590   7.241  0.2340  0.0918 -0.4074
 2914SOL    HW120378   3.918   4.615   7.155  3.7860  1.0445 -1.4469
 2914SOL    HW220379   4.040   4.576   7.210  0.3460  0.4096 -0.2265
 2915SOL     OW20380   2.869   0.270   3.013  0.4392  0.5654  1.0571
 2915SOL    HW120381   2.796   0.322   3.044  0.0243  1.5771 -1.6171
 2915SOL    HW220382   2.870   0.288   2.919 -2.6947 -0.6265  0.8034
 2916SOL     OW20383   3.130   2.035   4.781  0.2828  0.1057 -1.0350
 2916SOL    HW120384   3.120   2.124   4.747  1.5491  0.7123  0.1860
 2916SOL    HW220385   3.126   1.987   4.699 -0.1647 -0.0513 -0.9232
 2917SOL     OW20386   2.745   0.234   8.185  0.0080  0.0940 -0.0998
 2917SOL    HW120387   2.656   0.208   8.211 -0.0750  1.3312  0.8992
 2917SOL    HW220388   2.763   0.303   8.250  1.6347  1.6032 -2.1704
 2918SOL     OW20389   2.797   3.454   8.806 -0.2936 -0.1925  0.1581
 2918SOL    HW120390   2.839   3.416   8.728  0.3424 -1.2291  0.9938
 2918SOL    HW220391   2.869   3.442   8.869 -1.1074 -0.6318  1.0090
 2919SOL     OW20392   2.395   1.295   8.572 -0.6783  0.3760  0.0515
 2919SOL    HW120393   2.302   1.317   8.572 -1.2170 -1.9125  0.6161
 2919SOL    HW220394   2.408   1.302   8.477 -2.2014 -1.0909 -0.2678
 2920SOL     OW20395   3.517   3.012   2.439  0.1699  0.4279  0.1012
 2920SOL    HW120396   3.442   3.044   2.490 -0.3403 -0.5469 -0.0410
 2920SOL    HW220397   3.498   3.038   2.349 -0.5523 -0.9239 -0.1362
 2921SOL     OW20398   2.944   4.519   5.892 -0.5654  0.2197 -0.0292
 2921SOL    HW120399   2.880   4.483   5.831  1.2174  0.6864 -2.1293
 2921SOL    HW220400   2.889   4.583   5.937  0.0003  0.7640 -0.1121
 2922SOL     OW20401   0.215   3.639   4.918  0.0204  0.2128 -0.0944
 2922SOL    HW120402   0.252   3.615   4.833 -0.7932  1.8256 -0.8905
 2922SOL    HW220403   0.184   3.728   4.904  2.2269  1.0848  0.5764
 2923SOL     OW20404   1.945   1.824   9.007  0.5682 -0.0262  0.1812
 2923SOL    HW120405   1.974   1.910   8.977  1.7391 -0.7027 -0.6584
 2923SOL    HW220406   1.990   1.763   8.949  1.2224  1.5651 -0.9871
 2924SOL     OW20407   1.864   1.219   5.329 -0.2103  0.4464  0.1506
 2924SOL    HW120408   1.775   1.187   5.315  0.5667 -1.9650  0.6689
 2924SOL    HW220409   1.854   1.314   5.330 -2.0394  0.2526 -0.2999
 2925SOL     OW20410   2.998   3.898   8.567  0.0221  0.0431  0.1389
 2925SOL    HW120411   3.014   3.854   8.651 -1.0749  0.3261  0.4947
 2925SOL    HW220412   2.909   3.932   8.570 -0.2520 -0.5279 -1.5157
 2926SOL     OW20413   3.215   3.261   4.228 -0.0609  0.0129 -0.0240
 2926SOL    HW120414   3.137   3.254   4.174 -0.1106 -1.4143  0.2232
 2926SOL    HW220415   3.255   3.342   4.199 -0.5153  0.8721  1.7613
 2927SOL     OW20416   0.385   1.199   6.241  0.4119  0.6867 -0.7236
 2927SOL    HW120417   0.392   1.166   6.151 -0.5165  1.6979 -1.1551
 2927SOL    HW220418   0.378   1.294   6.240 -2.5286  0.4503 -0.3377
 2928SOL     OW20419   2.568   0.068   2.690 -0.3263  0.3876 -0.3077
 2928SOL    HW120420   2.477   0.091   2.709  0.4343  1.8156  1.5551
 2928SOL    HW220421   2.607   0.053   2.776 -1.4109  0.2680  0.1520
 2929SOL     OW20422   3.327   3.331   2.706  0.5478  0.0155 -0.4591
 2929SOL    HW120423   3.308   3.255   2.652  3.0038 -1.5292  0.8253
 2929SOL    HW220424   3.376   3.380   2.640 -0.8812  0.0981 -1.4570
 2930SOL     OW20425   1.293   1.378  12.112  0.4157  0.0610 -0.4542
 2930SOL    HW120426   1.333   1.313  12.170  0.2976  0.1466 -0.2752
 2930SOL    HW220427   1.356   1.378  12.040 -0.2144 -0.6762 -1.0098
 2931SOL     OW20428   2.725   0.655   8.801  0.0162  0.1772 -0.1670
 2931SOL    HW120429   2.663   0.614   8.862  0.0409  1.6840  0.8511
 2931SOL    HW220430   2.670   0.645   8.723  1.1855  0.0358 -0.9642
 2932SOL     OW20431   4.692   4.189   5.175  0.1235 -0.0258 -0.3497
 2932SOL    HW120432   4.621   4.191   5.239  1.1688  5.4407  0.5916
 2932SOL    HW220433   0.026   4.226   5.227 -0.4882  1.9748 -0.9465
 2933SOL     OW20434   4.055   4.624   5.533  0.0153 -0.2758 -0.0761
 2933SOL    HW120435   4.057   4.594   5.442  1.8017  1.8125 -0.7354
 2933SOL    HW220436   3.984   4.688   5.524 -0.0147 -0.4249 -0.8988
 2934SOL     OW20437   3.349   1.160   9.019 -0.4532  0.1200  0.3096
 2934SOL    HW120438   3.266   1.207   9.019 -0.5621 -0.0791 -0.7486
 2934SOL    HW220439   3.309   1.077   9.045 -1.1641  0.1545 -0.6826
 2935SOL     OW20440   4.030   3.462   7.605 -0.2727 -0.1863  0.1992
 2935SOL    HW120441   4.117   3.425   7.587  0.0680  0.0667  1.2990
 2935SOL    HW220442   4.057   3.553   7.600 -1.3836  0.1750  0.8386
 2936SOL     OW20443   1.885   3.481   5.498  0.2670  0.3062 -0.3993
 2936SOL    HW120444   1.905   3.492   5.591 -0.3130 -0.8457 -0.1399
 2936SOL    HW220445   1.800   3.524   5.494 -0.1475 -0.6498 -1.9352
 2937SOL     OW20446   0.212   1.685  16.721  0.1855 -0.3090 -0.0648
 2937SOL    HW120447   0.277   1.726  16.777  1.6005  0.0653 -2.0151
 2937SOL    HW220448   0.133   1.738  16.711  1.4158  1.5953  0.2684
 2938SOL     OW20449   0.457   1.195   1.764  0.0071  0.5832  0.3536
 2938SOL    HW120450   0.547   1.187   1.797 -1.2214 -0.4711  3.4615
 2938SOL    HW220451   0.466   1.135   1.690 -1.0622 -0.3941  1.0159
 2939SOL     OW20452   1.483   0.186  12.030  0.4404  0.5861  0.2659
 2939SOL    HW120453   1.469   0.256  11.966  0.4536 -0.6601 -1.0945
 2939SOL    HW220454   1.578   0.179  12.033  0.3461 -0.0636  2.4853
 2940SOL     OW20455   4.145   0.541  14.137 -0.6081 -0.1314  0.0831
 2940SOL    HW120456   4.131   0.555  14.231  1.7267  2.0486  0.1131
 2940SOL    HW220457   4.149   0.446  14.124  0.3621 -0.2440  1.2667
 2941SOL     OW20458   1.888   2.643   8.613  0.0034  0.3133 -0.1525
 2941SOL    HW120459   1.927   2.576   8.558  1.2130  0.8386  0.0786
 2941SOL    HW220460   1.852   2.604   8.693 -0.5466  1.8903  0.3824
 2942SOL     OW20461   0.461   3.971   3.598 -0.2614  0.1098  0.0681
 2942SOL    HW120462   0.408   3.961   3.677 -2.0519 -0.0897 -1.1619
 2942SOL    HW220463   0.400   3.942   3.530 -0.2781  0.4154 -0.0473
 2943SOL     OW20464   4.713   0.135   2.943 -0.2364  0.0719 -0.3975
 2943SOL    HW120465   0.022   0.075   3.000  0.2766  1.5713  0.7456
 2943SOL    HW220466   4.621   0.129   2.968 -0.4044 -1.1852 -1.2853
 2944SOL     OW20467   1.571   1.561   6.625  0.9522  0.2877 -0.0357
 2944SOL    HW120468   1.614   1.595   6.703 -0.6166  1.0541  0.5007
 2944SOL    HW220469   1.585   1.640   6.573  2.3489  1.2571  1.8124
 2945SOL     OW20470   4.260   0.895  13.022  0.2207  0.4310 -0.1344
 2945SOL    HW120471   4.231   0.823  13.077 -1.0419  0.2290 -1.0850
 2945SOL    HW220472   4.326   0.851  12.968 -0.5627 -1.6056  0.5853
 2946SOL     OW20473   1.472   0.745   8.880 -0.7459 -0.3631 -0.5757
 2946SOL    HW120474   1.528   0.702   8.815  0.8282  1.7133 -0.6150
 2946SOL    HW220475   1.421   0.806   8.827  3.0039  0.6981 -2.9434
 2947SOL     OW20476   0.748   4.212   4.552  0.4517 -0.1994 -0.2033
 2947SOL    HW120477   0.722   4.203   4.644 -1.9722  0.7624 -0.8081
 2947SOL    HW220478   0.755   4.118   4.536  2.0414  0.0232 -0.7673
 2948SOL     OW20479   2.813   0.437   8.345 -0.0895  0.0091 -0.3674
 2948SOL    HW120480   2.867   0.480   8.411  0.5360 -0.8579 -0.3175
 2948SOL    HW220481   2.842   0.495   8.275 -2.9585  0.3824 -1.2579
 2949SOL     OW20482   3.855   0.384   4.510  0.4181  0.6423  0.0922
 2949SOL    HW120483   3.826   0.394   4.419 -0.3804  2.0490  0.5011
 2949SOL    HW220484   3.875   0.292   4.495  1.6312  0.6601  1.5610
 2950SOL     OW20485   1.336   1.477   6.495  0.3711  0.5397 -0.3916
 2950SOL    HW120486   1.401   1.509   6.558  0.4254  0.8295 -0.5969
 2950SOL    HW220487   1.282   1.433   6.560  2.2960 -0.3411  0.6024
 2951SOL     OW20488   4.546   2.205  15.005  0.0478  0.0143 -0.1572
 2951SOL    HW120489   4.484   2.273  15.029 -0.1543 -0.6170  1.1132
 2951SOL    HW220490   4.507   2.132  15.054  1.8514 -1.1165 -0.3931
 2952SOL     OW20491   3.232   3.921  12.401  0.3902  0.0109 -0.7126
 2952SOL    HW120492   3.270   3.998  12.358  2.1874 -1.5266 -1.8243
 2952SOL    HW220493   3.161   3.897  12.341 -0.4140  0.8666 -0.1027
 2953SOL     OW20494   2.775   0.259   4.241  0.3641  0.5907 -0.8553
 2953SOL    HW120495   2.760   0.212   4.323 -0.2764  0.1707 -1.2182
 2953SOL    HW220496   2.840   0.197   4.207  0.1164 -0.3027  0.3419
 2954SOL     OW20497   0.810   0.064   3.057  0.0063 -0.9316 -0.2679
 2954SOL    HW120498   0.736   0.063   3.118 -1.0455 -3.0083 -1.5657
 2954SOL    HW220499   0.799   0.156   3.031 -1.2068 -0.7715  0.8017
 2955SOL     OW20500   3.512   2.923   3.166 -0.6087  0.0602  0.5676
 2955SOL    HW120501   3.476   2.900   3.251  1.7762 -0.8403  1.3094
 2955SOL    HW220502   3.447   2.982   3.126 -0.1530  0.0889 -0.1343
 2956SOL     OW20503   2.990   1.196   1.811  0.1818  0.1084  0.6929
 2956SOL    HW120504   2.953   1.130   1.754  1.0791  0.8758 -0.7677
 2956SOL    HW220505   2.915   1.254   1.827 -1.1769 -0.8547 -2.3739
 2957SOL     OW20506   3.563   3.518  15.038  0.2985 -0.3330  0.0803
 2957SOL    HW120507   3.599   3.478  15.117 -1.0240 -0.5306  0.5765
 2957SOL    HW220508   3.612   3.601  15.038  0.2820 -0.3269 -1.2772
 2958SOL     OW20509   4.117   3.039  14.493 -0.2052 -0.3657  0.1829
 2958SOL    HW120510   4.146   3.125  14.524  1.3837 -1.1223  0.7871
 2958SOL    HW220511   4.200   2.993  14.476 -0.3303  0.1107 -1.7387
 2959SOL     OW20512   2.059   4.423   7.679 -0.0347  0.2236  0.3606
 2959SOL    HW120513   2.101   4.370   7.611 -0.7904  0.7448 -0.5091
 2959SOL    HW220514   2.029   4.360   7.744 -2.1354  2.1991  1.3121
 2960SOL     OW20515   2.435   4.529   8.340  0.1384 -0.4272  0.3516
 2960SOL    HW120516   2.527   4.555   8.327 -0.3269  1.2735  0.4422
 2960SOL    HW220517   2.434   4.524   8.435  1.1318  2.3314  0.5172
 2961SOL     OW20518   4.233   0.131  11.811 -0.0290  0.3783 -0.4867
 2961SOL    HW120519   4.205   0.216  11.844 -1.5132 -0.5791  0.7014
 2961SOL    HW220520   4.306   0.153  11.753 -0.2360 -1.8933 -1.6178
 2962SOL     OW20521   1.100   3.579   5.196 -0.4094 -0.1744  0.6138
 2962SOL    HW120522   1.019   3.558   5.149 -1.2748 -2.7750  3.2247
 2962SOL    HW220523   1.116   3.666   5.159 -0.1623  0.2438  1.7045
 2963SOL     OW20524   3.609   2.939  10.479 -0.0305 -0.2981 -0.2944
 2963SOL    HW120525   3.677   2.871  10.484 -0.1557 -0.3924  0.1411
 2963SOL    HW220526   3.635   2.970  10.566 -1.1137  1.1517 -0.4945
 2964SOL     OW20527   0.377   3.673   8.942 -0.5128  0.1718 -0.3734
 2964SOL    HW120528   0.329   3.752   8.918 -0.8875 -0.2262 -0.9230
 2964SOL    HW220529   0.406   3.694   9.032 -0.9414  0.2186 -0.2467
 2965SOL     OW20530   0.385   3.147   3.979 -0.8583  0.0891  0.1083
 2965SOL    HW120531   0.467   3.133   3.932 -1.5299  0.1511 -1.0697
 2965SOL    HW220532   0.322   3.108   3.919  0.3211  1.3418 -1.9411
 2966SOL     OW20533   3.402   0.575   5.739  0.2734 -0.1867 -0.2740
 2966SOL    HW120534   3.325   0.562   5.794  1.4205  0.9914  1.6102
 2966SOL    HW220535   3.380   0.657   5.695  0.9061  0.0482 -0.1490
 2967SOL     OW20536   3.955   2.062   6.512  0.3147 -0.1081  0.0859
 2967SOL    HW120537   3.877   2.106   6.545  0.8970  1.5660 -0.8137
 2967SOL    HW220538   3.915   1.997   6.454 -1.4053  0.6759  0.3960
 2968SOL     OW20539   1.946   0.306   3.178 -0.0163 -0.3551  0.5176
 2968SOL    HW120540   1.982   0.264   3.256  1.0883 -0.2894  0.0292
 2968SOL    HW220541   1.999   0.270   3.108 -1.4273 -4.1453  1.3635
 2969SOL     OW20542   1.246   0.157   3.155 -0.3652 -0.4834  0.0117
 2969SOL    HW120543   1.334   0.177   3.122 -0.8319 -0.6287 -1.3469
 2969SOL    HW220544   1.261   0.124   3.243  2.2279 -0.0565 -0.2655
 2970SOL     OW20545   4.012   4.345   6.594  0.1317  0.0865 -0.0947
 2970SOL    HW120546   3.919   4.355   6.576  0.0986  1.3941  0.8341
 2970SOL    HW220547   4.008   4.375   6.684 -1.0805 -0.3268 -0.0124
 2971SOL     OW20548   4.243   3.213   5.036 -0.6144  1.1624 -0.1322
 2971SOL    HW120549   4.325   3.254   5.008  1.4298 -3.2243 -0.6085
 2971SOL    HW220550   4.222   3.175   4.951 -2.0213 -0.7691  1.0915
 2972SOL     OW20551   2.300   3.383   0.973  0.4494 -0.2356  0.2630
 2972SOL    HW120552   2.287   3.476   0.992  0.8495 -0.3203  0.9973
 2972SOL    HW220553   2.217   3.354   0.937  1.1767  1.0899 -2.4709
 2973SOL     OW20554   2.288   2.857   6.577  0.3740  0.5305 -0.2281
 2973SOL    HW120555   2.244   2.813   6.504  0.6214 -0.3914  0.1793
 2973SOL    HW220556   2.253   2.941   6.547 -0.0600  0.3626 -0.1933
 2974SOL     OW20557   2.118   1.131  16.601 -0.8783  0.6087 -0.2875
 2974SOL    HW120558   2.096   1.211  16.647 -2.6634  0.4780 -0.9336
 2974SOL    HW220559   2.054   1.074  16.644 -0.2293 -0.8682 -1.2396
 2975SOL     OW20560   4.226   3.110   9.827  0.0672  0.1925 -1.0312
 2975SOL    HW120561   4.283   3.140   9.756  0.8484  2.1333  0.4199
 2975SOL    HW220562   4.220   3.014   9.819 -0.2326  0.0288  1.0184
 2976SOL     OW20563   4.378   0.255   2.015  0.1063 -0.2585  0.0085
 2976SOL    HW120564   4.284   0.269   2.001  0.1318 -0.5580 -0.4456
 2976SOL    HW220565   4.418   0.338   1.991 -1.1467 -0.3551 -2.4051
 2977SOL     OW20566   0.761   0.699   4.221 -0.3857  0.1181  0.0001
 2977SOL    HW120567   0.671   0.720   4.196 -1.5952 -1.6559  2.8587
 2977SOL    HW220568   0.752   0.662   4.309  0.5033  0.5537  0.2807
 2978SOL     OW20569   4.403   2.841  10.925 -0.0861 -0.5114  0.0771
 2978SOL    HW120570   4.433   2.906  10.989 -0.8922 -1.5072  1.4471
 2978SOL    HW220571   4.326   2.889  10.896 -0.6317 -1.0975  0.5514
 2979SOL     OW20572   2.483   0.841   8.674  0.4693  0.4664 -0.4421
 2979SOL    HW120573   2.497   0.887   8.757 -0.0964 -0.4546  0.1736
 2979SOL    HW220574   2.522   0.905   8.614 -0.2732 -0.3589 -1.8035
 2980SOL     OW20575   0.144   1.267   4.240  0.2692 -0.3026  0.3213
 2980SOL    HW120576   0.100   1.266   4.325  1.5723 -0.9033  0.9853
 2980SOL    HW220577   0.235   1.251   4.263  0.6728  1.5601  0.0081
 2981SOL     OW20578   1.493   0.671  14.894 -0.2642 -0.3098  0.7191
 2981SOL    HW120579   1.480   0.578  14.876  0.4935 -0.5756  1.4919
 2981SOL    HW220580   1.408   0.691  14.932 -0.2544 -0.2329  0.6999
 2982SOL     OW20581   4.305   1.375   9.277  0.5161 -0.5099  0.0572
 2982SOL    HW120582   4.304   1.459   9.322 -0.4643 -0.3271 -0.3126
 2982SOL    HW220583   4.270   1.314   9.342 -0.8112 -0.1678 -0.3284
 2983SOL     OW20584   2.051   2.392   7.982  0.1229 -0.3735 -0.7482
 2983SOL    HW120585   2.018   2.360   8.066  0.6216  0.0271 -0.3950
 2983SOL    HW220586   2.146   2.398   7.992  0.0465 -1.8711  0.8541
 2984SOL     OW20587   1.987   1.763   8.590  0.0029 -0.4083 -0.7464
 2984SOL    HW120588   2.073   1.722   8.578  0.2010 -0.7400  1.9105
 2984SOL    HW220589   1.968   1.727   8.676  1.9168 -0.2221 -0.2484
 2985SOL     OW20590   3.501   3.993   4.015 -0.5640 -0.2061  0.4241
 2985SOL    HW120591   3.491   4.013   4.108 -0.0998  0.1311  0.4013
 2985SOL    HW220592   3.581   4.041   3.994 -0.3220 -0.6661  0.2956
 2986SOL     OW20593   2.308   3.017  15.045 -0.0514  0.5118  0.3082
 2986SOL    HW120594   2.223   3.040  15.084 -0.3298  0.4816 -0.2862
 2986SOL    HW220595   2.343   3.097  15.005  0.4965 -0.4075 -1.0482
 2987SOL     OW20596   4.596   0.626   0.712 -0.4308 -0.4252  0.5256
 2987SOL    HW120597   4.557   0.603   0.627 -0.7306 -0.9347  0.8019
 2987SOL    HW220598   4.515   0.639   0.761 -1.4639 -1.0121 -1.0129
 2988SOL     OW20599   1.950   2.110   6.497 -0.3518  0.5709 -1.0198
 2988SOL    HW120600   1.895   2.182   6.464 -1.5081  0.5895  0.9222
 2988SOL    HW220601   2.013   2.159   6.548 -1.6461 -1.2913  2.3292
 2989SOL     OW20602   4.407   4.176  16.571 -0.1720  0.2458  0.4831
 2989SOL    HW120603   4.396   4.100  16.628  0.5212 -0.8179 -0.8045
 2989SOL    HW220604   4.322   4.216  16.558 -0.0113  0.6187  0.5895
 2990SOL     OW20605   1.365   1.359   8.751  0.1567  0.1527 -0.5545
 2990SOL    HW120606   1.395   1.300   8.820 -1.7937 -1.8754 -1.4281
 2990SOL    HW220607   1.296   1.312   8.704 -2.0943  2.6118  0.2995
 2991SOL     OW20608   2.976   0.695   6.090  0.4391  0.1242 -0.0841
 2991SOL    HW120609   3.027   0.763   6.047  1.0179 -0.5460 -0.4702
 2991SOL    HW220610   3.024   0.676   6.170  1.4192  0.9515 -0.4744
 2992SOL     OW20611   0.830   4.503  11.426  0.5948  0.2992  0.1390
 2992SOL    HW120612   0.828   4.584  11.375  0.4017  0.6884  0.7594
 2992SOL    HW220613   0.738   4.478  11.415  0.3661  0.4637  1.5739
 2993SOL     OW20614   1.171   0.490   9.865  0.4210 -0.0143  0.0721
 2993SOL    HW120615   1.206   0.402   9.874  0.6523  0.1760  1.0232
 2993SOL    HW220616   1.176   0.519   9.956  0.2950 -0.4187  0.2056
 2994SOL     OW20617   0.174   4.466   1.712 -0.0255 -0.1162 -0.2400
 2994SOL    HW120618   0.117   4.461   1.635 -0.2605  1.4706 -0.1717
 2994SOL    HW220619   0.224   4.384   1.713 -1.6018 -1.0909 -1.8172
 2995SOL     OW20620   4.024   3.126   5.240 -0.5935 -0.3884 -0.3592
 2995SOL    HW120621   4.092   3.133   5.174 -2.0283  0.7136 -1.7255
 2995SOL    HW220622   4.037   3.199   5.300 -1.5674 -0.8514  0.4186
 2996SOL     OW20623   2.003   3.443   9.472 -0.3328  0.1989  0.5719
 2996SOL    HW120624   1.951   3.509   9.426  0.4880  0.2481 -0.2700
 2996SOL    HW220625   1.974   3.471   9.559 -3.4761  0.2784 -0.4766
 2997SOL     OW20626   2.350   4.021   9.206 -0.2749 -0.0806  0.0875
 2997SOL    HW120627   2.282   4.027   9.139  0.9518 -1.7134 -1.2985
 2997SOL    HW220628   2.409   3.954   9.174  1.3369  1.3780  0.0065
 2998SOL     OW20629   2.013   3.795   3.751  0.3826 -0.0599 -0.1886
 2998SOL    HW120630   2.107   3.783   3.739  0.1398 -1.8477 -0.4016
 2998SOL    HW220631   1.993   3.716   3.802 -0.2477  1.2319  1.5438
 2999SOL     OW20632   2.556   0.047   1.187 -0.0142 -0.1385  0.0941
 2999SOL    HW120633   2.558   0.077   1.278 -0.2780  1.1857 -0.3400
 2999SOL    HW220634   2.640   0.002   1.181 -0.0533 -0.3837  1.3737
 3000SOL     OW20635   4.412   3.738   0.082  0.2799 -0.2014 -0.2062
 3000SOL    HW120636   4.506   3.733   0.068  0.2187 -0.8281 -0.3971
 3000SOL    HW220637   4.370   3.652   0.070 -2.8206  1.5006 -1.6213
 3001SOL     OW20638   4.609   0.769   8.162  0.3176  0.3110  0.4743
 3001SOL    HW120639   4.621   0.845   8.219  2.2125  0.6592 -0.3903
 3001SOL    HW220640   4.673   0.785   8.093 -0.5649 -1.3455 -0.7163
 3002SOL     OW20641   1.135   3.509  16.701  0.4589 -0.4283  0.1253
 3002SOL    HW120642   1.148   3.422  16.739  0.5736 -0.4775 -0.0259
 3002SOL    HW220643   1.073   3.484  16.633 -1.5238  1.2264  1.3288
 3003SOL     OW20644   0.673   4.535  17.028 -0.7492  0.2448  0.3317
 3003SOL    HW120645   0.756   4.576  17.003 -0.4804 -0.4448  0.1028
 3003SOL    HW220646   0.619   4.609  17.056  0.3463  1.7807 -1.5940
 3004SOL     OW20647   4.198   4.578   4.714 -0.0917  0.4067  0.2403
 3004SOL    HW120648   4.138   4.594   4.787 -0.1321 -1.9832  0.7395
 3004SOL    HW220649   4.175   4.487   4.696 -0.7763  0.9961 -1.8725
 3005SOL     OW20650   2.803   2.522  13.164  0.5279 -0.2745  0.3985
 3005SOL    HW120651   2.837   2.524  13.253  1.8812  0.8277 -0.1338
 3005SOL    HW220652   2.847   2.447  13.125  0.9521 -0.4400  1.1874
 3006SOL     OW20653   0.414   4.324  17.332  0.0040  0.0653 -0.5172
 3006SOL    HW120654   0.325   4.351  17.358  0.4138  0.6539  0.2653
 3006SOL    HW220655   0.375   4.246  17.292 -1.4760  1.6897 -2.2662
 3007SOL     OW20656   0.775   0.570  14.267 -0.0661 -0.0753  0.0177
 3007SOL    HW120657   0.709   0.572  14.336 -1.5858  2.2856 -1.5112
 3007SOL    HW220658   0.759   0.648  14.214 -1.6318  0.4321  1.2542
 3008SOL     OW20659   1.580   1.005   3.194 -0.3106 -0.0590 -0.2845
 3008SOL    HW120660   1.650   0.941   3.202 -0.7638 -0.6106 -0.6934
 3008SOL    HW220661   1.608   1.068   3.260  0.3021 -1.7966  1.1207
 3009SOL     OW20662   1.880   1.362  17.676  0.1464  0.1809  0.0376
 3009SOL    HW120663   1.894   1.388  17.585  0.9236 -2.6327 -0.6397
 3009SOL    HW220664   1.929   1.433  17.718  0.8448  0.0439 -0.5494
 3010SOL     OW20665   0.661   1.861   2.443  0.2558 -0.3348 -0.1150
 3010SOL    HW120666   0.567   1.844   2.447  1.0641 -4.0556  2.5019
 3010SOL    HW220667   0.691   1.800   2.510  0.8866 -1.5321 -1.4801
 3011SOL     OW20668   2.766   0.765   2.409 -0.0937 -0.9785  0.6570
 3011SOL    HW120669   2.756   0.854   2.374 -0.9760 -0.4797  2.1638
 3011SOL    HW220670   2.779   0.702   2.338  0.2822  0.4278 -0.5242
 3012SOL     OW20671   1.117   2.376   4.317 -0.5151 -0.0600  0.1169
 3012SOL    HW120672   1.207   2.397   4.292  0.3118 -2.0164  1.4960
 3012SOL    HW220673   1.082   2.465   4.321 -3.4710 -1.1446 -2.2133
 3013SOL     OW20674   1.246   4.668   8.290  0.2638 -0.2418  0.3620
 3013SOL    HW120675   1.320   4.725   8.310  1.7810 -1.7686 -0.9604
 3013SOL    HW220676   1.234   4.631   8.377  2.1148  1.0172  1.1674
 3014SOL     OW20677   3.754   2.671   4.012  0.7070  0.2920 -0.3335
 3014SOL    HW120678   3.695   2.595   4.013  0.4557  0.4906 -0.0787
 3014SOL    HW220679   3.838   2.624   4.018  1.2131  1.4283  1.3553
 3015SOL     OW20680   2.032   3.054   2.351 -0.0798  0.0928 -0.0730
 3015SOL    HW120681   2.114   3.020   2.387  0.7551 -0.0865 -2.1295
 3015SOL    HW220682   2.000   2.972   2.313  2.9273 -0.4578 -1.5058
 3016SOL     OW20683   4.286   1.672  11.596 -0.1530  0.2882  0.0457
 3016SOL    HW120684   4.323   1.677  11.508  1.5354  0.2633  0.7616
 3016SOL    HW220685   4.223   1.601  11.588  0.4984 -0.1570 -1.0568
 3017SOL     OW20686   4.329   1.986   4.473  0.7109 -0.1700  0.0188
 3017SOL    HW120687   4.316   2.069   4.519  1.3043 -0.2568  0.3383
 3017SOL    HW220688   4.278   1.928   4.529 -0.3182 -1.1591 -1.9422
 3018SOL     OW20689   4.299   4.196   3.867 -1.2840 -0.1275 -0.1314
 3018SOL    HW120690   4.217   4.219   3.911 -1.3295  1.6708 -1.1666
 3018SOL    HW220691   4.259   4.154   3.792  0.5802 -0.7413 -0.7785
 3019SOL     OW20692   0.607   0.672   2.313  0.3065  0.3713  0.2624
 3019SOL    HW120693   0.595   0.577   2.317  1.0247  0.3450  1.6854
 3019SOL    HW220694   0.554   0.701   2.239 -0.1099 -0.4074  0.2621
 3020SOL     OW20695   0.665   0.452   6.083  0.4246 -0.5823  0.5423
 3020SOL    HW120696   0.642   0.362   6.105 -2.4541  0.5624  2.1220
 3020SOL    HW220697   0.616   0.492   6.154  2.1384  3.9243 -0.8012
 3021SOL     OW20698   3.891   4.528  15.055  0.1637  0.1812 -0.6562
 3021SOL    HW120699   3.937   4.572  15.126  0.3270  0.8529 -1.1768
 3021SOL    HW220700   3.955   4.460  15.037 -0.2085 -0.7854  1.6658
 3022SOL     OW20701   1.454   1.974   7.907 -0.1527 -0.4820 -0.9032
 3022SOL    HW120702   1.377   1.983   7.851  0.2616  1.4683 -1.1610
 3022SOL    HW220703   1.441   1.889   7.948 -0.7663  0.0663  0.0494
 3023SOL     OW20704   0.014   0.587   2.687 -0.0175  0.9385  0.0897
 3023SOL    HW120705   0.052   0.674   2.672 -0.1100  1.2339  1.5433
 3023SOL    HW220706   0.031   0.560   2.777 -1.4591  0.1799  0.1310
 3024SOL     OW20707   3.790   3.346   6.748 -0.1896  0.8105 -0.1328
 3024SOL    HW120708   3.781   3.345   6.843 -1.1047 -0.4694 -0.2221
 3024SOL    HW220709   3.862   3.408   6.741  0.6446  0.0086  1.5763
 3025SOL     OW20710   3.525   0.126   2.537  1.0492  0.0875 -0.4558
 3025SOL    HW120711   3.558   0.037   2.549  2.5346  0.2825 -3.3133
 3025SOL    HW220712   3.497   0.125   2.446 -1.3092 -0.3598  0.2624
 3026SOL     OW20713   0.216   1.721  14.439  0.2666 -0.3088  0.0074
 3026SOL    HW120714   0.260   1.711  14.354  0.1410 -1.0936  0.0396
 3026SOL    HW220715   0.136   1.765  14.408  0.7261  0.4585 -0.1087
 3027SOL     OW20716   4.602   1.016  12.007 -0.0887  0.1632  0.5137
 3027SOL    HW120717   4.535   1.015  12.076  1.0103  0.1186  1.5711
 3027SOL    HW220718   4.684   1.045  12.045 -0.6689 -0.2391  2.0526
 3028SOL     OW20719   2.548   0.427  16.659  0.3330 -0.2761  0.3543
 3028SOL    HW120720   2.590   0.495  16.607 -2.3246 -0.7967 -2.4816
 3028SOL    HW220721   2.477   0.482  16.692  0.8237 -0.1800  1.2443
 3029SOL     OW20722   2.888   1.144   2.481  0.1291 -0.7917  0.2125
 3029SOL    HW120723   2.859   1.220   2.532 -0.1443  0.8828 -2.4376
 3029SOL    HW220724   2.982   1.161   2.486  0.0842 -0.1254 -1.2291
 3030SOL     OW20725   0.504   2.566   0.551  0.3176  0.0249  0.1540
 3030SOL    HW120726   0.559   2.536   0.623  2.3335 -0.2997 -1.5055
 3030SOL    HW220727   0.465   2.487   0.514  2.0163 -1.7169  2.1004
 3031SOL     OW20728   2.511   2.617   4.399  0.2314 -0.2747 -0.0628
 3031SOL    HW120729   2.479   2.544   4.452  0.0425 -0.0259  0.1654
 3031SOL    HW220730   2.517   2.698   4.450 -0.2656  0.6566 -1.4766
 3032SOL     OW20731   0.402   0.201  17.287 -0.0480 -0.0335  0.0455
 3032SOL    HW120732   0.351   0.281  17.301  0.0490  0.3317 -1.6107
 3032SOL    HW220733   0.332   0.137  17.299 -0.2989  0.6493  2.1692
 3033SOL     OW20734   1.841   4.055   5.916  0.1783 -0.5225  0.0026
 3033SOL    HW120735   1.845   4.150   5.901  2.2197 -0.9095 -1.9299
 3033SOL    HW220736   1.925   4.039   5.958  1.4869  0.7689 -2.1099
 3034SOL     OW20737   3.214   3.405   8.507  0.2938  0.2841  0.1015
 3034SOL    HW120738   3.260   3.327   8.538  0.9547  0.7468  0.2756
 3034SOL    HW220739   3.255   3.473   8.560  0.2197 -0.7146  1.4354
 3035SOL     OW20740   0.967   4.167   1.381 -0.8153  0.2715 -0.4300
 3035SOL    HW120741   0.896   4.149   1.443 -2.7731  1.1444 -2.4340
 3035SOL    HW220742   1.011   4.082   1.387 -1.4891  0.0939  2.0935
 3036SOL     OW20743   2.161   0.734   7.379 -0.3588  0.0779 -0.4819
 3036SOL    HW120744   2.089   0.698   7.432  0.3146 -0.1697  0.2809
 3036SOL    HW220745   2.171   0.660   7.319 -0.5987 -1.0839  0.8977
 3037SOL     OW20746   2.826   2.740   6.489 -0.0127  0.2824 -0.4573
 3037SOL    HW120747   2.901   2.709   6.437  1.2907  1.5701  0.6420
 3037SOL    HW220748   2.874   2.763   6.569  1.5647  2.2173 -1.9396
 3038SOL     OW20749   4.078   0.651   7.567  0.4161 -0.0464 -0.1487
 3038SOL    HW120750   4.123   0.567   7.568  3.6280  1.6678 -0.8347
 3038SOL    HW220751   4.115   0.691   7.646 -0.1758  0.7774 -0.2801
 3039SOL     OW20752   1.021   2.921   5.055 -0.2375  0.0239  0.1329
 3039SOL    HW120753   0.967   2.848   5.087  0.2098 -0.9370 -1.3121
 3039SOL    HW220754   0.981   2.937   4.970  0.8528 -2.1412 -0.7950
 3040SOL     OW20755   3.535   3.846  13.125  0.0417 -0.0664 -0.2294
 3040SOL    HW120756   3.488   3.843  13.042  1.6182  0.2045 -1.1200
 3040SOL    HW220757   3.571   3.934  13.128 -1.1756  0.3516  1.9030
 3041SOL     OW20758   0.028   2.912  16.659  0.0540  0.1758  0.4240
 3041SOL    HW120759   4.670   2.910  16.659  0.0788 -0.4290  3.8077
 3041SOL    HW220760   0.067   2.825  16.659 -3.4823 -1.4255 -1.6599
 3042SOL     OW20761   4.465   2.054   5.104  0.2097 -0.5418  0.8795
 3042SOL    HW120762   4.376   2.024   5.083 -0.9238  3.0216  0.5110
 3042SOL    HW220763   4.484   2.004   5.183 -0.9505 -0.8449  0.9771
 3043SOL     OW20764   0.224   0.292  14.203 -0.2062 -0.6807  0.2720
 3043SOL    HW120765   0.183   0.375  14.230  0.3047 -0.0708 -0.8217
 3043SOL    HW220766   0.318   0.306  14.209 -0.1128 -0.8503 -0.7472
 3044SOL     OW20767   0.214   1.380   2.605  0.2906  0.6585 -0.3170
 3044SOL    HW120768   0.208   1.354   2.697  3.7137 -0.2743 -0.3506
 3044SOL    HW220769   0.136   1.341   2.568 -0.4188  0.6813  1.1356
 3045SOL     OW20770   3.089   1.363   7.002 -0.2843 -0.2594  0.0791
 3045SOL    HW120771   3.062   1.352   7.093  0.2259  0.8241  0.3603
 3045SOL    HW220772   3.001   1.388   6.974  0.3024 -0.2756 -1.7931
 3046SOL     OW20773   3.409   3.801   9.818 -0.0599  0.2945  0.3113
 3046SOL    HW120774   3.362   3.735   9.768  0.0912 -1.2626  2.2196
 3046SOL    HW220775   3.382   3.875   9.764 -0.6120  0.4265  0.7646
 3047SOL     OW20776   2.290   2.627  11.338 -0.0577 -0.4328 -0.3050
 3047SOL    HW120777   2.284   2.643  11.433 -1.8953  1.6666 -0.7734
 3047SOL    HW220778   2.261   2.536  11.332 -0.2182 -0.3252 -1.1412
 3048SOL     OW20779   3.715   2.771   9.630  0.2039 -0.2547 -0.0187
 3048SOL    HW120780   3.764   2.814   9.700 -1.4752 -0.3138  1.1800
 3048SOL    HW220781   3.680   2.845   9.580 -0.0303  0.3654  1.0795
 3049SOL     OW20782   4.568   0.069   4.840 -1.1277 -0.3784 -0.0980
 3049SOL    HW120783   4.521   0.094   4.920 -1.5447  0.2636 -0.5417
 3049SOL    HW220784   4.566   0.148   4.786 -0.5320 -1.0945 -1.1671
 3050SOL     OW20785   0.537   2.272   7.196 -0.1122  0.7996  0.4494
 3050SOL    HW120786   0.579   2.222   7.267  0.5578 -1.3088 -1.4498
 3050SOL    HW220787   0.581   2.238   7.118 -1.6335 -0.9261  0.3327
 3051SOL     OW20788   2.183   2.482   7.265  0.4018  0.0182 -0.0444
 3051SOL    HW120789   2.266   2.448   7.299  0.6514 -0.1936 -0.8643
 3051SOL    HW220790   2.159   2.540   7.338  1.3860  0.7853 -0.3189
 3052SOL     OW20791   0.106   0.828   5.929  0.4278  0.8103 -0.1632
 3052SOL    HW120792   0.135   0.737   5.917  1.1949  1.0728 -0.2752
 3052SOL    HW220793   0.021   0.824   5.971  1.0806 -0.4389  1.0445
 3053SOL     OW20794   4.689   0.206   7.325  0.1294 -0.0890  0.0453
 3053SOL    HW120795   4.671   0.114   7.343 -0.1721  0.0076  0.2322
 3053SOL    HW220796   4.659   0.204   7.234  1.7418  1.3009 -0.5316
 3054SOL     OW20797   2.434   4.216   1.929  0.4766  0.1316 -0.7683
 3054SOL    HW120798   2.476   4.158   1.865  4.5423  0.7739  1.3487
 3054SOL    HW220799   2.404   4.155   1.996 -0.1057  0.8683 -0.3584
 3055SOL     OW20800   3.856   3.429   9.172  0.3656 -0.0863  0.2588
 3055SOL    HW120801   3.924   3.486   9.207 -0.2788  0.2282  1.0264
 3055SOL    HW220802   3.855   3.358   9.236  0.8088  0.5159  0.9334
 3056SOL     OW20803   3.940   2.978   6.808  0.1902  0.3728 -0.1360
 3056SOL    HW120804   3.992   2.932   6.742 -0.1080 -1.1734  0.7181
 3056SOL    HW220805   3.855   2.935   6.806  1.1041 -1.3579 -1.3381
 3057SOL     OW20806   4.619   4.661   7.365 -0.0449  0.1277 -0.0668
 3057SOL    HW120807   4.548   4.702   7.315 -0.6818  0.5697  1.1981
 3057SOL    HW220808   4.571   4.609   7.429  1.2296  0.5596  1.2471
 3058SOL     OW20809   0.187   3.012   3.236 -0.4216  0.1153  0.4094
 3058SOL    HW120810   0.279   3.014   3.261  0.1405  2.5175 -1.8812
 3058SOL    HW220811   0.173   3.107   3.230  0.1716  0.1526 -0.3339
 3059SOL     OW20812   4.076   1.074  13.441  0.0165 -0.1638 -0.7564
 3059SOL    HW120813   4.084   1.036  13.529 -1.4768 -0.6740 -0.8401
 3059SOL    HW220814   4.166   1.066  13.410  0.6918 -4.2041  2.2248
 3060SOL     OW20815   2.455   2.999   2.768  0.0435 -0.0895  0.3473
 3060SOL    HW120816   2.368   2.994   2.809  0.2138 -0.9553  0.5934
 3060SOL    HW220817   2.445   2.935   2.698  1.6059 -0.8790  0.8382
 3061SOL     OW20818   0.629   0.271   3.792  0.7780  0.1890 -0.4388
 3061SOL    HW120819   0.713   0.225   3.797  1.1617  0.6194 -2.7602
 3061SOL    HW220820   0.576   0.227   3.858  1.0618  0.5929  0.0593
 3062SOL     OW20821   0.796   3.151   9.507  0.3436 -0.5640 -0.1847
 3062SOL    HW120822   0.795   3.246   9.491 -0.0542 -0.1341  2.3152
 3062SOL    HW220823   0.720   3.120   9.457  0.5461  1.3731 -1.7261
 3063SOL     OW20824   1.428   2.852   7.030 -0.3692  0.9146  0.6107
 3063SOL    HW120825   1.443   2.940   7.066 -0.7065  0.9016  0.7855
 3063SOL    HW220826   1.365   2.869   6.959  1.1645  2.4675 -0.4018
 3064SOL     OW20827   1.025   4.077  15.047  0.6912 -0.4967  0.4408
 3064SOL    HW120828   1.056   4.127  15.122 -0.9880  0.9624  0.1673
 3064SOL    HW220829   1.104   4.042  15.005 -0.4158 -0.3391 -1.7988
 3065SOL     OW20830   1.785   3.584   8.526  0.5588 -0.1564 -0.0230
 3065SOL    HW120831   1.786   3.497   8.565 -2.1841 -0.9417 -1.7475
 3065SOL    HW220832   1.852   3.570   8.459  1.9615  0.3483  1.2839
 3066SOL     OW20833   3.713   3.246  17.636 -0.1938 -0.2573 -0.3340
 3066SOL    HW120834   3.702   3.208  17.548  0.5149  0.1293 -0.5953
 3066SOL    HW220835   3.693   3.163  17.679  1.3096 -0.9208 -0.8955
 3067SOL     OW20836   0.680   0.725   3.366 -0.3527 -0.4073  0.1253
 3067SOL    HW120837   0.669   0.804   3.420 -1.2112 -1.0462  0.8728
 3067SOL    HW220838   0.697   0.767   3.282  0.6584 -0.2764  0.3892
 3068SOL     OW20839   4.258   2.456   8.044 -0.2809  0.1250 -0.2553
 3068SOL    HW120840   4.290   2.534   8.089 -0.8435  0.6902 -0.8458
 3068SOL    HW220841   4.164   2.474   8.048 -0.7863 -2.2254 -1.2452
 3069SOL     OW20842   2.810   1.597   7.353 -0.2111  0.4739 -0.4150
 3069SOL    HW120843   2.837   1.554   7.434 -0.1381  0.2879 -0.5380
 3069SOL    HW220844   2.889   1.647   7.338 -0.6521  0.8266 -1.5753
 3070SOL     OW20845   2.528   1.222   5.606  0.2034 -0.1838  0.7363
 3070SOL    HW120846   2.538   1.144   5.659 -1.0108  0.7770  2.4084
 3070SOL    HW220847   2.452   1.271   5.639  2.1372  2.0196  1.8966
 3071SOL     OW20848   0.318   3.758  10.181 -0.0732 -0.3830  0.0422
 3071SOL    HW120849   0.294   3.685  10.123 -1.7865  0.4657 -0.3274
 3071SOL    HW220850   0.405   3.731  10.210 -0.2567 -0.2951  0.6780
 3072SOL     OW20851   0.991   0.436   2.220  0.3976 -0.2758  0.6148
 3072SOL    HW120852   1.054   0.364   2.227 -0.0527 -0.7139  0.1396
 3072SOL    HW220853   0.974   0.464   2.310  1.1014 -0.6124  0.8536
 3073SOL     OW20854   2.436   0.157   8.403  0.5060 -0.1206 -0.0726
 3073SOL    HW120855   2.504   0.102   8.441  0.9833  0.6062  0.1233
 3073SOL    HW220856   2.410   0.214   8.476 -1.0900  1.0705 -1.5818
 3074SOL     OW20857   1.441   0.133  15.681 -0.3340 -0.5097 -0.2627
 3074SOL    HW120858   1.495   0.081  15.740 -1.6747 -0.6860  0.7980
 3074SOL    HW220859   1.358   0.095  15.708 -0.6630 -1.2385 -2.3082
 3075SOL     OW20860   0.377   4.127   5.007 -0.2508 -0.0141  0.0883
 3075SOL    HW120861   0.432   4.059   5.045 -2.4698 -1.4649  0.7537
 3075SOL    HW220862   0.443   4.196   5.006 -0.6129  0.3417  0.7688
 3076SOL     OW20863   4.254   1.548   1.398 -0.2967  0.1438 -0.7323
 3076SOL    HW120864   4.265   1.593   1.314  0.7396  0.9687 -0.1521
 3076SOL    HW220865   4.227   1.618   1.457  0.1724 -1.2530  1.1249
 3077SOL     OW20866   3.097   1.957  12.267  0.6301  0.3846  0.2384
 3077SOL    HW120867   3.077   2.042  12.307 -1.0008 -0.3927  1.0993
 3077SOL    HW220868   3.165   1.914  12.319 -1.1206 -2.1129  0.4375
 3078SOL     OW20869   1.333   0.585   2.926  0.2113 -0.0130 -0.0346
 3078SOL    HW120870   1.333   0.521   2.997 -0.0822 -0.3016 -0.2956
 3078SOL    HW220871   1.376   0.538   2.855  1.2319  1.2801 -0.2773
 3079SOL     OW20872   1.232   0.350   0.615  0.4575  0.3064 -0.0384
 3079SOL    HW120873   1.217   0.323   0.525  1.1962 -0.3308  0.0247
 3079SOL    HW220874   1.211   0.265   0.654 -1.4348  0.9105  0.2569
 3080SOL     OW20875   0.478   1.685   5.037 -0.0906  0.6687  0.1393
 3080SOL    HW120876   0.481   1.739   4.958 -0.9937  1.2059  0.4717
 3080SOL    HW220877   0.517   1.602   5.010  3.1782  2.1256  0.4439
 3081SOL     OW20878   3.859   1.972   5.599 -0.0021  0.0636 -0.0244
 3081SOL    HW120879   3.833   1.880   5.590 -0.2711  0.1531 -0.1622
 3081SOL    HW220880   3.858   1.972   5.695 -1.1974  1.4286 -0.0323
 3082SOL     OW20881   0.878   3.005   4.828  0.0830  0.4378 -0.4744
 3082SOL    HW120882   0.867   2.969   4.740  2.3375  1.1333 -1.0467
 3082SOL    HW220883   0.823   3.081   4.809 -0.1347 -0.0614 -1.7770
 3083SOL     OW20884   4.068   1.631   3.202 -0.3460  0.1235  0.2194
 3083SOL    HW120885   4.129   1.649   3.274 -1.5458  0.3778  1.1708
 3083SOL    HW220886   4.124   1.638   3.125  0.3224  0.5852  0.7521
 3084SOL     OW20887   0.539   0.536   6.303 -0.0209  0.0140  0.0631
 3084SOL    HW120888   0.484   0.461   6.327  1.3636 -1.2874 -0.8612
 3084SOL    HW220889   0.507   0.595   6.372  0.5158 -1.1352  1.2853
 3085SOL     OW20890   2.922   1.894  13.270  0.1073  0.4082 -0.1049
 3085SOL    HW120891   2.992   1.959  13.264  0.8677 -0.4004  0.0919
 3085SOL    HW220892   2.853   1.953  13.302 -0.7264 -1.7423  2.0440
 3086SOL     OW20893   1.419   3.134  10.889  0.8051  0.5916 -0.2647
 3086SOL    HW120894   1.419   3.041  10.867  3.3975  0.9057 -1.6216
 3086SOL    HW220895   1.344   3.168  10.840 -1.4013 -1.0438  2.0424
 3087SOL     OW20896   0.246   3.502   8.406 -0.8665 -0.7342  0.2010
 3087SOL    HW120897   0.229   3.481   8.314 -0.0217 -0.3534 -0.0407
 3087SOL    HW220898   0.337   3.471   8.411 -0.5751  0.3286  1.3544
 3088SOL     OW20899   2.695   0.873   6.715  0.1163  0.1308  0.0169
 3088SOL    HW120900   2.653   0.904   6.635  1.9827  2.1191 -0.1913
 3088SOL    HW220901   2.615   0.856   6.766  0.5976 -2.1756  0.0032
 3089SOL     OW20902   1.178   3.049   2.106  0.8638  0.5307 -0.1778
 3089SOL    HW120903   1.230   3.058   2.186 -1.1914  0.5582  1.1462
 3089SOL    HW220904   1.215   3.121   2.056  1.5450  0.6106  0.4340
 3090SOL     OW20905   2.733   3.300   1.581  0.6096 -0.3062  0.0395
 3090SOL    HW120906   2.742   3.331   1.671 -0.9299 -1.3267  0.5569
 3090SOL    HW220907   2.774   3.371   1.533 -0.1555  0.6118  0.7493
 3091SOL     OW20908   2.554   1.617   4.621 -0.1508  0.1771 -0.0201
 3091SOL    HW120909   2.510   1.693   4.658 -1.1960  0.4881 -1.8820
 3091SOL    HW220910   2.637   1.628   4.668 -1.6586 -2.2512  3.1732
 3092SOL     OW20911   2.683   2.578   1.630 -0.1347  0.0401 -0.4328
 3092SOL    HW120912   2.693   2.530   1.712  1.5177 -0.7867 -1.1251
 3092SOL    HW220913   2.708   2.505   1.573 -0.3554 -0.0352 -0.4315
 3093SOL     OW20914   2.513   1.052  15.979  0.2233  0.2704  0.1131
 3093SOL    HW120915   2.526   1.121  15.914  0.9563 -0.7501 -0.8156
 3093SOL    HW220916   2.566   0.982  15.942  1.6140  1.4871 -0.1983
 3094SOL     OW20917   1.986   3.718   4.399  0.3552  0.6276 -0.2832
 3094SOL    HW120918   1.915   3.684   4.453 -0.5900  1.7465 -0.8149
 3094SOL    HW220919   1.964   3.810   4.386  1.7653  0.9565 -0.2716
 3095SOL     OW20920   4.299   4.583  12.194  0.3146  0.2191  0.0274
 3095SOL    HW120921   4.372   4.602  12.253 -0.5131 -0.0329  1.1254
 3095SOL    HW220922   4.308   4.654  12.130 -2.1376 -1.7576 -2.5141
 3096SOL     OW20923   2.940   3.580  11.212 -0.0495  0.2769  0.0293
 3096SOL    HW120924   2.990   3.559  11.291 -0.3211  0.0475  0.1425
 3096SOL    HW220925   3.018   3.589  11.157  0.5314 -0.5345  0.7224
 3097SOL     OW20926   0.356   2.853   2.814  0.0590 -0.0769 -0.4523
 3097SOL    HW120927   0.439   2.840   2.858 -0.4909 -2.1766 -0.0148
 3097SOL    HW220928   0.357   2.789   2.742  0.0862 -0.6833  0.0823
 3098SOL     OW20929   2.115   0.298   9.000 -0.0808 -0.3088 -0.1567
 3098SOL    HW120930   2.129   0.388   8.970  0.4469 -0.4134 -0.2120
 3098SOL    HW220931   2.112   0.261   8.912 -3.0948  0.1906 -0.2660
 3099SOL     OW20932   0.799   3.265   6.545  0.5861  0.4523 -0.2305
 3099SOL    HW120933   0.869   3.309   6.498  0.7073 -1.0108 -1.4238
 3099SOL    HW220934   0.863   3.211   6.592 -1.6078 -0.1357  2.0804
 3100SOL     OW20935   1.680   3.590   2.120  0.0861 -0.2245 -0.2835
 3100SOL    HW120936   1.636   3.630   2.195  2.1655 -0.3442  1.0203
 3100SOL    HW220937   1.763   3.562   2.159  1.0364  2.0420 -0.6568
 3101SOL     OW20938   3.653   1.519  10.696 -0.7599 -0.3905 -0.1779
 3101SOL    HW120939   3.703   1.500  10.617 -0.7680  0.0230 -0.2793
 3101SOL    HW220940   3.713   1.517  10.771 -1.0725  0.0259  0.0858
 3102SOL     OW20941   4.365   4.317  16.048  0.2094  0.4490 -0.0898
 3102SOL    HW120942   4.455   4.343  16.028  0.0875  1.9456  1.2673
 3102SOL    HW220943   4.386   4.293  16.139  1.0165 -0.1617 -0.4386
 3103SOL     OW20944   0.058   3.463   5.051  0.3136  0.4801  0.2145
 3103SOL    HW120945   0.116   3.527   5.009  1.2814 -0.2911  0.3893
 3103SOL    HW220946   4.717   3.499   5.010 -0.3301 -1.1783 -0.0032
 3104SOL     OW20947   1.919   3.457   7.365  0.3216 -0.3192 -0.3033
 3104SOL    HW120948   1.831   3.466   7.330  0.6237  0.3587 -0.8786
 3104SOL    HW220949   1.909   3.382   7.424  2.0662 -0.1506  0.2289
 3105SOL     OW20950   3.324   2.852  10.524 -0.1202 -0.0330  0.2157
 3105SOL    HW120951   3.262   2.880  10.457  2.2401  1.1195 -1.4987
 3105SOL    HW220952   3.403   2.902  10.502 -1.1505  0.2497 -2.9399
 3106SOL     OW20953   2.489   0.820  12.979  0.1189  0.1379 -0.1859
 3106SOL    HW120954   2.428   0.763  13.026 -1.1273  1.8123  0.2180
 3106SOL    HW220955   2.483   0.781  12.892  0.9369 -0.3560 -0.0255
 3107SOL     OW20956   0.108   4.164   8.193  0.0700 -0.6406  0.4717
 3107SOL    HW120957   0.102   4.237   8.132 -1.0204 -1.4622 -0.4101
 3107SOL    HW220958   0.017   4.143   8.218  0.1254 -0.4490  0.8381
 3108SOL     OW20959   1.344   3.691   9.351 -0.4027 -0.0283 -0.3422
 3108SOL    HW120960   1.283   3.748   9.398 -1.2710  0.3070 -1.8766
 3108SOL    HW220961   1.410   3.752   9.317  0.0478  0.7954  2.0035
 3109SOL     OW20962   0.109   3.877   7.108 -0.4266  0.1869  0.1585
 3109SOL    HW120963   0.040   3.825   7.149 -0.5032 -0.5020 -0.8282
 3109SOL    HW220964   0.160   3.885   7.188  2.3485 -1.1399 -1.4561
 3110SOL     OW20965   3.995   3.492   0.925 -0.1617  0.0227  0.2321
 3110SOL    HW120966   3.942   3.450   0.857 -1.0572  1.8419 -0.1846
 3110SOL    HW220967   3.939   3.558   0.966 -0.6154 -1.0542  1.3569
 3111SOL     OW20968   1.061   4.061  10.832  0.1806 -0.2006  0.0521
 3111SOL    HW120969   1.084   4.053  10.740  2.3361  2.1795  0.3605
 3111SOL    HW220970   1.105   4.145  10.848 -1.5008  0.7495 -0.3156
 3112SOL     OW20971   1.674   3.850   5.963  0.5879  0.1400 -0.0582
 3112SOL    HW120972   1.619   3.879   6.037 -1.0911 -2.5314 -0.2644
 3112SOL    HW220973   1.710   3.936   5.940  0.4362  0.4684  0.9331
 3113SOL     OW20974   0.199   4.684   0.368  0.4535 -0.0299 -0.3489
 3113SOL    HW120975   0.244   4.616   0.418 -1.2037 -0.2235  0.8874
 3113SOL    HW220976   0.177   0.001   0.443  1.0540  0.1872 -0.3372
 3114SOL     OW20977   1.214   0.907  17.502  0.0769  0.2363  0.1437
 3114SOL    HW120978   1.168   0.948  17.576  0.1369 -1.0282  0.8803
 3114SOL    HW220979   1.139   0.872  17.455  1.4353  0.0103 -1.8268
 3115SOL     OW20980   2.955   3.335  11.083 -0.2306  0.4829 -0.1367
 3115SOL    HW120981   2.961   3.408  11.145 -0.1977 -0.9503  1.5471
 3115SOL    HW220982   2.982   3.270  11.148  1.4122  0.3382 -0.9581
 3116SOL     OW20983   1.104   0.792  14.364  0.3303 -0.0870 -0.1624
 3116SOL    HW120984   1.160   0.770  14.290  2.0349  1.9820  0.5302
 3116SOL    HW220985   1.039   0.847  14.319  0.4496 -2.1946 -2.8896
 3117SOL     OW20986   3.616   0.499   3.087  0.2806 -0.2958 -0.7385
 3117SOL    HW120987   3.526   0.523   3.108  0.3177  0.4745 -1.4400
 3117SOL    HW220988   3.605   0.410   3.054 -0.6600  0.1437 -1.5961
 3118SOL     OW20989   2.867   1.571   5.252 -0.0362  0.4495 -0.1118
 3118SOL    HW120990   2.839   1.480   5.249  0.3176  0.3170  0.6491
 3118SOL    HW220991   2.926   1.573   5.328 -1.8438 -0.5500  1.3235
 3119SOL     OW20992   4.192   4.241   2.682 -0.2768  0.2653 -0.0605
 3119SOL    HW120993   4.189   4.257   2.588 -0.0402  1.5839  0.1462
 3119SOL    HW220994   4.219   4.150   2.688 -1.1631  0.1444  2.0548
 3120SOL     OW20995   2.982   1.661   9.231 -0.0512 -0.4984 -0.4781
 3120SOL    HW120996   2.935   1.744   9.238 -0.7151 -0.5587 -3.8005
 3120SOL    HW220997   3.062   1.688   9.185  0.1361 -1.6526 -0.8369
 3121SOL     OW20998   2.357   0.807   4.906 -0.3505  0.2358 -0.4865
 3121SOL    HW120999   2.295   0.856   4.852 -0.0904 -2.1039 -2.8827
 3121SOL    HW221000   2.438   0.857   4.891 -0.4335  0.9811  1.5209
 3122SOL     OW21001   3.272   2.280   1.517 -0.1443 -0.4543 -0.4288
 3122SOL    HW121002   3.226   2.354   1.477  1.0211  0.0766 -0.7830
 3122SOL    HW221003   3.201   2.249   1.574 -0.1486  3.5345  1.7600
 3123SOL     OW21004   2.322   3.745   9.067  0.0107 -0.4222  0.3968
 3123SOL    HW121005   2.230   3.726   9.048 -0.7991  1.4652  2.3771
 3123SOL    HW221006   2.336   3.816   9.006 -0.3998 -0.7406 -0.0677
 3124SOL     OW21007   3.109   1.421   7.493  0.8249 -0.2604 -0.3088
 3124SOL    HW121008   3.031   1.466   7.526 -0.6293 -0.6915 -3.1903
 3124SOL    HW221009   3.174   1.488   7.474  0.1388 -0.1383 -2.1477
 3125SOL     OW21010   2.893   0.126   7.678 -0.5662 -0.2555  0.0495
 3125SOL    HW121011   2.969   0.093   7.726 -1.1145 -0.2191  0.9483
 3125SOL    HW221012   2.927   0.193   7.619  0.0530 -0.5822  0.0305
 3126SOL     OW21013   1.256   2.254   7.783  0.4768 -0.4801  0.0158
 3126SOL    HW121014   1.344   2.291   7.780  0.4978 -0.5315  0.0131
 3126SOL    HW221015   1.229   2.270   7.692 -2.6831 -1.2139  0.8081
 3127SOL     OW21016   4.252   1.059   9.769 -0.7386 -0.5424 -0.0117
 3127SOL    HW121017   4.230   1.116   9.695  2.1465 -0.0876 -0.5372
 3127SOL    HW221018   4.210   1.108   9.839  0.3147  1.0992 -0.5016
 3128SOL     OW21019   1.942   2.717   2.999  0.2618  0.2952  0.4199
 3128SOL    HW121020   1.853   2.709   2.966  0.1498  0.6125  0.6450
 3128SOL    HW221021   1.968   2.806   2.975  1.4283  0.3308  1.7826
 3129SOL     OW21022   2.398   2.914   6.037  0.1968  0.2077  0.3505
 3129SOL    HW121023   2.406   2.901   6.131  3.3098  0.9664  0.1726
 3129SOL    HW221024   2.458   2.986   6.021  1.9082 -1.0372  1.2381
 3130SOL     OW21025   1.302   4.628   0.601 -0.0089  0.1505 -0.0229
 3130SOL    HW121026   1.257   4.708   0.629  1.6389  0.3478  2.1052
 3130SOL    HW221027   1.230   4.579   0.561  0.6304 -0.5824 -0.2824
 3131SOL     OW21028   0.887   3.565   5.034 -0.4560  0.5404 -0.2894
 3131SOL    HW121029   0.809   3.577   5.088 -0.3993 -1.8044  0.2982
 3131SOL    HW221030   0.878   3.637   4.971  0.4660 -0.2562 -1.3220
 3132SOL     OW21031   3.631   3.136   7.651 -0.4138  0.2231 -0.1881
 3132SOL    HW121032   3.719   3.111   7.678 -0.9569 -0.8631  0.5756
 3132SOL    HW221033   3.624   3.095   7.565  0.3804  1.1163 -0.6789
 3133SOL     OW21034   4.317   2.581   7.725 -0.1449 -0.3973 -0.2764
 3133SOL    HW121035   4.297   2.652   7.785  1.0600  1.2564 -1.8045
 3133SOL    HW221036   4.409   2.601   7.707 -0.1705 -1.1159 -1.2375
 3134SOL     OW21037   2.376   4.263   4.433  0.3221  0.2090  1.0391
 3134SOL    HW121038   2.416   4.207   4.500 -1.1053 -2.8698 -0.6907
 3134SOL    HW221039   2.381   4.353   4.464  0.8576  0.2468  0.8252
 3135SOL     OW21040   2.684   1.703   1.674  0.2844  0.4732  0.4126
 3135SOL    HW121041   2.722   1.720   1.588 -1.4182  2.4463  0.0543
 3135SOL    HW221042   2.655   1.612   1.661  2.4399 -0.2166  0.3374
 3136SOL     OW21043   4.627   0.861   0.038 -0.2893 -0.8524  0.5776
 3136SOL    HW121044   4.669   0.780   0.008  0.9909  0.1918 -0.4544
 3136SOL    HW221045   4.657   0.924  17.723  0.5005 -0.2737  1.5025
 3137SOL     OW21046   1.043   4.120   7.155  0.2045 -0.2570  0.0929
 3137SOL    HW121047   1.101   4.068   7.211  1.5907  1.6456  0.4348
 3137SOL    HW221048   0.998   4.050   7.108  2.0822  0.7314 -3.1219
 3138SOL     OW21049   0.055   0.271   1.026  0.0207 -0.1101  0.0872
 3138SOL    HW121050   0.026   0.201   1.084  1.0221 -1.8366 -1.5074
 3138SOL    HW221051   4.725   0.272   0.959  1.6708 -0.3339 -1.5996
 3139SOL     OW21052   3.483   3.321  12.530 -0.2165 -0.2275 -0.1342
 3139SOL    HW121053   3.423   3.350  12.461  1.4374  1.4120 -0.9009
 3139SOL    HW221054   3.518   3.403  12.566  0.1988 -0.1438 -0.7322
 3140SOL     OW21055   1.079   0.488  17.019  0.1900  0.1433 -1.3773
 3140SOL    HW121056   1.143   0.541  17.067  0.0187 -2.3087  1.5592
 3140SOL    HW221057   1.127   0.494  16.936  2.2600  1.2054 -0.1016
 3141SOL     OW21058   2.435   3.855   3.904 -0.0163 -0.2367  0.0653
 3141SOL    HW121059   2.492   3.809   3.964  2.1688  0.5684 -1.3924
 3141SOL    HW221060   2.390   3.914   3.965 -0.7007 -1.2855  0.5798
 3142SOL     OW21061   1.339   1.918   2.126 -0.5838 -0.2260 -0.5868
 3142SOL    HW121062   1.264   1.963   2.165  0.4873  0.1912  0.9992
 3142SOL    HW221063   1.365   1.985   2.062 -0.0963  0.2892  0.1448
 3143SOL     OW21064   2.733   3.067   8.810 -0.0040 -0.3366  0.2532
 3143SOL    HW121065   2.730   3.026   8.724  1.0712  1.1818 -0.5222
 3143SOL    HW221066   2.826   3.048   8.820  0.4921  0.9899 -1.7941
 3144SOL     OW21067   0.581   2.874   0.204  0.0967  0.3260  0.3306
 3144SOL    HW121068   0.542   2.957   0.176  1.3178  0.6294 -0.4685
 3144SOL    HW221069   0.611   2.844   0.119 -0.6934  2.5034 -0.7127
 3145SOL     OW21070   1.811   3.446  17.696  0.1118  0.2980  0.2402
 3145SOL    HW121071   1.791   3.367  17.645 -0.4172 -0.2125  1.2388
 3145SOL    HW221072   1.840   3.508  17.630  0.6097  0.4645  0.6140
 3146SOL     OW21073   3.619   4.211  12.148 -0.1623  0.2125 -0.4638
 3146SOL    HW121074   3.621   4.304  12.170  0.9428 -0.0406  0.5172
 3146SOL    HW221075   3.712   4.193  12.139  0.4475  3.4164 -0.3206
 3147SOL     OW21076   4.665   2.213  17.538  0.2982  0.0092 -0.1632
 3147SOL    HW121077   4.636   2.261  17.615 -0.5439  1.6635 -1.5028
 3147SOL    HW221078   4.584   2.173  17.505  1.7447 -3.4500  0.3949
 3148SOL     OW21079   2.946   4.302   8.777 -0.1805  0.2482 -0.3830
 3148SOL    HW121080   2.973   4.382   8.822 -0.3258  0.4195 -0.6052
 3148SOL    HW221081   2.958   4.327   8.685 -0.3909 -0.4220 -0.5942
 3149SOL     OW21082   2.290   2.169   7.502  0.0742 -0.1286 -0.1668
 3149SOL    HW121083   2.211   2.120   7.480  0.3016 -0.6951  0.2736
 3149SOL    HW221084   2.346   2.173   7.424 -1.3307  0.0700 -1.1664
 3150SOL     OW21085   0.097   0.685   0.599  0.0217  0.6757  0.1840
 3150SOL    HW121086   0.015   0.678   0.649 -0.0990 -1.9505 -0.3743
 3150SOL    HW221087   0.138   0.609   0.639  1.0670  0.3116 -1.5878
 3151SOL     OW21088   3.508   0.547   6.422  0.5438 -0.3149 -0.1788
 3151SOL    HW121089   3.584   0.507   6.464  0.7454 -1.2882 -1.4581
 3151SOL    HW221090   3.435   0.529   6.480  0.7870 -1.5118 -0.2451
 3152SOL     OW21091   1.197   1.674  13.585 -0.1234  0.2941  0.1741
 3152SOL    HW121092   1.160   1.594  13.623 -0.7770  0.7602  0.5215
 3152SOL    HW221093   1.177   1.683  13.492 -0.6689 -0.9608  0.1728
 3153SOL     OW21094   0.576   0.064   3.209  0.1569  0.4559 -0.2370
 3153SOL    HW121095   0.600   0.020   3.290 -1.0880 -0.0540 -0.1394
 3153SOL    HW221096   0.545   4.725   3.161 -0.8665  0.1429  0.9410
 3154SOL     OW21097   2.704   3.924   7.217  0.3523 -0.7319  0.8782
 3154SOL    HW121098   2.657   3.875   7.149  0.3978  0.9728 -0.3801
 3154SOL    HW221099   2.712   4.013   7.183  0.6920 -0.4449  1.7229
 3155SOL     OW21100   3.838   0.074   2.786 -0.2106  0.2961  0.8334
 3155SOL    HW121101   3.797   4.732   2.819 -1.2767  0.9236  1.0338
 3155SOL    HW221102   3.848   0.055   2.693 -0.2217  0.7922  0.7301
 3156SOL     OW21103   3.673   4.544  10.710 -0.0471 -0.3577 -0.2390
 3156SOL    HW121104   3.670   4.590  10.626  2.1202 -0.8739 -0.5969
 3156SOL    HW221105   3.591   4.586  10.738 -0.4808 -0.9196 -0.6641
 3157SOL     OW21106   3.337   4.197   5.831  0.1604  0.4400 -0.1843
 3157SOL    HW121107   3.377   4.150   5.903  0.3013  0.0101 -0.5443
 3157SOL    HW221108   3.321   4.283   5.870 -1.9200  0.0805 -0.2107
 3158SOL     OW21109   3.727   3.694  16.688  0.3833  0.4519  0.7500
 3158SOL    HW121110   3.774   3.778  16.694 -0.0896  0.7069  0.8717
 3158SOL    HW221111   3.653   3.702  16.748 -0.4148  1.6494 -0.3938
 3159SOL     OW21112   2.398   0.927   6.842 -0.2973  0.5748 -0.2887
 3159SOL    HW121113   2.365   0.861   6.903 -1.6839  1.7958  0.2415
 3159SOL    HW221114   2.339   0.911   6.768 -0.9208 -0.1957  0.3725
 3160SOL     OW21115   3.326   1.283   7.301 -0.2326  0.5126  0.4523
 3160SOL    HW121116   3.253   1.284   7.363  0.0182 -0.7883  0.7715
 3160SOL    HW221117   3.302   1.353   7.241 -1.3946  0.9422  1.4251
 3161SOL     OW21118   3.626   3.466   9.619  0.1551 -0.6888 -0.1897
 3161SOL    HW121119   3.675   3.389   9.591  1.9345  0.9140 -1.4755
 3161SOL    HW221120   3.682   3.494   9.692 -0.2232  2.0618 -0.9571
 3162SOL     OW21121   4.587   2.081   4.073 -0.5550 -0.5399 -0.1458
 3162SOL    HW121122   4.613   2.173   4.059  0.2825 -0.6581  0.6327
 3162SOL    HW221123   4.608   2.046   3.986  1.3690  1.9446 -0.6976
 3163SOL     OW21124   2.731   1.392   2.870 -0.1499 -0.6937 -0.2717
 3163SOL    HW121125   2.693   1.335   2.937 -1.6344 -0.9412 -1.3261
 3163SOL    HW221126   2.721   1.483   2.899  1.4994  0.2090 -2.5306
 3164SOL     OW21127   0.098   4.730   4.594 -0.0277  0.3509 -0.2525
 3164SOL    HW121128   0.126   4.664   4.531  1.6551  1.1381 -0.3325
 3164SOL    HW221129   0.006   4.704   4.600 -0.1126  0.4433 -1.1995
 3165SOL     OW21130   1.095   2.564   2.789 -0.0589  0.0686 -0.3408
 3165SOL    HW121131   1.099   2.659   2.774  0.4227  0.4083  1.8729
 3165SOL    HW221132   1.060   2.536   2.705  0.2454 -1.0081 -0.1007
 3166SOL     OW21133   2.053   4.610   5.378  0.3182 -0.0752 -0.1542
 3166SOL    HW121134   2.086   4.522   5.358  0.6524  0.5964 -2.5514
 3166SOL    HW221135   2.125   4.651   5.425 -0.1320 -1.0769  1.3958
 3167SOL     OW21136   3.128   3.341   7.281 -0.6723 -0.0278  0.4038
 3167SOL    HW121137   3.185   3.306   7.350  1.5404  2.0625 -0.3571
 3167SOL    HW221138   3.159   3.431   7.275 -1.0839  0.2721  2.6577
 3168SOL     OW21139   2.118   1.215  16.346 -0.1585  0.0268  0.4691
 3168SOL    HW121140   2.040   1.258  16.311  0.1072  0.9421  0.9981
 3168SOL    HW221141   2.103   1.172  16.431  1.4062 -1.7325 -0.1264
 3169SOL     OW21142   1.345   4.369   9.596 -0.1216 -0.1464  0.0004
 3169SOL    HW121143   1.306   4.407   9.675  2.0123 -0.7396  1.3400
 3169SOL    HW221144   1.435   4.398   9.612  0.0161 -0.8569  0.4933
 3170SOL     OW21145   1.571   0.969   8.063 -0.4014 -0.4333 -0.6709
 3170SOL    HW121146   1.520   1.002   7.989  2.3453  0.3033 -2.2347
 3170SOL    HW221147   1.635   0.917   8.014  1.0018 -1.4370  2.2591
 3171SOL     OW21148   4.461   4.536   3.050 -0.0947  0.2665  0.2860
 3171SOL    HW121149   4.406   4.489   2.987  0.5655 -1.0669  0.6946
 3171SOL    HW221150   4.419   4.621   3.059  1.0453  0.8594  0.0292
 3172SOL     OW21151   4.125   1.684   6.126  0.1436  0.6362  0.3808
 3172SOL    HW121152   4.158   1.723   6.207  0.6992  0.0357  0.4399
 3172SOL    HW221153   4.206   1.649   6.090  0.0402  2.1571 -1.2994
 3173SOL     OW21154   3.084   2.819  14.950 -0.3073 -0.2382  0.2196
 3173SOL    HW121155   3.051   2.729  14.946  0.7323 -0.6992  2.5669
 3173SOL    HW221156   3.145   2.831  14.877 -0.9498  0.6982 -0.1679
 3174SOL     OW21157   0.530   0.337   8.052 -0.2471  0.1400  0.6255
 3174SOL    HW121158   0.459   0.304   7.997 -1.5824  0.0376  2.4167
 3174SOL    HW221159   0.516   0.298   8.138 -0.6215 -0.7302  0.1705
 3175SOL     OW21160   4.594   1.590   2.129 -0.0845 -0.1791 -0.0849
 3175SOL    HW121161   4.656   1.663   2.130  1.1253 -1.2153  1.1827
 3175SOL    HW221162   4.580   1.571   2.222  0.7491  3.7333  0.8360
 3176SOL     OW21163   1.861   1.227   5.979  0.4126  0.4335  0.4342
 3176SOL    HW121164   1.773   1.261   5.998 -0.4277  0.6121 -3.8492
 3176SOL    HW221165   1.906   1.299   5.936  0.7881 -1.3161 -2.0775
 3177SOL     OW21166   0.911   2.893   8.029 -0.1985  0.1485  0.1013
 3177SOL    HW121167   0.920   2.922   8.120 -0.4931  2.5700 -0.6411
 3177SOL    HW221168   1.006   2.897   8.016 -0.4508  2.4728 -1.1101
 3178SOL     OW21169   0.151   2.839   3.635 -0.2426 -0.3508  0.3386
 3178SOL    HW121170   0.116   2.777   3.571  1.0832 -1.8968  1.1192
 3178SOL    HW221171   0.224   2.867   3.579 -0.4223 -1.3977 -0.4073
 3179SOL     OW21172   2.155   3.986   8.960  0.4849  0.4884 -0.0637
 3179SOL    HW121173   2.138   4.064   9.012  1.2848 -0.5455  1.7730
 3179SOL    HW221174   2.075   3.971   8.910  0.0081  1.5089  0.3976
 3180SOL     OW21175   2.625   1.479   6.011  0.1446 -0.3393  0.3467
 3180SOL    HW121176   2.538   1.519   6.019 -0.6759 -1.2078 -4.3658
 3180SOL    HW221177   2.653   1.539   5.943 -1.1359  1.6593  1.5755
 3181SOL     OW21178   4.059   0.658   9.338  0.3866 -0.0981  0.3809
 3181SOL    HW121179   4.078   0.695   9.252 -0.8512 -1.0890 -0.3049
 3181SOL    HW221180   3.965   0.643   9.327  0.6331 -0.9417 -0.4449
 3182SOL     OW21181   0.603   3.135   1.919  0.5086 -0.0351 -0.3545
 3182SOL    HW121182   0.627   3.224   1.945 -0.9742 -0.2876  1.8746
 3182SOL    HW221183   0.679   3.101   1.873  1.4413 -0.1853  1.2857
 3183SOL     OW21184   0.520   4.406   7.018  0.2807  0.3420 -0.0987
 3183SOL    HW121185   0.512   4.326   7.071 -1.3534  0.6567  0.0996
 3183SOL    HW221186   0.447   4.459   7.050 -0.4159  0.3497 -1.6945
 3184SOL     OW21187   3.568   2.853   7.309 -0.2534 -0.0828  0.1905
 3184SOL    HW121188   3.487   2.804   7.325 -0.2414 -0.6459 -1.5166
 3184SOL    HW221189   3.604   2.826   7.225 -0.6340  2.7402 -0.8898
 3185SOL     OW21190   0.549   3.844   7.313 -0.3863 -0.5118  0.0858
 3185SOL    HW121191   0.593   3.810   7.391 -0.7974 -0.1136  0.4886
 3185SOL    HW221192   0.586   3.795   7.239  1.9733 -0.5716  1.3257
 3186SOL     OW21193   3.137   4.691   7.295 -0.2133 -0.2886  0.5614
 3186SOL    HW121194   3.147   0.034   7.346 -0.3247 -0.8539  1.4897
 3186SOL    HW221195   3.047   4.662   7.310 -1.5913  2.4501 -2.5576
 3187SOL     OW21196   0.448   4.399  16.126 -0.2910  0.1266 -0.1933
 3187SOL    HW121197   0.366   4.437  16.093 -0.8592 -1.4370 -0.5979
 3187SOL    HW221198   0.505   4.368  16.056 -0.5169  0.9550 -0.7362
 3188SOL     OW21199   4.727   0.755   6.162 -0.3533 -0.0591 -0.1183
 3188SOL    HW121200   4.681   0.734   6.244 -0.4361  2.2244  0.4094
 3188SOL    HW221201   0.057   0.688   6.158  0.1730  0.1938  4.0055
 3189SOL     OW21202   2.548   4.331  11.319 -0.3185  0.1390  0.3429
 3189SOL    HW121203   2.563   4.324  11.413 -2.7136 -0.6982  0.6627
 3189SOL    HW221204   2.635   4.360  11.291 -0.3482  0.3856  0.5040
 3190SOL     OW21205   3.155   1.510  10.156  0.2224 -0.2235  0.2186
 3190SOL    HW121206   3.199   1.439  10.202 -1.7661 -1.4477  0.2102
 3190SOL    HW221207   3.087   1.523  10.223 -1.6564 -1.9249 -1.3588
 3191SOL     OW21208   1.804   4.356   5.382 -0.0908  0.1119  0.1067
 3191SOL    HW121209   1.821   4.280   5.437 -0.9167 -1.0345 -1.2104
 3191SOL    HW221210   1.771   4.410   5.453 -0.0043 -1.3952  1.2964
 3192SOL     OW21211   4.399   4.393   4.527  0.1166 -0.2321  0.0949
 3192SOL    HW121212   4.337   4.400   4.455  0.8389 -1.5097 -0.6554
 3192SOL    HW221213   4.478   4.412   4.478 -0.3033 -2.4540 -1.4565
 3193SOL     OW21214   2.481   0.395   1.371 -0.2099 -0.1633  0.1547
 3193SOL    HW121215   2.526   0.436   1.298 -2.0070  1.3950 -0.0659
 3193SOL    HW221216   2.536   0.317   1.378  0.2999  0.2046  0.2518
 3194SOL     OW21217   3.970   1.546   4.586 -0.1475 -0.2923 -0.3728
 3194SOL    HW121218   3.999   1.574   4.673 -1.6338 -0.0908  0.0469
 3194SOL    HW221219   4.005   1.610   4.524  0.0285 -2.0308 -2.0741
 3195SOL     OW21220   1.041   4.366   8.641 -0.2909  0.3876 -0.2487
 3195SOL    HW121221   0.999   4.312   8.575  0.3445  0.2641 -0.5520
 3195SOL    HW221222   0.973   4.433   8.650 -1.7622 -1.4515  2.5791
 3196SOL     OW21223   2.760   1.854   5.684 -0.3827  0.2265 -0.2998
 3196SOL    HW121224   2.852   1.864   5.707 -0.1373 -2.2514 -0.1861
 3196SOL    HW221225   2.757   1.899   5.600 -0.6329  1.7835  0.5500
 3197SOL     OW21226   0.034   2.819   4.498  0.2607 -0.3069  0.1191
 3197SOL    HW121227   4.707   2.751   4.481 -0.5988  0.3441  0.7723
 3197SOL    HW221228   0.071   2.828   4.410 -1.3394  2.2826 -0.2924
 3198SOL     OW21229   2.199   2.597   8.579  0.5337 -0.6184 -0.4214
 3198SOL    HW121230   2.235   2.522   8.625 -0.3993 -1.1689 -0.6049
 3198SOL    HW221231   2.129   2.622   8.639  1.1301  0.6087 -0.2271
 3199SOL     OW21232   1.821   3.827   6.879  0.4341  0.3693  0.2043
 3199SOL    HW121233   1.754   3.805   6.813  0.0377 -0.3789  0.8674
 3199SOL    HW221234   1.774   3.833   6.962  0.1512  1.6313 -0.0459
 3200SOL     OW21235   4.536   0.398   7.444 -0.2077 -0.0977  0.0186
 3200SOL    HW121236   4.596   0.356   7.382  2.3797  3.3888  0.1304
 3200SOL    HW221237   4.586   0.389   7.526  0.7604  0.1374 -0.5434
 3201SOL     OW21238   2.771   1.529   2.060  0.2131 -0.4489 -0.4609
 3201SOL    HW121239   2.759   1.611   2.109 -1.2820 -0.9756  0.0645
 3201SOL    HW221240   2.866   1.522   2.068  0.3231  0.1552 -1.1452
 3202SOL     OW21241   3.551   3.667  13.310  0.0156  0.0045  0.1173
 3202SOL    HW121242   3.468   3.634  13.273 -0.5169 -0.1750  1.4806
 3202SOL    HW221243   3.554   3.747  13.258  0.3863 -0.3258 -0.3668
 3203SOL     OW21244   4.385   4.502  16.778  0.0142 -0.1910 -0.3528
 3203SOL    HW121245   4.339   4.419  16.793  2.6711 -0.7637  4.8358
 3203SOL    HW221246   4.432   4.499  16.695  1.5041  0.3488  0.4644
 3204SOL     OW21247   1.160   4.398   7.412  0.3133 -0.8508 -0.6234
 3204SOL    HW121248   1.184   4.320   7.461 -0.0066  0.4317  1.6066
 3204SOL    HW221249   1.249   4.430   7.395 -0.6415  1.3236 -1.5064
 3205SOL     OW21250   3.400   3.128  13.439  0.2725  0.1133  0.4706
 3205SOL    HW121251   3.439   3.152  13.354  0.4276 -0.7036  0.3090
 3205SOL    HW221252   3.354   3.209  13.462 -1.0412 -0.7753  0.9236
 3206SOL     OW21253   1.378   4.196   8.973  0.0471  0.4036  0.1603
 3206SOL    HW121254   1.369   4.132   8.902  0.1189  1.3831 -0.7229
 3206SOL    HW221255   1.463   4.237   8.954  1.0909 -0.8885  1.9967
 3207SOL     OW21256   1.455   3.002   8.689  0.1903  0.5277 -0.2989
 3207SOL    HW121257   1.450   2.947   8.611  0.0571 -0.9698  0.7666
 3207SOL    HW221258   1.373   3.051   8.685  0.4444  0.9750  0.0123
 3208SOL     OW21259   0.720   0.989   6.299  0.5528 -0.6162 -0.2014
 3208SOL    HW121260   0.762   0.968   6.382 -0.4431 -1.2814  0.1445
 3208SOL    HW221261   0.721   1.084   6.304  0.1623 -0.6644  0.8062
 3209SOL     OW21262   1.311   3.617   5.435  0.4868 -0.8255  0.6731
 3209SOL    HW121263   1.300   3.547   5.370  1.8722  0.9868 -1.5089
 3209SOL    HW221264   1.220   3.627   5.465 -0.7491  0.1213 -3.3672
 3210SOL     OW21265   0.678   3.954   3.231 -0.4865  0.3339 -1.0571
 3210SOL    HW121266   0.771   3.943   3.208 -0.1877  0.4629  0.0785
 3210SOL    HW221267   0.656   4.044   3.209 -0.1224  0.0919 -2.4231
 3211SOL     OW21268   4.639   0.886   8.750 -0.3820  0.2972 -0.1292
 3211SOL    HW121269   4.729   0.861   8.768 -1.1652 -1.8631  0.7949
 3211SOL    HW221270   4.588   0.843   8.819  1.1405 -1.6615 -0.2402
 3212SOL     OW21271   1.486   0.231   8.376 -0.2976 -0.0282  0.3054
 3212SOL    HW121272   1.565   0.245   8.428 -0.0354 -0.6702  0.0827
 3212SOL    HW221273   1.510   0.176   8.301  2.0797 -0.1089  1.1370
 3213SOL     OW21274   2.518   0.268   7.125 -0.1121  0.2235  0.0448
 3213SOL    HW121275   2.426   0.291   7.109 -0.7902 -2.1850  0.5760
 3213SOL    HW221276   2.526   0.291   7.218  3.0652  3.5220 -1.0303
 3214SOL     OW21277   3.722   2.323   6.986  0.1111 -0.0025 -0.1698
 3214SOL    HW121278   3.703   2.337   6.893 -0.9955 -0.3006  0.0191
 3214SOL    HW221279   3.702   2.412   7.017  3.0276  0.5961  0.0482
 3215SOL     OW21280   4.657   3.171   1.606 -0.4198  0.6858  0.4379
 3215SOL    HW121281   4.734   3.228   1.609  1.0949 -1.3509 -0.1711
 3215SOL    HW221282   4.704   3.095   1.641  0.0593  0.0687 -1.5641
 3216SOL     OW21283   3.773   1.376   7.815 -0.4147  0.2080  0.0400
 3216SOL    HW121284   3.802   1.456   7.770  2.3843 -0.4593  0.6389
 3216SOL    HW221285   3.710   1.406   7.880  1.2741 -0.5674  2.0303
 3217SOL     OW21286   3.011   4.018  16.929 -0.5185 -0.5190  0.7557
 3217SOL    HW121287   3.100   4.035  16.896 -0.9959  1.3160  0.3777
 3217SOL    HW221288   2.989   4.090  16.989  0.9668 -0.0466  0.7330
 3218SOL     OW21289   4.379   3.782   3.421  0.3851 -0.1276 -0.4224
 3218SOL    HW121290   4.291   3.745   3.417  0.6159 -0.7455  0.2377
 3218SOL    HW221291   4.430   3.710   3.459  1.0155  0.4393 -0.1796
 3219SOL     OW21292   1.142   4.211   3.787 -0.0257 -0.1690  0.6674
 3219SOL    HW121293   1.175   4.227   3.698 -0.2899 -1.6782  0.3096
 3219SOL    HW221294   1.134   4.301   3.820  0.0804  0.4731 -1.0336
 3220SOL     OW21295   3.205   2.947   6.005  0.2836 -0.3941  0.3002
 3220SOL    HW121296   3.185   2.913   5.918  0.2215  0.0082  0.1584
 3220SOL    HW221297   3.295   2.979   5.997  0.4022 -0.4952  1.3137
 3221SOL     OW21298   3.548   1.760   8.900  0.5660  0.2063 -0.3099
 3221SOL    HW121299   3.575   1.711   8.822  1.3287 -0.5698  0.4338
 3221SOL    HW221300   3.504   1.832   8.855  0.2171 -0.3554 -0.8804
 3222SOL     OW21301   1.388   4.127   6.926  0.0230  0.4690 -0.0679
 3222SOL    HW121302   1.348   4.193   6.983  0.6986  0.8047  0.0200
 3222SOL    HW221303   1.309   4.086   6.892  0.3778 -0.1022 -0.2028
 3223SOL     OW21304   4.169   1.402   7.747  0.1061 -0.3356  0.5548
 3223SOL    HW121305   4.145   1.486   7.708  0.6522  0.2002  1.3737
 3223SOL    HW221306   4.117   1.396   7.827 -0.9822  2.1571  0.0596
 3224SOL     OW21307   4.350   3.789   5.594  0.1219  0.1837  0.0744
 3224SOL    HW121308   4.401   3.865   5.567 -0.9125  1.7626  2.5411
 3224SOL    HW221309   4.366   3.784   5.688  2.1030 -0.7471 -0.3044
 3225SOL     OW21310   0.136   2.623   2.809 -0.1072 -0.6808 -0.7760
 3225SOL    HW121311   0.089   2.648   2.888 -0.4330 -0.4775 -1.0322
 3225SOL    HW221312   0.222   2.599   2.844 -0.7609 -0.9300  0.6239
 3226SOL     OW21313   3.078   2.257  12.846  0.2762 -0.2202 -0.2494
 3226SOL    HW121314   3.002   2.289  12.797 -0.7534 -0.4709  1.1637
 3226SOL    HW221315   3.122   2.340  12.865  1.3509 -0.8341 -0.0351
 3227SOL     OW21316   4.433   2.223   3.396  0.3720 -0.4274 -0.3485
 3227SOL    HW121317   4.508   2.179   3.436  1.1803  1.7277  0.4889
 3227SOL    HW221318   4.451   2.185   3.310  0.3772 -2.4661  0.5525
 3228SOL     OW21319   3.127   0.919   2.294  0.2176  0.3550 -0.4916
 3228SOL    HW121320   3.095   0.924   2.384 -2.3805 -0.0651 -1.4008
 3228SOL    HW221321   3.211   0.875   2.310 -1.1689 -1.6650  1.1481
 3229SOL     OW21322   4.519   2.013   4.831  0.4107 -0.2386  0.0231
 3229SOL    HW121323   4.475   1.940   4.787 -3.9648  2.6276 -0.2915
 3229SOL    HW221324   4.505   1.996   4.924  0.2076 -0.8297 -0.1115
 3230SOL     OW21325   1.549   2.224   6.472  0.2091  0.9489 -0.3494
 3230SOL    HW121326   1.586   2.247   6.387  1.2190  1.5019  0.2370
 3230SOL    HW221327   1.470   2.278   6.476 -0.9496 -0.9350  2.3531
 3231SOL     OW21328   3.012   2.936  10.580 -0.1555 -0.1795 -0.0616
 3231SOL    HW121329   2.980   2.859  10.533 -1.4187  0.1616  0.2352
 3231SOL    HW221330   3.077   2.965  10.516 -1.0787  1.4806 -0.2507
 3232SOL     OW21331   0.145   1.638  10.276  0.1425  0.2966  0.5534
 3232SOL    HW121332   0.219   1.607  10.328  0.3844  2.6257  1.5897
 3232SOL    HW221333   0.142   1.731  10.298  1.6425  0.4189  0.2003
 3233SOL     OW21334   0.018   0.407  10.678  0.0396 -0.1116  0.8173
 3233SOL    HW121335   0.004   0.490  10.722 -0.3350  0.3745 -0.2216
 3233SOL    HW221336   0.093   0.376  10.730  0.4522  1.8226  1.3726
 3234SOL     OW21337   3.655   1.404  11.098 -0.1684 -0.8464  0.4351
 3234SOL    HW121338   3.727   1.434  11.042 -1.7511 -1.6673 -2.0568
 3234SOL    HW221339   3.696   1.329  11.142  1.0584  0.2465  1.1670
 3235SOL     OW21340   0.048   3.999   3.492 -0.0885  0.0113  0.5845
 3235SOL    HW121341   0.138   3.993   3.460 -0.9313  0.4931 -1.9196
 3235SOL    HW221342   0.010   4.040   3.414 -1.2155 -0.5077  0.8474
 3236SOL     OW21343   2.949   1.351   8.566  0.4033 -0.2798 -0.2172
 3236SOL    HW121344   2.919   1.264   8.591  2.7749 -1.2053 -0.5470
 3236SOL    HW221345   3.021   1.322   8.509  0.6716 -0.6201  0.2878
 3237SOL     OW21346   4.289   2.968   8.099  0.2301 -0.3161  0.0162
 3237SOL    HW121347   4.371   3.016   8.088 -0.1921  0.2324 -0.6871
 3237SOL    HW221348   4.224   3.020   8.053 -1.4917 -2.6573 -0.2066
 3238SOL     OW21349   2.642   2.769  11.255  0.9444  0.2543 -0.2690
 3238SOL    HW121350   2.718   2.714  11.237  0.6676  0.1248 -1.0806
 3238SOL    HW221351   2.579   2.715  11.207 -1.6169  0.9152  2.3342
 3239SOL     OW21352   3.690   4.400   6.755  0.2095  0.5125 -0.5817
 3239SOL    HW121353   3.661   4.367   6.671 -0.4783 -0.6538  0.1180
 3239SOL    HW221354   3.615   4.435   6.803  1.3606 -0.9852  2.3346
 3240SOL     OW21355   1.088   0.947   8.320 -0.0265 -0.1850  0.5480
 3240SOL    HW121356   1.012   0.945   8.377  1.1078 -0.4654  2.0481
 3240SOL    HW221357   1.077   0.865   8.272  2.1674 -0.2752  0.1902
 3241SOL     OW21358   2.243   2.489   4.816 -0.0005  0.2349 -0.3774
 3241SOL    HW121359   2.303   2.431   4.864  0.4712  0.7860 -0.3015
 3241SOL    HW221360   2.257   2.455   4.728  0.0334  0.2440 -0.3756
 3242SOL     OW21361   0.415   1.306   8.244 -0.2218  0.7441 -0.3267
 3242SOL    HW121362   0.379   1.362   8.175  1.4424  0.4061 -1.4491
 3242SOL    HW221363   0.503   1.287   8.213 -0.0722  2.3131 -0.8922
 3243SOL     OW21364   1.216   3.208   4.051  0.8939 -0.3175 -0.0122
 3243SOL    HW121365   1.243   3.169   3.968  0.4446  0.4413 -0.5128
 3243SOL    HW221366   1.122   3.190   4.046  1.1851 -1.4683 -1.3167
 3244SOL     OW21367   3.827   2.432   8.953 -0.1238  0.5195 -0.3700
 3244SOL    HW121368   3.808   2.431   9.046  2.0468  2.7964  0.0899
 3244SOL    HW221369   3.738   2.412   8.926 -0.1801  0.3098 -0.0197
 3245SOL     OW21370   1.776   2.153   6.804  0.6682  0.4041  0.8059
 3245SOL    HW121371   1.845   2.141   6.870  1.8952  0.3710 -0.4861
 3245SOL    HW221372   1.823   2.198   6.734  0.4107  0.0916  0.4368
 3246SOL     OW21373   0.438   0.860  11.032  0.0698  0.3385  0.0028
 3246SOL    HW121374   0.513   0.866  10.973 -2.2022 -3.8192 -3.3123
 3246SOL    HW221375   0.458   0.775  11.071 -0.3104 -0.0320 -0.6042
 3247SOL     OW21376   2.736   1.100   8.355  0.2626 -0.0949  0.2811
 3247SOL    HW121377   2.788   1.081   8.276  0.0028  0.2507  0.0227
 3247SOL    HW221378   2.764   1.028   8.411 -0.7319 -0.5209  0.2315
 3248SOL     OW21379   3.429   0.860   5.682  0.1374 -0.3578  0.0523
 3248SOL    HW121380   3.504   0.908   5.646 -1.4328  1.9031 -0.2096
 3248SOL    HW221381   3.365   0.862   5.611  1.8438  2.8943 -1.3987
 3249SOL     OW21382   1.841   0.690   5.556 -0.0288 -0.4512  0.4303
 3249SOL    HW121383   1.876   0.746   5.625  0.8744 -1.1788  0.5762
 3249SOL    HW221384   1.750   0.718   5.562 -0.2010 -0.4752 -1.7503
 3250SOL     OW21385   3.283   2.277   2.457 -0.0836  0.2616 -0.5546
 3250SOL    HW121386   3.243   2.337   2.393 -0.2254  3.2876  2.4093
 3250SOL    HW221387   3.377   2.287   2.443 -0.0110  3.3694  2.1491
 3251SOL     OW21388   2.407   2.840   3.105  0.2564 -0.1842 -0.2533
 3251SOL    HW121389   2.487   2.810   3.060 -0.4460 -1.6454 -0.5262
 3251SOL    HW221390   2.343   2.821   3.037  1.1999 -1.1398 -0.8816
 3252SOL     OW21391   2.518   1.880   8.696  0.3600 -0.3735 -0.1956
 3252SOL    HW121392   2.537   1.845   8.609  0.1811 -1.3853  0.1834
 3252SOL    HW221393   2.468   1.808   8.735 -0.7448  0.5284  0.0603
 3253SOL     OW21394   1.700   3.315   7.071 -0.1767  0.1858 -0.5190
 3253SOL    HW121395   1.740   3.234   7.104  0.3779  0.4348 -0.5759
 3253SOL    HW221396   1.621   3.279   7.032 -0.8806  2.1388 -0.8913
 3254SOL     OW21397   4.149   0.131   8.770  0.5924  0.1338 -0.2566
 3254SOL    HW121398   4.224   0.148   8.827  0.4564 -0.5601  0.1267
 3254SOL    HW221399   4.130   0.045   8.808 -0.1126 -0.1662 -1.3004
 3255SOL     OW21400   3.327   1.145   5.593 -0.1415 -0.1405 -0.4547
 3255SOL    HW121401   3.413   1.103   5.598  1.7695  3.7597 -0.4932
 3255SOL    HW221402   3.334   1.231   5.552 -2.0562  0.1164 -0.2368
 3256SOL     OW21403   4.069   2.111   4.745 -0.4219  0.7201 -0.4592
 3256SOL    HW121404   4.121   2.038   4.778 -1.7024 -0.4670 -1.1037
 3256SOL    HW221405   3.997   2.064   4.704 -1.2284  0.9158  0.7141
 3257SOL     OW21406   3.453   2.878   8.596  0.2182 -0.0390  0.2288
 3257SOL    HW121407   3.440   2.888   8.690  0.9076  3.3070 -0.0342
 3257SOL    HW221408   3.531   2.933   8.590 -0.4983  0.8855 -0.6178
 3258SOL     OW21409   1.382   3.413   8.444  1.0117 -0.4845  0.1030
 3258SOL    HW121410   1.415   3.329   8.412  0.5879 -0.4928 -0.3038
 3258SOL    HW221411   1.304   3.425   8.390  1.2746 -1.0466 -0.3969
 3259SOL     OW21412   1.934   2.621   3.692  0.1273 -0.1842 -0.3507
 3259SOL    HW121413   2.014   2.604   3.743 -0.7810  1.5559  1.6406
 3259SOL    HW221414   1.992   2.665   3.629  0.3113 -0.3469 -0.2966
 3260SOL     OW21415   2.827   2.730  10.509  0.3038 -0.6983 -0.6415
 3260SOL    HW121416   2.869   2.646  10.527 -1.6456 -1.6920 -0.7369
 3260SOL    HW221417   2.734   2.712  10.518  0.4359  1.0665  4.4120
 3261SOL     OW21418   0.318   3.586  17.647 -0.4685 -0.4587 -0.1963
 3261SOL    HW121419   0.373   3.661  17.628 -1.6799  0.2099 -1.0808
 3261SOL    HW221420   0.287   3.617  17.732  2.5551  2.8904 -0.3667
 3262SOL     OW21421   1.189   0.839   9.149  0.0070 -0.2469  0.0727
 3262SOL    HW121422   1.180   0.819   9.242 -0.0874 -0.2157  0.0695
 3262SOL    HW221423   1.280   0.870   9.145 -0.2466  0.6794  1.2826
 3263SOL     OW21424   2.982   0.487  11.837  0.5990 -0.4477 -0.0945
 3263SOL    HW121425   2.943   0.483  11.924  1.1553 -0.5722  0.1515
 3263SOL    HW221426   2.928   0.428  11.784  1.4052 -1.1369 -0.1569
 3264SOL     OW21427   0.729   3.778   9.396 -0.3871 -0.3585 -0.1934
 3264SOL    HW121428   0.683   3.730   9.464  1.0296 -1.3114  0.0853
 3264SOL    HW221429   0.769   3.853   9.440  0.2205 -0.8789  0.1312
 3265SOL     OW21430   4.091   4.009   7.090  0.5188 -0.8386  0.0566
 3265SOL    HW121431   4.050   3.961   7.018  1.6359 -0.2443 -0.9749
 3265SOL    HW221432   4.054   3.970   7.169  1.3862  2.7807  2.2614
 3266SOL     OW21433   1.614   3.785  16.387  0.2015  0.4909 -0.4992
 3266SOL    HW121434   1.531   3.753  16.423  0.1559  2.2269  0.9651
 3266SOL    HW221435   1.677   3.777  16.459 -0.3818 -1.2321 -0.2051
 3267SOL     OW21436   0.961   0.817  11.714 -0.4559  0.4238 -0.1512
 3267SOL    HW121437   0.939   0.839  11.805 -0.9289  0.4001 -0.2572
 3267SOL    HW221438   1.039   0.871  11.703 -0.3184  0.6157  1.7878
 3268SOL     OW21439   2.356   1.299   1.778 -0.2803  0.1923  0.8218
 3268SOL    HW121440   2.317   1.257   1.855  0.2676 -0.9430  0.4690
 3268SOL    HW221441   2.354   1.231   1.711  2.0302  2.0083 -1.0664
 3269SOL     OW21442   2.454   3.861   2.831  0.1395  0.3167 -0.4962
 3269SOL    HW121443   2.522   3.798   2.806  1.2824  0.9983  0.9319
 3269SOL    HW221444   2.477   3.890   2.919  2.6869 -2.1273 -0.3754
 3270SOL     OW21445   1.198   1.170   8.184 -0.2540  0.3091  0.0642
 3270SOL    HW121446   1.245   1.148   8.103  1.0068  0.2520  0.8194
 3270SOL    HW221447   1.143   1.095   8.208 -1.9711  1.2983 -0.7604
 3271SOL     OW21448   1.423   0.719  13.993  0.3501  0.4590 -0.2401
 3271SOL    HW121449   1.365   0.682  13.927  0.6575 -1.5083  0.5861
 3271SOL    HW221450   1.403   0.657  14.064  1.3254 -1.4426 -1.6264
 3272SOL     OW21451   4.331   1.810   3.604 -0.1364 -0.0616 -0.6703
 3272SOL    HW121452   4.260   1.872   3.582 -2.4516 -2.3121  0.4539
 3272SOL    HW221453   4.283   1.731   3.581 -0.5644  0.5516 -1.8665
 3273SOL     OW21454   2.085   3.141   8.717 -0.1734  0.1736  0.6955
 3273SOL    HW121455   2.037   3.061   8.740 -0.9069  1.1615  2.6221
 3273SOL    HW221456   2.172   3.104   8.702 -0.5403  0.1583 -1.4733
 3274SOL     OW21457   4.596   2.639   4.413  0.6823  0.0565 -0.5635
 3274SOL    HW121458   4.583   2.626   4.319  1.0760  0.9932 -0.7511
 3274SOL    HW221459   4.558   2.556   4.442 -0.6181  0.1198 -2.0534
 3275SOL     OW21460   1.450   3.414   1.330  0.6669  0.0895 -0.1650
 3275SOL    HW121461   1.534   3.373   1.310  0.6720  1.1561 -2.3818
 3275SOL    HW221462   1.420   3.452   1.247 -0.3952 -2.7378 -1.0638
 3276SOL     OW21463   2.035   2.977   0.703  0.0224 -0.1392  0.6041
 3276SOL    HW121464   2.043   3.057   0.651 -0.9360 -0.5336 -0.1524
 3276SOL    HW221465   2.009   3.013   0.787 -0.9257  3.4432 -1.1864
 3277SOL     OW21466   4.334   0.417   9.911 -0.0886 -0.2929 -0.2359
 3277SOL    HW121467   4.249   0.460   9.908 -0.1954 -0.5961 -1.5767
 3277SOL    HW221468   4.383   0.476   9.969  1.2230 -1.4145 -0.2026
 3278SOL     OW21469   3.922   0.053   4.653  0.1195 -0.8233  0.2330
 3278SOL    HW121470   3.946   0.009   4.572  2.3596  0.0206  0.4364
 3278SOL    HW221471   3.865   4.727   4.695 -0.5038  0.1536  0.8940
 3279SOL     OW21472   3.940   4.694  10.629  0.0969 -0.3033 -0.2363
 3279SOL    HW121473   3.856   4.686  10.583 -0.2242 -1.8912  0.6023
 3279SOL    HW221474   3.918   0.029  10.686 -0.8801  0.1789 -1.2259
 3280SOL     OW21475   4.695   0.081   5.287  0.2849  0.5547  0.1237
 3280SOL    HW121476   4.602   0.058   5.297  0.4044  0.7036  1.5929
 3280SOL    HW221477   4.735   4.734   5.304 -2.6315 -1.2955 -2.2732
 3281SOL     OW21478   1.002   0.192  17.127  0.0646 -0.0532 -0.1901
 3281SOL    HW121479   1.083   0.237  17.150  0.0356  0.2068 -0.5839
 3281SOL    HW221480   0.932   0.247  17.161 -0.9013 -0.8430 -0.8718
 3282SOL     OW21481   2.558   4.656   4.549  0.3805 -0.1659 -0.0198
 3282SOL    HW121482   2.559   4.687   4.640 -0.6003  2.1656 -0.7972
 3282SOL    HW221483   2.466   4.657   4.523  1.1785 -1.3990 -2.8954
 3283SOL     OW21484   3.604   2.739   7.800 -0.5003 -0.9353  0.1624
 3283SOL    HW121485   3.544   2.740   7.726 -0.3982 -0.3852  0.0852
 3283SOL    HW221486   3.652   2.660   7.777  1.8384  1.0048 -1.6100
 3284SOL     OW21487   2.592   2.298   3.161 -0.1814  0.5966 -0.0559
 3284SOL    HW121488   2.581   2.267   3.071 -1.7970 -0.3927  0.4833
 3284SOL    HW221489   2.687   2.288   3.155 -0.2919 -0.0436 -0.8177
 3285SOL     OW21490   4.238   0.021   4.098 -0.0570  0.9067  0.1056
 3285SOL    HW121491   4.222   4.699   4.171 -0.9652 -0.1760 -0.9786
 3285SOL    HW221492   4.150   0.033   4.062 -0.4514  1.3153  1.1859
 3286SOL     OW21493   2.965   3.726   1.007  0.4991  0.0085 -0.7979
 3286SOL    HW121494   2.981   3.640   1.046 -1.7087  1.1096  2.6089
 3286SOL    HW221495   2.948   3.768   1.092  1.8446  1.5410 -1.2830
 3287SOL     OW21496   3.626   1.433  12.316  0.6477 -0.1112 -0.0104
 3287SOL    HW121497   3.539   1.439  12.354  0.5092 -1.2984 -0.1407
 3287SOL    HW221498   3.613   1.422  12.222  4.4059 -2.3441 -0.2690
 3288SOL     OW21499   0.129   4.370   2.862  0.0582 -0.1159  0.1341
 3288SOL    HW121500   0.085   4.436   2.915 -2.4003 -1.0368 -0.7461
 3288SOL    HW221501   0.084   4.378   2.778 -0.1253 -3.0777 -0.0576
 3289SOL     OW21502   3.258   3.859   9.295 -0.3370 -0.3820  0.0950
 3289SOL    HW121503   3.264   3.813   9.212 -0.6907 -1.6915  0.7914
 3289SOL    HW221504   3.351   3.878   9.306 -0.0683 -2.0662  0.8741
 3290SOL     OW21505   4.320   4.003   9.459  0.1308  0.0846 -0.0895
 3290SOL    HW121506   4.245   4.059   9.440 -0.8368 -1.5639 -1.1790
 3290SOL    HW221507   4.278   3.921   9.486 -2.0056  0.6486 -1.6524
 3291SOL     OW21508   4.205   4.265  15.267  0.6510  0.6393 -0.2373
 3291SOL    HW121509   4.279   4.323  15.248 -0.8858  1.0959 -5.1247
 3291SOL    HW221510   4.136   4.321  15.303  1.4150  1.4121  0.0247
 3292SOL     OW21511   4.271   2.963   3.281 -0.0382 -0.4644  0.5363
 3292SOL    HW121512   4.309   2.875   3.284 -0.1398 -0.4455  1.9879
 3292SOL    HW221513   4.356   3.008   3.288 -0.1503 -0.0964 -0.3637
 3293SOL     OW21514   0.962   4.296  11.614 -0.2899 -0.1155  0.1238
 3293SOL    HW121515   0.938   4.386  11.593  0.5811  0.1960  0.4675
 3293SOL    HW221516   0.885   4.255  11.573 -0.3888  0.3109 -0.1186
 3294SOL     OW21517   2.814   3.470  11.677 -0.7752 -0.1424  0.0230
 3294SOL    HW121518   2.721   3.473  11.697 -0.9029  1.4669 -0.8000
 3294SOL    HW221519   2.830   3.377  11.663 -2.3455 -0.4267  0.2011
 3295SOL     OW21520   2.107   2.471  13.069 -0.1148  0.4494 -0.7907
 3295SOL    HW121521   2.191   2.509  13.097  0.8811 -0.5724 -2.4444
 3295SOL    HW221522   2.072   2.466  13.158 -0.0463  1.0213 -0.7291
 3296SOL     OW21523   1.484   4.153   9.390  0.4926 -0.5834  0.4406
 3296SOL    HW121524   1.552   4.219   9.376 -0.4636  0.2364 -0.3571
 3296SOL    HW221525   1.403   4.187   9.353 -0.3921 -1.4325  1.6025
 3297SOL     OW21526   3.751   3.455   8.488 -0.0559  0.2815 -0.1840
 3297SOL    HW121527   3.776   3.538   8.447  1.0993 -0.7045 -1.4572
 3297SOL    HW221528   3.835   3.420   8.518 -1.2398 -3.1583 -0.9058
 3298SOL     OW21529   3.103   3.925   6.160  0.0707 -0.2203  0.4372
 3298SOL    HW121530   3.030   3.887   6.209  2.0243 -1.7027  2.2496
 3298SOL    HW221531   3.144   3.841   6.140  2.0843  0.9588 -0.3801
 3299SOL     OW21532   1.989   3.430   1.187 -0.1405  0.1820 -0.4477
 3299SOL    HW121533   1.986   3.468   1.099 -1.5261 -0.6268 -0.7588
 3299SOL    HW221534   1.952   3.346   1.159 -1.5378  1.6576 -2.9893
 3300SOL     OW21535   0.245   0.136   4.131  0.6377  0.0377 -0.2431
 3300SOL    HW121536   0.260   0.042   4.147 -0.5469 -0.0780  0.1711
 3300SOL    HW221537   0.151   0.143   4.145  0.8872 -0.7078  1.9324
 3301SOL     OW21538   3.132   2.606   0.730  0.4444  0.5625 -0.2532
 3301SOL    HW121539   3.107   2.517   0.705  1.7128  0.7693 -2.2361
 3301SOL    HW221540   3.140   2.648   0.644  1.9354  4.0336  1.6017
 3302SOL     OW21541   1.845   0.964   7.316  0.6660  0.6592 -0.2191
 3302SOL    HW121542   1.895   0.975   7.236  0.0368 -0.4098 -0.7509
 3302SOL    HW221543   1.830   1.056   7.341 -3.3158 -0.2101  0.6007
 3303SOL     OW21544   4.681   0.066  12.109 -0.0535 -0.2590 -0.2742
 3303SOL    HW121545   4.599   0.039  12.068 -1.0555  2.8404 -0.2997
 3303SOL    HW221546   4.650   0.148  12.149  2.0013 -0.5483  1.9081
 3304SOL     OW21547   2.518   4.182   4.669  0.2249 -0.0992  0.2083
 3304SOL    HW121548   2.564   4.264   4.684 -0.2079 -0.0283  1.1378
 3304SOL    HW221549   2.437   4.195   4.719  0.0285  1.2233 -0.4471
 3305SOL     OW21550   2.967   2.923  15.156  0.0170  0.1221 -0.0936
 3305SOL    HW121551   3.012   2.888  15.079 -1.9513 -2.9989  0.1759
 3305SOL    HW221552   2.905   2.980  15.112  1.6793  0.0609 -2.4935
 3306SOL     OW21553   0.384   3.344   0.062  0.4408 -0.1506 -0.3497
 3306SOL    HW121554   0.364   3.400  17.737  1.7195 -0.8080 -1.1811
 3306SOL    HW221555   0.454   3.399   0.096 -0.5486  1.5758 -1.1025
 3307SOL     OW21556   2.666   3.756   1.821  0.1647  0.4031  0.0834
 3307SOL    HW121557   2.666   3.661   1.825  0.2735  0.4059  0.1470
 3307SOL    HW221558   2.716   3.771   1.742  0.5620 -0.4743  0.1683
 3308SOL     OW21559   0.542   1.412   5.645 -0.2310 -0.4359 -0.2283
 3308SOL    HW121560   0.526   1.420   5.739  0.2899 -1.4130 -0.0539
 3308SOL    HW221561   0.503   1.326   5.627  0.7618 -1.2270  1.3823
 3309SOL     OW21562   2.428   4.344   8.141 -0.6942  0.9716 -0.0905
 3309SOL    HW121563   2.441   4.411   8.208  0.6238 -1.1614  1.8003
 3309SOL    HW221564   2.373   4.387   8.076 -0.3486 -0.2190 -1.1825
 3310SOL     OW21565   2.279   4.196   6.173 -0.1693 -0.0972 -0.1060
 3310SOL    HW121566   2.373   4.179   6.159 -0.0072  1.0598 -0.4170
 3310SOL    HW221567   2.288   4.290   6.190 -1.2273  0.5549 -3.3266
 3311SOL     OW21568   4.736   0.263   8.479 -0.1521 -0.6271  0.3016
 3311SOL    HW121569   4.702   0.342   8.521  0.5122  0.8614 -1.9736
 3311SOL    HW221570   4.687   0.265   8.397  0.8209  1.6144 -0.2322
 3312SOL     OW21571   4.573   2.869  11.949  0.3618 -0.2880  0.7837
 3312SOL    HW121572   4.495   2.814  11.938 -0.7040  1.5958 -1.1649
 3312SOL    HW221573   4.600   2.859  12.040  0.5675  0.8901  0.8486
 3313SOL     OW21574   4.242   4.382   2.134 -0.1263 -0.7398  0.0645
 3313SOL    HW121575   4.274   4.333   2.210 -0.8186 -0.0034  0.8360
 3313SOL    HW221576   4.320   4.397   2.081 -0.6392  0.6420 -0.3100
 3314SOL     OW21577   3.565   2.549   6.994 -0.0281  0.4361  0.5198
 3314SOL    HW121578   3.497   2.615   7.010  1.2118  1.1828  2.6967
 3314SOL    HW221579   3.509   2.489   6.945  1.0359  0.1709 -0.3716
 3315SOL     OW21580   4.262   1.256  12.634 -0.0672 -0.1577 -0.5159
 3315SOL    HW121581   4.194   1.221  12.577  0.8212  1.3047 -2.4525
 3315SOL    HW221582   4.319   1.297  12.569 -0.5235 -2.2392 -2.1980
 3316SOL     OW21583   3.975   2.473   5.402  0.1503  0.4502  0.6980
 3316SOL    HW121584   4.040   2.510   5.463  2.8894 -0.0874 -1.8850
 3316SOL    HW221585   3.986   2.380   5.419  1.7365  0.2666 -1.3433
 3317SOL     OW21586   0.448   0.127   7.392  0.2570  0.0689 -0.2236
 3317SOL    HW121587   0.433   0.132   7.298 -1.1871  2.0743  0.1063
 3317SOL    HW221588   0.540   0.152   7.393  0.4150 -0.6378  2.4139
 3318SOL     OW21589   0.328   0.261   0.991  0.4968 -0.4024 -0.0104
 3318SOL    HW121590   0.351   0.197   0.923  0.9370  0.0314 -0.2693
 3318SOL    HW221591   0.236   0.258   0.965  0.3416 -1.0529  0.6187
 3319SOL     OW21592   3.996   0.232   5.398  0.4941 -0.5889 -0.5565
 3319SOL    HW121593   3.950   0.173   5.457 -1.6478  1.0005 -0.6243
 3319SOL    HW221594   4.069   0.256   5.455  0.1493  0.6275 -0.6228
 3320SOL     OW21595   2.422   0.716   8.299  0.0736 -0.2155 -0.7099
 3320SOL    HW121596   2.475   0.651   8.254 -1.2776 -0.8671 -1.3746
 3320SOL    HW221597   2.331   0.686   8.302  0.3248 -0.9487 -0.1810
 3321SOL     OW21598   0.084   0.769   7.904  0.5481  0.1354  0.1425
 3321SOL    HW121599   0.169   0.791   7.942 -1.0006 -0.0303  3.7031
 3321SOL    HW221600   0.075   0.845   7.847 -1.6842  0.5029  0.9648
 3322SOL     OW21601   0.569   2.284   4.470  0.1176 -0.1512  0.0004
 3322SOL    HW121602   0.576   2.228   4.547  1.4619 -0.7593 -0.5583
 3322SOL    HW221603   0.538   2.219   4.407 -0.0470 -0.0352 -0.0389
 3323SOL     OW21604   2.496   0.099   8.740  0.1145  0.3708 -0.1586
 3323SOL    HW121605   2.582   0.065   8.763 -0.8298  0.1629  3.2303
 3323SOL    HW221606   2.440   0.040   8.792  0.5440  0.4980  0.4460
 3324SOL     OW21607   1.240   2.559   6.930  0.7165 -0.5003  0.2048
 3324SOL    HW121608   1.218   2.468   6.947 -1.9455 -0.4226 -2.9530
 3324SOL    HW221609   1.308   2.571   6.997  0.8974  2.2276 -0.4609
 3325SOL     OW21610   4.055   3.208   9.114 -0.7812 -0.2620 -0.0519
 3325SOL    HW121611   4.037   3.280   9.175  0.6487 -0.6042  0.7927
 3325SOL    HW221612   4.082   3.266   9.043  0.2872 -1.9265 -0.9961
 3326SOL     OW21613   4.177   0.196   4.549 -0.0343 -0.6807 -0.2197
 3326SOL    HW121614   4.121   0.135   4.598  0.9609 -1.0326  0.4635
 3326SOL    HW221615   4.254   0.142   4.534  1.4329  0.8664  1.8253
 3327SOL     OW21616   0.997   1.946   1.343  0.1230  0.3195  0.5157
 3327SOL    HW121617   1.017   1.914   1.255  2.9050 -0.9663  1.5857
 3327SOL    HW221618   0.952   1.874   1.388  1.5218  0.4524  2.1418
 3328SOL     OW21619   4.454   3.040   3.669  0.1790  0.6673  0.4661
 3328SOL    HW121620   4.493   3.000   3.591 -1.9139 -2.3738  0.9448
 3328SOL    HW221621   4.362   3.048   3.644  0.1835  1.3058  0.6614
 3329SOL     OW21622   4.652   3.585   9.148 -0.0032 -0.2246  0.3622
 3329SOL    HW121623   4.716   3.637   9.196  0.0835  1.6485 -1.7514
 3329SOL    HW221624   4.614   3.540   9.223 -1.5267 -0.4438 -0.5370
 3330SOL     OW21625   1.997   0.892  12.093 -0.6723 -0.4478 -0.0322
 3330SOL    HW121626   2.092   0.877  12.095 -0.2313  2.5358  1.5441
 3330SOL    HW221627   1.994   0.940  12.010 -1.0488 -3.2320 -1.6164
 3331SOL     OW21628   0.262   1.640   1.255 -0.0648  0.1786  0.3587
 3331SOL    HW121629   0.255   1.546   1.239 -0.9844  0.4979 -1.1312
 3331SOL    HW221630   0.255   1.665   1.163 -2.2390 -0.9220  0.2130
 3332SOL     OW21631   1.536   3.488   8.143 -0.4612 -0.1397  0.2427
 3332SOL    HW121632   1.560   3.504   8.052 -0.7085 -1.0067  0.0219
 3332SOL    HW221633   1.559   3.396   8.156 -0.6971 -0.4046 -1.1871
 3333SOL     OW21634   3.604   0.849   6.681 -0.3056  0.7048  0.5944
 3333SOL    HW121635   3.528   0.874   6.733 -1.5007 -2.0577  0.1450
 3333SOL    HW221636   3.560   0.846   6.596 -1.6366 -1.2541  1.3625
 3334SOL     OW21637   1.050   4.053  17.699 -0.1575  0.0882  0.7248
 3334SOL    HW121638   0.988   4.082  17.632 -1.6699  0.7206  2.4059
 3334SOL    HW221639   1.091   4.129  17.741 -0.3892  0.0164  1.0843
 3335SOL     OW21640   3.800   0.196   6.693 -0.2162 -0.1495 -1.0613
 3335SOL    HW121641   3.862   0.202   6.620 -0.0621 -0.4999 -0.9581
 3335SOL    HW221642   3.764   0.110   6.671 -1.1829 -0.2954  1.1725
 3336SOL     OW21643   2.307   3.935   4.659 -0.1946 -0.8650 -0.4110
 3336SOL    HW121644   2.286   3.872   4.590 -0.1973  1.7631 -2.8021
 3336SOL    HW221645   2.251   4.009   4.636 -1.3400 -1.9808 -1.1562
 3337SOL     OW21646   1.525   2.529   9.303  0.1032  0.4896 -0.0494
 3337SOL    HW121647   1.484   2.444   9.285 -0.7624  0.7138  0.8602
 3337SOL    HW221648   1.613   2.504   9.331 -0.2195  0.0229  0.5421
 3338SOL     OW21649   0.258   0.920  15.350  0.1922  0.3273  0.3469
 3338SOL    HW121650   0.163   0.908  15.345  0.5745 -2.7382  0.2819
 3338SOL    HW221651   0.276   0.894  15.441 -1.6438 -0.7821  0.3961
 3339SOL     OW21652   1.579   1.773   9.190 -0.0469  0.6668  0.0767
 3339SOL    HW121653   1.602   1.849   9.136 -0.7697  1.6043  1.0801
 3339SOL    HW221654   1.525   1.828   9.247 -0.7144 -1.4587  1.4825
 3340SOL     OW21655   0.315   4.548  11.763 -0.5155 -0.0916  0.5947
 3340SOL    HW121656   0.245   4.613  11.764  0.4306  0.9171  1.2808
 3340SOL    HW221657   0.370   4.579  11.691  0.7781  0.4801  1.8172
 3341SOL     OW21658   3.583   4.046  16.644 -0.2022 -0.4596 -0.2226
 3341SOL    HW121659   3.546   4.064  16.730  0.2545 -2.4306  0.3937
 3341SOL    HW221660   3.538   3.965  16.622  1.7806 -1.1648 -1.7434
 3342SOL     OW21661   3.319   3.632   5.068 -0.5202  0.0218 -0.4410
 3342SOL    HW121662   3.312   3.651   5.162  1.8509  2.8436 -0.8297
 3342SOL    HW221663   3.231   3.649   5.035  0.0755  0.9704 -1.5176
 3343SOL     OW21664   2.229   3.734   4.487  0.0536 -0.0129  0.6663
 3343SOL    HW121665   2.282   3.680   4.428 -0.9609 -2.0078  1.5898
 3343SOL    HW221666   2.141   3.718   4.451  0.1640  4.7436 -1.6633
 3344SOL     OW21667   2.643   2.864  11.527  0.1667 -0.5444 -0.5112
 3344SOL    HW121668   2.617   2.807  11.454  1.1205  0.1555 -1.3857
 3344SOL    HW221669   2.712   2.909  11.478  0.3527  0.9121  1.0870
 3345SOL     OW21670   1.523   3.098   4.315  0.1242  0.1192  0.3699
 3345SOL    HW121671   1.479   3.075   4.397  2.3926  0.8977  1.8124
 3345SOL    HW221672   1.612   3.118   4.345  0.3594 -3.0555  1.7931
 3346SOL     OW21673   0.405   1.649   7.787 -0.0169  0.0802  0.1335
 3346SOL    HW121674   0.381   1.661   7.695 -1.4129  0.7180  0.5817
 3346SOL    HW221675   0.320   1.633   7.827 -0.1327  0.9928  0.2462
 3347SOL     OW21676   3.465   3.183   4.985 -0.0426  0.5531  0.2248
 3347SOL    HW121677   3.405   3.254   4.964  1.1011  1.4666  0.0276
 3347SOL    HW221678   3.410   3.110   5.011 -1.8924  1.5302 -0.9810
 3348SOL     OW21679   2.005   0.332  12.642 -0.2309  0.6011 -0.4436
 3348SOL    HW121680   2.014   0.422  12.610  0.6620  1.0013  0.9357
 3348SOL    HW221681   1.950   0.350  12.719 -0.7258  4.4392 -1.6843
 3349SOL     OW21682   4.090   2.226   5.362  0.2504 -0.2465  0.4549
 3349SOL    HW121683   4.036   2.196   5.289  0.3477  1.6104 -0.3885
 3349SOL    HW221684   4.121   2.142   5.395  0.3826  0.0115  1.0007
 3350SOL     OW21685   1.785   1.597   6.853 -0.3299 -0.3124 -0.0214
 3350SOL    HW121686   1.783   1.691   6.836 -0.3163 -0.6490 -1.9283
 3350SOL    HW221687   1.880   1.580   6.856 -0.2524 -0.3188 -2.4473
 3351SOL     OW21688   4.458   3.957   3.907  0.0389  0.2901  0.0697
 3351SOL    HW121689   4.520   3.970   3.835  0.1838  1.1831  0.3663
 3351SOL    HW221690   4.412   4.040   3.899 -0.0936 -0.0126 -2.2349
 3352SOL     OW21691   3.352   3.096   7.752  0.8731  0.3774 -0.1986
 3352SOL    HW121692   3.332   3.012   7.711  0.6933  0.5309 -0.4215
 3352SOL    HW221693   3.440   3.123   7.724  1.2052 -1.3501 -0.8732
 3353SOL     OW21694   0.242   0.951   6.521  0.0196  0.3591  0.6166
 3353SOL    HW121695   0.335   0.969   6.510  0.5671 -2.2909  0.9949
 3353SOL    HW221696   0.237   0.863   6.484 -2.2560  0.5350  0.4526
 3354SOL     OW21697   1.334   0.345   3.487 -0.3077  0.0310 -0.4059
 3354SOL    HW121698   1.355   0.427   3.442 -0.4907  0.0035 -0.5433
 3354SOL    HW221699   1.421   0.320   3.515 -0.9573  0.1772  1.7498
 3355SOL     OW21700   3.006   1.459  16.981  0.2092  0.6601 -0.3053
 3355SOL    HW121701   2.920   1.437  17.017 -0.1427  0.9449 -0.9674
 3355SOL    HW221702   3.011   1.555  16.984 -1.3690  0.7436 -0.4004
 3356SOL     OW21703   2.865   2.978   8.012  0.3125 -0.1804 -0.2074
 3356SOL    HW121704   2.852   2.990   8.106 -2.2794 -2.2534 -0.3141
 3356SOL    HW221705   2.947   3.024   7.990  1.8548 -2.7166  0.2686
 3357SOL     OW21706   3.871   1.440   6.766  0.7657 -0.3306  1.0565
 3357SOL    HW121707   3.940   1.459   6.830  1.5140 -2.4063  0.8587
 3357SOL    HW221708   3.791   1.464   6.811  1.2833 -0.0277  1.8224
 3358SOL     OW21709   3.677   1.545   5.119  0.0492  0.0729  0.4975
 3358SOL    HW121710   3.607   1.485   5.094 -0.7647  0.9531  0.6909
 3358SOL    HW221711   3.637   1.571   5.202 -1.4388  0.1947 -0.2561
 3359SOL     OW21712   2.874   1.956  10.837 -0.1773 -0.1135 -0.2356
 3359SOL    HW121713   2.808   1.910  10.889 -0.4152  1.1540  0.5769
 3359SOL    HW221714   2.925   2.010  10.896 -2.2108 -1.6529  2.9522
 3360SOL     OW21715   4.569   0.911   7.889  0.6736 -0.1343 -0.2620
 3360SOL    HW121716   4.477   0.887   7.886  1.0064 -1.5509  0.7901
 3360SOL    HW221717   4.613   0.826   7.885  1.7320  0.3775  0.2753
 3361SOL     OW21718   0.078   2.656   6.877  0.1109 -0.1899  0.4974
 3361SOL    HW121719   0.061   2.730   6.934 -3.8698  1.1316 -2.3960
 3361SOL    HW221720   0.030   2.685   6.799  0.0115 -3.1684 -0.5430
 3362SOL     OW21721   1.100   1.097  14.459 -0.0476 -0.3261 -0.0111
 3362SOL    HW121722   1.066   1.132  14.377  0.6419  1.4448  0.4598
 3362SOL    HW221723   1.146   1.021  14.421 -1.0336 -0.9191 -0.0079
 3363SOL     OW21724   0.621   1.891  12.470 -0.4798 -0.6257 -0.0560
 3363SOL    HW121725   0.700   1.944  12.473 -0.6348 -0.6126  3.7658
 3363SOL    HW221726   0.639   1.819  12.410 -0.8741 -0.0310 -0.9001
 3364SOL     OW21727   2.944   0.838   5.675  0.0891 -0.4857  0.6219
 3364SOL    HW121728   2.886   0.874   5.742 -3.2257 -1.4877 -1.6856
 3364SOL    HW221729   3.004   0.907   5.649 -0.6502 -0.2561 -0.4936
 3365SOL     OW21730   3.599   0.503   8.838 -0.6782 -0.2869  0.7323
 3365SOL    HW121731   3.615   0.445   8.764  1.3139  1.4557 -0.1983
 3365SOL    HW221732   3.661   0.574   8.820  0.6694 -1.7777 -0.4830
 3366SOL     OW21733   1.208   2.573   8.284  0.2875 -0.1338  0.5077
 3366SOL    HW121734   1.116   2.578   8.309  0.8930 -1.2964  2.9912
 3366SOL    HW221735   1.210   2.481   8.259  1.7028  0.0216  0.0232
 3367SOL     OW21736   4.659   0.119  12.736  0.4754  0.3512  0.4941
 3367SOL    HW121737   4.714   0.092  12.663 -1.7802 -0.9707 -0.7080
 3367SOL    HW221738   4.590   0.054  12.721 -0.4108  1.2294  0.7858
 3368SOL     OW21739   2.382   1.362   2.526  0.0302  0.0873  0.3101
 3368SOL    HW121740   2.320   1.288   2.527 -0.3752  0.3849 -1.9102
 3368SOL    HW221741   2.441   1.330   2.594 -0.0443 -1.0930 -0.1633
 3369SOL     OW21742   0.391   3.718   8.214  0.1762  0.3494  0.2983
 3369SOL    HW121743   0.308   3.766   8.213  0.3614  0.6670  0.2695
 3369SOL    HW221744   0.455   3.789   8.212  2.6517 -1.8658  2.3777
 3370SOL     OW21745   0.454   2.568   3.702 -0.2466 -0.0807 -0.2413
 3370SOL    HW121746   0.490   2.482   3.723 -0.2708  0.3377  1.5899
 3370SOL    HW221747   0.364   2.551   3.677  0.0995 -0.8859 -0.9228
 3371SOL     OW21748   3.899   1.381  14.153 -0.5003  0.2328 -0.2144
 3371SOL    HW121749   3.835   1.440  14.191 -1.0957  0.8029 -2.0868
 3371SOL    HW221750   3.955   1.365  14.229 -1.0067  1.6150  0.4494
 3372SOL     OW21751   3.054   1.950   6.261 -0.1456 -0.5717 -0.4336
 3372SOL    HW121752   3.120   1.939   6.192  0.5473  1.4861 -0.0778
 3372SOL    HW221753   2.978   1.969   6.205  1.0087  0.5296 -1.6469
 3373SOL     OW21754   2.107   0.327  16.225  0.2082 -0.1224 -0.4348
 3373SOL    HW121755   2.047   0.253  16.231  0.5043 -0.5604 -2.7865
 3373SOL    HW221756   2.080   0.397  16.286  3.2990  2.1058 -1.6424
 3374SOL     OW21757   0.652   3.503   5.419 -0.1712  0.0926 -0.2998
 3374SOL    HW121758   0.583   3.515   5.353  0.6429 -1.3178 -1.4267
 3374SOL    HW221759   0.597   3.474   5.492 -0.5931 -0.1462 -0.7040
 3375SOL     OW21760   1.372   4.390   5.547  0.7553 -0.4444 -0.3537
 3375SOL    HW121761   1.416   4.462   5.501  3.2228  0.6617  3.7053
 3375SOL    HW221762   1.350   4.329   5.477  1.4509 -1.9726  0.7786
 3376SOL     OW21763   4.095   0.748   3.004  0.3412  0.3676  0.3651
 3376SOL    HW121764   4.113   0.708   2.919  0.4022  2.1234 -0.4596
 3376SOL    HW221765   4.004   0.723   3.017 -0.0208 -0.4414 -3.7112
 3377SOL     OW21766   1.608   2.261  15.598 -0.1043  0.2400 -0.6802
 3377SOL    HW121767   1.673   2.321  15.560  0.2043  0.9044  0.9061
 3377SOL    HW221768   1.669   2.220  15.660  0.6676 -1.5506 -2.6245
 3378SOL     OW21769   0.453   1.316   0.476 -0.0483  0.1930  0.0659
 3378SOL    HW121770   0.534   1.363   0.496 -1.5153  2.7739 -0.0096
 3378SOL    HW221771   0.384   1.370   0.515  0.6929 -0.4529  2.2257
 3379SOL     OW21772   2.795   2.581   2.825  0.2701 -0.0074  0.3016
 3379SOL    HW121773   2.848   2.581   2.745  0.3997  1.5760  0.3934
 3379SOL    HW221774   2.723   2.522   2.802 -0.1267  0.3604  0.5992
 3380SOL     OW21775   1.074   1.522   7.881 -0.1480 -0.4520 -0.2522
 3380SOL    HW121776   1.019   1.596   7.906 -2.2069 -1.8277 -0.7362
 3380SOL    HW221777   1.119   1.507   7.964 -0.3878  1.6408  0.2507
 3381SOL     OW21778   2.654   0.054   2.961  0.0864 -0.0838  0.3108
 3381SOL    HW121779   2.716   0.110   3.007 -0.7617  2.1469 -1.2655
 3381SOL    HW221780   2.682   4.700   2.969  1.1389 -0.0267 -2.8439
 3382SOL     OW21781   2.740   2.457   6.621 -0.1854  0.1395  0.3894
 3382SOL    HW121782   2.737   2.553   6.623  3.5766  0.2535  0.0992
 3382SOL    HW221783   2.775   2.448   6.532  0.8293 -1.8235  0.9932
 3383SOL     OW21784   1.855   3.208   8.923 -0.1427  0.0983 -0.4493
 3383SOL    HW121785   1.919   3.146   8.957  1.2159  1.4890 -0.4384
 3383SOL    HW221786   1.779   3.152   8.912  2.4976 -2.7919 -4.0846
 3384SOL     OW21787   1.737   1.514   1.866 -0.4138 -0.4326  0.2567
 3384SOL    HW121788   1.655   1.475   1.896 -0.4973 -1.9219 -1.9292
 3384SOL    HW221789   1.795   1.491   1.939  2.5257 -1.0235 -2.2657
 3385SOL     OW21790   1.853   4.159   5.542  0.1497 -0.3028  0.5349
 3385SOL    HW121791   1.948   4.154   5.543  0.3219  2.1495 -2.0098
 3385SOL    HW221792   1.833   4.070   5.513 -1.7456  0.8432 -1.7683
 3386SOL     OW21793   4.300   2.782   4.809 -0.1742 -0.5038  0.7551
 3386SOL    HW121794   4.232   2.759   4.871 -2.0455 -1.1736 -1.5406
 3386SOL    HW221795   4.375   2.765   4.866 -1.7971 -2.5748  2.2867
 3387SOL     OW21796   0.471   3.426   7.127 -0.8272  0.0227  0.1399
 3387SOL    HW121797   0.441   3.349   7.079  0.9659  0.6797 -2.0198
 3387SOL    HW221798   0.501   3.490   7.063  1.9534 -1.0483  0.3682
 3388SOL     OW21799   4.485   2.083   5.492 -0.1273 -0.3758 -0.4039
 3388SOL    HW121800   4.462   2.013   5.431 -0.9703  0.1990 -0.7527
 3388SOL    HW221801   4.552   2.045   5.549 -0.8738 -0.1617  0.6139
 3389SOL     OW21802   2.048   4.581  12.527 -0.1765  0.2513 -0.1308
 3389SOL    HW121803   2.107   4.634  12.474 -0.2268  0.9441  0.4885
 3389SOL    HW221804   1.996   4.655  12.560 -0.9541 -0.4615  0.2622
 3390SOL     OW21805   1.540   2.333   9.014 -0.9191  0.0489 -0.6888
 3390SOL    HW121806   1.573   2.349   9.103  0.1319 -2.2149 -0.6723
 3390SOL    HW221807   1.452   2.307   9.043 -1.5652  1.3794 -1.4613
 3391SOL     OW21808   3.949   3.778   1.395 -0.3034 -0.4932 -0.4259
 3391SOL    HW121809   3.888   3.819   1.457  0.4488  1.7655 -1.1970
 3391SOL    HW221810   3.982   3.848   1.339  0.1591  0.7742  1.4058
 3392SOL     OW21811   1.161   0.094  14.632  0.5868  0.1959  0.6180
 3392SOL    HW121812   1.244   0.053  14.608  0.3416 -0.4821  0.9412
 3392SOL    HW221813   1.160   0.178  14.586  0.1577  0.1497  0.5457
 3393SOL     OW21814   3.067   2.827   2.840 -0.4109 -0.1130 -0.4052
 3393SOL    HW121815   3.068   2.858   2.749 -1.6610  0.5486 -0.2010
 3393SOL    HW221816   3.027   2.740   2.837 -1.9140  0.5690 -0.0030
 3394SOL     OW21817   4.662   3.185   3.339 -0.2535  0.2704 -0.1954
 3394SOL    HW121818   4.664   3.147   3.251  0.6602 -1.8929  0.7499
 3394SOL    HW221819   4.672   3.108   3.394 -3.0283  1.4949  2.0215
 3395SOL     OW21820   3.003   1.989   4.405  0.0173 -0.1317  0.4609
 3395SOL    HW121821   3.058   2.067   4.414 -1.2812  0.5664  2.3642
 3395SOL    HW221822   3.063   1.935   4.353 -0.0988 -0.4443  0.6526
 3396SOL     OW21823   3.518   0.966   3.863 -0.2150  0.8595  0.0131
 3396SOL    HW121824   3.563   0.903   3.919 -3.6198 -1.0320  0.6222
 3396SOL    HW221825   3.508   0.915   3.782  0.7288  0.1528  0.3500
 3397SOL     OW21826   1.116   1.120  17.216 -0.2168 -0.0804  0.2814
 3397SOL    HW121827   1.138   1.152  17.128 -0.6079  1.8986  0.8957
 3397SOL    HW221828   1.030   1.084  17.196 -0.0872 -1.9210  3.0510
 3398SOL     OW21829   3.272   3.764   3.801 -0.2907 -0.2881  0.2013
 3398SOL    HW121830   3.363   3.744   3.780 -0.0895 -1.7698  2.5366
 3398SOL    HW221831   3.229   3.679   3.788 -1.7164  0.2353  1.4829
 3399SOL     OW21832   0.260   0.356   4.292  0.3842 -0.5121  0.2724
 3399SOL    HW121833   0.268   0.276   4.241 -1.9686 -0.4340 -0.2086
 3399SOL    HW221834   0.169   0.348   4.320  0.0908 -0.9753 -0.8170
 3400SOL     OW21835   2.653   2.227   6.995 -0.2301  0.5836  0.2715
 3400SOL    HW121836   2.645   2.204   6.902 -0.2955  0.9857  0.1791
 3400SOL    HW221837   2.601   2.307   6.989  0.7116  1.2838  1.6009
 3401SOL     OW21838   2.518   1.098  11.948 -0.5766  0.1843 -0.2649
 3401SOL    HW121839   2.527   1.177  11.896 -0.7553 -0.6718 -1.5852
 3401SOL    HW221840   2.528   1.130  12.038  0.7257 -0.2114 -0.2745
 3402SOL     OW21841   0.142   4.574  15.562 -0.0412  0.7922 -0.0700
 3402SOL    HW121842   0.218   4.626  15.539 -0.4645  1.4381  0.0034
 3402SOL    HW221843   0.096   4.638  15.616 -1.0687  2.9121 -3.4770
 3403SOL     OW21844   1.242   4.052  15.203 -0.4085 -0.3695 -0.0309
 3403SOL    HW121845   1.332   4.055  15.234  0.4793  2.1644 -2.8483
 3403SOL    HW221846   1.210   3.971  15.243  0.0061 -0.9887 -0.9546
 3404SOL     OW21847   0.462   3.307   7.829 -0.2654  0.3366 -0.2450
 3404SOL    HW121848   0.377   3.325   7.870  0.1481 -0.1661  0.8300
 3404SOL    HW221849   0.463   3.211   7.827  0.4373  0.3044  1.1504
 3405SOL     OW21850   3.706   2.928   1.279 -0.5056 -0.5396 -0.5241
 3405SOL    HW121851   3.708   2.888   1.366  2.0369 -0.1069 -0.3816
 3405SOL    HW221852   3.762   3.006   1.284 -1.1083 -0.2096  1.3238
 3406SOL     OW21853   1.611   3.075  11.294  0.0303  0.0179 -0.2648
 3406SOL    HW121854   1.684   3.040  11.243  1.0629  2.7538 -0.6266
 3406SOL    HW221855   1.572   3.119  11.219  0.2398  1.6678  0.6015
 3407SOL     OW21856   2.659   2.311   4.086 -0.5457 -0.2186  0.2837
 3407SOL    HW121857   2.653   2.295   4.180  1.4870  2.3939  0.8349
 3407SOL    HW221858   2.729   2.376   4.090 -0.2399 -0.5570  0.4882
 3408SOL     OW21859   1.945   1.144   8.294 -0.1282 -0.7406 -0.2654
 3408SOL    HW121860   1.985   1.079   8.352 -1.4932 -0.4287  1.0223
 3408SOL    HW221861   1.870   1.094   8.261  0.5693 -2.4236  0.6956
 3409SOL     OW21862   2.030   1.115   7.839  0.8828 -0.2658 -0.2780
 3409SOL    HW121863   2.039   1.039   7.897 -0.8026  1.0479  1.7202
 3409SOL    HW221864   1.960   1.084   7.782  3.3200 -0.4885 -3.1347
 3410SOL     OW21865   4.101   4.338  12.037 -0.3987 -0.3824 -0.4694
 3410SOL    HW121866   4.169   4.405  12.033  0.1831 -0.8238  1.9287
 3410SOL    HW221867   4.157   4.261  12.024 -0.8456 -0.9197  0.7179
 3411SOL     OW21868   3.959   2.147  12.632 -0.2134  0.0076 -0.2345
 3411SOL    HW121869   3.936   2.095  12.709  1.6344 -2.6218 -1.4581
 3411SOL    HW221870   4.043   2.182  12.662 -0.8990  2.5507 -1.2953
 3412SOL     OW21871   0.879   1.542  11.055 -0.4138 -0.6224 -0.0933
 3412SOL    HW121872   0.975   1.546  11.057 -0.3739 -3.0223  1.7433
 3412SOL    HW221873   0.857   1.528  11.147 -0.7626 -0.9370 -0.2276
 3413SOL     OW21874   0.888   0.320   0.862  0.1518 -0.0132  0.3945
 3413SOL    HW121875   0.970   0.369   0.861  1.0566 -1.5848 -2.7242
 3413SOL    HW221876   0.901   0.279   0.947  0.9639  2.0379  1.2455
 3414SOL     OW21877   2.633   3.260   7.355  0.4675 -0.6048 -0.0264
 3414SOL    HW121878   2.583   3.267   7.436  0.6117 -2.1853  0.1860
 3414SOL    HW221879   2.716   3.300   7.381 -0.1899  1.6422 -1.3815
 3415SOL     OW21880   0.705   0.033   8.214  0.4729 -0.3634 -0.1222
 3415SOL    HW121881   0.742   0.100   8.158  0.2554  2.6440  3.3295
 3415SOL    HW221882   0.769   4.701   8.223  0.3150 -0.4075  0.6962
 3416SOL     OW21883   1.707   0.809   6.852  0.2466  0.1678  0.4302
 3416SOL    HW121884   1.729   0.901   6.839 -0.7341  0.3702  0.2599
 3416SOL    HW221885   1.693   0.803   6.947 -0.7842 -2.1078  0.1308
 3417SOL     OW21886   2.024   4.344   4.733  0.2109  0.4707  0.2512
 3417SOL    HW121887   1.999   4.434   4.710  0.6052  0.3744 -0.5609
 3417SOL    HW221888   2.061   4.347   4.821 -1.3389  0.5410  0.8961
 3418SOL     OW21889   1.253   2.882   3.684 -0.0498 -0.3742 -0.5187
 3418SOL    HW121890   1.341   2.847   3.675 -0.5170 -1.5532 -0.5041
 3418SOL    HW221891   1.222   2.853   3.770  0.7937  2.8126  0.8629
 3419SOL     OW21892   0.475   3.238   2.203 -0.2637 -0.1273 -0.4516
 3419SOL    HW121893   0.390   3.198   2.184 -0.7567  0.5969  0.2062
 3419SOL    HW221894   0.501   3.272   2.117  0.3556  0.7957  0.0942
 3420SOL     OW21895   1.854   0.829   1.502 -0.2870  0.9608 -0.6347
 3420SOL    HW121896   1.852   0.780   1.584  0.7940  2.7059  0.4440
 3420SOL    HW221897   1.913   0.898   1.534  0.5480  0.4415 -1.0631
 3421SOL     OW21898   1.734   1.316   9.737  0.4413 -0.1083  0.1132
 3421SOL    HW121899   1.678   1.265   9.796 -4.4281  1.5957 -2.9742
 3421SOL    HW221900   1.820   1.295   9.773  0.2030  2.1511  2.0223
 3422SOL     OW21901   2.686   4.498   7.851  0.0893  0.0540 -0.0411
 3422SOL    HW121902   2.760   4.465   7.902 -0.5933  1.1394  1.6521
 3422SOL    HW221903   2.629   4.423   7.861  1.9417 -1.5126 -1.1871
 3423SOL     OW21904   0.469   1.117  17.563 -0.3012 -0.9729  0.2500
 3423SOL    HW121905   0.457   1.175  17.488  0.1621 -0.8394  0.2810
 3423SOL    HW221906   0.422   1.162  17.633 -0.2655  0.8546 -0.9067
 3424SOL     OW21907   2.765   4.272  12.831 -0.1457  0.9410 -0.3005
 3424SOL    HW121908   2.679   4.259  12.870 -0.2400  1.1377 -0.4419
 3424SOL    HW221909   2.738   4.302  12.744 -0.2695 -2.1022 -1.2777
 3425SOL     OW21910   2.099   4.177   9.113  0.0891 -0.3882  0.4103
 3425SOL    HW121911   2.046   4.254   9.090  2.8284  1.2308 -0.5216
 3425SOL    HW221912   2.159   4.219   9.174  0.4181 -1.1031  0.5734
 3426SOL     OW21913   3.460   2.270   5.979 -0.8492  0.1741  0.0320
 3426SOL    HW121914   3.526   2.337   5.960 -0.2164 -0.7451 -1.0744
 3426SOL    HW221915   3.382   2.316   6.009 -0.9386  0.1435 -0.1548
 3427SOL     OW21916   4.374   1.172   4.377  0.0147 -0.4817  0.2551
 3427SOL    HW121917   4.367   1.248   4.320  0.0124 -1.8864 -1.6143
 3427SOL    HW221918   4.454   1.127   4.347  1.5301  3.5875 -1.7085
 3428SOL     OW21919   3.465   2.980   4.266 -0.0046 -0.4768 -0.5426
 3428SOL    HW121920   3.470   3.032   4.346  0.6526 -2.3649  0.6286
 3428SOL    HW221921   3.422   2.902   4.300 -3.2312  1.5587  0.0263
 3429SOL     OW21922   2.155   4.654   5.989  0.4687 -0.0858 -0.2412
 3429SOL    HW121923   2.099   4.589   6.031  1.0328  0.0265  0.7137
 3429SOL    HW221924   2.222   4.598   5.950  0.6692 -0.1621  0.2020
 3430SOL     OW21925   3.631   2.440   2.841  0.4891 -0.3079 -0.3011
 3430SOL    HW121926   3.692   2.453   2.914 -1.3917 -0.8101  1.3589
 3430SOL    HW221927   3.689   2.469   2.771  0.2744  2.1750  0.5504
 3431SOL     OW21928   1.075   2.356   1.660  0.0022  0.1037  0.1023
 3431SOL    HW121929   1.036   2.443   1.648  0.9592  0.6523  0.9806
 3431SOL    HW221930   1.027   2.298   1.601 -0.1706  1.3483 -0.9696
 3432SOL     OW21931   0.513   3.252   5.071 -0.3927 -0.0160  0.1192
 3432SOL    HW121932   0.430   3.263   5.118 -1.0228 -2.3096 -0.4830
 3432SOL    HW221933   0.560   3.219   5.147  0.8729  1.0429 -0.2083
 3433SOL     OW21934   0.938   1.871   8.352 -0.7116 -0.1869 -0.2312
 3433SOL    HW121935   1.028   1.896   8.370 -0.5948 -1.1153  0.4642
 3433SOL    HW221936   0.889   1.949   8.379  0.6890  0.8547 -0.6814
 3434SOL     OW21937   1.883   2.202   9.924 -0.8024  0.4611  0.2641
 3434SOL    HW121938   1.931   2.130   9.966  0.3151  1.0801  0.0610
 3434SOL    HW221939   1.871   2.166   9.836 -0.8720  0.6258  0.2074
 3435SOL     OW21940   4.179   3.100   9.314 -0.5047  0.1351 -0.0584
 3435SOL    HW121941   4.248   3.166   9.312 -0.2182 -0.2009 -1.8512
 3435SOL    HW221942   4.133   3.123   9.233  0.7212 -0.2333 -0.8709
 3436SOL     OW21943   1.022   0.881   5.556 -0.1425  0.3091 -0.5881
 3436SOL    HW121944   1.052   0.971   5.567 -0.1562  0.6991 -3.7325
 3436SOL    HW221945   0.998   0.853   5.644  3.2741 -0.7470  0.0217
 3437SOL     OW21946   2.042   2.133   8.939 -0.5171  0.2638  0.7542
 3437SOL    HW121947   2.030   2.084   8.858 -2.0236  2.0994 -0.1090
 3437SOL    HW221948   2.134   2.159   8.946 -1.1076  2.7640 -1.2271
 3438SOL     OW21949   4.589   1.130  14.310  0.3650  0.1310 -0.2634
 3438SOL    HW121950   4.584   1.046  14.264  1.7261  0.3243 -0.7842
 3438SOL    HW221951   4.596   1.194  14.239 -1.9616  0.7517  0.0823
 3439SOL     OW21952   3.050   0.259   3.490 -0.2631  0.2227  0.8259
 3439SOL    HW121953   2.987   0.316   3.534 -1.1229  1.6927 -2.3279
 3439SOL    HW221954   2.996   0.221   3.422 -0.0345 -1.2569  1.4639
 3440SOL     OW21955   3.798   3.946   9.658  0.0049  0.2634  0.4524
 3440SOL    HW121956   3.750   4.024   9.683  2.2560  1.8777 -0.2883
 3440SOL    HW221957   3.887   3.955   9.691 -1.6509  3.1398  4.1136
 3441SOL     OW21958   1.554   1.228   4.340  0.3191  0.3004  0.4065
 3441SOL    HW121959   1.534   1.147   4.387 -0.1076 -0.3108 -0.7990
 3441SOL    HW221960   1.648   1.222   4.323  0.5986  1.8351  1.4499
 3442SOL     OW21961   3.184   3.108  16.334 -0.1142  0.7897  0.6217
 3442SOL    HW121962   3.175   3.044  16.404 -0.4701 -0.0784 -0.2153
 3442SOL    HW221963   3.249   3.057  16.285 -0.9393 -0.0895  0.4459
 3443SOL     OW21964   4.121   0.922   4.701  0.9356  0.6314  0.0550
 3443SOL    HW121965   4.158   0.973   4.628 -1.6021 -0.7616 -2.1906
 3443SOL    HW221966   4.193   0.907   4.762  1.0890  1.2155  0.0175
 3444SOL     OW21967   3.127   2.110   8.536  0.4462 -0.0321  0.4345
 3444SOL    HW121968   3.131   2.133   8.628  2.3827  0.1668  0.3112
 3444SOL    HW221969   3.220   2.110   8.512  0.4480 -0.3144  0.4435
 3445SOL     OW21970   2.125   1.025   5.959 -0.1082  0.2064  0.4981
 3445SOL    HW121971   2.092   1.003   6.047 -0.4352 -1.3444  0.0007
 3445SOL    HW221972   2.171   1.106   5.981 -1.1779  0.4096  1.9914
 3446SOL     OW21973   0.484   2.770   5.348 -0.0137 -0.1382  0.4890
 3446SOL    HW121974   0.460   2.748   5.258 -1.2449  0.9809  0.5388
 3446SOL    HW221975   0.551   2.836   5.333  0.3960 -1.0867 -1.7311
 3447SOL     OW21976   3.511   2.890  13.545  0.0460  0.1394 -0.5060
 3447SOL    HW121977   3.465   2.971  13.521 -1.4367  0.0864  2.1749
 3447SOL    HW221978   3.472   2.888  13.632  0.0261  3.4974 -0.4056
 3448SOL     OW21979   0.869   4.155   3.904 -0.3990 -0.4287 -0.7125
 3448SOL    HW121980   0.867   4.059   3.906  0.0703 -0.4585 -1.6800
 3448SOL    HW221981   0.950   4.177   3.950 -1.9587 -1.9437  2.7793
 3449SOL     OW21982   0.286   4.009  10.300 -0.0346 -0.0710  0.5410
 3449SOL    HW121983   0.271   3.932  10.244  0.3423  2.4976 -3.0692
 3449SOL    HW221984   0.336   4.055  10.233  0.2737 -1.1326  0.0357
 3450SOL     OW21985   2.617   1.147   1.337  0.7984  0.1094  0.3264
 3450SOL    HW121986   2.597   1.219   1.396 -2.5357 -0.0025 -0.6393
 3450SOL    HW221987   2.539   1.159   1.282  1.6299 -0.5489 -0.9893
 3451SOL     OW21988   4.212   3.153   7.688  0.3681 -0.1719  0.1288
 3451SOL    HW121989   4.148   3.082   7.684  1.5845 -1.1993 -1.3709
 3451SOL    HW221990   4.252   3.126   7.605  1.4371  1.0098  0.2544
 3452SOL     OW21991   4.228   1.906   1.965 -0.2045 -0.6169  0.2711
 3452SOL    HW121992   4.285   1.897   2.041  1.6200 -2.0208 -1.2583
 3452SOL    HW221993   4.290   1.887   1.895  0.9491 -1.2758  1.4708
 3453SOL     OW21994   1.977   2.063  14.350  0.1649  0.0898  0.4671
 3453SOL    HW121995   2.029   1.986  14.327 -0.4746 -0.1646 -0.1189
 3453SOL    HW221996   2.025   2.127  14.298 -0.1112  0.5337  0.7509
 3454SOL     OW21997   0.904   4.329  15.759  0.1600  0.6815 -0.5262
 3454SOL    HW121998   0.898   4.265  15.829 -0.7135 -0.5423 -1.7356
 3454SOL    HW221999   0.914   4.284  15.675 -1.4186  0.5813 -0.6599
 3455SOL     OW22000   2.201   0.157   8.766  0.3324 -0.0654  0.1386
 3455SOL    HW122001   2.259   0.227   8.735 -0.3188 -0.4565 -1.9827
 3455SOL    HW222002   2.256   0.118   8.834  1.5729  1.0166 -0.2542
 3456SOL     OW22003   3.087   3.237   1.034 -0.5011 -0.2712  0.3177
 3456SOL    HW122004   3.072   3.239   1.129  3.4245 -0.6692  0.9298
 3456SOL    HW222005   3.140   3.157   1.039  1.9584  1.3427 -0.3702
 3457SOL     OW22006   3.493   3.737   6.080 -0.5628  0.5855  0.0661
 3457SOL    HW122007   3.573   3.686   6.089 -0.0208  1.5968  0.9618
 3457SOL    HW222008   3.464   3.760   6.168  1.5515 -0.7552  1.1152
 3458SOL     OW22009   0.232   1.419   7.669 -0.1682  0.3126 -0.3750
 3458SOL    HW122010   0.208   1.495   7.616 -2.2226  0.7931  1.2598
 3458SOL    HW222011   0.176   1.434   7.746 -0.4875 -1.2968 -0.2925
 3459SOL     OW22012   1.423   2.752  13.875 -0.5191  0.3296  0.3584
 3459SOL    HW122013   1.394   2.775  13.787 -0.5606 -0.6120  0.1217
 3459SOL    HW222014   1.341   2.724  13.916 -0.9963  0.3194 -0.6132
 3460SOL     OW22015   1.573   4.736   4.546 -0.0016 -0.0232  0.1195
 3460SOL    HW122016   1.557   0.050   4.625  0.4986  1.1157 -0.5248
 3460SOL    HW222017   1.641   0.047   4.500  1.4160 -1.8602  0.2679
 3461SOL     OW22018   3.314   0.064   4.364  0.0112  0.1774  0.6083
 3461SOL    HW122019   3.250   0.073   4.293 -0.2258  1.1633  0.9476
 3461SOL    HW222020   3.358   4.717   4.369  0.9951  0.4051 -4.2598
 3462SOL     OW22021   4.655   1.609   2.926 -0.2451  0.3900  0.2354
 3462SOL    HW122022   4.638   1.592   3.018  1.1167  0.3799  0.4805
 3462SOL    HW222023   4.733   1.665   2.928  0.2474 -0.2948  0.2294
 3463SOL     OW22024   3.018   1.396   3.173  0.0637  0.2704  0.2174
 3463SOL    HW122025   2.983   1.353   3.251  2.3775  1.0846  1.7088
 3463SOL    HW222026   3.045   1.479   3.212  1.3902 -0.3284  0.5776
 3464SOL     OW22027   0.796   3.256   9.100  0.0050 -0.0226  0.6056
 3464SOL    HW122028   0.854   3.216   9.035 -1.2561 -1.1306  0.1661
 3464SOL    HW222029   0.778   3.188   9.165  0.4895 -0.3169  0.4268
 3465SOL     OW22030   4.529   1.814   1.920  0.7931  0.3144 -0.5059
 3465SOL    HW122031   4.544   1.775   1.834  1.3599 -0.6771  0.0521
 3465SOL    HW222032   4.484   1.741   1.963 -1.1352  2.6816  1.5084
 3466SOL     OW22033   3.307   3.644   1.678 -0.2173  0.0706 -0.3842
 3466SOL    HW122034   3.268   3.558   1.664  1.5485 -0.6893 -0.5551
 3466SOL    HW222035   3.248   3.679   1.745 -1.2434 -0.4923 -0.9946
 3467SOL     OW22036   0.224   3.507  14.604  0.1993 -0.3158 -0.1087
 3467SOL    HW122037   0.190   3.488  14.517 -1.1949 -0.8274  0.5399
 3467SOL    HW222038   0.168   3.462  14.668  1.5187 -1.0078  0.5645
 3468SOL     OW22039   1.813   4.705   9.272  0.4405  0.2340  0.8405
 3468SOL    HW122040   1.809   4.642   9.201 -1.6216 -0.3999  1.5187
 3468SOL    HW222041   1.722   4.705   9.303  0.2862 -2.0956  0.3511
 3469SOL     OW22042   4.693   1.795   6.963  0.1886  0.0635  0.6143
 3469SOL    HW122043   4.666   1.861   6.900  2.0444 -0.5069 -0.8018
 3469SOL    HW222044   4.648   1.724   6.918 -0.4394  0.8583 -0.0013
 3470SOL     OW22045   1.936   0.901  16.434 -0.0069 -0.1145  0.0670
 3470SOL    HW122046   1.964   0.951  16.357 -1.2719  2.3761  1.2356
 3470SOL    HW222047   1.898   0.962  16.497 -1.0180  0.6211 -1.2361
 3471SOL     OW22048   2.521   3.550   7.092 -0.0546 -0.4312 -0.0043
 3471SOL    HW122049   2.615   3.540   7.075  0.3196 -0.2323  2.0033
 3471SOL    HW222050   2.524   3.568   7.186 -0.8724  0.7217 -0.2006
 3472SOL     OW22051   3.176   1.275  11.435 -0.5555  0.2978 -0.0482
 3472SOL    HW122052   3.214   1.268  11.348 -1.4966 -0.7999 -0.3717
 3472SOL    HW222053   3.171   1.369  11.454  2.2268  0.9442 -2.5702
 3473SOL     OW22054   4.304   1.741   6.655 -0.6077 -0.1841 -0.0500
 3473SOL    HW122055   4.337   1.711   6.740  0.5738  0.7038 -0.2049
 3473SOL    HW222056   4.255   1.821   6.673  1.8264  0.8821  1.7886
 3474SOL     OW22057   4.249   0.718   8.204  0.5041 -0.2780  0.3146
 3474SOL    HW122058   4.209   0.634   8.222 -1.7073  1.0730  1.6462
 3474SOL    HW222059   4.226   0.762   8.286  0.4759 -1.2016  0.7927
 3475SOL     OW22060   0.464   4.255   2.027  0.1030 -0.3117 -0.2074
 3475SOL    HW122061   0.459   4.188   1.959  0.1240 -1.1232  0.5991
 3475SOL    HW222062   0.455   4.340   1.983  0.1988  1.1404  2.5540
 3476SOL     OW22063   0.427   3.763   5.500 -0.0935 -0.1070 -0.1591
 3476SOL    HW122064   0.407   3.828   5.567  0.5646  1.9055 -1.8938
 3476SOL    HW222065   0.482   3.695   5.536  0.3654 -0.0250 -0.7011
 3477SOL     OW22066   4.200   4.445  11.082  0.1287  0.2885  0.6156
 3477SOL    HW122067   4.278   4.441  11.026  0.4953 -0.6659  1.2001
 3477SOL    HW222068   4.239   4.505  11.146  1.2826  0.7426 -0.5094
 3478SOL     OW22069   4.313   0.102   3.801 -0.0942 -0.3669 -0.2533
 3478SOL    HW122070   4.339   0.047   3.727  0.4159 -0.0960 -0.2798
 3478SOL    HW222071   4.337   0.041   3.870  1.4412  1.9432  1.2629
 3479SOL     OW22072   2.593   1.030   5.128  0.3841  0.0106 -0.1707
 3479SOL    HW122073   2.540   1.074   5.194  0.6345 -0.0950  0.0997
 3479SOL    HW222074   2.656   0.985   5.185  1.5312  1.9542  0.0960
 3480SOL     OW22075   3.466   0.708   7.586 -0.8004 -0.7980 -0.7702
 3480SOL    HW122076   3.489   0.623   7.624 -0.1906 -0.3807 -0.2173
 3480SOL    HW222077   3.526   0.714   7.512 -1.6933 -2.5514 -1.6524
 3481SOL     OW22078   1.867   3.301  12.101  0.1349 -0.3797  0.2181
 3481SOL    HW122079   1.833   3.298  12.191  0.6507  0.6923  0.4405
 3481SOL    HW222080   1.936   3.234  12.102  2.7847  2.3652 -1.2573
 3482SOL     OW22081   0.662   1.466   3.159 -0.1856  0.4977 -0.7638
 3482SOL    HW122082   0.708   1.548   3.175 -1.1380  1.1227 -1.1733
 3482SOL    HW222083   0.580   1.505   3.129  0.0599  0.8735 -0.9453
 3483SOL     OW22084   1.257   3.575   8.106  0.1986  0.3626 -0.0044
 3483SOL    HW122085   1.330   3.513   8.103 -0.4437 -0.3152 -1.7599
 3483SOL    HW222086   1.301   3.652   8.142 -3.0448  0.7723  3.0973
 3484SOL     OW22087   0.328   0.057   2.508 -0.2769 -0.2599 -0.2075
 3484SOL    HW122088   0.309   0.147   2.481  0.1676 -0.2709 -0.5578
 3484SOL    HW222089   0.371   0.068   2.593  0.0360  1.6633 -0.6167
 3485SOL     OW22090   0.897   2.666  13.846  0.7874 -0.4175 -0.0242
 3485SOL    HW122091   0.970   2.661  13.785 -1.3993 -2.5046 -2.4757
 3485SOL    HW222092   0.845   2.586  13.836  1.4432 -0.6309 -1.6055
 3486SOL     OW22093   0.036   4.472   4.191  0.0151 -0.3525  0.1516
 3486SOL    HW122094   0.099   4.415   4.147 -1.2286 -1.8674  0.3132
 3486SOL    HW222095   4.702   4.411   4.207  0.3654 -0.6644  0.5533
 3487SOL     OW22096   0.153   0.255   6.224 -0.1659 -0.0596 -0.0592
 3487SOL    HW122097   0.115   0.292   6.144 -0.1569 -1.7142 -0.8242
 3487SOL    HW222098   0.095   0.179   6.229  1.4179 -1.2179  0.6445
 3488SOL     OW22099   2.907   2.709   5.108  0.1549  0.3231 -0.3539
 3488SOL    HW122100   2.864   2.732   5.191 -0.0203  1.7739 -0.8389
 3488SOL    HW222101   2.965   2.636   5.130 -1.1390 -0.3106  0.9246
 3489SOL     OW22102   4.025   2.271   5.870  1.0073  0.0818 -0.3533
 3489SOL    HW122103   4.056   2.231   5.789  1.1113 -1.4253  0.4249
 3489SOL    HW222104   4.108   2.293   5.912  0.9241  1.4169 -0.8906
 3490SOL     OW22105   2.444   0.462   7.513 -0.4096  0.3370 -0.0085
 3490SOL    HW122106   2.408   0.483   7.427  0.8902 -1.4739 -0.9833
 3490SOL    HW222107   2.413   0.541   7.558 -3.8762 -3.0031  3.5040
 3491SOL     OW22108   3.696   4.088   7.198  0.1407  0.3423  0.0862
 3491SOL    HW122109   3.669   4.041   7.120  0.2064 -0.9605  0.8427
 3491SOL    HW222110   3.656   4.174   7.180 -0.9690  0.0985  1.3474
 3492SOL     OW22111   1.358   3.261   7.825  0.4144  0.4271 -0.5364
 3492SOL    HW122112   1.281   3.240   7.773  1.9157 -1.7649 -1.8949
 3492SOL    HW222113   1.361   3.354   7.801  1.0593  0.5289 -0.0478
 3493SOL     OW22114   2.274   4.047   3.651 -0.1706 -0.1618  0.3085
 3493SOL    HW122115   2.265   4.016   3.561 -0.6585 -3.5094  1.5221
 3493SOL    HW222116   2.267   3.970   3.706  2.0561 -0.1169  0.6392
 3494SOL     OW22117   2.524   1.968   6.353  0.2571 -0.1960 -0.0145
 3494SOL    HW122118   2.472   1.925   6.421  0.2945  2.6240  1.7946
 3494SOL    HW222119   2.512   1.906   6.281  0.7231 -1.1324  0.7104
 3495SOL     OW22120   1.550   4.630  10.248 -0.1508  0.1798 -0.1858
 3495SOL    HW122121   1.547   4.535  10.239 -1.9723  0.0307  2.0462
 3495SOL    HW222122   1.630   4.649  10.198 -2.0072  3.5449 -1.8224
 3496SOL     OW22123   3.506   3.803   1.459 -0.8781  0.3144  0.3908
 3496SOL    HW122124   3.460   3.873   1.412  2.2386  2.0163 -0.0927
 3496SOL    HW222125   3.446   3.783   1.530  0.8588 -2.4399  1.1002
 3497SOL     OW22126   3.747   4.609   3.398 -0.1806  0.3121  0.3707
 3497SOL    HW122127   3.726   4.676   3.464  1.9414 -0.2172  1.5860
 3497SOL    HW222128   3.673   4.551   3.412 -1.0321  1.2863 -0.0748
 3498SOL     OW22129   4.154   3.107   4.801 -0.2550  0.1604 -0.0178
 3498SOL    HW122130   4.059   3.108   4.808 -0.1811  1.6469  0.8624
 3498SOL    HW222131   4.165   3.073   4.713  2.1321  0.6278  0.0792
 3499SOL     OW22132   3.435   3.910   1.850  0.0554  0.0390  0.3314
 3499SOL    HW122133   3.452   3.969   1.924  0.8851  1.4657 -0.9937
 3499SOL    HW222134   3.390   3.960   1.782 -1.6229  1.0228  2.1727
 3500SOL     OW22135   4.050   1.173   3.204  0.0369 -0.1334 -0.2254
 3500SOL    HW122136   4.096   1.109   3.149 -1.5149 -0.9744 -0.5581
 3500SOL    HW222137   3.960   1.155   3.174 -0.3289 -0.1611  0.9130
 3501SOL     OW22138   2.041   3.371   6.563  0.2173  0.0137 -0.1341
 3501SOL    HW122139   1.970   3.398   6.505  0.0331 -0.5476 -0.1671
 3501SOL    HW222140   2.010   3.284   6.586 -2.2063  1.4131  1.8674
 3502SOL     OW22141   1.715   1.830   6.497 -0.3365 -0.2805  0.2682
 3502SOL    HW122142   1.810   1.831   6.514 -0.5342 -2.0278  1.4354
 3502SOL    HW222143   1.683   1.896   6.559  0.2159  0.2077  0.0409
 3503SOL     OW22144   0.544   0.125   9.362  0.4383  0.3130 -0.2317
 3503SOL    HW122145   0.547   0.030   9.366  0.2635  0.3269  0.2201
 3503SOL    HW222146   0.514   0.150   9.450  0.4687 -0.3435 -0.0363
 3504SOL     OW22147   2.188   3.433   0.598  0.1257 -0.3634 -0.3116
 3504SOL    HW122148   2.098   3.464   0.611 -0.3860 -1.2410 -1.7588
 3504SOL    HW222149   2.174   3.339   0.612 -1.8650 -0.2492 -1.4941
 3505SOL     OW22150   4.468   0.414   5.265  0.2017 -0.2131  0.1310
 3505SOL    HW122151   4.521   0.463   5.203 -0.5723  0.9670  0.4055
 3505SOL    HW222152   4.492   0.454   5.348  0.8234 -0.3105 -0.0062
 3506SOL     OW22153   2.673   2.976   9.100 -0.4908  0.5205  0.1694
 3506SOL    HW122154   2.580   2.964   9.118  0.6759 -1.2995  5.0156
 3506SOL    HW222155   2.669   3.007   9.009  1.7592  0.8103  0.1799
 3507SOL     OW22156   1.407   3.397   4.577  0.9364 -0.0453  0.0871
 3507SOL    HW122157   1.495   3.414   4.545  1.0286 -1.5516 -0.4433
 3507SOL    HW222158   1.367   3.484   4.574 -0.3467 -0.6780 -1.8037
 3508SOL     OW22159   2.945   1.899  12.548 -0.2415  0.2738  0.3613
 3508SOL    HW122160   2.880   1.917  12.616  0.7172  0.9838  1.1000
 3508SOL    HW222161   3.019   1.948  12.585  0.1990  1.0995 -1.6178
 3509SOL     OW22162   1.655   3.468  10.554 -0.0862 -0.0199  0.4569
 3509SOL    HW122163   1.560   3.471  10.550 -0.1166 -0.9282  0.4093
 3509SOL    HW222164   1.663   3.376  10.579  1.6090 -0.3245 -1.2010
 3510SOL     OW22165   3.167   2.831   9.032  0.1589  0.0442 -0.0380
 3510SOL    HW122166   3.112   2.792   9.099  0.1947 -3.7339 -2.2416
 3510SOL    HW222167   3.251   2.841   9.077  0.1646  1.3500 -0.3302
 3511SOL     OW22168   2.166   4.039  17.373  0.3698  0.0260  0.1958
 3511SOL    HW122169   2.112   4.083  17.308 -0.2015 -0.3415  0.4217
 3511SOL    HW222170   2.179   3.957  17.325  0.4101  0.4842 -0.5598
 3512SOL     OW22171   3.404   1.765   5.881 -0.4254  0.2603  0.2065
 3512SOL    HW122172   3.373   1.780   5.970 -0.0959  0.3198  0.3105
 3512SOL    HW222173   3.365   1.840   5.837  4.0238  1.8244 -1.1320
 3513SOL     OW22174   1.541   1.579   2.515  0.3777 -0.3405  0.1199
 3513SOL    HW122175   1.600   1.650   2.493  0.4930 -0.6165 -0.4730
 3513SOL    HW222176   1.574   1.573   2.605  4.2155  0.1068 -1.2617
 3514SOL     OW22177   4.709   3.664  11.199  0.4242  0.0832  0.4306
 3514SOL    HW122178   4.658   3.603  11.253 -0.7326  0.6395 -0.0345
 3514SOL    HW222179   4.733   3.724  11.269  0.8722  0.3215  0.0743
 3515SOL     OW22180   3.889   0.963   4.387 -0.2331 -0.3152 -0.4331
 3515SOL    HW122181   3.824   1.034   4.388  0.4819  0.3156  1.1234
 3515SOL    HW222182   3.956   0.989   4.450  2.3816  0.5674 -3.5700
 3516SOL     OW22183   0.622   4.085   9.846 -0.2982  0.1535  0.2710
 3516SOL    HW122184   0.610   4.024   9.773  1.6802 -1.4553  1.2927
 3516SOL    HW222185   0.688   4.031   9.889  0.8901  0.7753 -0.7769
 3517SOL     OW22186   1.450   4.671   4.165 -0.5839  0.0421 -0.7545
 3517SOL    HW122187   1.446   4.624   4.248 -2.5827  0.1126 -0.8081
 3517SOL    HW222188   1.377   4.633   4.117 -1.3825 -0.1204  0.5886
 3518SOL     OW22189   3.517   3.111   4.486 -0.3603  0.2869 -0.2902
 3518SOL    HW122190   3.459   3.183   4.509 -0.5801  0.3292 -0.9870
 3518SOL    HW222191   3.528   3.069   4.571 -0.6284 -0.1880 -0.4944
 3519SOL     OW22192   2.161   2.774   2.643  0.2671  0.2522  0.4760
 3519SOL    HW122193   2.248   2.770   2.603 -1.9834  0.4622 -4.5060
 3519SOL    HW222194   2.113   2.696   2.615  0.8438 -0.3103  1.0621
 3520SOL     OW22195   1.769   0.793  12.206  0.1414 -0.0711  0.5289
 3520SOL    HW122196   1.809   0.768  12.290 -0.6104  1.6290  1.3912
 3520SOL    HW222197   1.841   0.846  12.172 -0.0514 -0.8069 -1.0267
 3521SOL     OW22198   2.853   3.110   5.328  0.3793 -0.1187 -0.0478
 3521SOL    HW122199   2.839   3.194   5.370  3.8754  1.2270 -1.5507
 3521SOL    HW222200   2.765   3.093   5.293  0.7083 -1.1793 -0.3720
 3522SOL     OW22201   1.300   3.336   2.811  0.1559  0.1526 -0.3440
 3522SOL    HW122202   1.302   3.281   2.890 -1.0455  1.9954  0.9536
 3522SOL    HW222203   1.239   3.403   2.840  1.4396  0.6073  1.3376
 3523SOL     OW22204   3.265   3.117   2.527 -0.1738  0.4786  0.1590
 3523SOL    HW122205   3.197   3.062   2.564  1.2842 -0.7043  1.1039
 3523SOL    HW222206   3.245   3.121   2.433 -0.9182 -0.5145  0.2791
 3524SOL     OW22207   3.705   4.400   1.617  0.3164  0.1414 -0.2949
 3524SOL    HW122208   3.642   4.337   1.582  0.5708 -1.1627  1.6030
 3524SOL    HW222209   3.758   4.425   1.541  1.7729 -0.6662  0.4590
 3525SOL     OW22210   4.568   1.650  16.807 -0.5309 -0.2691 -0.3986
 3525SOL    HW122211   4.558   1.743  16.824  0.0337  0.0586 -1.9285
 3525SOL    HW222212   4.475   1.627  16.808 -1.3496  3.1368  0.0842
 3526SOL     OW22213   0.409   3.215   6.942 -0.0637 -0.3694  0.1051
 3526SOL    HW122214   0.315   3.229   6.936 -0.2181 -0.6859  2.0230
 3526SOL    HW222215   0.425   3.124   6.966  0.2506  0.0746  1.5796
 3527SOL     OW22216   3.948   1.744   6.779  0.3163  0.2735  0.6666
 3527SOL    HW122217   3.868   1.772   6.734 -0.2095 -3.0593 -0.5048
 3527SOL    HW222218   3.969   1.661   6.735  0.1245 -0.2881  1.6443
 3528SOL     OW22219   1.485   4.495   4.473 -0.0116  0.0643  0.3796
 3528SOL    HW122220   1.465   4.498   4.566 -0.2942 -1.1949  0.3507
 3528SOL    HW222221   1.525   4.582   4.466 -2.5163  1.1357 -0.6458
 3529SOL     OW22222   3.227   3.309  11.766 -0.2283  0.5851  0.0105
 3529SOL    HW122223   3.224   3.238  11.830  1.9843 -0.5055 -1.0975
 3529SOL    HW222224   3.300   3.358  11.802 -1.3919  0.3242  2.6901
 3530SOL     OW22225   4.419   0.325   9.638  0.0518  0.0319  0.0544
 3530SOL    HW122226   4.367   0.308   9.717  1.4564  1.5597  1.2954
 3530SOL    HW222227   4.489   0.379   9.675  0.1054  0.6815 -0.9897
 3531SOL     OW22228   4.644   0.940   7.527 -0.3554 -0.3698 -0.0697
 3531SOL    HW122229   4.664   0.849   7.509 -0.1887 -0.8756  2.6393
 3531SOL    HW222230   4.549   0.940   7.515 -0.6892  0.2204  2.4350
 3532SOL     OW22231   0.078   2.157   8.708 -0.0273 -0.0170  0.2572
 3532SOL    HW122232   0.010   2.219   8.681 -1.5783 -1.2662  1.2648
 3532SOL    HW222233   0.018   2.092   8.746 -0.8921  1.0768  0.7486
 3533SOL     OW22234   4.283   3.449   2.745 -0.5645  0.1697 -0.0961
 3533SOL    HW122235   4.293   3.494   2.828  0.4455 -0.5783  0.1973
 3533SOL    HW222236   4.335   3.369   2.759 -1.3942 -0.3528 -0.0053
 3534SOL     OW22237   0.821   1.028  15.131  0.2089 -0.3191  0.4642
 3534SOL    HW122238   0.740   0.979  15.122  1.1841 -1.8772  0.2227
 3534SOL    HW222239   0.810   1.077  15.049 -1.7908 -0.7872  0.4460
 3535SOL     OW22240   2.148   0.170   6.057  0.2794  0.5599  0.5438
 3535SOL    HW122241   2.236   0.182   6.092  0.1918 -1.2822  1.4012
 3535SOL    HW222242   2.149   0.075   6.045  0.9830  0.8047 -1.3451
 3536SOL     OW22243   4.544   3.347   2.700 -0.3698 -0.3708  0.0096
 3536SOL    HW122244   4.621   3.296   2.722 -1.3139 -1.2233  1.3119
 3536SOL    HW222245   4.495   3.290   2.641  1.0323  0.2655 -1.7406
 3537SOL     OW22246   0.585   4.732   6.377 -0.0328  0.2474 -0.1962
 3537SOL    HW122247   0.520   4.692   6.434  1.6470  0.2367  1.7464
 3537SOL    HW222248   0.667   4.705   6.419 -0.7220  1.7774  2.1793
 3538SOL     OW22249   3.492   0.329   5.983  0.2626 -0.2788  0.3203
 3538SOL    HW122250   3.409   0.377   5.980 -1.0375 -2.5402 -0.3364
 3538SOL    HW222251   3.544   0.391   6.035  0.6017 -0.3049  0.0144
 3539SOL     OW22252   2.568   4.682   6.395  0.4183  0.0072  0.6914
 3539SOL    HW122253   2.524   4.630   6.328  0.5832 -0.7413  1.1767
 3539SOL    HW222254   2.655   4.686   6.356  0.6752 -0.0052  1.2697
 3540SOL     OW22255   4.567   4.337   5.597 -0.2600  0.1361 -0.4241
 3540SOL    HW122256   4.494   4.281   5.624  0.9060 -1.3718 -0.3665
 3540SOL    HW222257   4.623   4.320   5.673 -0.2457  0.0407 -0.4556
 3541SOL     OW22258   2.404   0.964   9.171  0.5773  0.2646 -0.3118
 3541SOL    HW122259   2.403   1.054   9.202  0.7556  0.5039 -0.9914
 3541SOL    HW222260   2.355   0.921   9.241 -0.3690 -1.0653 -1.7890
 3542SOL     OW22261   0.709   0.854   3.102 -0.3365 -0.6040  0.4981
 3542SOL    HW122262   0.671   0.933   3.064  0.2596 -0.4055  0.3234
 3542SOL    HW222263   0.717   0.798   3.026  1.8011  1.0981 -0.5314
 3543SOL     OW22264   1.524   1.973   5.421  0.1025  0.5594 -0.6596
 3543SOL    HW122265   1.611   1.978   5.460 -0.9305 -2.0037  2.0440
 3543SOL    HW222266   1.544   1.935   5.336  0.7313 -2.3548  0.7947
 3544SOL     OW22267   1.369   4.138   5.134 -0.3935  0.0615 -0.2613
 3544SOL    HW122268   1.386   4.052   5.172  2.6623  0.2839 -1.0998
 3544SOL    HW222269   1.443   4.189   5.168  0.4173 -2.3477  1.5537
 3545SOL     OW22270   0.946   1.822   0.732 -0.1092  0.5713 -0.7754
 3545SOL    HW122271   1.015   1.762   0.760 -1.7210 -1.5296 -1.3218
 3545SOL    HW222272   0.895   1.751   0.692 -0.6032  1.6023 -1.9577
 3546SOL     OW22273   2.110   4.265   3.698  0.0755  0.2868  0.3367
 3546SOL    HW122274   2.148   4.340   3.743 -1.0223  0.0694  1.6390
 3546SOL    HW222275   2.179   4.201   3.680  1.6464  1.6776  1.4338
 3547SOL     OW22276   3.005   2.788   5.874 -0.0157  0.0037  0.6619
 3547SOL    HW122277   2.949   2.731   5.822 -0.4900  0.4224  0.7141
 3547SOL    HW222278   3.032   2.724   5.940  2.0355 -0.2326 -0.4119
 3548SOL     OW22279   1.736   2.274  10.157 -0.3227 -0.0170  0.1746
 3548SOL    HW122280   1.761   2.238  10.072 -3.1673  2.1742 -1.6049
 3548SOL    HW222281   1.823   2.268  10.195 -0.7089  2.6145  1.4694
 3549SOL     OW22282   4.207   3.870   5.866  0.0499  0.4945 -0.4977
 3549SOL    HW122283   4.238   3.954   5.832 -0.0895  1.0997  0.8599
 3549SOL    HW222284   4.239   3.871   5.956 -1.2695 -0.4912 -0.0199
 3550SOL     OW22285   0.312   2.334  12.664 -0.7755 -0.6458 -0.6987
 3550SOL    HW122286   0.275   2.251  12.695  2.2161 -1.3855  0.8776
 3550SOL    HW222287   0.304   2.384  12.746 -2.9854  0.1009 -1.3530
 3551SOL     OW22288   1.311   0.580   5.917 -0.1392 -0.0959 -0.1990
 3551SOL    HW122289   1.225   0.609   5.886 -0.7183 -1.4588  0.0942
 3551SOL    HW222290   1.322   0.639   5.992 -1.0036 -0.3101  0.0960
 3552SOL     OW22291   0.879   0.059   2.111 -0.0429  0.4835  0.3939
 3552SOL    HW122292   0.884   4.713   2.065 -0.3313  0.7116 -0.0582
 3552SOL    HW222293   0.972   0.082   2.109  0.6491 -2.3922  0.1528
 3553SOL     OW22294   4.276   3.851   6.126 -0.2862  0.1510 -0.6656
 3553SOL    HW122295   4.266   3.756   6.129 -0.9978  0.2596  0.6338
 3553SOL    HW222296   4.348   3.857   6.190  1.0415 -0.7726 -2.0621
 3554SOL     OW22297   4.102   2.935   7.616 -0.1581 -0.1907  0.5567
 3554SOL    HW122298   4.054   2.867   7.570  0.2562 -0.0224 -0.1361
 3554SOL    HW222299   4.141   2.879   7.683  0.7507  0.3263  0.4634
 3555SOL     OW22300   0.090   0.180   4.873  0.0865 -0.6051  0.1371
 3555SOL    HW122301   0.011   0.133   4.848 -0.3410  0.0518  0.2435
 3555SOL    HW222302   0.147   0.159   4.799  0.2609 -1.3731  0.4934
 3556SOL     OW22303   1.790   4.353  15.077 -0.1769 -0.0921 -0.3368
 3556SOL    HW122304   1.711   4.371  15.027  0.7087 -0.5693 -1.9162
 3556SOL    HW222305   1.787   4.429  15.135 -1.2618 -1.4564  1.4049
 3557SOL     OW22306   0.983   0.966   7.984  0.2638 -0.6158 -0.3449
 3557SOL    HW122307   0.950   0.935   7.900 -0.1124  0.2016 -0.5058
 3557SOL    HW222308   0.967   0.887   8.035  4.5626 -1.4211 -0.2139
 3558SOL     OW22309   4.429   2.027   2.601  0.5934  0.4825 -0.1899
 3558SOL    HW122310   4.509   2.029   2.549  0.4741 -1.6979 -0.4828
 3558SOL    HW222311   4.374   2.046   2.525  1.0923  0.7531 -0.4775
 3559SOL     OW22312   3.517   1.129   8.813 -0.0070 -0.3853 -0.1931
 3559SOL    HW122313   3.485   1.138   8.903 -0.3684 -2.7875 -0.0960
 3559SOL    HW222314   3.480   1.207   8.772  0.9309  0.5872  0.8097
 3560SOL     OW22315   3.404   1.925   2.149 -0.1634  0.1021 -0.0550
 3560SOL    HW122316   3.321   1.943   2.104 -0.9394  1.3600  1.8983
 3560SOL    HW222317   3.432   2.011   2.181  1.7712  0.0023 -1.4276
 3561SOL     OW22318   2.939   4.606   4.360 -0.1178 -0.6808  0.1051
 3561SOL    HW122319   2.876   4.652   4.304  1.4568  2.1781  0.6665
 3561SOL    HW222320   2.992   4.682   4.385  0.5744 -1.3276  0.5859
 3562SOL     OW22321   3.560   3.031   4.737  0.1459  0.8951 -0.6211
 3562SOL    HW122322   3.540   3.080   4.816 -0.1507  0.7090 -0.5803
 3562SOL    HW222323   3.523   2.944   4.751  0.2875  1.1926  1.4652
 3563SOL     OW22324   1.290   1.934   8.886 -0.0181  0.0411  0.4932
 3563SOL    HW122325   1.217   1.919   8.825  0.2304  0.4288  0.1033
 3563SOL    HW222326   1.321   1.845   8.904 -2.4871 -0.7243  1.0636
 3564SOL     OW22327   2.738   1.792   2.162 -0.3901  0.3710 -0.0539
 3564SOL    HW122328   2.729   1.805   2.068 -0.2656 -1.3502 -0.3063
 3564SOL    HW222329   2.652   1.819   2.195 -0.3397 -1.0724  1.2621
 3565SOL     OW22330   2.930   4.351   7.947 -0.1778  0.5472  0.6180
 3565SOL    HW122331   2.900   4.359   8.037 -1.6864  0.7570  0.0953
 3565SOL    HW222332   2.988   4.277   7.963 -1.4510 -0.4918  0.3480
 3566SOL     OW22333   2.561   3.308   8.841  0.0188  0.8462 -0.1301
 3566SOL    HW122334   2.638   3.365   8.846  1.0456 -0.5781  0.5838
 3566SOL    HW222335   2.610   3.227   8.829 -0.0580  0.6782  0.6793
 3567SOL     OW22336   1.607   2.986   6.237 -0.2190 -0.0511 -0.0818
 3567SOL    HW122337   1.690   2.967   6.194  1.1019  0.7982  2.1239
 3567SOL    HW222338   1.546   2.975   6.164  1.0751  0.5368 -1.2442
 3568SOL     OW22339   1.049   2.453   3.038 -0.4921 -0.1080 -0.4951
 3568SOL    HW122340   1.054   2.489   2.949  0.7172 -0.2929 -0.4985
 3568SOL    HW222341   1.053   2.360   3.020  1.5573 -0.3987  1.3999
 3569SOL     OW22342   1.155   4.618  11.814  0.2276  0.2651  0.1087
 3569SOL    HW122343   1.141   4.525  11.831 -0.1543 -0.1749 -2.7216
 3569SOL    HW222344   1.212   4.649  11.885  0.9702 -0.4416 -0.1818
 3570SOL     OW22345   3.826   3.579  13.404  0.0705  0.2098  0.1903
 3570SOL    HW122346   3.805   3.517  13.473 -0.0603  0.0394 -0.0026
 3570SOL    HW222347   3.737   3.612  13.390 -0.5871 -0.5003  2.7190
 3571SOL     OW22348   4.710   1.971   3.007  0.0711 -0.6292  0.5350
 3571SOL    HW122349   4.648   2.005   2.942  0.0441  0.4906  1.1461
 3571SOL    HW222350   0.019   2.052   3.029  1.6269 -1.2505 -0.4937
 3572SOL     OW22351   2.749   2.451   6.153  0.4923  0.2600 -0.0417
 3572SOL    HW122352   2.697   2.509   6.209  0.8096 -0.7488  1.2953
 3572SOL    HW222353   2.711   2.370   6.185  0.0208  1.0314  1.3662
 3573SOL     OW22354   3.562   3.999   4.866 -0.3247 -0.5297 -0.1892
 3573SOL    HW122355   3.593   4.073   4.918 -0.0654 -2.1558  1.9588
 3573SOL    HW222356   3.487   3.963   4.914 -0.7154 -0.0986 -0.4836
 3574SOL     OW22357   1.420   4.349   1.987  0.2410 -0.7784  0.2610
 3574SOL    HW122358   1.398   4.276   1.930  0.3544  1.5608 -2.7561
 3574SOL    HW222359   1.472   4.300   2.051 -1.1581 -1.9412  0.5126
 3575SOL     OW22360   4.452   3.285   3.047  0.1740 -0.6945 -0.3328
 3575SOL    HW122361   4.439   3.196   3.015  1.5518 -0.0581 -2.6452
 3575SOL    HW222362   4.545   3.286   3.072  0.0333 -0.9010  0.2111
 3576SOL     OW22363   2.706   0.764  12.226  0.1487  0.1296 -0.2134
 3576SOL    HW122364   2.669   0.705  12.291 -0.6683 -0.1724 -0.9433
 3576SOL    HW222365   2.729   0.837  12.284 -2.3214  1.5246 -0.9844
 3577SOL     OW22366   4.681   2.264   6.718  0.4466  0.2488 -0.2055
 3577SOL    HW122367   0.019   2.322   6.715  1.4856 -1.0967  0.6496
 3577SOL    HW222368   4.609   2.326   6.703  0.8936  0.9772  0.6699
 3578SOL     OW22369   1.640   2.299   4.739  0.3016 -0.3473 -0.4328
 3578SOL    HW122370   1.574   2.240   4.703  0.0204  0.5111 -1.3411
 3578SOL    HW222371   1.700   2.303   4.664  1.5660  1.7280  0.6880
 3579SOL     OW22372   2.397   3.599   3.548  0.1675  0.1404 -0.0342
 3579SOL    HW122373   2.398   3.587   3.453  1.0536  0.6419 -0.0880
 3579SOL    HW222374   2.327   3.537   3.569 -0.4206  1.4945  2.0438
 3580SOL     OW22375   0.375   4.042   8.033 -0.8491  0.5562  0.2490
 3580SOL    HW122376   0.300   4.069   8.086 -0.9134  0.0998  0.3862
 3580SOL    HW222377   0.444   4.092   8.077  0.6227 -2.0219  0.8911
 3581SOL     OW22378   3.488   0.839   6.358  0.3124 -0.2022  0.2545
 3581SOL    HW122379   3.469   0.745   6.348 -1.2642  0.2348 -0.9763
 3581SOL    HW222380   3.555   0.845   6.290 -0.3350  1.0740 -0.2652
 3582SOL     OW22381   2.048   2.462   2.941  0.0844 -0.2697 -0.5293
 3582SOL    HW122382   2.021   2.548   2.975  0.9885 -0.9615  1.9531
 3582SOL    HW222383   2.080   2.426   3.024  1.0723 -0.4368 -0.9923
 3583SOL     OW22384   3.580   3.209   1.924  0.1241  0.0324  0.2777
 3583SOL    HW122385   3.492   3.228   1.892 -0.6156 -2.0475  1.0712
 3583SOL    HW222386   3.637   3.251   1.861  1.7491 -0.4894  1.3852
 3584SOL     OW22387   0.723   4.595   9.237  0.4561  0.6223 -0.7038
 3584SOL    HW122388   0.667   4.563   9.308 -0.0086  1.9119 -0.4779
 3584SOL    HW222389   0.803   4.611   9.286  0.3033 -2.6507  0.6126
 3585SOL     OW22390   1.376   4.046   4.403 -0.7892  0.3497 -0.2761
 3585SOL    HW122391   1.325   4.101   4.462 -0.6237 -2.3927  2.4837
 3585SOL    HW222392   1.465   4.082   4.406 -1.2300  1.4360 -0.2812
 3586SOL     OW22393   4.297   2.403   0.278 -0.5704 -0.3924 -0.2789
 3586SOL    HW122394   4.252   2.348   0.215  1.3124 -1.2495 -0.8709
 3586SOL    HW222395   4.336   2.471   0.223 -3.6281  2.0235  0.5702
 3587SOL     OW22396   1.036   3.328   9.268  0.0199 -0.8947 -0.5401
 3587SOL    HW122397   1.069   3.417   9.257  1.7238 -1.4873 -0.1905
 3587SOL    HW222398   0.949   3.351   9.300  0.6224 -0.6818  0.9166
 3588SOL     OW22399   2.858   1.889  14.059 -0.3220  0.1421 -0.3102
 3588SOL    HW122400   2.797   1.822  14.089  1.3093 -2.3079 -2.4418
 3588SOL    HW222401   2.928   1.888  14.124 -0.4085 -2.8389 -0.2658
 3589SOL     OW22402   1.042   0.037  10.087  0.3236  0.2938 -0.2681
 3589SOL    HW122403   1.122   4.728  10.110  0.5475  0.6785 -0.2625
 3589SOL    HW222404   1.021   0.090  10.164  2.2010 -0.4729  0.7876
 3590SOL     OW22405   2.189   1.086  10.486  0.7459  0.0107 -0.2254
 3590SOL    HW122406   2.215   1.100  10.577 -0.8946  1.4133  0.0312
 3590SOL    HW222407   2.210   0.994  10.469  1.1370  0.3448 -1.5088
 3591SOL     OW22408   1.598   2.482   5.076  0.1563  0.2292 -0.1703
 3591SOL    HW122409   1.678   2.535   5.082  1.4587 -1.9981  2.2540
 3591SOL    HW222410   1.630   2.405   5.123 -2.2717  0.7410  2.2899
 3592SOL     OW22411   0.881   0.276   6.235  0.3274 -0.7954 -0.1006
 3592SOL    HW122412   0.794   0.287   6.195 -0.4414 -0.4925  1.6695
 3592SOL    HW222413   0.942   0.299   6.164  2.1863  0.7222  2.0125
 3593SOL     OW22414   0.360   2.309   3.249 -0.1944 -0.1513 -0.4315
 3593SOL    HW122415   0.330   2.378   3.190 -0.5914 -0.3301 -0.4423
 3593SOL    HW222416   0.282   2.256   3.263 -1.4608  1.4598 -1.3806
 3594SOL     OW22417   3.552   2.491   8.882  0.3391 -0.1779  0.3942
 3594SOL    HW122418   3.464   2.527   8.873  0.5023  0.3845  1.0312
 3594SOL    HW222419   3.613   2.564   8.870  0.1423  0.2728  2.1228
 3595SOL     OW22420   2.894   1.048  14.255  0.0308 -0.2306 -0.1071
 3595SOL    HW122421   2.874   1.102  14.179  1.9148  0.5373 -0.0469
 3595SOL    HW222422   2.977   1.087  14.282 -0.1941  0.2731 -0.1445
 3596SOL     OW22423   2.240   2.129  10.114 -0.0065  0.5445  0.0776
 3596SOL    HW122424   2.293   2.083  10.178 -3.1911  0.3910  2.6224
 3596SOL    HW222425   2.177   2.061  10.088  0.2164 -0.3199  1.8439
 3597SOL     OW22426   2.791   2.087   5.544  0.2875  0.6427  0.4169
 3597SOL    HW122427   2.885   2.083   5.557  0.1134 -1.5871  1.0403
 3597SOL    HW222428   2.793   2.172   5.500 -0.7000  0.2157 -0.4560
 3598SOL     OW22429   3.430   1.942   7.165  0.5458 -0.4330  0.1773
 3598SOL    HW122430   3.447   1.918   7.256 -0.5253  0.9819  0.7459
 3598SOL    HW222431   3.507   1.997   7.149 -0.4476  1.3097  1.4681
 3599SOL     OW22432   3.538   3.826  15.393  0.2768 -0.6741  0.3708
 3599SOL    HW122433   3.621   3.874  15.390  0.2617 -0.6561  0.2400
 3599SOL    HW222434   3.531   3.804  15.485 -1.3041  0.1587  0.4501
 3600SOL     OW22435   0.142   1.483   5.251 -0.1252  0.0078  0.2983
 3600SOL    HW122436   0.216   1.512   5.305  0.8823 -2.5885  0.3153
 3600SOL    HW222437   0.189   1.442   5.178 -2.0264  0.3603 -1.1170
 3601SOL     OW22438   1.545   3.917   6.193  0.3967  0.5240  0.0383
 3601SOL    HW122439   1.525   3.824   6.201 -0.2645  0.7785  1.4058
 3601SOL    HW222440   1.547   3.944   6.285 -0.1721 -2.3513  0.8910
 3602SOL     OW22441   4.346   3.163   6.782 -0.3357 -0.0638  0.6483
 3602SOL    HW122442   4.399   3.086   6.802  1.3476  0.4168 -2.1160
 3602SOL    HW222443   4.318   3.145   6.693  1.0260 -0.9564  0.4024
 3603SOL     OW22444   0.080   2.543   4.119 -0.5212 -0.0098 -0.4880
 3603SOL    HW122445   0.104   2.628   4.082  3.2602 -0.9317 -0.0931
 3603SOL    HW222446   0.164   2.499   4.102  0.0577  1.2910 -0.9561
 3604SOL     OW22447   2.498   0.910   4.083  0.1239  0.4149 -0.1859
 3604SOL    HW122448   2.512   0.915   4.178 -0.9343  0.4702 -0.0352
 3604SOL    HW222449   2.487   0.815   4.078  1.0975  0.1981  1.4564
 3605SOL     OW22450   1.737   1.178  16.494  0.3293  0.2576  0.2021
 3605SOL    HW122451   1.685   1.256  16.474 -0.3780 -0.2740 -0.0711
 3605SOL    HW222452   1.793   1.185  16.417 -0.2997 -1.9149 -0.4712
 3606SOL     OW22453   0.661   3.456   8.774 -0.1109 -0.2158 -0.1301
 3606SOL    HW122454   0.696   3.396   8.708 -1.1811 -0.7988 -0.1659
 3606SOL    HW222455   0.574   3.425   8.800  0.2474 -0.7414  0.4394
 3607SOL     OW22456   1.207   1.682  12.808 -0.5554 -0.9548  0.0988
 3607SOL    HW122457   1.295   1.698  12.774 -0.4677 -3.2291 -0.7390
 3607SOL    HW222458   1.198   1.590  12.785 -2.1373 -0.7591 -0.0678
 3608SOL     OW22459   2.335   2.902   3.400  0.2866 -0.3201 -0.2915
 3608SOL    HW122460   2.301   2.888   3.312 -0.3274  2.0711 -0.4407
 3608SOL    HW222461   2.428   2.897   3.378  0.0230  0.7779 -1.6524
 3609SOL     OW22462   3.524   1.321   5.060 -0.3160  0.1871 -0.1251
 3609SOL    HW122463   3.592   1.261   5.030 -0.9711  0.0069 -1.2300
 3609SOL    HW222464   3.446   1.274   5.030 -0.7465  1.2487 -0.6558
 3610SOL     OW22465   3.311   0.918  14.022 -0.4243  0.2393 -0.2224
 3610SOL    HW122466   3.275   0.908  14.110 -0.5267 -1.1981 -0.4319
 3610SOL    HW222467   3.307   1.012  14.002 -1.7240 -0.3039 -2.4816
 3611SOL     OW22468   2.671   2.503  15.589  0.3057 -0.8767 -0.2570
 3611SOL    HW122469   2.686   2.477  15.498  0.2274 -0.3028 -0.4297
 3611SOL    HW222470   2.653   2.597  15.586 -0.6352 -1.1369 -3.1477
 3612SOL     OW22471   1.706   0.305   3.810 -0.1007  0.2946 -0.3243
 3612SOL    HW122472   1.640   0.368   3.837 -0.1556  0.0168  0.1913
 3612SOL    HW222473   1.655   0.224   3.814  1.7038 -0.8732 -0.3565
 3613SOL     OW22474   3.558   3.137   7.041  0.0854 -0.2566 -0.9091
 3613SOL    HW122475   3.622   3.206   7.029  0.6812 -0.7014 -0.2697
 3613SOL    HW222476   3.572   3.131   7.135  0.2539 -1.7128 -1.0247
 3614SOL     OW22477   4.678   4.153   2.287 -0.3872 -0.2223 -0.1828
 3614SOL    HW122478   4.633   4.142   2.203 -0.8165  0.8954 -0.1012
 3614SOL    HW222479   0.018   4.097   2.281  0.3074  0.5343  1.9446
 3615SOL     OW22480   0.384   2.326  11.897 -0.2454  0.2343  0.2730
 3615SOL    HW122481   0.368   2.320  11.991 -1.8113 -0.0832 -0.0194
 3615SOL    HW222482   0.336   2.249  11.866 -1.9560  0.9767  1.1086
 3616SOL     OW22483   0.457   4.133  11.816  0.1874 -0.0361 -0.1323
 3616SOL    HW122484   0.370   4.095  11.834  1.4548 -2.9039 -0.0148
 3616SOL    HW222485   0.444   4.193  11.743  0.5499  1.9021  1.4164
 3617SOL     OW22486   3.871   3.495   4.042  0.0298 -0.2242  0.2536
 3617SOL    HW122487   3.784   3.496   4.004  0.3481  2.0643 -0.4594
 3617SOL    HW222488   3.902   3.581   4.013 -1.5351  0.8147  1.7021
 3618SOL     OW22489   3.211   1.727   7.696 -0.0587  0.3274  0.1959
 3618SOL    HW122490   3.183   1.817   7.681  1.8862  0.7330 -1.0107
 3618SOL    HW222491   3.168   1.712   7.780  0.6690 -1.9066  0.1589
 3619SOL     OW22492   1.239   4.145   7.866  0.5318  0.4746 -0.5136
 3619SOL    HW122493   1.185   4.083   7.915  2.4293 -0.5105  0.3587
 3619SOL    HW222494   1.208   4.227   7.902 -1.3698 -1.5700  2.4818
 3620SOL     OW22495   1.981   4.189   7.403  0.1868 -0.3827 -0.3291
 3620SOL    HW122496   1.949   4.167   7.315 -1.0968  0.9514 -0.1971
 3620SOL    HW222497   1.925   4.129   7.451  1.2299 -0.8775  0.2786
 3621SOL     OW22498   4.185   4.568  12.651 -0.0196  0.3680 -0.7359
 3621SOL    HW122499   4.155   4.483  12.683  1.1698  0.4738  0.6782
 3621SOL    HW222500   4.096   4.601  12.662  0.4052  1.5967 -0.9933
 3622SOL     OW22501   4.198   4.401   3.629 -0.5481  0.0909 -0.1277
 3622SOL    HW122502   4.138   4.372   3.697  0.2011 -3.1529 -0.8556
 3622SOL    HW222503   4.147   4.438   3.557 -0.4411 -1.6128 -1.1024
 3623SOL     OW22504   3.218   4.472  13.219  0.0128 -0.1787 -0.0697
 3623SOL    HW122505   3.243   4.407  13.153 -0.4339  1.7162 -2.1220
 3623SOL    HW222506   3.152   4.534  13.188  0.0802 -0.2191 -0.2945
 3624SOL     OW22507   0.031   2.013  16.476  0.2170  0.5149 -0.1899
 3624SOL    HW122508   4.694   1.978  16.429 -1.0049 -1.0057  2.8937
 3624SOL    HW222509   0.105   2.008  16.416  0.1332 -0.3135 -0.2202
 3625SOL     OW22510   4.298   2.305   5.911  0.1591 -0.4430  0.5051
 3625SOL    HW122511   4.341   2.284   5.828  1.7077  1.7539  0.7521
 3625SOL    HW222512   4.324   2.397   5.922  1.2511 -0.7152  0.2446
 3626SOL     OW22513   2.920   4.121   6.691 -0.1026  0.5901  0.2556
 3626SOL    HW122514   2.860   4.049   6.709  0.5532 -0.2656 -0.9587
 3626SOL    HW222515   2.862   4.188   6.655 -0.2979 -0.7280 -1.9054
 3627SOL     OW22516   0.594   3.831   5.801  0.1863 -0.1531  0.0191
 3627SOL    HW122517   0.513   3.880   5.810  0.2707 -0.2069  1.1915
 3627SOL    HW222518   0.649   3.873   5.868  3.0300  0.3897 -2.6333
 3628SOL     OW22519   0.846   4.401   5.225 -0.4952  0.2355 -0.0087
 3628SOL    HW122520   0.780   4.465   5.198 -0.2617  1.0026  1.2336
 3628SOL    HW222521   0.871   4.431   5.312  1.1037  1.0635 -0.7517
 3629SOL     OW22522   0.984   1.551   6.139 -0.1622 -0.2541  0.2651
 3629SOL    HW122523   0.927   1.625   6.162  1.3784  0.0805  3.0778
 3629SOL    HW222524   1.021   1.522   6.223 -0.5406  0.5258  0.7041
 3630SOL     OW22525   0.390   1.747   8.247 -0.6837  0.2523  0.8342
 3630SOL    HW122526   0.432   1.705   8.172  0.1474  0.9568  0.9064
 3630SOL    HW222527   0.302   1.708   8.248 -0.2459 -0.8288 -2.5922
 3631SOL     OW22528   0.807   2.481   4.996 -0.0440 -0.6770  0.3020
 3631SOL    HW122529   0.748   2.418   4.955  2.0135 -2.1938 -0.3336
 3631SOL    HW222530   0.881   2.482   4.935 -0.7697 -0.3089 -0.5691
 3632SOL     OW22531   2.476   0.514   5.700 -0.0280  0.5114 -0.3125
 3632SOL    HW122532   2.524   0.551   5.775 -0.6636  1.4316 -0.3649
 3632SOL    HW222533   2.514   0.558   5.624  0.5505  0.7607  0.1211
 3633SOL     OW22534   2.797   2.503   9.790  0.7482 -0.1393 -0.5055
 3633SOL    HW122535   2.715   2.550   9.806  1.4958  1.4340 -1.3291
 3633SOL    HW222536   2.772   2.432   9.731 -0.2193 -0.9895  0.9291
 3634SOL     OW22537   3.578   1.380   3.665 -0.1359  0.0704  0.4296
 3634SOL    HW122538   3.589   1.334   3.581  1.7520  0.1714  0.6187
 3634SOL    HW222539   3.649   1.334   3.709  0.2559 -0.7612 -1.0541
 3635SOL     OW22540   0.645   2.864   8.014  0.4349  0.3361  0.2666
 3635SOL    HW122541   0.737   2.884   7.995  0.2113  1.6041  0.5769
 3635SOL    HW222542   0.650   2.770   8.031 -0.5726  0.2070 -0.1438
 3636SOL     OW22543   0.995   1.076   7.375 -0.7889  0.5527 -0.2164
 3636SOL    HW122544   0.999   1.153   7.431 -1.8975 -0.9140  1.8850
 3636SOL    HW222545   1.088   1.058   7.366 -1.4706 -2.2272 -1.6113
 3637SOL     OW22546   0.744   2.599   7.937 -0.0844 -0.1229  0.2559
 3637SOL    HW122547   0.726   2.509   7.965  0.1387 -0.0128  0.7661
 3637SOL    HW222548   0.834   2.596   7.904 -0.3653  2.3310 -0.7758
 3638SOL     OW22549   3.814   3.603   9.779  0.0066  0.3814  0.3416
 3638SOL    HW122550   3.791   3.689   9.744 -1.3488  0.5599  1.6692
 3638SOL    HW222551   3.909   3.606   9.789  0.3283 -2.0268 -1.8331
 3639SOL     OW22552   0.646   0.170   5.534 -0.3223 -0.1121  0.1018
 3639SOL    HW122553   0.671   0.222   5.611 -0.6519 -1.5261  1.1626
 3639SOL    HW222554   0.570   0.125   5.571 -1.2571  0.8233 -0.6989
 3640SOL     OW22555   4.054   1.189  12.468 -0.1172 -0.3561 -0.5562
 3640SOL    HW122556   3.980   1.249  12.474  0.1376  0.0197 -1.1012
 3640SOL    HW222557   4.041   1.147  12.383 -2.0316 -0.5380 -0.1637
 3641SOL     OW22558   3.188   4.285  10.611 -0.3610  0.4500  0.2061
 3641SOL    HW122559   3.108   4.231  10.611  0.4710 -0.7734  0.3860
 3641SOL    HW222560   3.218   4.300  10.521 -0.3912  3.2175  0.6541
 3642SOL     OW22561   3.837   0.192   7.953 -0.1387  0.5102 -0.5265
 3642SOL    HW122562   3.887   0.195   8.034  0.3023 -2.4365 -0.6917
 3642SOL    HW222563   3.831   0.283   7.923 -1.3653  1.2043  1.8346
 3643SOL     OW22564   0.054   1.611  17.521 -0.1271  0.2780 -0.0111
 3643SOL    HW122565   0.115   1.682  17.537 -0.9167  0.8520  0.4619
 3643SOL    HW222566   0.055   1.608  17.425  1.8295 -0.1692  0.0289
 3644SOL     OW22567   4.450   4.470   1.986 -0.3692 -0.4653  0.3467
 3644SOL    HW122568   4.425   4.511   1.903 -0.7942  0.6782  1.0331
 3644SOL    HW222569   4.538   4.441   1.961  0.6748  0.6925  2.6368
 3645SOL     OW22570   0.617   4.621   2.159  0.0917  0.2848 -0.5149
 3645SOL    HW122571   0.685   4.687   2.148  0.2707  0.4958  1.7855
 3645SOL    HW222572   0.556   4.643   2.089 -0.0056  1.5943 -0.0146
 3646SOL     OW22573   2.455   2.700   1.542 -0.1767  0.5762  0.6412
 3646SOL    HW122574   2.518   2.660   1.602  0.4190  0.0299 -0.3457
 3646SOL    HW222575   2.444   2.784   1.587  1.1183  1.5566 -0.8374
 3647SOL     OW22576   4.390   3.223   2.486 -0.3043  0.2583  0.1804
 3647SOL    HW122577   4.463   3.225   2.425 -0.5310  1.3118 -0.0617
 3647SOL    HW222578   4.317   3.256   2.434 -0.0452 -0.3179 -0.5331
 3648SOL     OW22579   1.856   3.457   2.829 -0.2448 -0.3400  0.0344
 3648SOL    HW122580   1.885   3.366   2.840  2.6477  0.5895  0.1069
 3648SOL    HW222581   1.873   3.484   2.739  2.8655  0.3366  0.8110
 3649SOL     OW22582   0.850   3.628   6.886 -0.7314 -0.6249 -0.0656
 3649SOL    HW122583   0.802   3.622   6.803 -0.1154 -2.2535 -0.3081
 3649SOL    HW222584   0.939   3.617   6.852 -0.3368 -0.2578  0.8487
 3650SOL     OW22585   3.671   4.063   2.454  0.1965  0.0975  0.3741
 3650SOL    HW122586   3.759   4.044   2.424  0.2891  0.7697  0.2087
 3650SOL    HW222587   3.668   4.042   2.547 -0.2093  0.1286  0.3719
 3651SOL     OW22588   1.687   2.599   1.555 -0.0320 -0.3805 -0.7990
 3651SOL    HW122589   1.603   2.582   1.597  0.4142 -1.5243 -0.3636
 3651SOL    HW222590   1.728   2.513   1.541  1.0252 -0.4035  2.5051
 3652SOL     OW22591   2.664   3.678   6.142 -0.0135  0.1062  0.3017
 3652SOL    HW122592   2.654   3.692   6.048  2.6523 -0.7604 -0.1090
 3652SOL    HW222593   2.573   3.670   6.170  0.4403 -1.1088  1.4247
 3653SOL     OW22594   4.132   3.507  16.896  0.8075  0.1328 -0.6425
 3653SOL    HW122595   4.041   3.490  16.872  0.7607  1.2987 -1.3325
 3653SOL    HW222596   4.164   3.565  16.826  0.6468 -1.2325 -1.8649
 3654SOL     OW22597   3.877   3.456   3.305  0.4474  0.0742 -0.2742
 3654SOL    HW122598   3.892   3.435   3.213 -0.0488 -0.7572 -0.1657
 3654SOL    HW222599   3.851   3.372   3.343  3.4303 -0.7354 -0.0173
 3655SOL     OW22600   1.399   1.382   5.386 -0.7618  0.0151  0.4436
 3655SOL    HW122601   1.401   1.335   5.469  0.8206  1.3833  1.1932
 3655SOL    HW222602   1.360   1.313   5.332  3.1369 -0.9123 -1.2280
 3656SOL     OW22603   2.050   3.170  12.804 -0.3666  0.5386 -0.5286
 3656SOL    HW122604   2.095   3.251  12.781 -0.6772  0.6972 -0.5775
 3656SOL    HW222605   2.082   3.154  12.893  1.0620  0.8743 -0.9807
 3657SOL     OW22606   1.108   1.645   3.411  0.0935  0.2447 -0.1476
 3657SOL    HW122607   1.069   1.614   3.330 -1.3286 -0.1361  0.6913
 3657SOL    HW222608   1.077   1.736   3.419 -0.0279  0.0049  2.2569
 3658SOL     OW22609   0.119   3.459   0.920 -0.2273  0.0743  0.2471
 3658SOL    HW122610   0.024   3.457   0.913 -0.0053  0.0843 -2.9280
 3658SOL    HW222611   0.139   3.431   0.830 -0.5312  1.1053 -0.1313
 3659SOL     OW22612   0.452   4.190   3.889  0.0176 -0.0117  0.1436
 3659SOL    HW122613   0.431   4.125   3.822  1.9707  1.3098 -1.7525
 3659SOL    HW222614   0.483   4.141   3.966  1.3998  0.0830 -0.3507
 3660SOL     OW22615   3.646   1.567   2.858  0.8553  0.1086 -0.0475
 3660SOL    HW122616   3.570   1.543   2.804  2.1543 -1.0207 -1.3930
 3660SOL    HW222617   3.617   1.655   2.880 -0.2508  0.3358 -2.3476
 3661SOL     OW22618   1.688   3.104  13.654  0.0584 -0.3504  0.2457
 3661SOL    HW122619   1.728   3.073  13.573  1.7236 -0.0061  0.9398
 3661SOL    HW222620   1.744   3.062  13.719  0.7042 -0.0933 -0.1508
 3662SOL     OW22621   3.495   0.664   4.408  0.0186  0.2083 -0.2968
 3662SOL    HW122622   3.428   0.730   4.391 -1.7383 -0.9245  2.2098
 3662SOL    HW222623   3.560   0.699   4.347  2.4289 -2.3513  0.7745
 3663SOL     OW22624   3.856   2.534   0.413 -0.4245  0.2767 -0.4519
 3663SOL    HW122625   3.875   2.466   0.347  1.6887  0.4926 -0.0656
 3663SOL    HW222626   3.819   2.477   0.481 -0.2918  2.1526  1.1761
 3664SOL     OW22627   0.430   2.935   1.949 -0.0440  0.0504 -0.0165
 3664SOL    HW122628   0.407   2.963   2.037 -2.7087 -0.1340 -0.6491
 3664SOL    HW222629   0.479   3.014   1.928 -0.1830  0.1853  0.1684
 3665SOL     OW22630   3.238   2.701   5.570 -0.6271 -0.0220  0.0909
 3665SOL    HW122631   3.251   2.788   5.607  1.6270  0.5923 -2.1255
 3665SOL    HW222632   3.236   2.706   5.474 -0.5638 -1.3279  0.0169
 3666SOL     OW22633   4.001   2.965   5.696  0.2568  0.3321  0.1258
 3666SOL    HW122634   4.003   2.954   5.600 -3.1792  1.1013 -0.0184
 3666SOL    HW222635   3.953   2.886   5.720  0.6413  0.6229  1.8037
 3667SOL     OW22636   2.554   0.625   6.840  0.2111 -0.0829 -0.0281
 3667SOL    HW122637   2.578   0.645   6.750  0.4891 -0.4141 -0.0290
 3667SOL    HW222638   2.609   0.550   6.865  0.4494  0.6399  1.6522
 3668SOL     OW22639   3.353   4.624   8.007  0.7730 -0.1914  0.2201
 3668SOL    HW122640   3.305   4.568   7.948 -0.2765 -0.6536  1.5145
 3668SOL    HW222641   3.377   4.571   8.083  0.6896  2.5114  2.1475
 3669SOL     OW22642   0.551   2.142   6.146  0.6760  0.0472  0.3120
 3669SOL    HW122643   0.596   2.202   6.087 -1.3283  2.1827  0.9361
 3669SOL    HW222644   0.604   2.133   6.225 -0.0398  1.0430  0.9092
 3670SOL     OW22645   2.467   1.619  12.372 -0.1426 -0.0518  0.7666
 3670SOL    HW122646   2.383   1.579  12.350  0.0581 -0.1374  0.1687
 3670SOL    HW222647   2.535   1.559  12.341 -1.1840  0.0504 -1.7219
 3671SOL     OW22648   4.660   0.419   9.694  0.4354  0.4750  0.1634
 3671SOL    HW122649   4.723   0.346   9.691  0.6632  0.6595  0.4072
 3671SOL    HW222650   4.694   0.444   9.780 -2.4342 -0.8031  1.6482
 3672SOL     OW22651   0.455   2.064  12.576 -0.0383  0.1585 -0.4164
 3672SOL    HW122652   0.520   2.003  12.542  0.8314  1.4693 -1.1448
 3672SOL    HW222653   0.374   2.026  12.541  0.2669 -1.9750  1.2268
 3673SOL     OW22654   4.689   1.469   8.146 -0.8900 -0.3595  0.2738
 3673SOL    HW122655   4.601   1.481   8.183  0.1048 -0.2954  2.6207
 3673SOL    HW222656   4.689   1.373   8.146 -0.9049 -0.3592  0.4021
 3674SOL     OW22657   3.806   2.444   4.449 -0.0953  0.1159 -0.0550
 3674SOL    HW122658   3.858   2.462   4.527 -0.3253 -0.0432  0.1350
 3674SOL    HW222659   3.744   2.517   4.452  0.6008  0.6929  0.5170
 3675SOL     OW22660   4.641   1.109  17.644 -0.4204 -0.5234 -0.0085
 3675SOL    HW122661   4.557   1.105  17.598 -0.1307 -1.6355 -0.4273
 3675SOL    HW222662   4.689   1.160  17.578 -1.1387  0.2616  0.0698
 3676SOL     OW22663   0.227   2.448  12.911  0.1758 -0.3432 -0.6909
 3676SOL    HW122664   0.180   2.368  12.934 -0.0996  0.1786  0.5334
 3676SOL    HW222665   0.296   2.460  12.976 -1.2409  1.3089  0.5300
 3677SOL     OW22666   2.980   4.493  12.568 -0.2927 -0.3946 -0.3710
 3677SOL    HW122667   2.918   4.534  12.508 -0.2980 -0.5454 -0.4682
 3677SOL    HW222668   3.059   4.545  12.551  0.5090 -0.8302  1.9477
 3678SOL     OW22669   1.694   1.707   3.349  0.8088 -0.1588 -0.1824
 3678SOL    HW122670   1.710   1.644   3.279  4.9118 -0.9130  1.4791
 3678SOL    HW222671   1.615   1.666   3.384  1.1693 -0.9797 -0.3318
 3679SOL     OW22672   0.219   4.646   9.019 -0.2138 -0.3476 -0.3686
 3679SOL    HW122673   0.300   4.596   9.010  1.4890  2.0632  1.4668
 3679SOL    HW222674   0.237   4.708   9.090 -0.5478  2.0093 -2.3248
 3680SOL     OW22675   1.404   0.536   0.642  0.4206 -0.6518  0.5543
 3680SOL    HW122676   1.323   0.487   0.631  1.6417 -2.8177  1.1671
 3680SOL    HW222677   1.457   0.477   0.588  0.6722  0.4833 -0.4354
 3681SOL     OW22678   0.972   3.541  14.699 -0.6653  0.1079  0.3436
 3681SOL    HW122679   0.892   3.489  14.693 -1.1302  0.8167  0.4925
 3681SOL    HW222680   1.026   3.496  14.634 -0.6833  1.8592 -0.8495
 3682SOL     OW22681   1.829   2.774   0.110  0.0679 -0.0714 -0.5884
 3682SOL    HW122682   1.800   2.696   0.158 -3.1045  1.2982 -0.3055
 3682SOL    HW222683   1.924   2.760   0.111  0.2338  1.0569 -0.5370
 3683SOL     OW22684   2.001   3.355   5.056  0.3356 -0.0637 -0.7111
 3683SOL    HW122685   1.981   3.421   5.123 -3.1686 -1.0677 -0.7516
 3683SOL    HW222686   2.096   3.347   5.059  0.5073  1.5894 -1.4040
 3684SOL     OW22687   2.918   0.319   6.897 -0.2698 -0.2721  0.2047
 3684SOL    HW122688   2.911   0.247   6.960  0.4438 -0.5166  0.0016
 3684SOL    HW222689   2.859   0.384   6.936 -0.0057 -1.1048  1.9744
 3685SOL     OW22690   0.160   3.518  16.265  0.0264  0.1415  0.0283
 3685SOL    HW122691   0.158   3.431  16.225 -1.2811  0.6497 -1.0211
 3685SOL    HW222692   0.184   3.495  16.355 -2.9626 -1.2455  0.4322
 3686SOL     OW22693   1.346   0.072  10.134  0.0754  0.0867  0.6095
 3686SOL    HW122694   1.437   0.102  10.133  0.7205 -1.9460 -1.5638
 3686SOL    HW222695   1.320   0.096  10.223  0.5218  1.0464  0.4820
 3687SOL     OW22696   3.103   1.286   7.847 -0.3816 -0.0796 -0.0592
 3687SOL    HW122697   3.016   1.314   7.818  0.0265 -1.0929 -2.3140
 3687SOL    HW222698   3.146   1.274   7.762 -0.2199  1.6335 -0.2267
 3688SOL     OW22699   2.198   0.086   7.753  0.3344  0.8464 -0.4451
 3688SOL    HW122700   2.241   0.072   7.837 -0.9491 -1.2497 -0.1575
 3688SOL    HW222701   2.119   0.033   7.766  0.9005  0.4173  1.1664
 3689SOL     OW22702   1.309   4.064  13.299  0.4036 -0.1838 -0.0403
 3689SOL    HW122703   1.299   4.045  13.392  0.6466  0.8615  0.2010
 3689SOL    HW222704   1.219   4.054  13.268  0.3318 -0.8749  0.4022
 3690SOL     OW22705   4.152   0.287   5.620 -0.0809 -0.7689  0.6600
 3690SOL    HW122706   4.234   0.271   5.573 -0.8111 -2.1003 -0.1666
 3690SOL    HW222707   4.169   0.242   5.702 -0.2244  0.1692  1.2074
 3691SOL     OW22708   3.859   4.122   3.229  0.1793 -0.0694  0.1828
 3691SOL    HW122709   3.809   4.196   3.194  1.5199  0.5213 -0.5128
 3691SOL    HW222710   3.915   4.165   3.294 -0.5800  0.5351  0.4396
 3692SOL     OW22711   3.713   4.245   8.037 -0.2890 -1.1217 -0.5130
 3692SOL    HW122712   3.741   4.264   8.127 -1.4417  1.4731 -0.6807
 3692SOL    HW222713   3.715   4.151   8.022 -0.9122 -0.7406 -2.9327
 3693SOL     OW22714   3.992   3.243   9.889  0.4097  0.5901 -0.2201
 3693SOL    HW122715   4.075   3.196   9.903 -1.1173 -1.7683  0.9009
 3693SOL    HW222716   3.993   3.252   9.794 -0.0798 -0.1907 -0.3024
 3694SOL     OW22717   2.628   0.091   4.850  0.6054 -0.8543 -0.4515
 3694SOL    HW122718   2.558   0.095   4.915  2.4972 -0.4360  1.5673
 3694SOL    HW222719   2.710   0.069   4.895  0.4123 -0.5167  0.0576
 3695SOL     OW22720   0.966   2.467  10.923  0.3215 -0.3829  0.2073
 3695SOL    HW122721   0.918   2.501  10.847 -1.2172 -1.3219  0.7676
 3695SOL    HW222722   1.042   2.524  10.929 -0.6876  0.7976  1.5880
 3696SOL     OW22723   2.407   3.151   3.128 -0.2024  0.5476 -0.3319
 3696SOL    HW122724   2.432   3.059   3.121 -3.2276 -0.2475 -0.6160
 3696SOL    HW222725   2.337   3.156   3.062  0.9652  0.7341 -1.5601
 3697SOL     OW22726   3.510   3.710   6.931 -0.2363  0.3730 -0.1780
 3697SOL    HW122727   3.490   3.632   6.983  0.7465 -0.8293 -1.5801
 3697SOL    HW222728   3.483   3.677   6.845 -3.1294  1.7366  0.2100
 3698SOL     OW22729   1.527   1.357   2.968  0.3415 -0.3591 -0.0370
 3698SOL    HW122730   1.612   1.326   2.937 -0.5459 -0.4303 -2.3975
 3698SOL    HW222731   1.525   1.336   3.061  2.7021 -0.4153  0.0037
 3699SOL     OW22732   1.666   3.753   1.892 -0.2056  0.2207 -0.2506
 3699SOL    HW122733   1.719   3.689   1.844  0.1993 -0.1335  0.6546
 3699SOL    HW222734   1.669   3.706   1.976  1.1374  1.9113  0.6296
 3700SOL     OW22735   4.428   0.217   4.123  0.0642  0.1100 -0.1320
 3700SOL    HW122736   4.362   0.167   4.075 -0.2377 -0.3624  0.7799
 3700SOL    HW222737   4.376   0.253   4.194 -1.3829 -1.7866 -0.2510
 3701SOL     OW22738   1.770   3.636   9.416 -0.1033  0.4923  0.2481
 3701SOL    HW122739   1.833   3.658   9.484 -0.0513 -2.3214  1.1271
 3701SOL    HW222740   1.726   3.717   9.394 -1.0105 -0.6189 -2.0286
 3702SOL     OW22741   3.799   2.836   3.420 -0.7994  0.4020 -0.1678
 3702SOL    HW122742   3.810   2.861   3.512  0.5183  1.9048 -0.7432
 3702SOL    HW222743   3.874   2.881   3.384 -0.3041 -0.1062  0.2176
 3703SOL     OW22744   3.300   0.940   4.078  0.1951 -0.1914  0.3553
 3703SOL    HW122745   3.366   0.968   4.015  0.0343  0.2109  0.3652
 3703SOL    HW222746   3.233   1.006   4.058  1.8363  1.5180  0.4644
 3704SOL     OW22747   2.784   2.739   8.286 -0.5657  0.5774 -0.8962
 3704SOL    HW122748   2.788   2.833   8.302 -1.7388  0.4721  0.0000
 3704SOL    HW222749   2.872   2.731   8.249 -0.1127  1.3602  0.0139
 3705SOL     OW22750   2.453   3.563  14.802 -0.2130  0.1619  0.3000
 3705SOL    HW122751   2.528   3.615  14.832  1.3939 -0.9384 -1.8277
 3705SOL    HW222752   2.418   3.615  14.730 -1.0516  1.1558  1.4153
 3706SOL     OW22753   0.946   2.029  13.211 -0.3036 -0.0253  0.6414
 3706SOL    HW122754   1.030   1.988  13.188  0.3432  1.7577 -0.1639
 3706SOL    HW222755   0.897   2.024  13.129  0.7637  0.8754 -0.0419
 3707SOL     OW22756   2.266   1.252  16.971 -0.0026  0.5449  0.5265
 3707SOL    HW122757   2.319   1.277  16.895  0.1092  0.8892  0.7179
 3707SOL    HW222758   2.176   1.253  16.939 -0.0002  0.9664  0.5399
 3708SOL     OW22759   1.228   4.510  15.274  0.6308 -0.0550 -0.0608
 3708SOL    HW122760   1.196   4.458  15.348 -0.7207  2.5607  1.1784
 3708SOL    HW222761   1.268   4.443  15.217 -0.0292 -1.3788  1.0295
 3709SOL     OW22762   3.276   4.490   7.377  0.0373  0.4834  0.0044
 3709SOL    HW122763   3.250   4.577   7.348 -0.2681  1.6682  3.7561
 3709SOL    HW222764   3.303   4.452   7.293  2.5045  0.0358  0.9794
 3710SOL     OW22765   2.323   3.728   8.005 -0.0584 -0.0644  0.1354
 3710SOL    HW122766   2.403   3.774   8.030 -1.4999  1.6667  1.5502
 3710SOL    HW222767   2.296   3.714   8.096  0.0018 -0.5333  0.0824
 3711SOL     OW22768   4.528   2.088   6.147 -0.6074 -0.2969  0.1459
 3711SOL    HW122769   4.621   2.108   6.149 -0.9811  1.1120  2.6448
 3711SOL    HW222770   4.527   2.046   6.061  0.8100  2.3617 -1.1672
 3712SOL     OW22771   1.727   4.358   4.378 -0.1044  0.5361  0.9479
 3712SOL    HW122772   1.690   4.435   4.422  1.6036  1.4204  0.8166
 3712SOL    HW222773   1.703   4.375   4.287  0.3253  0.7891  0.8823
 3713SOL     OW22774   1.461   4.351   8.665 -0.7696  0.0568 -0.0959
 3713SOL    HW122775   1.492   4.378   8.578  0.2825  0.9143  0.5461
 3713SOL    HW222776   1.479   4.257   8.659  1.0133  0.3424  0.5795
 3714SOL     OW22777   3.295   2.954   5.680 -0.0824 -0.5353  0.1916
 3714SOL    HW122778   3.349   3.031   5.663  0.2479 -0.6117  0.8992
 3714SOL    HW222779   3.354   2.908   5.739  0.2368  0.2525  0.4966
 3715SOL     OW22780   4.117   1.630   0.289 -0.2069 -0.5755 -0.3007
 3715SOL    HW122781   4.174   1.604   0.216 -0.6453  2.0811 -1.5787
 3715SOL    HW222782   4.089   1.549   0.333 -3.6636  0.2155 -1.1009
 3716SOL     OW22783   0.151   2.891  10.055  0.1670  0.1747  0.0594
 3716SOL    HW122784   0.129   2.807  10.014  1.2081  0.5827 -1.3038
 3716SOL    HW222785   0.180   2.941   9.979 -0.0897  1.2188  0.6447
 3717SOL     OW22786   3.014   2.269   4.703  0.5824  0.1973 -0.0047
 3717SOL    HW122787   3.053   2.349   4.736  0.0972  0.7551 -0.7799
 3717SOL    HW222788   2.999   2.286   4.610 -1.6228 -2.0288 -0.0497
 3718SOL     OW22789   3.842   2.499   7.460 -0.1472  0.5248 -0.0689
 3718SOL    HW122790   3.864   2.413   7.424 -0.7414  0.8367 -1.1674
 3718SOL    HW222791   3.907   2.556   7.418  0.5958 -0.4269 -0.2234
 3719SOL     OW22792   4.077   3.256   9.594  0.1736 -0.0553 -0.3615
 3719SOL    HW122793   4.169   3.231   9.582  0.4721 -0.4300  2.7369
 3719SOL    HW222794   4.091   3.349   9.611 -2.3479  0.4489 -1.1257
 3720SOL     OW22795   2.282   2.117  13.322  0.2838  0.0136  0.9739
 3720SOL    HW122796   2.346   2.047  13.309 -1.2788 -0.8448 -2.1273
 3720SOL    HW222797   2.230   2.097  13.244 -0.8090  0.6748  1.5379
 3721SOL     OW22798   2.164   4.129   4.526  0.0607  0.4848  0.3037
 3721SOL    HW122799   2.129   4.138   4.438  0.2457  1.8098  0.3680
 3721SOL    HW222800   2.248   4.171   4.510 -0.8568  2.0080 -0.4997
 3722SOL     OW22801   1.386   3.610   2.225  0.2223  0.4559  0.6158
 3722SOL    HW122802   1.362   3.517   2.218  0.1983  0.4907  0.2566
 3722SOL    HW222803   1.394   3.617   2.320  1.3145 -2.8742  0.7872
 3723SOL     OW22804   2.465   0.802   2.458  0.0043  0.0473 -0.4629
 3723SOL    HW122805   2.535   0.852   2.415  0.2235  0.3658  0.2729
 3723SOL    HW222806   2.469   0.723   2.404 -0.4881  0.3050 -0.8762
 3724SOL     OW22807   3.008   2.423   4.321 -0.1316 -0.1820  0.6215
 3724SOL    HW122808   3.087   2.378   4.293  0.2752  0.9673 -0.0653
 3724SOL    HW222809   3.033   2.436   4.412 -0.4389  3.6419  0.1448
 3725SOL     OW22810   0.663   1.513   6.633 -0.3224  0.3550  0.5586
 3725SOL    HW122811   0.716   1.571   6.686 -0.4732  2.3795 -1.5118
 3725SOL    HW222812   0.726   1.481   6.567  0.1307 -1.2732  1.7778
 3726SOL     OW22813   2.822   1.214   5.964 -0.1860  0.2387 -0.1934
 3726SOL    HW122814   2.769   1.293   5.955 -0.6206 -0.4849 -3.8363
 3726SOL    HW222815   2.822   1.211   6.060 -1.9404 -2.9965 -0.3170
 3727SOL     OW22816   0.584   0.384   2.346  0.1461 -0.2099 -0.2466
 3727SOL    HW122817   0.628   0.299   2.347  1.0683  0.3262  4.2274
 3727SOL    HW222818   0.493   0.355   2.345 -0.6107  2.1400  1.0133
 3728SOL     OW22819   4.356   4.353  17.433 -0.3657  0.7835  0.3360
 3728SOL    HW122820   4.363   4.441  17.472  1.8288  0.5325  0.4760
 3728SOL    HW222821   4.280   4.325  17.484  0.7744 -0.7717  1.1597
 3729SOL     OW22822   1.143   4.641   2.213  0.4985 -0.0856  0.3249
 3729SOL    HW122823   1.126   4.587   2.136  1.7077  0.6463 -0.4637
 3729SOL    HW222824   1.099   4.590   2.281  0.4266 -1.2424 -0.5959
 3730SOL     OW22825   4.683   2.508   9.209  0.2441  0.4026 -0.4721
 3730SOL    HW122826   4.678   2.454   9.130  0.0417  3.9751 -2.8804
 3730SOL    HW222827   4.603   2.561   9.211  0.5241  0.8617 -1.6268
 3731SOL     OW22828   4.123   2.250  16.831  0.1421 -0.4980  0.6964
 3731SOL    HW122829   4.120   2.191  16.756 -1.7352  0.4984 -0.0113
 3731SOL    HW222830   4.153   2.186  16.897 -0.3243 -1.7824 -0.3359
 3732SOL     OW22831   2.629   0.423   3.812  0.7672 -0.1686  0.3786
 3732SOL    HW122832   2.623   0.509   3.769 -0.0070  0.0207  0.8452
 3732SOL    HW222833   2.662   0.456   3.896 -0.0955 -0.2461  0.7480
 3733SOL     OW22834   1.531   0.301   8.826 -0.2975  0.2289  0.0340
 3733SOL    HW122835   1.503   0.313   8.917  1.8988 -1.1667  0.8899
 3733SOL    HW222836   1.461   0.252   8.782  1.2429  0.5337 -2.7347
 3734SOL     OW22837   4.536   2.077   9.316  0.1632  0.1263 -0.1810
 3734SOL    HW122838   4.577   2.142   9.373  1.4700 -1.2430  0.4378
 3734SOL    HW222839   4.452   2.122   9.312  0.4779  0.8832  1.5194
 3735SOL     OW22840   3.547   3.275   3.943  0.3773 -0.3554  0.1159
 3735SOL    HW122841   3.634   3.240   3.965 -0.1152 -0.7039  1.4941
 3735SOL    HW222842   3.497   3.197   3.965 -2.0882  1.2508  0.1931
 3736SOL     OW22843   2.315   2.953  13.597 -0.1910  0.0331 -0.2758
 3736SOL    HW122844   2.338   3.029  13.651 -0.2399  0.1886 -0.4758
 3736SOL    HW222845   2.220   2.948  13.604 -0.2250 -0.1893 -0.9134
 3737SOL     OW22846   4.692   2.105   2.535  0.0940  0.2596 -0.0635
 3737SOL    HW122847   0.049   2.108   2.525  0.1363 -0.0325  0.2431
 3737SOL    HW222848   4.672   2.195   2.557 -0.8445  0.1861 -0.6333
 3738SOL     OW22849   4.544   0.718   0.443  0.2489  0.5363 -0.7224
 3738SOL    HW122850   4.476   0.785   0.448  0.9617  1.1667  0.5736
 3738SOL    HW222851   4.575   0.720   0.352 -2.9684 -0.6136 -1.8542
 3739SOL     OW22852   3.209   1.100   5.838  1.2859 -0.2736 -0.3322
 3739SOL    HW122853   3.257   1.102   5.755  1.7099 -0.1346 -0.0794
 3739SOL    HW222854   3.266   1.140   5.903 -0.7344 -0.1083  1.3309
 3740SOL     OW22855   2.875   1.117   7.445 -0.3045 -0.3417 -0.0529
 3740SOL    HW122856   2.935   1.045   7.426  1.9038  0.5560  3.6278
 3740SOL    HW222857   2.809   1.103   7.376  1.0706 -1.6404 -1.0986
 3741SOL     OW22858   3.908   3.630   6.684 -0.0272 -0.4109  0.2535
 3741SOL    HW122859   3.884   3.634   6.777  0.5748  1.2727  0.3424
 3741SOL    HW222860   3.863   3.701   6.639  0.4663  0.7305  1.5508
 3742SOL     OW22861   1.297   0.526  13.820 -0.4278 -0.2238  0.0711
 3742SOL    HW122862   1.322   0.436  13.839  0.8888  0.0260 -0.4185
 3742SOL    HW222863   1.265   0.516  13.731  0.1551 -2.0240  0.0595
 3743SOL     OW22864   1.800   3.872   4.675 -0.8069 -0.4970 -0.3007
 3743SOL    HW122865   1.839   3.959   4.663 -1.2549 -0.0882  1.0971
 3743SOL    HW222866   1.862   3.832   4.736  0.9091 -0.5879 -2.1169
 3744SOL     OW22867   4.000   2.430  10.102  0.0251 -0.3844  0.1608
 3744SOL    HW122868   4.072   2.405  10.159  0.3948 -0.4214 -0.3175
 3744SOL    HW222869   3.932   2.363  10.106 -2.0622  1.8229  1.3821
 3745SOL     OW22870   0.321   2.497   8.674  0.6659 -0.4974 -0.0606
 3745SOL    HW122871   0.340   2.507   8.581  1.5222  0.3572  0.2131
 3745SOL    HW222872   0.382   2.559   8.714  0.4927  0.1548 -0.8158
 3746SOL     OW22873   1.543   0.562   7.832 -0.5949  0.3208  0.1241
 3746SOL    HW122874   1.550   0.494   7.899  1.2634 -0.4037 -0.7992
 3746SOL    HW222875   1.531   0.516   7.749  2.4970 -0.1890 -0.0256
 3747SOL     OW22876   1.892   3.128   5.057  0.0360 -0.1802  0.0430
 3747SOL    HW122877   1.810   3.173   5.037  0.8397  0.6473 -1.4247
 3747SOL    HW222878   1.943   3.209   5.061 -2.2820  1.4549 -3.2828
 3748SOL     OW22879   2.316   3.322   6.156 -0.1071  0.4302  0.1716
 3748SOL    HW122880   2.332   3.415   6.139 -2.2672  0.7374 -0.1653
 3748SOL    HW222881   2.402   3.282   6.143  0.0333 -0.2185  3.1573
 3749SOL     OW22882   2.922   4.263   3.439 -0.0815  0.3205  0.3022
 3749SOL    HW122883   2.965   4.324   3.380  1.1381  1.1577  2.0308
 3749SOL    HW222884   2.966   4.298   3.517 -0.6549 -1.9801  1.6557
 3750SOL     OW22885   1.662   3.807  10.056 -0.0962 -0.1608 -0.4451
 3750SOL    HW122886   1.645   3.738  10.120  0.3141  0.9606  0.8659
 3750SOL    HW222887   1.689   3.883  10.108 -0.1640 -0.8687  0.6309
 3751SOL     OW22888   3.446   3.904   0.915  0.5370 -0.1934  0.4840
 3751SOL    HW122889   3.448   3.866   0.827  0.2402  2.2242 -0.5473
 3751SOL    HW222890   3.423   3.828   0.969 -0.5078 -0.5445 -0.4442
 3752SOL     OW22891   0.415   0.397   7.115  0.0287 -0.0548 -0.0114
 3752SOL    HW122892   0.451   0.308   7.117 -1.5533 -0.6914 -0.0055
 3752SOL    HW222893   0.392   0.401   7.022 -1.3585  1.3309  0.3907
 3753SOL     OW22894   0.723   1.922   4.975  0.5693 -0.0907 -0.0296
 3753SOL    HW122895   0.635   1.954   4.953  0.5279 -0.2057 -0.0317
 3753SOL    HW222896   0.775   1.925   4.895  0.4429  2.7148 -0.0366
 3754SOL     OW22897   1.712   1.179   8.811  0.3168 -0.3787  0.1771
 3754SOL    HW122898   1.636   1.160   8.867  0.9691  0.3738  1.3317
 3754SOL    HW222899   1.673   1.230   8.740  1.2963  2.3777  1.5826
 3755SOL     OW22900   2.184   4.171   3.231  0.0670  0.6604  0.7461
 3755SOL    HW122901   2.197   4.084   3.268  0.8264 -0.4586 -2.2320
 3755SOL    HW222902   2.093   4.177   3.202  0.6492 -0.8688 -1.3548
 3756SOL     OW22903   1.164   0.142   4.847  0.0615  0.1863  0.0306
 3756SOL    HW122904   1.197   0.124   4.935  2.6413  1.9226 -0.5955
 3756SOL    HW222905   1.081   0.094   4.856  0.6502 -1.0592 -1.2360
 3757SOL     OW22906   1.283   4.018   7.281 -0.5999  0.3730  0.3013
 3757SOL    HW122907   1.298   3.960   7.206 -1.6675  1.6434 -0.9019
 3757SOL    HW222908   1.349   4.080   7.251  0.5402 -0.6263  0.7824
 3758SOL     OW22909   4.481   0.169   3.125 -0.0877 -0.4137  0.9998
 3758SOL    HW122910   4.540   0.230   3.170 -0.3754 -0.1904  1.0773
 3758SOL    HW222911   4.397   0.214   3.133  0.4363  0.7434 -0.0145
 3759SOL     OW22912   2.494   2.459   0.343  0.4633 -0.1675 -0.2657
 3759SOL    HW122913   2.440   2.448   0.265  1.1254 -0.2504 -0.7003
 3759SOL    HW222914   2.579   2.425   0.317  0.0017 -1.1657 -0.5075
 3760SOL     OW22915   3.151   2.074   3.896  0.0155 -0.7561  0.5021
 3760SOL    HW122916   3.094   1.998   3.893  0.0143 -0.7321 -0.1055
 3760SOL    HW222917   3.133   2.119   3.979 -1.3115 -3.1031  1.4525
 3761SOL     OW22918   4.085   0.659  10.938 -0.6915  0.4695  0.3554
 3761SOL    HW122919   4.000   0.701  10.954 -1.4539 -1.1947  0.7219
 3761SOL    HW222920   4.086   0.656  10.842 -0.5734  1.8489  0.3189
 3762SOL     OW22921   4.523   3.598  13.344 -0.3736  0.1402 -0.2154
 3762SOL    HW122922   4.456   3.660  13.315  0.2863  0.1390 -1.7279
 3762SOL    HW222923   4.549   3.569  13.257 -0.2650  1.1126 -0.5019
 3763SOL     OW22924   1.770   4.719   3.800  0.0205 -0.3000  0.3850
 3763SOL    HW122925   1.692   4.725   3.745 -0.2984 -0.5599  0.8090
 3763SOL    HW222926   1.728   4.659   3.861  0.1110 -1.3734 -0.6085
 3764SOL     OW22927   4.726   0.942  16.192 -0.3145  0.1398 -0.0076
 3764SOL    HW122928   0.057   0.965  16.130  2.4122 -0.9048  2.6198
 3764SOL    HW222929   4.727   0.846  16.186  1.0659  0.0680  1.2870
 3765SOL     OW22930   1.408   0.012  14.565 -0.1363  0.2795  0.0729
 3765SOL    HW122931   1.450   0.087  14.523 -0.1324  0.3939  0.2798
 3765SOL    HW222932   1.433   4.675  14.511 -0.1834  0.1904  0.1750
 3766SOL     OW22933   4.372   1.422   8.158 -0.2019 -0.1770  0.1200
 3766SOL    HW122934   4.344   1.390   8.244 -2.4833  2.8454  0.4950
 3766SOL    HW222935   4.416   1.345   8.121 -0.6090 -0.7932  0.9003
 3767SOL     OW22936   0.270   1.324   6.619 -0.1778 -0.0410  0.0011
 3767SOL    HW122937   0.315   1.359   6.696  0.1906  0.2588 -0.3557
 3767SOL    HW222938   0.247   1.402   6.570 -0.5220  0.7981  1.4940
 3768SOL     OW22939   0.422   3.501   7.645 -0.5407  0.1492 -0.1869
 3768SOL    HW122940   0.511   3.537   7.645 -0.2401 -0.6105  0.8656
 3768SOL    HW222941   0.443   3.425   7.699 -1.0431  0.7378  0.8389
 3769SOL     OW22942   0.188   2.586  17.527 -0.2805 -0.0804  0.7773
 3769SOL    HW122943   0.122   2.645  17.490 -2.7704 -2.3531  1.6205
 3769SOL    HW222944   0.160   2.500  17.496  0.3470 -0.8078  2.2233
 3770SOL     OW22945   4.563   3.863   2.484 -0.1169  0.0537 -0.9986
 3770SOL    HW122946   4.509   3.787   2.503  0.0561 -0.2515 -1.7435
 3770SOL    HW222947   4.498   3.919   2.440 -2.2168 -2.8479 -1.5792
 3771SOL     OW22948   2.002   3.921   5.292  0.3514  0.1084  0.0524
 3771SOL    HW122949   1.989   3.831   5.322  0.0470  0.6390  1.4821
 3771SOL    HW222950   1.923   3.929   5.238  1.7150  2.2508 -1.6629
 3772SOL     OW22951   1.103   2.183  10.154 -0.0144  0.5853 -0.0813
 3772SOL    HW122952   1.194   2.206  10.174  0.5673 -3.3237  1.7760
 3772SOL    HW222953   1.090   2.184  10.060 -3.0474 -0.7921  0.3194
 3773SOL     OW22954   2.809   2.856   2.762  0.2580 -0.5641  0.1720
 3773SOL    HW122955   2.829   2.779   2.815 -1.1991 -0.6874  0.5297
 3773SOL    HW222956   2.863   2.917   2.811  0.3039 -0.5289  0.0781
 3774SOL     OW22957   3.741   3.004   4.282  0.1892  0.1268  0.2144
 3774SOL    HW122958   3.787   2.921   4.273 -0.1798  0.0924 -1.3858
 3774SOL    HW222959   3.652   2.977   4.303  0.8788  0.5980  3.7314
 3775SOL     OW22960   0.629   0.165  17.465  0.2734  0.0338  0.0161
 3775SOL    HW122961   0.594   0.188  17.379 -0.4701 -0.1911  0.2627
 3775SOL    HW222962   0.724   0.177  17.458  0.3124 -0.4738 -0.3259
 3776SOL     OW22963   3.785   4.599   9.046 -0.8227  0.2821 -0.1063
 3776SOL    HW122964   3.704   4.647   9.063 -0.4344 -0.5209  4.0469
 3776SOL    HW222965   3.841   4.643   9.110  0.8188 -2.3266  0.2613
 3777SOL     OW22966   1.276   0.887  15.712  0.4382  0.0975  0.1461
 3777SOL    HW122967   1.319   0.973  15.714  2.3201 -0.7907 -1.2553
 3777SOL    HW222968   1.191   0.902  15.670  0.5520 -0.5415 -0.3156
 3778SOL     OW22969   2.641   3.161   4.423 -0.2841  0.3381  0.5914
 3778SOL    HW122970   2.698   3.139   4.348 -1.0957  0.0100  0.0718
 3778SOL    HW222971   2.665   3.105   4.496  0.6187 -2.5208 -1.8964
 3779SOL     OW22972   2.281   3.155  12.533 -0.4236  0.3871 -0.8957
 3779SOL    HW122973   2.218   3.157  12.604  0.4128  2.7981 -0.2354
 3779SOL    HW222974   2.363   3.199  12.555 -0.2705 -0.3318 -0.0047
 3780SOL     OW22975   3.006   2.582   2.644  0.3632 -0.2927  0.1318
 3780SOL    HW122976   3.087   2.548   2.683 -0.6777 -0.5498  2.0697
 3780SOL    HW222977   3.001   2.524   2.568  2.5524  1.9345 -1.7203
 3781SOL     OW22978   2.316   3.299   6.531  0.3529 -0.1976  0.2430
 3781SOL    HW122979   2.240   3.347   6.496 -0.1097 -1.6821 -0.7762
 3781SOL    HW222980   2.300   3.208   6.507  0.7574 -0.1730 -0.1304
 3782SOL     OW22981   1.269   1.128  15.244  0.1732 -0.2904 -0.2343
 3782SOL    HW122982   1.192   1.126  15.301  1.7092 -0.8956  1.8294
 3782SOL    HW222983   1.309   1.214  15.258  0.7134 -0.8964  2.0448
 3783SOL     OW22984   3.432   3.073   9.788 -0.4910  0.2143 -0.3273
 3783SOL    HW122985   3.415   2.981   9.771 -1.6445  0.7309 -2.0056
 3783SOL    HW222986   3.501   3.060   9.853 -1.4500 -1.1842  0.4014
 3784SOL     OW22987   0.799   3.050   1.097 -0.1473  0.1521 -0.3510
 3784SOL    HW122988   0.805   3.023   1.005  1.7182 -0.8803  0.0703
 3784SOL    HW222989   0.883   3.095   1.111  0.4817 -1.3109  0.5933
 3785SOL     OW22990   1.635   3.047   2.369  0.0516 -0.6141  0.3376
 3785SOL    HW122991   1.677   3.032   2.284  0.8368  0.9682  0.4427
 3785SOL    HW222992   1.651   3.142   2.371  0.4676 -0.6703 -0.3188
 3786SOL     OW22993   0.811   1.366  11.623 -0.2217  0.6427 -0.0787
 3786SOL    HW122994   0.903   1.374  11.647  0.2746 -1.1219 -1.4351
 3786SOL    HW222995   0.813   1.272  11.603 -0.4742  0.0451  2.6879
 3787SOL     OW22996   1.839   4.409   6.428  0.1408 -0.3168  0.2396
 3787SOL    HW122997   1.771   4.367   6.481  0.8112 -1.1342  0.4418
 3787SOL    HW222998   1.790   4.442   6.352  2.9192 -1.5772 -2.0820
 3788SOL     OW22999   2.497   2.219  10.262  0.2389  0.1325 -0.3667
 3788SOL    HW123000   2.569   2.214  10.198  1.2998  0.4561  0.7983
 3788SOL    HW223001   2.500   2.135  10.308  1.2877  0.3644 -0.0121
 3789SOL     OW23002   3.839   1.253   7.216 -0.2023  0.4005 -0.2706
 3789SOL    HW123003   3.750   1.221   7.206  0.4612 -0.5857 -3.0274
 3789SOL    HW223004   3.885   1.198   7.153  0.1449 -0.3099  0.6043
 3790SOL     OW23005   0.202   3.426  15.880 -0.9088  0.1626  0.2211
 3790SOL    HW123006   0.227   3.445  15.789 -0.8750  1.2038  0.4501
 3790SOL    HW223007   0.292   3.415  15.911 -0.4498 -1.6227 -1.7244
 3791SOL     OW23008   0.901   1.082  17.446  0.1290 -0.0466 -0.2499
 3791SOL    HW123009   0.841   1.142  17.490  0.9042  0.2655  0.3780
 3791SOL    HW223010   0.986   1.117  17.472  0.0521  0.2025 -0.3328
 3792SOL     OW23011   0.034   0.014  12.376 -0.1570 -0.2382  0.1001
 3792SOL    HW123012   0.017   0.106  12.398 -0.9252  0.0326 -1.6225
 3792SOL    HW223013   0.031   0.010  12.280  3.3672  0.7470 -0.0517
 3793SOL     OW23014   3.710   1.555  14.198  0.2918  0.4886 -0.0531
 3793SOL    HW123015   3.733   1.622  14.263 -2.0083 -0.6607  1.9565
 3793SOL    HW223016   3.621   1.528  14.222 -0.6729  3.4791 -0.2276
 3794SOL     OW23017   1.327   3.991   4.823  0.3522  0.6071  0.4015
 3794SOL    HW123018   1.387   4.055   4.784 -0.1726  1.1974  0.5605
 3794SOL    HW223019   1.396   3.928   4.841 -1.5779 -1.0981  1.7517
 3795SOL     OW23020   2.295   2.523   2.700 -0.6481  0.0092  0.5846
 3795SOL    HW123021   2.273   2.450   2.758  0.3227  0.2453  1.2462
 3795SOL    HW223022   2.223   2.517   2.637  0.3183 -1.3367 -0.3847
 3796SOL     OW23023   0.999   1.437   8.316 -0.2072  0.8270  0.5050
 3796SOL    HW123024   0.994   1.509   8.378  1.3487  1.7323 -0.4283
 3796SOL    HW223025   0.904   1.427   8.303  0.1637 -0.3834 -1.3577
 3797SOL     OW23026   1.285   1.161  15.732 -0.1491 -0.1939  0.7523
 3797SOL    HW123027   1.213   1.209  15.693  1.3310  1.8082  0.4776
 3797SOL    HW223028   1.324   1.212  15.804 -1.2997  1.2712  0.3227
 3798SOL     OW23029   1.879   0.782   3.467  0.3381 -0.5260  0.3614
 3798SOL    HW123030   1.879   0.820   3.379  0.3434 -0.1845  0.5085
 3798SOL    HW223031   1.938   0.850   3.500  0.1261 -0.9139  1.5222
 3799SOL     OW23032   3.012   3.595   8.378 -0.4626  0.3980 -0.2818
 3799SOL    HW123033   3.056   3.677   8.402  0.0708  0.0621 -0.1046
 3799SOL    HW223034   3.080   3.534   8.407 -1.3183 -1.3146 -1.9213
 3800SOL     OW23035   2.365   0.181   2.474 -0.6049  0.6221  0.6501
 3800SOL    HW123036   2.298   0.113   2.469 -0.6078  0.7808 -1.4204
 3800SOL    HW223037   2.366   0.216   2.563 -2.2155 -1.8798  1.6569
 3801SOL     OW23038   2.430   1.272  14.264 -0.5969  0.3838  0.1911
 3801SOL    HW123039   2.435   1.187  14.309 -1.0336 -0.1565 -0.7735
 3801SOL    HW223040   2.471   1.322  14.334  0.9220 -0.4761 -0.0630
 3802SOL     OW23041   2.428   4.492   5.093  0.0466  0.3816 -0.0228
 3802SOL    HW123042   2.443   4.554   5.164  0.8411 -1.0549  1.0492
 3802SOL    HW223043   2.514   4.468   5.059 -0.8184 -1.6108 -0.7526
 3803SOL     OW23044   4.699   4.521  10.200  0.4798 -0.0592  0.2975
 3803SOL    HW123045   4.659   4.437  10.220  2.4403 -0.8293  1.0208
 3803SOL    HW223046   4.716   4.512  10.106  1.1271 -1.0798  0.5074
 3804SOL     OW23047   0.164   3.611  14.292  0.1676 -0.9366  0.0552
 3804SOL    HW123048   0.256   3.631  14.312  0.8393 -2.4166 -1.6354
 3804SOL    HW223049   0.137   3.678  14.230  0.1550 -2.1534 -1.2399
 3805SOL     OW23050   1.242   4.171   9.206  0.2444  0.1693 -0.2168
 3805SOL    HW123051   1.296   4.172   9.127  3.4888  0.4007  2.0179
 3805SOL    HW223052   1.201   4.258   9.202 -1.1263 -0.3306  2.9180
 3806SOL     OW23053   0.331   0.504   5.018  0.2083 -0.1887  0.0105
 3806SOL    HW123054   0.250   0.501   4.968  0.6102  0.2049 -0.6675
 3806SOL    HW223055   0.400   0.463   4.966 -0.3475  0.5967 -1.3310
 3807SOL     OW23056   4.541   3.440   6.869  0.1176  0.9318  0.4469
 3807SOL    HW123057   4.470   3.407   6.924 -0.2490 -1.3694 -1.3854
 3807SOL    HW223058   4.598   3.475   6.937  0.2495 -1.2248  1.4524
 3808SOL     OW23059   0.729   3.928   6.019 -0.2641  0.1525  0.0688
 3808SOL    HW123060   0.668   3.956   6.086 -1.1516  0.8511 -1.0283
 3808SOL    HW223061   0.736   3.837   6.049 -0.9774 -0.0253 -0.2919
 3809SOL     OW23062   3.470   4.546  12.014 -0.1636 -0.5118 -0.2802
 3809SOL    HW123063   3.414   4.476  11.980  2.1097 -2.1953 -0.6200
 3809SOL    HW223064   3.524   4.502  12.081 -2.0493  0.3157  1.7620
 3810SOL     OW23065   4.674   3.403   8.336  0.4997  0.2284  0.0203
 3810SOL    HW123066   4.692   3.328   8.280 -4.0239  0.3628 -1.5927
 3810SOL    HW223067   4.678   3.475   8.274 -0.2714  1.7019  1.6762
 3811SOL     OW23068   3.058   2.942   9.275 -0.8048 -0.2572  0.4653
 3811SOL    HW123069   3.126   2.963   9.339 -0.8243  1.6943 -0.1492
 3811SOL    HW223070   3.023   2.857   9.299  0.8904 -0.8212  0.9652
 3812SOL     OW23071   4.133   0.471   4.601  0.9650 -0.3659 -0.3245
 3812SOL    HW123072   4.176   0.387   4.615  0.9281  0.1516  3.0202
 3812SOL    HW223073   4.046   0.439   4.577  0.7470 -0.1777  0.2022
 3813SOL     OW23074   1.244   2.275   8.683 -0.0888 -0.0260 -0.0803
 3813SOL    HW123075   1.220   2.367   8.674  2.1795  0.4195 -1.4774
 3813SOL    HW223076   1.186   2.258   8.757  0.3448  0.2235  0.3272
 3814SOL     OW23077   0.231   4.071  10.722 -0.4748  0.6385  0.1534
 3814SOL    HW123078   0.205   4.012  10.651  0.2128 -2.8095  2.7711
 3814SOL    HW223079   0.267   4.150  10.682 -0.7893  0.7709  0.1303
 3815SOL     OW23080   4.554   4.319  13.117  0.6012  0.5635  0.0271
 3815SOL    HW123081   4.643   4.308  13.152 -0.1767  1.0478  2.1685
 3815SOL    HW223082   4.511   4.248  13.165 -0.4029  0.3132 -1.2584
 3816SOL     OW23083   3.868   1.944   1.692 -0.2633  0.0305  0.5600
 3816SOL    HW123084   3.938   2.000   1.657 -1.7949  0.6591 -1.4618
 3816SOL    HW223085   3.847   1.992   1.772  0.3412  0.6885  0.3270
 3817SOL     OW23086   1.872   4.295   5.825 -0.2245  0.2656 -0.0837
 3817SOL    HW123087   1.815   4.369   5.803  0.8783  1.5718  1.4343
 3817SOL    HW223088   1.884   4.268   5.734  1.3481  3.6578 -0.8733
 3818SOL     OW23089   2.463   4.399   7.160  0.0220  0.0944 -0.0436
 3818SOL    HW123090   2.545   4.360   7.191  0.3271 -0.7997 -1.9800
 3818SOL    HW223091   2.487   4.416   7.068  2.5195  2.1500  0.9803
 3819SOL     OW23092   1.989   4.524   4.377  0.6593 -0.2532  0.2644
 3819SOL    HW123093   2.045   4.458   4.337  0.5268 -0.8035  1.0065
 3819SOL    HW223094   1.900   4.495   4.356  0.8976  0.0294 -1.1570
 3820SOL     OW23095   4.536   4.678  16.330 -0.8551  0.1525  0.2557
 3820SOL    HW123096   4.592   4.689  16.254 -0.1669 -1.3992  0.5323
 3820SOL    HW223097   4.453   4.717  16.301 -0.9152  0.8977  1.4004
 3821SOL     OW23098   1.454   1.493   0.401  0.4523 -0.0228  0.3901
 3821SOL    HW123099   1.548   1.510   0.393  0.2277  0.6707 -0.6589
 3821SOL    HW223100   1.447   1.408   0.356  0.3600 -0.3202  0.9671
 3822SOL     OW23101   0.954   4.644   9.370 -0.2395 -0.3917  0.4539
 3822SOL    HW123102   0.990   4.612   9.452 -0.8448  1.8722  1.5848
 3822SOL    HW223103   1.030   4.686   9.331 -0.6802 -0.9646 -1.0350
 3823SOL     OW23104   3.794   1.190   1.687 -0.4153  0.4227  0.3948
 3823SOL    HW123105   3.797   1.277   1.727 -0.5379  0.6965 -0.2047
 3823SOL    HW223106   3.877   1.151   1.712 -0.0133  1.2474  0.3377
 3824SOL     OW23107   3.818   2.166   2.644  0.0492  0.3055 -0.5688
 3824SOL    HW123108   3.913   2.156   2.641 -0.0936 -1.3067  0.6688
 3824SOL    HW223109   3.791   2.109   2.716  2.0769  0.7816  0.5690
 3825SOL     OW23110   2.440   2.600   6.007 -0.1322  0.0375  0.5582
 3825SOL    HW123111   2.400   2.687   6.008 -2.0648 -0.8314 -1.3768
 3825SOL    HW223112   2.421   2.584   6.099  0.9687 -0.9645  0.6053
 3826SOL     OW23113   3.109   3.004   1.297  0.3709 -0.0003  0.5417
 3826SOL    HW123114   3.045   3.067   1.331 -0.1611 -1.2804  1.9293
 3826SOL    HW223115   3.183   3.018   1.355 -0.8093  0.6911  1.8882
 3827SOL     OW23116   1.330   1.095   2.273 -0.1499 -0.4840  0.0807
 3827SOL    HW123117   1.273   1.159   2.231  0.7016 -0.1789 -0.6224
 3827SOL    HW223118   1.397   1.089   2.204 -1.3318  2.8522 -1.3386
 3828SOL     OW23119   0.090   0.515  14.309 -0.5105 -1.0211 -0.2928
 3828SOL    HW123120   0.118   0.569  14.236 -1.8540 -0.0420 -0.0825
 3828SOL    HW223121   4.738   0.489  14.291 -0.5325  1.1821 -3.3154
 3829SOL     OW23122   1.958   2.449  12.764  0.0406 -0.1589  0.2508
 3829SOL    HW123123   1.975   2.483  12.852  0.4547 -0.4986  0.3034
 3829SOL    HW223124   2.025   2.380  12.757 -0.0346 -0.3608  1.4791
 3830SOL     OW23125   3.137   2.493   4.545 -0.5073 -0.2980  0.2797
 3830SOL    HW123126   3.136   2.581   4.585 -0.1077  0.4452 -1.3383
 3830SOL    HW223127   3.227   2.468   4.567 -0.4195 -0.2491 -0.0254
 3831SOL     OW23128   0.604   4.579   8.030 -0.9407 -0.1741  0.0562
 3831SOL    HW123129   0.689   4.610   8.000 -0.8922 -0.3089  0.0512
 3831SOL    HW223130   0.586   4.637   8.104  2.6463  3.1172 -1.7271
 3832SOL     OW23131   3.162   1.266   4.619 -0.2739  0.1805 -0.5685
 3832SOL    HW123132   3.171   1.337   4.555 -1.4257 -0.1191 -1.0687
 3832SOL    HW223133   3.092   1.220   4.573 -0.2207  0.6246 -1.0900
 3833SOL     OW23134   3.866   3.691   6.951 -0.3467 -0.0072  0.1621
 3833SOL    HW123135   3.800   3.678   7.019 -1.3959  2.2166 -0.4365
 3833SOL    HW223136   3.931   3.625   6.975 -1.1110 -1.3328 -1.3679
 3834SOL     OW23137   2.545   2.713  16.118  0.3563  0.1789  0.2399
 3834SOL    HW123138   2.594   2.796  16.114 -0.8411  0.9345  1.2397
 3834SOL    HW223139   2.488   2.725  16.043  0.8101 -1.6379 -0.3959
 3835SOL     OW23140   3.869   2.318   0.235 -0.8158 -0.0805  0.4540
 3835SOL    HW123141   3.867   2.316   0.139 -0.5267 -1.1739  0.4687
 3835SOL    HW223142   3.943   2.266   0.266 -0.3808 -1.4593 -2.8569
 3836SOL     OW23143   3.831   2.810   8.589 -0.5804  0.3179 -0.2220
 3836SOL    HW123144   3.777   2.889   8.599 -0.7766  0.4568 -2.2637
 3836SOL    HW223145   3.914   2.843   8.624 -0.6530 -1.0111  1.1990
 3837SOL     OW23146   1.779   4.373   2.131  1.1072 -1.0780  0.3382
 3837SOL    HW123147   1.826   4.414   2.059  1.5896  0.3027  1.4462
 3837SOL    HW223148   1.764   4.449   2.187  0.1994  1.1069 -2.8569
 3838SOL     OW23149   2.922   3.613   5.954 -0.2196 -0.2922 -0.0863
 3838SOL    HW123150   2.966   3.661   6.024  1.3285  2.9091 -3.2911
 3838SOL    HW223151   2.913   3.686   5.893 -0.2122 -0.3949 -0.2090
 3839SOL     OW23152   2.035   3.664   1.716  0.1493  0.4764 -0.2846
 3839SOL    HW123153   1.944   3.638   1.701  0.3942 -0.8913  0.6397
 3839SOL    HW223154   2.065   3.592   1.771  0.1629  0.1983 -0.6529
 3840SOL     OW23155   0.809   2.867   4.612  0.0390  0.0882 -0.5798
 3840SOL    HW123156   0.771   2.792   4.658  2.2210  0.5972  2.0634
 3840SOL    HW223157   0.728   2.891   4.567  2.1801  2.2381 -3.2886
 3841SOL     OW23158   4.347   1.715   4.164 -0.3452 -0.0156  0.0686
 3841SOL    HW123159   4.337   1.758   4.079  0.0775 -1.5936 -0.7679
 3841SOL    HW223160   4.443   1.708   4.162 -0.2782  1.9505 -3.7934
 3842SOL     OW23161   0.439   4.520   0.457  0.2034  0.2484  0.1744
 3842SOL    HW123162   0.476   4.607   0.446 -1.2510  0.7344 -0.9734
 3842SOL    HW223163   0.490   4.460   0.402  1.3772  1.4614 -0.0582
 3843SOL     OW23164   4.699   2.050  15.787  0.1502 -0.3004  0.2489
 3843SOL    HW123165   4.626   2.085  15.837  0.7392  1.2600 -0.0023
 3843SOL    HW223166   4.693   2.107  15.711 -1.1611  0.1366  0.6869
 3844SOL     OW23167   4.492   0.432   6.223  0.6048  0.5561  0.5096
 3844SOL    HW123168   4.460   0.494   6.158 -0.4155 -0.5363 -0.0131
 3844SOL    HW223169   4.420   0.378   6.256  0.3158  0.0052 -1.0326
 3845SOL     OW23170   3.230   2.385   6.697 -0.3041 -0.2785  0.0545
 3845SOL    HW123171   3.296   2.424   6.754  0.1498  0.2157 -0.8185
 3845SOL    HW223172   3.270   2.392   6.611 -1.1206 -2.6944 -0.5396
 3846SOL     OW23173   2.448   2.761   8.530  0.1106  0.0341 -0.4355
 3846SOL    HW123174   2.380   2.696   8.542  1.2560 -1.3224 -1.2472
 3846SOL    HW223175   2.392   2.836   8.513 -0.5480 -0.0042  1.5097
 3847SOL     OW23176   3.355   4.382   2.311  0.1942  0.5865  0.3086
 3847SOL    HW123177   3.377   4.300   2.355 -3.7675 -0.2979  0.6635
 3847SOL    HW223178   3.262   4.391   2.333  0.3141 -1.4714  1.6476
 3848SOL     OW23179   1.234   4.696   8.718 -0.3880 -0.5230 -0.3616
 3848SOL    HW123180   1.228   4.611   8.762  0.4700  0.7396  2.2391
 3848SOL    HW223181   1.300   4.675   8.652 -1.9655 -2.9665 -1.1580
 3849SOL     OW23182   0.336   1.075  12.158 -0.0269 -0.3599 -0.7203
 3849SOL    HW123183   0.372   1.004  12.211  0.7508  0.5078 -0.0877
 3849SOL    HW223184   0.417   1.123  12.139  1.4299 -1.0076  3.8942
 3850SOL     OW23185   3.245   2.420   8.057 -0.1796  0.2415  0.1766
 3850SOL    HW123186   3.245   2.440   8.150 -0.5165 -0.9737  0.4483
 3850SOL    HW223187   3.298   2.490   8.020  0.6988  0.0232  1.0398
 3851SOL     OW23188   2.270   3.473  14.450 -0.3614  0.5043 -0.3633
 3851SOL    HW123189   2.218   3.450  14.373  0.4401 -1.7850 -0.2428
 3851SOL    HW223190   2.246   3.565  14.460  0.9895  0.5263  2.7169
 3852SOL     OW23191   2.951   4.207   5.273 -0.2791  0.0098  0.1462
 3852SOL    HW123192   2.905   4.291   5.278 -0.4110  0.1131 -3.0242
 3852SOL    HW223193   2.875   4.151   5.256 -0.6484  0.8451 -0.9362
 3853SOL     OW23194   0.496   1.802   7.383  0.7888  0.7187  1.1453
 3853SOL    HW123195   0.495   1.831   7.291 -0.9215  0.4879  1.0814
 3853SOL    HW223196   0.587   1.773   7.387  0.4488 -0.6159 -0.5761
 3854SOL     OW23197   2.034   2.909   1.634 -0.1378  0.7087 -0.6381
 3854SOL    HW123198   2.071   2.837   1.686  1.2391  1.9620  0.1127
 3854SOL    HW223199   1.942   2.891   1.656  0.6934  0.6763  2.7966
 3855SOL     OW23200   4.189   2.929   2.384 -0.2811  0.5146  0.1087
 3855SOL    HW123201   4.236   2.850   2.356 -1.4670 -0.0812 -0.1767
 3855SOL    HW223202   4.104   2.899   2.352  0.4126 -1.0478 -0.2949
 3856SOL     OW23203   2.235   3.061   2.914 -0.2902  0.6462  0.1799
 3856SOL    HW123204   2.168   2.995   2.895  2.1064 -1.3017 -1.6226
 3856SOL    HW223205   2.187   3.144   2.914  0.1452  0.9045 -0.5089
 3857SOL     OW23206   3.359   1.926   9.231 -0.3468  0.2157  0.0469
 3857SOL    HW123207   3.306   2.003   9.211 -0.0253 -0.0902 -1.9823
 3857SOL    HW223208   3.440   1.954   9.273 -0.2793  0.7518 -0.4551
 3858SOL     OW23209   0.145   0.741  16.002 -0.1782 -0.4459  0.2566
 3858SOL    HW123210   0.206   0.761  16.073  0.1535 -0.7949  0.0730
 3858SOL    HW223211   0.139   0.830  15.966 -0.7418 -0.0430  1.3601
 3859SOL     OW23212   2.876   2.363   7.879 -0.7737  0.2291 -0.6923
 3859SOL    HW123213   2.823   2.374   7.800 -2.3141 -0.0595  0.3027
 3859SOL    HW223214   2.875   2.268   7.888  0.3531  0.3678  0.8534
 3860SOL     OW23215   4.472   0.381  11.593  0.2758 -0.1383  0.3953
 3860SOL    HW123216   4.451   0.391  11.500 -1.6015  2.8091  1.1332
 3860SOL    HW223217   4.566   0.390  11.578  0.5087 -1.5600  0.9707
 3861SOL     OW23218   2.035   1.492  14.681  0.0253  0.3170 -0.4905
 3861SOL    HW123219   1.966   1.541  14.636 -1.1738 -0.5944  0.3419
 3861SOL    HW223220   2.001   1.403  14.672  1.5224 -0.1258 -1.6813
 3862SOL     OW23221   0.928   0.072   4.236 -0.0026 -0.1761 -0.2984
 3862SOL    HW123222   0.835   0.093   4.235  0.5140  2.0661 -0.0063
 3862SOL    HW223223   0.945   0.147   4.292 -0.1282 -0.4445  0.0998
 3863SOL     OW23224   2.452   1.547   6.691 -0.2709 -0.2976  0.4584
 3863SOL    HW123225   2.503   1.604   6.635  1.1240 -0.5598  1.4672
 3863SOL    HW223226   2.511   1.507   6.755  0.2132 -0.2733  0.0231
 3864SOL     OW23227   1.356   3.832   3.160  0.4143  0.2205 -0.2475
 3864SOL    HW123228   1.363   3.770   3.232 -2.2735 -0.1559 -0.3390
 3864SOL    HW223229   1.289   3.894   3.187  0.9626  0.4207  0.6632
 3865SOL     OW23230   4.194   3.519   6.630  0.1912 -0.1646 -0.2066
 3865SOL    HW123231   4.107   3.551   6.606 -0.3048 -1.4893 -0.1474
 3865SOL    HW223232   4.158   3.467   6.701  0.3153 -2.2940 -1.7086
 3866SOL     OW23233   2.875   0.359   2.754 -0.5334  0.3567 -0.3278
 3866SOL    HW123234   2.825   0.441   2.752 -1.3790 -0.1715 -1.5612
 3866SOL    HW223235   2.827   0.302   2.694 -0.0989 -0.5371  0.1824
 3867SOL     OW23236   2.332   2.059   8.739 -0.2932 -0.2057 -0.2390
 3867SOL    HW123237   2.392   1.985   8.745 -0.3785 -0.3481 -1.0387
 3867SOL    HW223238   2.268   2.036   8.671  0.0084  0.5344 -0.7727
 3868SOL     OW23239   1.660   1.174   7.041  0.3771 -0.4137  0.2985
 3868SOL    HW123240   1.653   1.170   6.946  1.2759 -1.6000  0.2722
 3868SOL    HW223241   1.755   1.172   7.052  0.3522  0.9342  0.6982
 3869SOL     OW23242   2.507   2.047   2.093 -0.5280  0.5953 -0.5385
 3869SOL    HW123243   2.421   2.078   2.066 -1.9453 -3.1895 -0.2364
 3869SOL    HW223244   2.506   1.971   2.035 -0.5187 -0.1862  0.4829
 3870SOL     OW23245   4.542   1.967   7.447  0.0426 -0.2170  0.4175
 3870SOL    HW123246   4.565   2.058   7.428 -1.0062 -0.2172 -0.8409
 3870SOL    HW223247   4.592   1.934   7.372 -2.0100  1.7326 -1.7901
 3871SOL     OW23248   1.522   0.495   2.445  0.4145  0.2459 -0.0785
 3871SOL    HW123249   1.490   0.585   2.432  0.9347  0.2743 -1.1679
 3871SOL    HW223250   1.475   0.464   2.522 -0.6789 -1.5906 -1.4948
 3872SOL     OW23251   1.270   1.153   4.051  0.2075 -0.1001  0.7725
 3872SOL    HW123252   1.221   1.169   4.132  0.2364  1.8118  0.4006
 3872SOL    HW223253   1.238   1.226   4.000 -1.3806 -0.1646  1.6757
 3873SOL     OW23254   3.095   3.716   3.533 -0.2987  0.0905 -0.1904
 3873SOL    HW123255   3.105   3.656   3.606  0.4488 -1.4913 -1.5925
 3873SOL    HW223256   3.091   3.657   3.458  3.7347 -0.7329  0.2671
 3874SOL     OW23257   0.616   1.523   5.402 -0.2967  0.3118  0.6706
 3874SOL    HW123258   0.524   1.504   5.386  0.2724 -1.8454 -0.1297
 3874SOL    HW223259   0.620   1.503   5.495 -0.4050 -1.5061  0.2899
 3875SOL     OW23260   1.772   1.140   2.007 -0.2858  0.2422  0.1943
 3875SOL    HW123261   1.777   1.157   2.101  2.1405 -2.7654  0.5905
 3875SOL    HW223262   1.810   1.052   2.000  0.1211  0.4271  0.1375
 3876SOL     OW23263   4.509   1.083   9.505 -0.0616  0.5390 -0.2013
 3876SOL    HW123264   4.504   1.175   9.478  2.4873  0.7574  0.0188
 3876SOL    HW223265   4.546   1.038   9.429 -1.2356  1.4514 -1.2912
 3877SOL     OW23266   1.536   1.555   8.680  0.7712 -0.3230 -0.1645
 3877SOL    HW123267   1.486   1.623   8.726 -1.0772 -1.1938 -0.8982
 3877SOL    HW223268   1.492   1.480   8.719 -0.0421 -0.0743 -0.5964
 3878SOL     OW23269   4.165   0.129   1.292  0.0298 -0.3391 -0.0607
 3878SOL    HW123270   4.249   0.170   1.271 -1.0227  1.5512 -0.6574
 3878SOL    HW223271   4.116   0.206   1.323  0.5226 -0.6935  1.6163
 3879SOL     OW23272   3.635   1.679   9.149 -0.3459 -0.1068  0.1043
 3879SOL    HW123273   3.611   1.764   9.185  1.2401  0.0654  0.7531
 3879SOL    HW223274   3.601   1.682   9.060 -1.7634  0.1236  0.6682
 3880SOL     OW23275   4.392   3.510   6.398 -0.1933 -0.7110 -0.0045
 3880SOL    HW123276   4.361   3.542   6.483 -1.3168  0.8255 -0.9945
 3880SOL    HW223277   4.482   3.542   6.402 -0.3991 -0.0889 -0.3474
 3881SOL     OW23278   2.890   4.546   3.126  0.1261 -0.0324 -0.6237
 3881SOL    HW123279   2.945   4.498   3.188 -1.5564  0.5709  1.3559
 3881SOL    HW223280   2.803   4.518   3.154 -0.1279  0.3890 -1.0076
 3882SOL     OW23281   3.768   1.478  15.055 -0.5675 -0.0188 -0.0916
 3882SOL    HW123282   3.786   1.404  15.112 -0.0975  0.6430  0.6189
 3882SOL    HW223283   3.786   1.541  15.125  0.2408 -0.9125  0.5081
 3883SOL     OW23284   3.549   2.871  11.328 -0.0653 -0.1117 -0.4357
 3883SOL    HW123285   3.561   2.965  11.344 -0.5964 -0.6237  3.1249
 3883SOL    HW223286   3.640   2.843  11.339 -0.2798 -1.6972 -2.9689
 3884SOL     OW23287   4.635   3.580  16.287  0.0528  0.3936  0.0203
 3884SOL    HW123288   4.603   3.493  16.262  3.5320 -0.5851 -1.0493
 3884SOL    HW223289   4.728   3.561  16.291 -0.0478 -0.4286 -1.6434
 3885SOL     OW23290   3.609   3.070   6.426 -0.0604 -0.1483 -0.5787
 3885SOL    HW123291   3.568   3.088   6.511 -1.6526 -0.2265 -1.3266
 3885SOL    HW223292   3.618   3.161   6.398  0.9551 -0.4255 -1.1395
 3886SOL     OW23293   0.656   0.546  10.107  0.3387  0.5200  0.4838
 3886SOL    HW123294   0.744   0.563  10.140  0.7732  2.0363 -1.4242
 3886SOL    HW223295   0.631   0.458  10.136  0.4465  0.2020 -0.3650
 3887SOL     OW23296   3.818   2.152  16.808 -0.1620  0.5364  0.0160
 3887SOL    HW123297   3.791   2.241  16.830  3.0521  1.5237 -0.0610
 3887SOL    HW223298   3.894   2.178  16.757 -0.2545 -0.0880 -0.4380
 3888SOL     OW23299   2.065   1.759  12.664 -0.0345 -0.3840 -0.7391
 3888SOL    HW123300   2.055   1.670  12.698 -1.7644 -0.9640 -2.7693
 3888SOL    HW223301   2.134   1.743  12.600  1.9437 -1.7358  1.6945
 3889SOL     OW23302   3.873   2.671  15.999  0.0603 -0.1975 -0.1268
 3889SOL    HW123303   3.904   2.731  15.932 -0.2358  1.8282  1.5667
 3889SOL    HW223304   3.780   2.684  15.981  0.1254  0.7948  0.2718
 3890SOL     OW23305   0.408   0.867   9.851  0.0767  0.0851 -0.1790
 3890SOL    HW123306   0.316   0.886   9.832 -0.0458 -0.6739 -0.3253
 3890SOL    HW223307   0.460   0.907   9.781  0.3148 -2.1210 -1.2470
 3891SOL     OW23308   1.203   4.458   9.275 -0.3848 -0.0997 -0.4307
 3891SOL    HW123309   1.181   4.551   9.270  0.1261  0.0547  0.1691
 3891SOL    HW223310   1.241   4.445   9.362  2.0583  0.7180 -1.3967
 3892SOL     OW23311   4.565   3.223   7.830  0.0811  0.2134  0.2346
 3892SOL    HW123312   4.520   3.248   7.749 -2.7252  2.3285  2.4472
 3892SOL    HW223313   4.615   3.148   7.797 -0.9476  0.1682 -1.2407
 3893SOL     OW23314   3.964   1.578   5.150  0.1916 -0.0168  0.3898
 3893SOL    HW123315   3.992   1.666   5.175 -2.1985  0.5247  1.1655
 3893SOL    HW223316   3.872   1.582   5.125  0.4492  0.9769 -0.3752
 3894SOL     OW23317   0.356   0.524   4.056  0.0879 -0.2317  0.2771
 3894SOL    HW123318   0.265   0.512   4.027  0.2344 -1.8551  0.4904
 3894SOL    HW223319   0.331   0.528   4.148  2.8468  1.5498  0.9512
 3895SOL     OW23320   4.290   3.022  11.216  0.0960  0.4821  0.8473
 3895SOL    HW123321   4.300   2.967  11.294 -2.1892 -1.8470 -0.4763
 3895SOL    HW223322   4.329   3.106  11.237 -1.3165  2.4498 -4.5084
 3896SOL     OW23323   3.350   1.183   1.066  0.3457 -0.0254 -0.3969
 3896SOL    HW123324   3.321   1.138   1.146  2.5532 -0.6308  0.0859
 3896SOL    HW223325   3.438   1.147   1.055 -0.1085 -0.2516 -3.3227
 3897SOL     OW23326   3.509   3.351   7.365  0.0744  0.1783 -0.7036
 3897SOL    HW123327   3.546   3.374   7.450  1.0467  1.2975 -1.4373
 3897SOL    HW223328   3.543   3.262   7.364 -2.1689 -0.6903  0.4091
 3898SOL     OW23329   4.187   0.769   5.834 -0.5806  0.3245 -0.8417
 3898SOL    HW123330   4.100   0.802   5.855 -1.6378 -1.9821 -1.5965
 3898SOL    HW223331   4.175   0.699   5.770  0.5614  0.7412 -1.5231
 3899SOL     OW23332   2.704   4.317   8.593  0.2726  0.2042  0.4983
 3899SOL    HW123333   2.770   4.382   8.568  0.0984  0.4572  0.7038
 3899SOL    HW223334   2.632   4.365   8.552 -0.1031 -0.2476  0.6343
 3900SOL     OW23335   3.121   1.888   3.376  0.1626  0.1075 -0.0581
 3900SOL    HW123336   3.214   1.867   3.377 -0.3746 -2.2574  1.5582
 3900SOL    HW223337   3.105   1.881   3.471 -1.1569  0.0756 -0.2786
 3901SOL     OW23338   4.689   3.334   3.660  0.4336 -0.0064  0.1715
 3901SOL    HW123339   4.629   3.268   3.694 -0.1782  1.5186  2.0435
 3901SOL    HW223340   4.633   3.395   3.611 -0.4524 -0.5588  0.4899
 3902SOL     OW23341   3.086   1.136   3.300  0.0757 -0.1469 -0.3316
 3902SOL    HW123342   3.112   1.196   3.370  0.5096  2.4908 -2.7511
 3902SOL    HW223343   2.992   1.125   3.310 -0.2570  0.7856 -2.4643
 3903SOL     OW23344   0.113   0.116   6.780  0.4479 -0.0413 -0.4699
 3903SOL    HW123345   0.158   0.062   6.845 -1.9165 -0.4004  0.9080
 3903SOL    HW223346   0.072   0.042   6.736  2.1209 -1.0561 -0.3044
 3904SOL     OW23347   0.117   1.145   3.790 -0.4074  0.0004  0.3191
 3904SOL    HW123348   0.087   1.055   3.801 -0.9129  0.2893  1.2697
 3904SOL    HW223349   0.034   1.191   3.805  1.0907  2.2085  1.7684
 3905SOL     OW23350   3.447   0.983  13.060  0.1081  0.1203 -0.1269
 3905SOL    HW123351   3.441   1.058  13.001  0.9513  0.6033  0.4112
 3905SOL    HW223352   3.540   0.967  13.071  0.5289  2.2646 -0.5917
 3906SOL     OW23353   0.511   2.974   7.015  0.0531  0.0135 -0.2859
 3906SOL    HW123354   0.551   2.979   7.102 -2.0702  1.7630  0.5967
 3906SOL    HW223355   0.560   2.902   6.976  0.0231 -0.6775  0.9377
 3907SOL     OW23356   0.185   0.506   2.381  0.2152 -0.8257  0.0549
 3907SOL    HW123357   0.239   0.435   2.347  1.3811 -0.4902  1.1856
 3907SOL    HW223358   0.163   0.458   2.461 -0.0660 -0.4527  0.1994
 3908SOL     OW23359   1.967   2.093   7.023  0.1202  1.0235  0.6299
 3908SOL    HW123360   2.056   2.078   7.055 -0.2300 -1.5315  0.4635
 3908SOL    HW223361   1.943   2.000   7.031  0.1470  1.0120  0.5742
 3909SOL     OW23362   3.242   3.033   6.279 -0.5923  0.2285  0.4488
 3909SOL    HW123363   3.191   3.038   6.198 -0.5216  0.4075  0.4170
 3909SOL    HW223364   3.180   3.081   6.334  0.1935 -0.7176  2.1613
 3910SOL     OW23365   3.437   3.333   9.267 -0.0484  0.2443 -0.3470
 3910SOL    HW123366   3.397   3.317   9.181 -2.2125  3.0556  0.1310
 3910SOL    HW223367   3.457   3.242   9.287  0.2133  0.3031 -0.3436
 3911SOL     OW23368   2.247   1.020   6.605  0.1168 -0.7342  0.4860
 3911SOL    HW123369   2.289   1.106   6.604  0.1526 -0.7718 -0.9702
 3911SOL    HW223370   2.158   1.048   6.583  0.4697 -0.6766 -0.8365
 3912SOL     OW23371   1.752   2.813   1.695 -0.5685  0.4658  0.1912
 3912SOL    HW123372   1.676   2.849   1.741 -0.6495  0.0449  0.3859
 3912SOL    HW223373   1.722   2.731   1.657 -0.5234  0.7943 -0.5540
 3913SOL     OW23374   2.194   2.527  16.770 -0.1247  0.3662 -0.1212
 3913SOL    HW123375   2.248   2.454  16.798  0.7752  1.2575  0.4708
 3913SOL    HW223376   2.248   2.606  16.759  2.1900 -1.2932 -0.5814
 3914SOL     OW23377   1.863   2.512  17.257  0.8925 -0.1950 -0.5592
 3914SOL    HW123378   1.838   2.462  17.180  1.3446 -0.7981 -0.3110
 3914SOL    HW223379   1.810   2.477  17.328  0.9110  2.6288  0.8657
 3915SOL     OW23380   1.138   3.036  15.402  0.7454 -0.5611 -0.0966
 3915SOL    HW123381   1.082   3.107  15.433  1.6360 -0.2241  0.7340
 3915SOL    HW223382   1.203   3.091  15.358  3.3366 -0.1012  4.3354
 3916SOL     OW23383   1.603   1.792   1.908 -0.3575 -0.3920 -0.7941
 3916SOL    HW123384   1.664   1.734   1.863  0.0830 -0.8408  0.3967
 3916SOL    HW223385   1.583   1.853   1.837 -1.0927 -0.6139 -0.7766
 3917SOL     OW23386   2.074   2.693   6.989 -0.3050  0.3747  0.0694
 3917SOL    HW123387   2.154   2.732   6.955 -0.4133  1.1741  0.7228
 3917SOL    HW223388   2.093   2.697   7.083 -0.4796 -1.6078  0.1942
 3918SOL     OW23389   1.737   0.029  11.366 -0.3283 -0.2039  0.2578
 3918SOL    HW123390   1.786   4.691  11.399  0.3075 -0.0522 -0.3292
 3918SOL    HW223391   1.804   0.076  11.316 -0.9750  1.2730  0.7942
 3919SOL     OW23392   4.490   2.007   5.839  0.5600  0.0606 -0.1879
 3919SOL    HW123393   4.563   2.044   5.790  0.3807  1.4725  0.6227
 3919SOL    HW223394   4.525   1.927   5.879  0.1888 -0.0076  0.0061
 3920SOL     OW23395   0.676   1.850   6.636 -0.5995  0.1535 -0.2895
 3920SOL    HW123396   0.708   1.933   6.670  0.1560  0.1345 -0.9275
 3920SOL    HW223397   0.725   1.785   6.686 -0.1478  0.4357 -0.3635
 3921SOL     OW23398   1.200   2.286   8.229  0.1062  0.5714 -0.3939
 3921SOL    HW123399   1.128   2.228   8.205 -0.7714  1.6688 -0.4250
 3921SOL    HW223400   1.267   2.242   8.177  0.4313 -1.1533  1.4885
 3922SOL     OW23401   0.566   1.401   7.154 -0.3120 -0.0227  0.2436
 3922SOL    HW123402   0.559   1.308   7.131  0.3120 -0.0544  0.1701
 3922SOL    HW223403   0.537   1.401   7.245 -0.5330  0.6971  0.1720
 3923SOL     OW23404   3.230   1.430   4.303  0.4677  0.4045  0.0779
 3923SOL    HW123405   3.191   1.461   4.221 -1.0438 -0.5200  0.4453
 3923SOL    HW223406   3.279   1.508   4.328 -1.3393  1.8821 -0.9352
 3924SOL     OW23407   3.913   2.705   1.637 -0.5270 -0.0280  0.5761
 3924SOL    HW123408   3.903   2.611   1.624 -0.8732  0.0078  0.5918
 3924SOL    HW223409   3.965   2.718   1.557 -1.4480  0.1399 -0.0007
 3925SOL     OW23410   4.073   0.397   4.036  0.1461  0.5276 -0.7141
 3925SOL    HW123411   4.063   0.315   3.988 -1.5439  0.1127  0.3587
 3925SOL    HW223412   4.114   0.359   4.114 -0.7128 -0.8687 -0.9445
 3926SOL     OW23413   2.423   4.580  17.336  0.5355 -0.4742 -0.1150
 3926SOL    HW123414   2.502   4.580  17.281  0.8942 -0.5214  0.3996
 3926SOL    HW223415   2.367   4.519  17.288 -0.0190 -0.1852  0.1753
 3927SOL     OW23416   1.373   2.217  12.600 -0.6125  0.3384  0.2439
 3927SOL    HW123417   1.316   2.253  12.532 -0.5205 -0.8665 -0.4821
 3927SOL    HW223418   1.309   2.179  12.661 -1.1635  0.8622 -0.0021
 3928SOL     OW23419   0.209   4.685   1.482  0.2753 -0.1211 -0.0570
 3928SOL    HW123420   0.238   0.038   1.484  1.4583 -0.5219  1.1646
 3928SOL    HW223421   0.144   4.695   1.552  0.4491  1.6495 -0.1440
 3929SOL     OW23422   2.663   4.047   9.757  0.2486  0.0934  0.0107
 3929SOL    HW123423   2.578   4.065   9.797  0.0445 -1.0223  0.0668
 3929SOL    HW223424   2.639   3.997   9.679  1.3269 -0.9641  0.3588
 3930SOL     OW23425   4.087   3.455   8.370 -0.1475  0.7090 -0.2263
 3930SOL    HW123426   4.052   3.385   8.314 -0.1221  1.3101 -0.9956
 3930SOL    HW223427   4.178   3.437   8.347  0.4406  0.3248  2.4501
 3931SOL     OW23428   3.235   3.668   6.450  0.4138  0.0906 -0.5923
 3931SOL    HW123429   3.146   3.640   6.475  0.1962  0.5265 -0.8893
 3931SOL    HW223430   3.258   3.587   6.404  3.1357 -0.2705  1.3673
 3932SOL     OW23431   3.703   1.746  12.308  0.3923  0.3797 -0.5847
 3932SOL    HW123432   3.650   1.667  12.323  1.0932  0.4185  2.0516
 3932SOL    HW223433   3.779   1.751  12.367  1.1485 -2.6640 -1.2616
 3933SOL     OW23434   0.398   3.808  12.891  0.2725 -0.0569  0.0421
 3933SOL    HW123435   0.452   3.879  12.926  1.4206 -0.4786 -0.8655
 3933SOL    HW223436   0.457   3.789  12.818 -1.0708 -0.2084 -0.9989
 3934SOL     OW23437   1.952   1.169   2.433  0.2151 -0.0464  0.1675
 3934SOL    HW123438   1.880   1.115   2.465  1.1528 -0.6830  1.2419
 3934SOL    HW223439   1.945   1.162   2.338  1.3647 -0.0912  0.0824
 3935SOL     OW23440   0.274   4.606  15.143  0.6607  0.1840 -0.4681
 3935SOL    HW123441   0.340   4.590  15.210 -0.8217  0.2990  1.0033
 3935SOL    HW223442   0.230   4.522  15.150 -1.1782  1.5411  3.9445
 3936SOL     OW23443   1.525   4.589   5.438  0.2446  0.5372  0.2121
 3936SOL    HW123444   1.515   4.668   5.384 -2.2311  1.6408  2.2529
 3936SOL    HW223445   1.608   4.606   5.482  0.1527  0.6494  0.3438
 3937SOL     OW23446   3.237   4.154  15.538  0.3970 -0.0225  0.5215
 3937SOL    HW123447   3.245   4.246  15.564 -0.7727  0.0396  0.6903
 3937SOL    HW223448   3.317   4.144  15.488  0.0185  0.5541 -0.1920
 3938SOL     OW23449   0.935   3.523   4.406  0.1489 -0.2277 -0.1326
 3938SOL    HW123450   0.880   3.536   4.329 -2.6860  0.6002  2.0505
 3938SOL    HW223451   1.007   3.481   4.359  0.7870 -1.0192  1.5654
 3939SOL     OW23452   3.858   1.645   2.421 -0.2639 -0.2119  0.0075
 3939SOL    HW123453   3.786   1.588   2.446 -1.4300  1.4226  0.3519
 3939SOL    HW223454   3.910   1.632   2.501 -0.1703 -1.5612 -0.2658
 3940SOL     OW23455   0.471   2.894   3.171 -0.4785  0.5073  0.4760
 3940SOL    HW123456   0.451   2.952   3.097  0.4887  0.0363 -0.1604
 3940SOL    HW223457   0.419   2.816   3.152  2.6434 -1.2420 -0.9531
 3941SOL     OW23458   3.241   1.595   8.157  0.2575 -0.0795  0.1808
 3941SOL    HW123459   3.279   1.557   8.236 -1.3691 -2.1328 -0.0153
 3941SOL    HW223460   3.236   1.687   8.182  0.3445 -0.7552  2.6457
 3942SOL     OW23461   2.492   0.091   3.405 -0.4838  0.1290  0.1235
 3942SOL    HW123462   2.409   0.050   3.429 -1.3008  0.5403 -1.9525
 3942SOL    HW223463   2.456   0.179   3.392 -1.5587 -0.0434  1.9191
 3943SOL     OW23464   3.720   3.502   4.423 -0.9307 -0.5389  0.9289
 3943SOL    HW123465   3.802   3.516   4.377 -1.2318 -0.7069  0.3299
 3943SOL    HW223466   3.716   3.576   4.483 -0.7133  0.1134  0.1288
 3944SOL     OW23467   2.692   1.146   7.199 -0.1197  0.5925  0.6225
 3944SOL    HW123468   2.669   1.100   7.118 -1.0438  0.0840  1.1662
 3944SOL    HW223469   2.618   1.206   7.202  0.1265  0.8726  1.0860
 3945SOL     OW23470   2.282   2.810   9.835  0.1740  0.2162 -0.3466
 3945SOL    HW123471   2.292   2.874   9.906 -0.3770  0.0763 -0.1437
 3945SOL    HW223472   2.360   2.822   9.780  0.6296  1.0522  0.4792
 3946SOL     OW23473   4.069   2.658   0.910 -0.4659 -0.2466 -0.1568
 3946SOL    HW123474   4.003   2.699   0.854  0.1521 -1.3855 -1.7235
 3946SOL    HW223475   4.038   2.679   0.998  0.0483 -0.1425 -0.0021
 3947SOL     OW23476   4.060   2.487  16.089  0.6153  0.6465  0.4003
 3947SOL    HW123477   4.014   2.556  16.043 -3.7477 -2.2541  0.4175
 3947SOL    HW223478   4.141   2.533  16.112  1.1480  0.4358 -1.0918
 3948SOL     OW23479   2.134   1.412   8.676 -0.1592 -0.2987  0.0579
 3948SOL    HW123480   2.179   1.344   8.727 -1.5114 -0.2531  1.3115
 3948SOL    HW223481   2.131   1.474   8.748  0.5682  1.8641 -1.7835
 3949SOL     OW23482   2.627   4.666  10.623 -0.0121  0.2095 -0.1603
 3949SOL    HW123483   2.562   4.697  10.559  0.6102  0.0928 -0.8514
 3949SOL    HW223484   2.700   4.726  10.607 -1.1058  2.2013  2.2509
 3950SOL     OW23485   0.350   1.970   6.061  0.1028 -0.1704  0.3660
 3950SOL    HW123486   0.440   2.002   6.057  0.2585 -0.4131  1.8842
 3950SOL    HW223487   0.341   1.926   5.976  0.0263 -1.0988  0.8531
 3951SOL     OW23488   0.089   2.861   4.240 -0.1803  0.1380 -0.2021
 3951SOL    HW123489   0.168   2.845   4.189 -0.0714 -0.4548  0.1495
 3951SOL    HW223490   0.039   2.921   4.185  1.5038  2.4623  0.7853
 3952SOL     OW23491   0.491   4.460   6.540 -0.0339  0.0523  0.2056
 3952SOL    HW123492   0.499   4.439   6.447  1.8709  0.2079  0.3322
 3952SOL    HW223493   0.584   4.473   6.559 -0.0793  0.5854  0.0779
 3953SOL     OW23494   1.202   3.416   4.839 -0.5573  0.0118 -0.3247
 3953SOL    HW123495   1.200   3.332   4.793 -0.0517  0.8665 -1.8663
 3953SOL    HW223496   1.131   3.397   4.902 -2.3446  0.4935 -2.2004
 3954SOL     OW23497   1.501   3.006   4.592 -0.3035 -0.3724  0.0906
 3954SOL    HW123498   1.479   3.080   4.649  0.4854  0.0636 -0.1765
 3954SOL    HW223499   1.586   2.982   4.628  0.8689  0.5489 -2.1045
 3955SOL     OW23500   1.798   2.577  14.976 -0.3240 -0.5229  0.0996
 3955SOL    HW123501   1.761   2.497  14.939 -0.3304  0.1942 -1.4273
 3955SOL    HW223502   1.754   2.643  14.924 -0.1757 -0.2988  0.2571
 3956SOL     OW23503   0.967   2.209   7.304 -0.0425  0.0559  0.0090
 3956SOL    HW123504   0.919   2.292   7.299  0.1851  0.2814  1.6913
 3956SOL    HW223505   1.017   2.224   7.224 -1.2834  1.7916 -0.4329
 3957SOL     OW23506   2.740   3.177  10.035 -1.0083  0.2027  0.1374
 3957SOL    HW123507   2.673   3.183  10.104  1.2027 -1.6306  2.4412
 3957SOL    HW223508   2.752   3.082  10.027  0.3042  0.4882 -1.2117
 3958SOL     OW23509   1.331   1.372  13.903  0.1732 -0.1437 -0.0973
 3958SOL    HW123510   1.274   1.373  13.825  1.8937 -0.4929 -1.3581
 3958SOL    HW223511   1.406   1.411  13.858 -1.3806  2.5635 -0.3946
 3959SOL     OW23512   1.178   3.342   1.612  0.2752 -0.7726  0.6458
 3959SOL    HW123513   1.258   3.377   1.652  0.1521 -0.9100  1.0096
 3959SOL    HW223514   1.195   3.372   1.523 -2.2324  0.8419  0.6852
 3960SOL     OW23515   1.213   1.726   1.988 -0.7115  0.4354  0.2594
 3960SOL    HW123516   1.274   1.786   2.032 -0.0617 -0.1873  0.2045
 3960SOL    HW223517   1.168   1.681   2.059 -0.4126  0.2523  0.3322
 3961SOL     OW23518   4.628   2.834  12.216  0.0287  0.0185 -0.1052
 3961SOL    HW123519   4.702   2.778  12.240  0.5417  1.3814  1.5084
 3961SOL    HW223520   4.642   2.907  12.276  3.7093  0.0507 -0.9510
 3962SOL     OW23521   4.406   3.484  11.264  0.0793  0.0178  0.0855
 3962SOL    HW123522   4.357   3.547  11.318  0.2295 -1.7787  2.3124
 3962SOL    HW223523   4.341   3.419  11.238  0.3165  0.7359 -2.2340
 3963SOL     OW23524   3.654   0.496   1.877  0.0214 -0.6453  0.4769
 3963SOL    HW123525   3.665   0.579   1.924 -1.1647  0.1520 -0.6713
 3963SOL    HW223526   3.684   0.434   1.944 -0.6386  0.9982  2.3261
 3964SOL     OW23527   2.958   1.216  11.896  0.2886  0.5011 -0.2008
 3964SOL    HW123528   2.952   1.130  11.853  0.6888  0.0576  0.6361
 3964SOL    HW223529   3.050   1.211  11.923  0.1036 -0.7859  0.2068
 3965SOL     OW23530   2.974   0.363   2.199  0.5103  0.1147 -0.1094
 3965SOL    HW123531   2.945   0.271   2.204 -1.0799  0.6776  0.9926
 3965SOL    HW223532   2.934   0.395   2.279  0.3092 -0.4375  0.0120
 3966SOL     OW23533   4.611   0.972   6.895  0.0117  0.0608  0.2099
 3966SOL    HW123534   4.588   0.896   6.843  2.4227 -1.7248  1.7809
 3966SOL    HW223535   4.706   0.976   6.888 -0.0916  1.5159 -0.3933
 3967SOL     OW23536   0.493   2.302  12.427  0.0597 -0.5162 -0.0120
 3967SOL    HW123537   0.453   2.357  12.495 -0.3095 -0.4870 -0.2543
 3967SOL    HW223538   0.489   2.222  12.479  0.3658  1.0703  2.4784
 3968SOL     OW23539   3.513   0.667   3.494  0.3717 -0.1950  0.1309
 3968SOL    HW123540   3.428   0.647   3.454  1.3237 -2.2925 -0.8456
 3968SOL    HW223541   3.504   0.756   3.527  2.6991  0.5710 -1.3382
 3969SOL     OW23542   0.982   1.759   7.965 -0.0728 -0.1946  0.1173
 3969SOL    HW123543   1.050   1.809   8.010 -0.3722  3.1492 -3.1075
 3969SOL    HW223544   0.903   1.788   8.010 -1.0797 -0.4587 -1.4469
 3970SOL     OW23545   1.653   2.533  10.146  0.2352  0.1953 -0.8533
 3970SOL    HW123546   1.727   2.551  10.087  0.9189  2.8559  0.8118
 3970SOL    HW223547   1.666   2.439  10.159 -0.7406  0.2746  0.6906
 3971SOL     OW23548   0.303   0.370   8.771  0.3560 -0.3498 -0.1158
 3971SOL    HW123549   0.388   0.330   8.792  1.1296  0.6183 -1.3879
 3971SOL    HW223550   0.252   0.338   8.845 -0.0706 -1.8832 -1.0698
 3972SOL     OW23551   0.932   2.320   7.629 -0.0295 -0.6375 -1.0473
 3972SOL    HW123552   0.882   2.318   7.547 -0.6955 -1.1431 -0.6231
 3972SOL    HW223553   0.962   2.410   7.614 -1.9916  0.4497  1.5894
 3973SOL     OW23554   4.042   3.391   5.324  0.0414 -0.5540  0.2667
 3973SOL    HW123555   4.092   3.458   5.370 -1.8167  1.4392 -0.6261
 3973SOL    HW223556   3.963   3.403   5.376 -0.1938 -0.9297 -0.0031
 3974SOL     OW23557   3.127   1.796   8.526 -0.4871  0.2754 -0.0157
 3974SOL    HW123558   3.142   1.881   8.484 -0.8532 -0.0395 -0.7959
 3974SOL    HW223559   3.036   1.794   8.557 -0.8222 -1.2121 -1.0702
 3975SOL     OW23560   4.027   1.892   3.743  0.0407  0.1459  0.0802
 3975SOL    HW123561   3.935   1.895   3.771  0.5840  0.5371  1.8005
 3975SOL    HW223562   4.056   1.983   3.737 -0.1446  0.2077  0.1177
 3976SOL     OW23563   1.072   1.606   2.191 -0.2733  0.1425 -0.0060
 3976SOL    HW123564   0.987   1.650   2.191 -0.5805 -0.4623  0.0561
 3976SOL    HW223565   1.073   1.612   2.286  0.3196  0.2652 -0.0202
 3977SOL     OW23566   2.289   4.586  15.213  0.3838 -0.4315  0.0416
 3977SOL    HW123567   2.265   4.518  15.149  3.8045 -1.5279 -0.0635
 3977SOL    HW223568   2.380   4.567  15.235 -0.5016 -1.5014  2.6774
 3978SOL     OW23569   1.622   1.181   5.490 -0.3913 -0.0573  0.0638
 3978SOL    HW123570   1.534   1.176   5.527  0.5761 -3.3964  1.8783
 3978SOL    HW223571   1.616   1.173   5.395 -0.9226  0.3529  0.0622
 3979SOL     OW23572   0.067   2.079   6.093  0.0943  0.1638 -0.3161
 3979SOL    HW123573   0.128   2.077   6.166 -0.6069 -1.6634  0.2278
 3979SOL    HW223574   0.132   2.109   6.030  0.8585  0.8310  0.7991
 3980SOL     OW23575   1.534   1.858   5.148  0.0493 -0.0408 -0.3476
 3980SOL    HW123576   1.539   1.903   5.064  1.9156  0.8781  0.2495
 3980SOL    HW223577   1.439   1.846   5.145 -0.5058  3.6561  1.4495
 3981SOL     OW23578   4.098   4.462   2.493 -0.4292  0.1093 -0.4257
 3981SOL    HW123579   4.031   4.468   2.561 -0.1960 -0.5687 -0.1371
 3981SOL    HW223580   4.055   4.501   2.417  0.0613  2.3251  0.4220
 3982SOL     OW23581   1.708   4.128  16.969  0.0636  0.1211 -0.2899
 3982SOL    HW123582   1.753   4.163  17.046  0.5736 -1.7726  0.2759
 3982SOL    HW223583   1.631   4.092  17.015  1.9606 -3.0012  0.4630
 3983SOL     OW23584   4.585   1.027   5.016  0.0180 -0.2260 -0.1616
 3983SOL    HW123585   4.679   1.010   5.013 -0.2719 -1.4253 -2.1807
 3983SOL    HW223586   4.564   1.001   5.105  2.1540 -1.9228 -0.1692
 3984SOL     OW23587   3.203   4.066   1.716  0.7009  0.4317  0.1521
 3984SOL    HW123588   3.173   4.039   1.803  0.6565  1.1657  0.3625
 3984SOL    HW223589   3.225   4.158   1.729  0.3409  0.2359  2.1347
 3985SOL     OW23590   1.051   2.976   7.241 -0.5230 -0.3137  0.4460
 3985SOL    HW123591   1.110   3.044   7.273 -0.1614 -0.1749 -0.5218
 3985SOL    HW223592   1.027   2.942   7.327 -0.1260  0.7040  0.9663
 3986SOL     OW23593   2.667   3.088  15.977  0.5694 -0.2565 -0.3015
 3986SOL    HW123594   2.701   3.097  16.066 -0.9892 -0.8721  0.3575
 3986SOL    HW223595   2.607   3.162  15.970  1.5478  0.3365 -2.1216
 3987SOL     OW23596   2.177   1.629   5.231  0.1861  0.3092  0.0790
 3987SOL    HW123597   2.253   1.683   5.209  0.6136 -0.8183 -1.2375
 3987SOL    HW223598   2.221   1.544   5.229 -0.3226  0.0710 -1.1334
 3988SOL     OW23599   1.812   0.151   7.433 -0.1042 -0.7378  0.0073
 3988SOL    HW123600   1.828   0.094   7.358 -1.7314 -1.9052  0.5393
 3988SOL    HW223601   1.722   0.178   7.412  0.4295 -0.1755 -1.5827
 3989SOL     OW23602   2.978   3.296   9.391  0.2365 -0.1705 -0.2235
 3989SOL    HW123603   2.918   3.252   9.451 -2.0204  0.5791 -1.9185
 3989SOL    HW223604   2.979   3.232   9.320  1.0898 -0.9762  0.5136
 3990SOL     OW23605   1.513   2.657  10.369  0.0985 -0.4844 -0.1961
 3990SOL    HW123606   1.578   2.672  10.437  1.0176 -0.5397 -1.0576
 3990SOL    HW223607   1.565   2.634  10.292 -0.5035 -2.1720 -0.0999
 3991SOL     OW23608   3.899   1.314   2.605 -0.3035  0.1300 -0.4446
 3991SOL    HW123609   3.806   1.296   2.594 -0.1006 -0.3781 -1.3798
 3991SOL    HW223610   3.903   1.407   2.627  0.9850 -0.1542  0.5409
 3992SOL     OW23611   0.932   4.357   2.928  0.0515  0.1229  0.0962
 3992SOL    HW123612   0.997   4.427   2.923  0.8336 -0.7718 -2.0947
 3992SOL    HW223613   0.966   4.316   3.006 -1.2969  0.9675  1.1401
 3993SOL     OW23614   0.910   4.130   6.510  0.0525 -0.4265  0.3674
 3993SOL    HW123615   0.952   4.215   6.522  0.8184 -1.0259  1.8568
 3993SOL    HW223616   0.898   4.103   6.601 -0.1098 -2.7705 -0.3394
 3994SOL     OW23617   4.433   4.220  16.295  0.1778  0.1197  0.8209
 3994SOL    HW123618   4.512   4.166  16.297  0.6125  0.7556  0.6095
 3994SOL    HW223619   4.401   4.206  16.384  0.1498 -0.8723  0.6536
 3995SOL     OW23620   1.444   3.811   3.790 -0.2194  0.3425  0.1896
 3995SOL    HW123621   1.377   3.876   3.813 -1.1807  0.3933 -2.6833
 3995SOL    HW223622   1.433   3.752   3.864 -0.6920 -1.1080 -1.0251
 3996SOL     OW23623   2.595   0.657   3.693  0.5325 -0.2588  0.3339
 3996SOL    HW123624   2.530   0.712   3.736 -0.2610  0.5600 -1.9622
 3996SOL    HW223625   2.674   0.690   3.735 -0.5821  1.0136  1.4200
 3997SOL     OW23626   2.132   1.515  10.027  0.1878 -0.4757 -0.1727
 3997SOL    HW123627   2.112   1.533  10.119  1.4870 -4.0642  0.8234
 3997SOL    HW223628   2.205   1.455  10.044  1.5707  0.5603 -2.3245
 3998SOL     OW23629   3.412   3.409  11.931 -0.8351 -0.3077  0.3711
 3998SOL    HW123630   3.415   3.396  12.026 -0.6165  0.8869  0.5311
 3998SOL    HW223631   3.495   3.452  11.910 -1.0744  0.2131  0.4771
 3999SOL     OW23632   2.035   3.249   6.932 -0.5526  0.1793 -0.3123
 3999SOL    HW123633   1.969   3.247   6.863 -0.0614 -1.2709 -0.7460
 3999SOL    HW223634   2.041   3.154   6.944  1.4572  0.5091  1.3493
 4000SOL     OW23635   1.205   0.210   7.351 -0.5226 -0.2238  0.4317
 4000SOL    HW123636   1.122   0.166   7.366  0.5706 -3.0061 -1.7169
 4000SOL    HW223637   1.233   0.168   7.269 -2.0052  0.6291 -0.5100
 4001SOL     OW23638   4.455   0.936  10.822  0.3417  0.2430  0.3123
 4001SOL    HW123639   4.450   1.031  10.817 -2.6967  0.0050 -1.2996
 4001SOL    HW223640   4.548   0.925  10.801  0.0507 -0.5641 -0.5889
 4002SOL     OW23641   2.328   3.462   7.961 -0.0668 -0.4336  0.5508
 4002SOL    HW123642   2.422   3.453   7.973  0.1073  0.5127 -0.0907
 4002SOL    HW223643   2.331   3.558   7.954  1.5379 -0.3873  1.9848
 4003SOL     OW23644   4.639   1.896   7.219  0.2456  0.1507 -0.4484
 4003SOL    HW123645   4.679   1.901   7.133  0.3706  0.9508 -0.3438
 4003SOL    HW223646   4.569   1.835   7.197 -0.3808  1.0960 -1.0833
 4004SOL     OW23647   3.573   2.371  17.126  0.0601 -0.1108  0.4075
 4004SOL    HW123648   3.515   2.375  17.051  0.7062 -1.6930 -0.1813
 4004SOL    HW223649   3.516   2.328  17.190 -0.4199  0.2206  0.2007
 4005SOL     OW23650   3.901   0.457   2.312 -0.3983  0.5975 -0.5105
 4005SOL    HW123651   3.919   0.380   2.366  1.8636 -0.1998 -2.3840
 4005SOL    HW223652   3.816   0.480   2.350 -1.4136 -1.8617 -1.2413
 4006SOL     OW23653   0.403   1.743  16.995 -0.0797  0.6489  0.0429
 4006SOL    HW123654   0.498   1.730  16.986 -0.2210 -1.3024  1.3111
 4006SOL    HW223655   0.408   1.836  17.016  1.5794  0.4174  0.6357
 4007SOL     OW23656   2.705   2.126   9.344 -0.4592 -0.3683 -0.4046
 4007SOL    HW123657   2.637   2.176   9.389 -0.5078 -1.5617  0.8300
 4007SOL    HW223658   2.667   2.134   9.256 -2.5565  4.7468  0.9924
 4008SOL     OW23659   0.070   0.829  14.403  0.4440  0.0239  0.1644
 4008SOL    HW123660   0.013   0.755  14.428 -1.3342  0.6638 -2.0374
 4008SOL    HW223661   0.028   0.873  14.330 -0.8180 -0.4648  0.5815
 4009SOL     OW23662   1.082   0.357   4.124  0.3498 -0.4562  0.1857
 4009SOL    HW123663   1.031   0.436   4.104 -2.0342 -1.8076  0.9812
 4009SOL    HW223664   1.044   0.312   4.199  1.6694 -0.5029  0.8166
 4010SOL     OW23665   4.200   3.565  14.780 -0.3801  0.1099  0.2022
 4010SOL    HW123666   4.251   3.513  14.718 -0.5914 -0.6034  0.6359
 4010SOL    HW223667   4.166   3.503  14.844  2.3528 -1.0114  0.5985
 4011SOL     OW23668   4.485   4.648  12.660  0.1066 -0.3380 -0.3837
 4011SOL    HW123669   4.401   4.603  12.648  0.4398 -1.3318  0.9695
 4011SOL    HW223670   4.542   4.588  12.709  1.1041 -0.1546 -1.3026
 4012SOL     OW23671   4.628   4.227  17.354  0.1825 -0.0962  0.2365
 4012SOL    HW123672   4.613   4.177  17.434  1.0342 -0.8791 -0.1020
 4012SOL    HW223673   4.542   4.269  17.351  0.5507  0.7106  0.7187
 4013SOL     OW23674   0.717   1.068  16.573  0.1838  0.1795  0.0832
 4013SOL    HW123675   0.740   0.983  16.609  1.1924 -0.3347 -1.7843
 4013SOL    HW223676   0.749   1.061  16.483  1.5105  2.7474  0.3547
 4014SOL     OW23677   1.960   1.732   5.690  0.6706 -0.1597 -0.3892
 4014SOL    HW123678   2.005   1.754   5.608 -2.1442  1.2467 -1.5540
 4014SOL    HW223679   2.028   1.743   5.757  0.1795 -1.0287  0.2517
 4015SOL     OW23680   1.525   4.447   8.394 -0.0973 -0.1529 -0.1692
 4015SOL    HW123681   1.502   4.355   8.384  0.0811 -0.1127 -0.9483
 4015SOL    HW223682   1.536   4.472   8.302  1.0573 -0.3364 -0.0780
 4016SOL     OW23683   2.391   1.807   7.595  0.2246 -0.2919 -0.3524
 4016SOL    HW123684   2.391   1.719   7.632  0.7171  0.0340  0.4297
 4016SOL    HW223685   2.307   1.813   7.550 -0.2572 -1.6270  0.3762
 4017SOL     OW23686   2.924   1.198   4.039  0.1673 -0.4815  0.1128
 4017SOL    HW123687   2.941   1.241   4.122 -0.4300  0.0886 -0.0644
 4017SOL    HW223688   2.831   1.212   4.024 -0.0998 -3.1810 -0.6849
 4018SOL     OW23689   3.299   1.775  12.377  0.2543 -0.1643  0.0000
 4018SOL    HW123690   3.336   1.706  12.321  0.8064  0.3271 -0.2390
 4018SOL    HW223691   3.307   1.720  12.455  1.3803 -1.7270 -1.2017
 4019SOL     OW23692   2.633   2.662   6.305 -0.3237  0.1498  0.5633
 4019SOL    HW123693   2.697   2.709   6.358 -1.7660  0.9796  1.5728
 4019SOL    HW223694   2.570   2.733   6.292  0.0890  0.5722  0.8599
 4020SOL     OW23695   4.681   0.063   1.586 -0.0835 -0.0900  0.1808
 4020SOL    HW123696   4.631   0.041   1.665  2.3423 -1.2006  1.4491
 4020SOL    HW223697   4.679   0.158   1.591 -3.4703 -0.0847 -1.3739
 4021SOL     OW23698   0.771   4.010  14.978 -0.2781 -0.6520  0.9345
 4021SOL    HW123699   0.759   4.102  14.953 -1.5116 -1.8977 -3.1944
 4021SOL    HW223700   0.865   4.021  14.965 -0.3981 -2.2708 -1.4671
 4022SOL     OW23701   1.997   2.553   6.354  0.3112  0.6188  0.2972
 4022SOL    HW123702   1.955   2.559   6.269 -0.7222 -0.6514  0.7242
 4022SOL    HW223703   1.922   2.565   6.412 -0.7606  1.5594 -1.2942
 4023SOL     OW23704   4.490   4.454  16.494  0.1759 -0.0198 -0.7671
 4023SOL    HW123705   4.447   4.389  16.438  0.7637 -0.4623 -0.6996
 4023SOL    HW223706   4.524   4.516  16.429  0.5016  0.4218 -0.1639
 4024SOL     OW23707   0.508   0.088  11.012  0.3154 -0.6715  0.9291
 4024SOL    HW123708   0.602   0.070  11.003 -0.0843 -1.6817 -1.2407
 4024SOL    HW223709   0.482   0.010  11.061  0.1596 -1.6760 -0.7451
 4025SOL     OW23710   2.838   2.045  14.981  0.2740 -0.1258 -0.2362
 4025SOL    HW123711   2.785   2.075  15.054  1.7050  0.1971  0.6676
 4025SOL    HW223712   2.904   2.002  15.036 -2.3931 -1.8221  1.6427
 4026SOL     OW23713   4.196   4.379   8.026  0.3031  0.1730  0.3645
 4026SOL    HW123714   4.277   4.332   8.005 -1.1304 -2.2057  0.1803
 4026SOL    HW223715   4.145   4.311   8.070  2.3242 -0.6042  1.4965
 4027SOL     OW23716   1.518   0.298   7.985 -0.0574  0.4292 -0.2112
 4027SOL    HW123717   1.506   0.273   7.893  2.2020  1.9852 -0.9429
 4027SOL    HW223718   1.553   0.221   8.030 -1.0674  0.8113  1.2256
 4028SOL     OW23719   0.843   0.086   6.654 -0.1821  0.3734  0.4341
 4028SOL    HW123720   0.855   4.734   6.686  2.1427  0.8121  0.8225
 4028SOL    HW223721   0.858   0.086   6.559  0.9814  1.1819  0.6149
 4029SOL     OW23722   0.348   2.329  16.334  0.3711  0.1535  0.5284
 4029SOL    HW123723   0.356   2.324  16.239 -2.0723 -0.2630  0.3510
 4029SOL    HW223724   0.321   2.240  16.356 -2.3502  0.6295 -0.8857
 4030SOL     OW23725   4.402   2.731  11.188  0.1820 -0.0292 -0.2439
 4030SOL    HW123726   4.382   2.759  11.099 -3.0216  2.0514  1.1665
 4030SOL    HW223727   4.339   2.774  11.245 -0.1155 -0.7036 -0.0652
 4031SOL     OW23728   3.341   0.678   4.033  0.0290  0.0569 -0.6136
 4031SOL    HW123729   3.437   0.676   4.027 -0.0645  2.7869 -3.0437
 4031SOL    HW223730   3.323   0.770   4.054 -0.2631 -0.3926  1.0722
 4032SOL     OW23731   2.401   3.845   5.261 -0.0653 -0.2765 -0.1873
 4032SOL    HW123732   2.330   3.784   5.283  0.1907 -0.0987  1.1423
 4032SOL    HW223733   2.445   3.869   5.343  0.6738  0.7844 -0.8977
 4033SOL     OW23734   0.248   3.081   7.423 -0.4762 -0.1660  0.4993
 4033SOL    HW123735   0.204   3.072   7.508  0.4302 -1.4600  0.8302
 4033SOL    HW223736   0.224   3.173   7.418 -2.8590 -0.8368 -0.1850
 4034SOL     OW23737   4.232   2.089   9.216 -0.0776 -0.0767 -0.0876
 4034SOL    HW123738   4.273   2.169   9.248  1.2174 -0.8926  0.2756
 4034SOL    HW223739   4.229   2.039   9.297 -1.5295 -1.2457 -0.8598
 4035SOL     OW23740   1.052   0.749   3.469  0.7646 -0.4732  0.2943
 4035SOL    HW123741   1.038   0.657   3.448 -0.5754  0.1223 -1.4566
 4035SOL    HW223742   1.145   0.747   3.494  1.3688 -0.6937 -1.9337
 4036SOL     OW23743   4.703   2.149  14.521  0.3854 -0.2344  0.3259
 4036SOL    HW123744   0.039   2.197  14.557  0.3817  1.4390 -1.8931
 4036SOL    HW223745   4.631   2.177  14.577  0.9438 -1.6158  1.7362
 4037SOL     OW23746   0.598   1.516   3.966  0.5601 -0.5383 -0.4876
 4037SOL    HW123747   0.675   1.526   3.909  1.1930  0.3468  0.5163
 4037SOL    HW223748   0.597   1.422   3.981 -0.4177 -0.7898 -2.1804
 4038SOL     OW23749   3.309   1.325   3.722 -0.0960  0.4380 -0.0411
 4038SOL    HW123750   3.290   1.280   3.640  0.3350  2.6068 -1.3574
 4038SOL    HW223751   3.391   1.367   3.696  0.8527 -0.4076  1.5936
 4039SOL     OW23752   4.620   0.834  13.898 -0.0822 -0.2860  0.1047
 4039SOL    HW123753   4.635   0.907  13.838 -0.3830 -1.3733 -1.2875
 4039SOL    HW223754   4.559   0.787  13.841  1.0900 -2.0502  0.3141
 4040SOL     OW23755   3.164   0.512   2.092 -0.0555 -1.1985  0.0303
 4040SOL    HW123756   3.178   0.562   2.172  1.3338 -0.2490 -0.8015
 4040SOL    HW223757   3.083   0.468   2.119 -0.1767 -0.6980  0.4677
 4041SOL     OW23758   2.766   1.402  16.341  0.0500 -0.3965 -0.2068
 4041SOL    HW123759   2.673   1.384  16.350  0.2618 -0.8578  1.1627
 4041SOL    HW223760   2.801   1.333  16.398 -1.3144 -1.5559 -0.7610
 4042SOL     OW23761   1.829   0.468   4.014 -0.0765 -0.3086 -0.0392
 4042SOL    HW123762   1.797   0.406   3.948  1.0585 -0.5772 -0.3256
 4042SOL    HW223763   1.749   0.504   4.053  0.0244 -0.3898  0.2414
 4043SOL     OW23764   3.329   0.726   2.907 -0.1563  0.2503 -0.2911
 4043SOL    HW123765   3.399   0.699   2.848 -0.1976 -1.0956  0.2586
 4043SOL    HW223766   3.312   0.652   2.966  1.6973 -1.5491 -2.0411
 4044SOL     OW23767   2.548   0.654   6.260 -0.1761 -0.0448  0.6060
 4044SOL    HW123768   2.520   0.586   6.321 -4.9397  1.8551  0.4879
 4044SOL    HW223769   2.633   0.613   6.240 -0.3736  0.2223 -0.7733
 4045SOL     OW23770   2.536   3.599   2.166 -0.1145  0.9336  0.5384
 4045SOL    HW123771   2.595   3.668   2.137 -1.6508  1.7088 -0.7138
 4045SOL    HW223772   2.455   3.594   2.115  0.4459 -1.2968 -0.1718
 4046SOL     OW23773   0.822   4.077   5.355  0.0392  1.0592 -0.9289
 4046SOL    HW123774   0.787   4.011   5.415  2.2857 -1.6398 -2.6028
 4046SOL    HW223775   0.871   4.136   5.412  0.6683  0.3263 -0.7177
 4047SOL     OW23776   0.844   1.220   1.850  0.1210 -0.5903  0.3195
 4047SOL    HW123777   0.907   1.232   1.922 -0.2452 -1.2658  0.7517
 4047SOL    HW223778   0.796   1.140   1.871 -0.1057 -0.5265  0.0402
 4048SOL     OW23779   1.456   4.692   6.805 -0.3621 -0.1825  0.1034
 4048SOL    HW123780   1.490   0.031   6.759 -1.6460  1.6623  2.2553
 4048SOL    HW223781   1.509   4.621   6.767 -0.2370  1.4403 -2.7185
 4049SOL     OW23782   2.790   1.861   4.520 -0.2500 -0.3861 -0.3187
 4049SOL    HW123783   2.863   1.916   4.491  1.4192 -1.6289  1.5251
 4049SOL    HW223784   2.732   1.877   4.446 -1.1274 -4.9201 -0.6105
 4050SOL     OW23785   0.790   2.048   2.744  0.2674 -0.2503 -0.6391
 4050SOL    HW123786   0.823   1.958   2.740 -1.8851 -1.0499 -0.4854
 4050SOL    HW223787   0.817   2.074   2.656  3.2288 -1.5231 -0.1268
 4051SOL     OW23788   0.980   2.213   9.414 -0.2196 -0.5580 -0.2069
 4051SOL    HW123789   0.917   2.175   9.476 -1.8681  0.3210 -1.3455
 4051SOL    HW223790   1.054   2.214   9.474  0.1443  0.0843 -0.6654
 4052SOL     OW23791   3.273   4.654   2.013  0.0716 -0.2961 -0.2779
 4052SOL    HW123792   3.315   4.623   2.094  1.1387 -1.9001 -1.4454
 4052SOL    HW223793   3.238   4.576   1.971  1.0576  0.5826 -2.7493
 4053SOL     OW23794   1.756   1.593   9.944  0.4812 -0.3912  0.0076
 4053SOL    HW123795   1.742   1.687   9.957 -1.0349 -0.6339  0.1071
 4053SOL    HW223796   1.674   1.562   9.907 -0.6911  0.7617  1.7002
 4054SOL     OW23797   1.670   1.680   2.964  0.1864  0.3704  0.2449
 4054SOL    HW123798   1.603   1.671   3.032 -0.3209 -0.8010 -0.4246
 4054SOL    HW223799   1.629   1.749   2.911 -1.6057  1.3859  2.9427
 4055SOL     OW23800   1.652   4.062   7.804 -0.6166 -0.4334  0.1390
 4055SOL    HW123801   1.583   4.105   7.754  0.7378  1.7639  0.1831
 4055SOL    HW223802   1.652   4.131   7.870  0.0610  0.7633 -1.1383
 4056SOL     OW23803   0.935   1.157   2.538 -0.1698  0.3455 -0.8660
 4056SOL    HW123804   0.845   1.173   2.565  0.4061 -0.5026  1.6360
 4056SOL    HW223805   0.903   1.101   2.468  1.8835 -0.1903 -1.3881
 4057SOL     OW23806   3.805   0.967   9.385 -0.3344 -0.0938  0.2477
 4057SOL    HW123807   3.872   0.910   9.348 -1.0313 -0.3755 -0.5913
 4057SOL    HW223808   3.849   1.032   9.439  0.5896  0.7956 -1.5566
 4058SOL     OW23809   4.323   2.051   7.667  0.1485 -0.0706  0.2815
 4058SOL    HW123810   4.289   2.075   7.580 -0.4631 -1.9665  0.0092
 4058SOL    HW223811   4.362   2.137   7.683  0.8976  0.1038 -2.3850
 4059SOL     OW23812   0.632   3.268   4.578 -1.0085 -0.0795  0.2404
 4059SOL    HW123813   0.619   3.177   4.549 -1.7920 -0.0825  0.6032
 4059SOL    HW223814   0.727   3.276   4.569 -1.1671  3.5893  1.9102
 4060SOL     OW23815   3.341   2.247   7.196 -0.0342 -0.0693  0.3246
 4060SOL    HW123816   3.309   2.328   7.237 -1.4779 -0.1413 -0.6697
 4060SOL    HW223817   3.271   2.183   7.204 -0.0982  0.1625  1.6422
 4061SOL     OW23818   1.707   3.789   7.725 -0.2482 -0.1768  0.0420
 4061SOL    HW123819   1.798   3.763   7.708 -0.5819 -2.1743  1.3134
 4061SOL    HW223820   1.718   3.878   7.758  2.0764 -0.6968  0.6892
 4062SOL     OW23821   1.246   1.965   4.917 -0.1611 -0.0027  0.0598
 4062SOL    HW123822   1.206   1.882   4.943 -0.8792 -0.3920 -2.2676
 4062SOL    HW223823   1.167   2.019   4.917 -0.9133 -1.1197 -1.7998
 4063SOL     OW23824   4.730   0.363   2.225  0.4812  0.1932 -0.6035
 4063SOL    HW123825   0.002   0.291   2.288  0.1236  1.6450  1.1106
 4063SOL    HW223826   0.021   0.435   2.280  3.1717 -1.4803  0.1845
 4064SOL     OW23827   0.655   0.360   5.726  0.5812  0.2754  0.4732
 4064SOL    HW123828   0.604   0.440   5.708  1.0271 -0.0812 -2.4657
 4064SOL    HW223829   0.723   0.391   5.786  0.7683 -0.7279  0.7706
 4065SOL     OW23830   2.314   1.529  13.568  0.0418 -0.2656 -0.3034
 4065SOL    HW123831   2.283   1.500  13.653  0.7023  1.0827  0.3994
 4065SOL    HW223832   2.254   1.603  13.559  2.4620  1.4881 -2.1866
 4066SOL     OW23833   1.441   1.835   8.555 -0.1274  0.0869  0.0017
 4066SOL    HW123834   1.536   1.828   8.554 -0.0423  1.1409  0.7055
 4066SOL    HW223835   1.426   1.918   8.601 -0.8676  0.3209 -0.6611
 4067SOL     OW23836   3.341   1.545   7.144  0.0580  0.3128  0.2679
 4067SOL    HW123837   3.308   1.542   7.054 -1.8315  1.6016  0.9053
 4067SOL    HW223838   3.426   1.586   7.131 -0.1772  0.5999 -0.4066
 4068SOL     OW23839   1.523   1.272   7.285  0.4037 -0.1723 -0.4051
 4068SOL    HW123840   1.570   1.203   7.240 -0.2427  0.2666 -1.7567
 4068SOL    HW223841   1.571   1.349   7.252 -0.5772 -0.7269 -3.0771
 4069SOL     OW23842   1.709   0.986   4.543  0.1960  0.2624 -0.1036
 4069SOL    HW123843   1.649   0.948   4.479 -2.1609  2.3148  0.8782
 4069SOL    HW223844   1.795   0.971   4.503 -0.9787  0.6938 -2.7931
 4070SOL     OW23845   1.976   0.954   4.466  0.1438 -0.5750 -0.2015
 4070SOL    HW123846   2.060   0.946   4.421  0.3550  1.3447 -0.1338
 4070SOL    HW223847   2.006   1.012   4.536 -0.4488  1.3709 -1.5539
 4071SOL     OW23848   1.259   3.382  12.617 -0.6860  0.7828  0.0321
 4071SOL    HW123849   1.295   3.469  12.634  2.4742 -0.5862  0.3622
 4071SOL    HW223850   1.326   3.328  12.660 -1.1005  1.5987  1.7019
 4072SOL     OW23851   3.726   3.574  11.956  0.0537  0.0787 -0.1346
 4072SOL    HW123852   3.724   3.637  12.028 -0.2219  0.2929 -0.3267
 4072SOL    HW223853   3.797   3.514  11.977  0.6410  0.3258 -1.4145
 4073SOL     OW23854   3.078   2.673   7.826  0.3703  0.2083  0.3109
 4073SOL    HW123855   3.063   2.586   7.788 -1.3374  0.8069 -0.3851
 4073SOL    HW223856   2.988   2.699   7.810  0.7236  2.8133  2.5506
 4074SOL     OW23857   4.401   0.466   2.335  0.4021  0.2057  0.7859
 4074SOL    HW123858   4.439   0.383   2.305 -1.9424  0.3587 -2.5725
 4074SOL    HW223859   4.310   0.454   2.308  0.3134  1.3905  0.5670
 4075SOL     OW23860   0.731   4.194  11.883  0.5325 -0.0971  0.1441
 4075SOL    HW123861   0.708   4.272  11.834  0.5197  1.8622  3.2806
 4075SOL    HW223862   0.648   4.146  11.883  0.5857 -0.1883  0.1978
 4076SOL     OW23863   2.993   1.927  15.175  1.0096  0.5128 -0.9258
 4076SOL    HW123864   3.039   1.940  15.257 -1.2118  1.2210  0.2111
 4076SOL    HW223865   2.924   1.862  15.192  0.7891  0.6401 -1.3239
 4077SOL     OW23866   0.891   4.375   8.216  0.6730 -0.6536  0.0230
 4077SOL    HW123867   0.829   4.360   8.145  0.4912 -1.5619  0.3763
 4077SOL    HW223868   0.923   4.463   8.194  0.0199 -0.1818  0.9197
 4078SOL     OW23869   1.764   0.067  14.292 -0.3857  0.0597  0.3738
 4078SOL    HW123870   1.696   0.040  14.354  0.4587 -0.1883  1.1945
 4078SOL    HW223871   1.786   0.158  14.311 -0.0282 -0.1406  0.9106
 4079SOL     OW23872   3.821   2.243  13.020  0.3291  0.5095  0.1424
 4079SOL    HW123873   3.734   2.213  13.045  0.7481 -1.7674 -1.1364
 4079SOL    HW223874   3.805   2.312  12.956  0.8676 -0.3850 -0.9689
 4080SOL     OW23875   3.498   2.959   6.220  0.6656  0.2820  0.3520
 4080SOL    HW123876   3.525   2.984   6.308  1.9653 -0.6926  0.2312
 4080SOL    HW223877   3.406   2.977   6.241  0.8948 -0.2017  1.7689
 4081SOL     OW23878   1.463   1.141   2.021 -0.5661 -0.1598  0.3676
 4081SOL    HW123879   1.555   1.115   2.030 -0.5183 -1.1095 -2.7404
 4081SOL    HW223880   1.453   1.135   1.926  2.5841 -0.6256  0.0519
 4082SOL     OW23881   2.368   2.320   2.234  0.0652  0.5301  0.2509
 4082SOL    HW123882   2.356   2.265   2.156 -0.3570  2.4293 -1.0241
 4082SOL    HW223883   2.343   2.263   2.306 -0.6349  0.3292 -0.1523
 4083SOL     OW23884   1.221   0.374  15.726  0.0144  0.1737 -0.1083
 4083SOL    HW123885   1.306   0.362  15.684 -0.1724  2.0125 -0.9920
 4083SOL    HW223886   1.226   0.451  15.783 -2.0717 -0.9288  1.5762
 4084SOL     OW23887   1.155   0.633  12.498 -0.3858 -0.0426 -0.0436
 4084SOL    HW123888   1.209   0.711  12.485 -0.9782  0.5799  1.3863
 4084SOL    HW223889   1.213   0.571  12.453  0.2947  0.3196  0.3439
 4085SOL     OW23890   2.271   2.572  13.288 -0.4131  0.0913 -0.0727
 4085SOL    HW123891   2.272   2.494  13.344 -0.9606 -0.3830 -0.7158
 4085SOL    HW223892   2.348   2.555  13.234 -0.1358  1.4645 -0.0970
 4086SOL     OW23893   0.280   1.747   4.770 -0.0603  0.0297  0.4533
 4086SOL    HW123894   0.311   1.768   4.682  0.8305  2.0112  1.2178
 4086SOL    HW223895   0.186   1.737   4.758 -0.2410  1.2011  0.8219
 4087SOL     OW23896   0.132   2.413   6.474 -0.1176  0.5562 -0.0150
 4087SOL    HW123897   0.100   2.496   6.439 -0.7775  0.7381  1.0297
 4087SOL    HW223898   0.074   2.351   6.430  0.4049  0.1211 -0.1038
 4088SOL     OW23899   2.997   4.667  10.751 -0.3554  0.0712  0.0422
 4088SOL    HW123900   3.054   4.591  10.764 -0.7216  0.0129  1.3652
 4088SOL    HW223901   3.049   4.737  10.790  0.2919 -0.6646  0.4865
 4089SOL     OW23902   2.282   2.610   8.306  0.5673  0.2916 -0.6365
 4089SOL    HW123903   2.236   2.614   8.390  0.3166 -1.0534 -0.7157
 4089SOL    HW223904   2.327   2.526   8.306 -2.4261 -1.3079  1.2097
 4090SOL     OW23905   3.631   3.906   8.511  0.2553  0.1680 -0.5595
 4090SOL    HW123906   3.596   3.986   8.474  1.7179  1.1649  0.2339
 4090SOL    HW223907   3.541   3.875   8.526  0.5482 -0.6494 -0.5057
 4091SOL     OW23908   1.721   1.864   3.982  0.4877  1.0748  0.7530
 4091SOL    HW123909   1.777   1.788   3.995 -1.4273 -0.1534  1.7852
 4091SOL    HW223910   1.680   1.870   4.068 -0.2018  1.6804  0.3887
 4092SOL     OW23911   0.390   2.254  12.157  0.5564 -0.9387  0.2284
 4092SOL    HW123912   0.404   2.291  12.244 -0.8245  3.3087 -1.3598
 4092SOL    HW223913   0.459   2.188  12.160  0.3886 -1.1817 -1.3082
 4093SOL     OW23914   3.222   2.713   3.062 -0.5320 -0.3673 -0.4267
 4093SOL    HW123915   3.197   2.623   3.038  2.9447 -1.2069 -0.9367
 4093SOL    HW223916   3.298   2.729   3.005  0.2735  2.1648  1.3736
 4094SOL     OW23917   3.058   3.550   9.420  0.2844  0.2036  0.3142
 4094SOL    HW123918   3.047   3.456   9.426 -0.7857  0.3821  1.0781
 4094SOL    HW223919   2.997   3.567   9.348  0.3746 -0.5560  0.0661
 4095SOL     OW23920   0.383   0.812   2.082 -0.1651  0.0695 -0.5849
 4095SOL    HW123921   0.402   0.740   2.022 -1.9105 -2.3193  1.7300
 4095SOL    HW223922   0.288   0.802   2.090 -0.3898  1.1473 -2.0658
 4096SOL     OW23923   1.800   0.756   8.469 -0.2812  0.3548  0.1135
 4096SOL    HW123924   1.757   0.842   8.473  0.2272  0.6633 -1.0509
 4096SOL    HW223925   1.831   0.736   8.557  0.5710  1.3327  0.0419
 4097SOL     OW23926   3.401   4.067   3.007 -0.0894  0.1974 -0.2821
 4097SOL    HW123927   3.469   4.000   3.009 -1.1393 -0.7980  1.4400
 4097SOL    HW223928   3.368   4.068   3.097  0.1474 -2.6904 -0.1779
 4098SOL     OW23929   3.392   0.162   7.173  0.0934  0.1567 -0.0624
 4098SOL    HW123930   3.362   0.165   7.264 -1.8255 -1.5018 -0.6341
 4098SOL    HW223931   3.462   0.227   7.164 -1.1437  1.3601 -1.1547
 4099SOL     OW23932   0.665   0.161   4.237  0.2016  0.7549  0.0561
 4099SOL    HW123933   0.662   0.257   4.234  0.0307  0.7160 -1.1684
 4099SOL    HW223934   0.609   0.143   4.161  0.7984 -1.8538  0.2342
 4100SOL     OW23935   2.020   1.236   9.767 -0.2091  0.0764 -0.0800
 4100SOL    HW123936   2.084   1.188   9.819 -0.9856 -0.1491  0.6737
 4100SOL    HW223937   2.054   1.325   9.769  0.3236 -0.0660 -2.5448
 4101SOL     OW23938   3.975   3.081   8.470 -0.3226 -0.1099 -0.4443
 4101SOL    HW123939   3.992   3.161   8.420  0.1305 -0.5984 -1.0732
 4101SOL    HW223940   4.051   3.034   8.437 -0.2797  0.0405 -0.5621
 4102SOL     OW23941   0.480   4.669  17.533  0.3779 -0.0915 -0.3428
 4102SOL    HW123942   0.525   0.014  17.521 -0.0117  0.1089 -0.4130
 4102SOL    HW223943   0.523   4.603  17.478 -1.0016 -1.4415  0.2084
 4103SOL     OW23944   2.643   3.678   5.615  0.2394 -0.3910  0.2393
 4103SOL    HW123945   2.737   3.684   5.599  0.3566  1.3177  1.5135
 4103SOL    HW223946   2.612   3.607   5.559  0.7491 -1.5428  1.3924
 4104SOL     OW23947   2.399   0.513   2.415 -0.1865  0.3162 -0.1674
 4104SOL    HW123948   2.364   0.425   2.404  1.8371 -0.2258 -2.2414
 4104SOL    HW223949   2.372   0.533   2.505  0.3556 -0.8203  0.2514
 4105SOL     OW23950   3.770   2.986  15.644  0.2714  0.0368  0.4062
 4105SOL    HW123951   3.784   3.006  15.551 -0.7589  0.0026  0.2434
 4105SOL    HW223952   3.699   2.922  15.638 -1.5905  2.3048 -1.8112
 4106SOL     OW23953   2.506   2.931   9.752  0.1263  0.4978  0.2317
 4106SOL    HW123954   2.463   2.988   9.687 -0.3630  1.6242  1.5587
 4106SOL    HW223955   2.556   2.998   9.798 -0.9785  0.8035  0.9780
 4107SOL     OW23956   0.370   0.987   4.513  0.3061  0.1388 -0.6663
 4107SOL    HW123957   0.280   0.955   4.509  0.2037  0.5326 -1.5756
 4107SOL    HW223958   0.417   0.904   4.518  1.3114  0.8526  1.6014
 4108SOL     OW23959   0.508   4.610   9.035  0.3725 -0.1382  0.1176
 4108SOL    HW123960   0.565   4.598   8.959  0.6174  1.3393  0.0593
 4108SOL    HW223961   0.562   4.584   9.109  1.0058 -0.2391 -0.3829
 4109SOL     OW23962   4.071   2.184   8.514  0.3665  0.4861  0.6680
 4109SOL    HW123963   4.007   2.237   8.562  2.1138  2.1123  1.2209
 4109SOL    HW223964   4.019   2.121   8.465  1.4408  1.3619 -1.5656
 4110SOL     OW23965   0.187   0.424   8.071  0.1157  0.2361  0.4778
 4110SOL    HW123966   0.211   0.409   7.979 -1.1744 -1.1970  0.3783
 4110SOL    HW223967   0.224   0.352   8.120  0.2442 -0.1273 -0.1525
 4111SOL     OW23968   0.731   4.634   5.115  0.3200 -0.1545 -0.0694
 4111SOL    HW123969   0.644   4.662   5.087 -0.0833  0.1427  1.4818
 4111SOL    HW223970   0.762   4.711   5.162 -0.8942 -0.5866  1.4331
 4112SOL     OW23971   0.092   2.387   2.209 -0.1968  0.3455 -0.2758
 4112SOL    HW123972   0.176   2.426   2.186  1.2330 -3.0477 -0.7246
 4112SOL    HW223973   0.030   2.460   2.215 -0.2700  0.2323  0.3628
 4113SOL     OW23974   2.357   1.211   5.970 -0.0391  0.0737 -0.1195
 4113SOL    HW123975   2.346   1.265   5.892 -0.1049  1.2196  0.6765
 4113SOL    HW223976   2.398   1.261   6.041  0.1745 -0.0152 -0.1789
 4114SOL     OW23977   2.170   1.019   6.245  0.7314 -0.2722  0.2305
 4114SOL    HW123978   2.254   1.063   6.255  0.5985  0.2321 -0.8547
 4114SOL    HW223979   2.116   1.078   6.297 -0.0196 -0.1167 -0.7180
 4115SOL     OW23980   3.634   4.070   2.116 -0.3700 -0.3348  0.1257
 4115SOL    HW123981   3.585   4.151   2.131 -1.8443 -1.0199 -0.9594
 4115SOL    HW223982   3.719   4.115   2.123 -0.8018  0.4925  0.0865
 4116SOL     OW23983   0.906   3.499   2.637 -0.2007  0.4770  0.1369
 4116SOL    HW123984   0.913   3.409   2.667  1.7175  0.0995 -1.3946
 4116SOL    HW223985   0.813   3.522   2.642 -0.5952 -1.3106  0.6640
 4117SOL     OW23986   3.804   3.327   8.065 -0.0556  0.0205  0.3765
 4117SOL    HW123987   3.809   3.311   7.970  2.8091  0.7927  0.3977
 4117SOL    HW223988   3.730   3.386   8.080  1.7551  3.0593 -2.3297
 4118SOL     OW23989   4.074   2.592   0.182  1.0628 -0.6583  0.1734
 4118SOL    HW123990   4.132   2.663   0.152  1.3100 -0.4636  1.1239
 4118SOL    HW223991   4.030   2.624   0.260  1.9285 -0.7068  0.6765
 4119SOL     OW23992   1.456   1.691   7.381 -0.6354  0.2704 -0.1213
 4119SOL    HW123993   1.543   1.659   7.405 -2.0069 -2.5265  1.0828
 4119SOL    HW223994   1.439   1.758   7.448  1.3920 -0.4918  1.1521
 4120SOL     OW23995   3.170   2.853  10.083  0.1517 -0.3139 -0.5192
 4120SOL    HW123996   3.100   2.823  10.141  0.8394  1.9553  1.4816
 4120SOL    HW223997   3.146   2.945  10.077  0.7058 -0.0354  1.3204
 4121SOL     OW23998   3.674   2.619   3.330 -0.1196  0.2494  0.1703
 4121SOL    HW123999   3.731   2.679   3.378  1.7326 -1.2542 -0.1331
 4121SOL    HW224000   3.653   2.678   3.258 -1.7849 -1.1572 -0.5099
 4122SOL     OW24001   0.156   2.813   8.774  0.1679  0.0104  0.2291
 4122SOL    HW124002   0.237   2.794   8.822  1.4833  0.7789 -1.6994
 4122SOL    HW224003   0.095   2.816   8.848 -0.1750 -1.0402 -0.0078
 4123SOL     OW24004   1.502   2.431   8.398  0.4293  0.0105 -0.0174
 4123SOL    HW124005   1.567   2.371   8.362 -0.2049 -1.0503  0.5959
 4123SOL    HW224006   1.439   2.362   8.419  0.1835  0.4815  0.7952
 4124SOL     OW24007   0.132   3.741   9.353  0.2359  0.4819 -0.1522
 4124SOL    HW124008   0.053   3.757   9.405  1.0721  1.8693  0.6709
 4124SOL    HW224009   0.104   3.796   9.280  0.2103 -0.1387 -0.6090
 4125SOL     OW24010   0.124   4.650   8.716 -1.0815 -0.1829 -0.0596
 4125SOL    HW124011   0.192   4.712   8.688 -1.9473 -0.1204 -2.0066
 4125SOL    HW224012   0.145   4.632   8.808 -0.7969 -2.3358 -0.5427
 4126SOL     OW24013   4.331   0.623   2.847  0.0694  0.0476 -0.1370
 4126SOL    HW124014   4.403   0.573   2.885 -1.3141  1.2416  4.0324
 4126SOL    HW224015   4.358   0.715   2.855 -0.4050  0.0534  1.2608
 4127SOL     OW24016   1.227   2.208  14.361 -0.3096  0.5041  0.2818
 4127SOL    HW124017   1.135   2.197  14.384  0.0878 -1.8591  0.8482
 4127SOL    HW224018   1.251   2.117  14.343 -1.8608 -0.0204  0.8683
 4128SOL     OW24019   0.546   0.994   2.709  0.4674 -0.4765  0.2268
 4128SOL    HW124020   0.626   0.959   2.669  1.8665  2.8686  0.0952
 4128SOL    HW224021   0.482   0.975   2.640 -0.3962  3.5716 -0.0709
 4129SOL     OW24022   3.355   1.020   7.322 -0.4956 -0.3396  0.1990
 4129SOL    HW124023   3.345   1.116   7.324 -2.9144 -0.5762 -1.1644
 4129SOL    HW224024   3.443   0.995   7.296 -0.0345 -0.0173  1.4379
 4130SOL     OW24025   2.903   3.905   1.257 -0.1504 -0.0167 -0.0940
 4130SOL    HW124026   2.884   3.991   1.295  0.7363  0.7019 -1.2929
 4130SOL    HW224027   2.995   3.911   1.281 -0.0787  0.4438 -0.4975
 4131SOL     OW24028   1.972   3.809   5.908 -0.2333 -0.3783 -0.1095
 4131SOL    HW124029   1.913   3.884   5.911  0.2162 -0.0077 -0.4128
 4131SOL    HW224030   2.031   3.827   5.834  1.0183 -0.6209  0.8140
 4132SOL     OW24031   1.991   4.602  11.165 -0.1843  0.1644  0.4568
 4132SOL    HW124032   1.992   4.594  11.069 -2.8409 -0.3625  0.4864
 4132SOL    HW224033   1.970   4.514  11.195 -0.6587 -0.2383 -1.0133
 4133SOL     OW24034   3.660   4.382   9.603 -0.4664 -0.2344  0.2697
 4133SOL    HW124035   3.606   4.428   9.538  0.0685  1.8326  1.2867
 4133SOL    HW224036   3.616   4.298   9.618 -0.7131 -0.6975 -3.0289
 4134SOL     OW24037   1.005   2.214   6.419 -0.4575  0.5299 -0.0919
 4134SOL    HW124038   0.991   2.277   6.349 -0.8849  0.8900  0.3234
 4134SOL    HW224039   1.100   2.208   6.422 -0.5879 -1.0599  1.1323
 4135SOL     OW24040   0.919   4.281   4.973  0.2416 -0.5171 -0.2086
 4135SOL    HW124041   0.979   4.212   5.004  1.0178  0.5179  0.5772
 4135SOL    HW224042   0.875   4.314   5.052 -0.8435  1.1397 -1.5180
 4136SOL     OW24043   3.748   0.422   6.539 -0.2811 -0.1281 -0.0592
 4136SOL    HW124044   3.724   0.381   6.622 -1.8069 -0.1732 -0.5149
 4136SOL    HW224045   3.827   0.460   6.578 -0.6390  2.8431 -2.2363
 4137SOL     OW24046   4.677   2.536   8.498 -0.1311  0.2311  0.3192
 4137SOL    HW124047   4.605   2.596   8.515 -1.4462 -1.4503  0.6590
 4137SOL    HW224048   4.658   2.542   8.404  1.0983 -0.8707  0.0009
 4138SOL     OW24049   2.160   1.871   2.254 -0.5668  0.5731  0.2288
 4138SOL    HW124050   2.132   1.906   2.170  2.4102  1.1079 -0.5041
 4138SOL    HW224051   2.089   1.816   2.289  0.2380 -1.0640 -0.7664
 4139SOL     OW24052   3.574   3.394   7.633 -0.5176  1.0427 -0.0116
 4139SOL    HW124053   3.587   3.301   7.650 -2.6473  0.7446 -0.0047
 4139SOL    HW224054   3.520   3.405   7.712  0.0560 -3.7403  1.0339
 4140SOL     OW24055   3.416   3.777   2.697  0.1284  0.1316 -0.2026
 4140SOL    HW124056   3.366   3.845   2.652  1.5127  0.8067 -0.7483
 4140SOL    HW224057   3.490   3.783   2.636  0.5738  0.6153  0.3831
 4141SOL     OW24058   2.049   1.966  12.835 -0.3425 -0.0675 -0.1524
 4141SOL    HW124059   1.974   1.985  12.779  0.0720  3.1418  0.3922
 4141SOL    HW224060   2.075   1.889  12.784 -0.0268 -0.9775  1.3826
 4142SOL     OW24061   0.172   4.677  12.058 -0.1986 -0.0559 -0.6570
 4142SOL    HW124062   0.087   4.709  12.088 -0.7481 -0.9317 -1.2852
 4142SOL    HW224063   0.150   4.682  11.965  0.7107 -0.8335 -0.9158
 4143SOL     OW24064   2.070   3.309   9.263  0.2134 -0.0778  0.3943
 4143SOL    HW124065   2.088   3.373   9.194  1.9314 -0.4810  0.4858
 4143SOL    HW224066   2.045   3.363   9.338  2.9412  0.1742  1.1111
 4144SOL     OW24067   0.731   1.211  17.626  0.1566 -0.3522 -0.2203
 4144SOL    HW124068   0.642   1.181  17.605 -0.0801 -0.5314  1.0267
 4144SOL    HW224069   0.711   1.302  17.652 -1.6607 -0.7999 -0.0007
 4145SOL     OW24070   2.807   2.115   6.434  0.0276 -0.1696 -0.0038
 4145SOL    HW124071   2.773   2.203   6.450 -0.1067  0.0686 -1.6564
 4145SOL    HW224072   2.898   2.122   6.465 -0.1387 -0.2906  0.5155
 4146SOL     OW24073   2.959   1.182  16.768 -0.5315 -0.0472 -0.0753
 4146SOL    HW124074   3.026   1.121  16.737  0.3249  0.7224  0.2696
 4146SOL    HW224075   3.001   1.236  16.835  2.1406 -0.2720 -1.5668
 4147SOL     OW24076   3.928   0.896   0.432 -0.3001 -0.0808 -0.3680
 4147SOL    HW124077   3.922   0.812   0.476 -2.2181  0.3554  0.2024
 4147SOL    HW224078   3.982   0.948   0.491  0.8690 -0.9154 -0.6976
 4148SOL     OW24079   1.666   4.530   3.956  0.2135 -0.7138  0.2435
 4148SOL    HW124080   1.732   4.468   3.926 -0.5012 -1.5262  0.3566
 4148SOL    HW224081   1.596   4.474   3.988  0.6781 -2.3208 -1.6060
 4149SOL     OW24082   3.274   0.842  14.719  0.2544 -0.1044 -0.3864
 4149SOL    HW124083   3.362   0.805  14.724  0.7009  0.9860 -0.1535
 4149SOL    HW224084   3.287   0.937  14.711  0.7983 -0.4145 -3.2087
 4150SOL     OW24085   0.247   0.219   5.482 -0.0481 -0.5415 -0.0554
 4150SOL    HW124086   0.287   0.197   5.565  1.1233 -1.7119 -0.9317
 4150SOL    HW224087   0.313   0.219   5.413  1.0707 -1.6420  1.0296
 4151SOL     OW24088   4.447   4.722   5.271 -0.0261  0.2226  0.1164
 4151SOL    HW124089   4.473   4.659   5.337  1.2714 -0.1285 -0.7254
 4151SOL    HW224090   4.408   4.662   5.208  2.3053 -0.8650 -0.2844
 4152SOL     OW24091   0.825   3.135   3.616  0.0649  0.3445  0.7653
 4152SOL    HW124092   0.776   3.111   3.537  2.7132 -0.2107 -0.7200
 4152SOL    HW224093   0.884   3.059   3.607 -1.6369 -0.6491 -1.7723
 4153SOL     OW24094   1.477   1.792   2.819 -0.1264  0.0176  0.3534
 4153SOL    HW124095   1.389   1.810   2.853  0.2252 -0.5956  1.5877
 4153SOL    HW224096   1.470   1.856   2.748 -1.7211  0.9269  1.3398
 4154SOL     OW24097   3.554   0.929   1.682 -0.1747 -0.0815 -0.2520
 4154SOL    HW124098   3.537   1.016   1.646  2.0294  0.0758 -0.9195
 4154SOL    HW224099   3.463   0.911   1.708  0.8509 -1.7881  2.1119
 4155SOL     OW24100   2.246   4.491   6.252  0.3997  0.3509 -0.3482
 4155SOL    HW124101   2.159   4.484   6.213  0.8347 -1.4028 -1.0095
 4155SOL    HW224102   2.225   4.511   6.344 -0.8922 -1.9977 -0.1233
 4156SOL     OW24103   4.472   1.258   4.069 -0.4640  0.4978 -0.1594
 4156SOL    HW124104   4.532   1.221   4.133  0.9673 -0.6434 -2.1557
 4156SOL    HW224105   4.510   1.235   3.984  0.9805  1.7857  0.1220
 4157SOL     OW24106   0.045   1.110  15.541 -0.6857  0.1852  0.2347
 4157SOL    HW124107   0.008   1.038  15.490 -2.6021  0.9533  0.5442
 4157SOL    HW224108   0.095   1.055  15.603 -0.9117 -0.3708 -0.0747
 4158SOL     OW24109   3.433   2.223   1.761  0.4209 -0.6182 -0.0162
 4158SOL    HW124110   3.525   2.228   1.787  0.9405 -2.3210 -1.6131
 4158SOL    HW224111   3.426   2.260   1.673  1.5195 -0.8391 -0.1861
 4159SOL     OW24112   4.357   0.899   4.838  0.3908 -0.3443 -0.1513
 4159SOL    HW124113   4.393   0.811   4.849 -0.1221 -0.5740 -0.2988
 4159SOL    HW224114   4.436   0.953   4.841  0.0725  0.2172 -1.7818
 4160SOL     OW24115   2.798   0.245  11.792 -0.3086 -0.9178 -0.2885
 4160SOL    HW124116   2.821   0.166  11.842 -0.9786  1.1008  3.2588
 4160SOL    HW224117   2.704   0.247  11.810 -0.0498 -0.0907  1.0211
 4161SOL     OW24118   4.394   1.949  17.408 -0.0333 -0.0316 -0.2190
 4161SOL    HW124119   4.378   2.015  17.476  1.5725  0.1718 -0.0369
 4161SOL    HW224120   4.447   1.884  17.453 -1.4953 -1.4218 -0.5199
 4162SOL     OW24121   0.211   2.181  13.079  0.0831 -0.0925  0.6636
 4162SOL    HW124122   0.249   2.126  13.147 -1.0775 -2.2278 -0.4076
 4162SOL    HW224123   0.201   2.112  13.014  0.9765 -0.0166  0.4498
 4163SOL     OW24124   0.018   1.722   4.683  0.4339 -0.1034 -0.0127
 4163SOL    HW124125   4.671   1.677   4.684 -0.0215  0.8816  4.1649
 4163SOL    HW224126   4.727   1.813   4.675  2.5404  0.7230  1.7556
 4164SOL     OW24127   2.949   0.504   8.599 -1.1764 -0.3960 -0.3813
 4164SOL    HW124128   3.029   0.522   8.550 -0.7964  0.5616  0.5857
 4164SOL    HW224129   2.945   0.577   8.660  2.0905 -0.3257 -0.2299
 4165SOL     OW24130   4.734   0.931  10.728 -0.1101  0.3314 -0.1281
 4165SOL    HW124131   0.037   1.003  10.681  0.0377 -0.1707 -0.7695
 4165SOL    HW224132   0.066   0.901  10.786  0.5554 -0.7237 -1.4761
 4166SOL     OW24133   4.738   0.352   5.404 -0.0207  0.2294 -0.4024
 4166SOL    HW124134   0.078   0.305   5.433  1.0162  0.8526 -2.1719
 4166SOL    HW224135   4.709   0.280   5.348 -1.2460  2.1539 -2.2712
 4167SOL     OW24136   0.969   2.399   6.234 -0.3355 -0.6401 -0.0401
 4167SOL    HW124137   0.938   2.489   6.227 -0.4456 -0.5099  1.9716
 4167SOL    HW224138   1.037   2.385   6.168 -0.6168 -1.3626 -0.1836
 4168SOL     OW24139   0.818   1.052   0.065 -0.0997 -0.3362  0.1762
 4168SOL    HW124140   0.774   1.113   0.006  1.6557  0.4158 -0.3420
 4168SOL    HW224141   0.888   1.025   0.005  0.6902 -0.3075  1.0822
 4169SOL     OW24142   1.113   2.734   6.734  0.3100  0.7386  0.4388
 4169SOL    HW124143   1.183   2.694   6.785 -0.9335 -1.5414  0.3360
 4169SOL    HW224144   1.068   2.657   6.699 -0.6777  1.0359  1.0576
 4170SOL     OW24145   4.619   1.153   0.870 -0.3219  0.1390 -0.3939
 4170SOL    HW124146   4.566   1.115   0.799 -1.6406  0.8471  0.2219
 4170SOL    HW224147   4.699   1.103   0.853 -0.8198 -1.1358  0.9518
 4171SOL     OW24148   4.090   0.981  12.281  0.4325  0.6416  0.4085
 4171SOL    HW124149   4.016   1.030  12.245 -1.8647 -1.7153  1.9557
 4171SOL    HW224150   4.132   0.964  12.196 -0.2303 -1.2793  0.4769
 4172SOL     OW24151   2.825   1.210  16.547  0.3915  0.4299  0.0477
 4172SOL    HW124152   2.869   1.192  16.629 -0.2276  0.0411  0.2930
 4172SOL    HW224153   2.742   1.184  16.587  2.2939 -1.2229  2.8080
 4173SOL     OW24154   3.336   3.257   9.023 -0.1417 -0.7691  0.0792
 4173SOL    HW124155   3.371   3.218   8.943 -2.0195 -0.0156 -1.1024
 4173SOL    HW224156   3.241   3.249   9.014 -0.1127 -1.0934  0.0610
 4174SOL     OW24157   3.620   1.131   1.004  0.2940  0.0086 -0.1713
 4174SOL    HW124158   3.682   1.103   0.937 -0.1194 -1.6453  0.1416
 4174SOL    HW224159   3.645   1.087   1.086 -0.5368 -2.2933 -1.1516
 4175SOL     OW24160   2.292   4.430   1.847  0.6495 -0.4394  0.3362
 4175SOL    HW124161   2.209   4.383   1.848  1.7312 -2.3443 -1.1644
 4175SOL    HW224162   2.344   4.355   1.875  1.7336  0.3333  0.3810
 4176SOL     OW24163   1.772   2.340   7.808 -0.0128 -0.4058 -0.2354
 4176SOL    HW124164   1.817   2.275   7.861 -1.5777 -1.3073 -0.0264
 4176SOL    HW224165   1.793   2.325   7.716  0.6178 -1.5118  0.0971
 4177SOL     OW24166   2.279   4.666   6.617 -0.2050  0.3639 -0.3494
 4177SOL    HW124167   2.275   0.023   6.608  0.5313  0.4751  0.4865
 4177SOL    HW224168   2.206   4.631   6.568 -0.2114  1.3279 -1.0382
 4178SOL     OW24169   1.299   3.011  14.731 -0.3531  0.1201 -0.7280
 4178SOL    HW124170   1.367   3.061  14.777  1.1701 -0.9385 -1.8430
 4178SOL    HW224171   1.330   2.921  14.727  0.6336  0.4279 -0.1858
 4179SOL     OW24172   4.024   4.457  15.348 -0.5338  0.3836 -0.4448
 4179SOL    HW124173   3.965   4.487  15.417 -0.8130 -2.2124  0.4731
 4179SOL    HW224174   4.032   4.530  15.287 -1.1893 -1.6779 -2.9788
 4180SOL     OW24175   0.772   3.637   1.957  0.1074 -0.2930  0.6267
 4180SOL    HW124176   0.738   3.642   2.047  0.4835 -1.5570  0.8342
 4180SOL    HW224177   0.807   3.548   1.964 -1.0145 -0.6928  1.0298
 4181SOL     OW24178   0.518   0.158   5.038  0.2777  0.0176  0.3467
 4181SOL    HW124179   0.549   0.150   4.948  0.0560  1.9740  0.1026
 4181SOL    HW224180   0.578   0.218   5.082  0.0293  0.9819 -0.6373
 4182SOL     OW24181   2.201   4.564   6.920 -0.1904  0.2988  0.1748
 4182SOL    HW124182   2.206   4.645   6.870 -1.6277 -0.7577 -1.6826
 4182SOL    HW224183   2.241   4.596   7.001  1.5945 -3.6992  0.8329
 4183SOL     OW24184   4.136   0.474   8.255  0.4005  0.2812 -0.4573
 4183SOL    HW124185   4.149   0.387   8.294  0.6202  1.1939  1.5285
 4183SOL    HW224186   4.068   0.454   8.191 -0.2658  3.0175 -0.5890
 4184SOL     OW24187   4.191   0.558   0.443  0.1521  0.3096  0.7010
 4184SOL    HW124188   4.106   0.547   0.484  0.8498 -0.3158  1.9816
 4184SOL    HW224189   4.165   0.547   0.352  2.2648  1.0241  0.0137
 4185SOL     OW24190   2.735   1.310  12.019  0.0130 -0.0599  0.0870
 4185SOL    HW124191   2.808   1.277  11.966  1.4189  0.9441  1.4168
 4185SOL    HW224192   2.671   1.323  11.949  0.3399  0.4253 -0.1177
 4186SOL     OW24193   3.654   1.227   6.545 -0.3994  0.2577 -0.4480
 4186SOL    HW124194   3.684   1.164   6.612  0.1633  0.9836 -0.0148
 4186SOL    HW224195   3.719   1.297   6.546 -1.6824  1.4383 -0.7128
 4187SOL     OW24196   2.483   2.491  13.520  0.0999  0.2609 -0.2401
 4187SOL    HW124197   2.480   2.399  13.491  2.5152  0.3837 -0.8327
 4187SOL    HW224198   2.554   2.488  13.584 -0.8609  0.7704  0.8606
 4188SOL     OW24199   4.203   1.978   5.923  0.0597  0.2899 -0.3585
 4188SOL    HW124200   4.228   2.014   5.838 -3.1780  0.4179 -1.2509
 4188SOL    HW224201   4.283   1.929   5.940  0.0009  0.1087 -0.5978
 4189SOL     OW24202   0.333   3.694   3.465 -0.0072 -0.2905  0.0926
 4189SOL    HW124203   0.395   3.729   3.401 -0.4830  3.0742  1.4764
 4189SOL    HW224204   0.395   3.663   3.531 -1.3057  1.7431  2.2756
 4190SOL     OW24205   3.192   0.918  16.422 -0.0768 -0.2563  0.1239
 4190SOL    HW124206   3.167   1.000  16.378 -2.4605 -0.9093  0.2290
 4190SOL    HW224207   3.126   0.861  16.383 -0.1901  1.2538 -1.9119
 4191SOL     OW24208   3.002   3.426   2.655 -0.4488  0.6197 -0.3758
 4191SOL    HW124209   2.989   3.351   2.598  0.1405  0.8873 -0.8594
 4191SOL    HW224210   3.092   3.410   2.681 -0.5024  1.4507  0.3610
 4192SOL     OW24211   1.070   3.121   0.753 -0.7285 -0.3271  0.2874
 4192SOL    HW124212   1.052   3.187   0.820 -0.7131  1.6497 -1.6235
 4192SOL    HW224213   0.990   3.073   0.737 -0.8600 -0.0544  0.1205
 4193SOL     OW24214   2.788   2.904  10.023 -0.3531 -0.1052 -0.2805
 4193SOL    HW124215   2.712   2.850  10.043  0.1225  0.1588  2.1818
 4193SOL    HW224216   2.848   2.855  10.079 -1.7540 -0.7519  0.6371
 4194SOL     OW24217   4.255   1.559  17.445 -0.7621 -0.4010 -0.4064
 4194SOL    HW124218   4.256   1.564  17.349  2.7794  1.0968 -0.3144
 4194SOL    HW224219   4.336   1.510  17.464 -0.3790 -0.4993 -2.2419
 4195SOL     OW24220   4.059   4.385   8.650 -0.1422  0.1167 -0.1005
 4195SOL    HW124221   4.084   4.313   8.708  1.1192 -0.1993 -1.0465
 4195SOL    HW224222   3.984   4.414   8.702 -0.1447  0.6847 -0.4196
 4196SOL     OW24223   1.137   4.691   9.836  0.0208  0.0541 -0.1383
 4196SOL    HW124224   1.219   4.656   9.870 -0.9526 -0.0862  2.0627
 4196SOL    HW224225   1.097   4.728   9.915  0.7903 -1.7738  1.0991
 4197SOL     OW24226   2.851   3.605   3.800  0.1699 -0.4197 -0.0184
 4197SOL    HW124227   2.870   3.684   3.750  1.4541  1.4538  3.3818
 4197SOL    HW224228   2.759   3.584   3.784  0.1464 -2.3509  2.5202
 4198SOL     OW24229   2.458   3.872   6.232 -0.1350  1.0563 -0.0287
 4198SOL    HW124230   2.405   3.798   6.263  1.0969  0.5995  0.9795
 4198SOL    HW224231   2.524   3.886   6.299 -1.9984  0.7239  1.8610
 4199SOL     OW24232   4.260   4.118   7.795 -0.1954  1.0966 -0.7801
 4199SOL    HW124233   4.308   4.132   7.877  1.8708  0.1757 -1.8310
 4199SOL    HW224234   4.290   4.196   7.747  0.9507  1.0637 -0.1302
 4200SOL     OW24235   1.881   3.961   8.589  0.7918 -0.2867 -0.7758
 4200SOL    HW124236   1.801   3.909   8.595  0.6681 -0.0425 -0.2921
 4200SOL    HW224237   1.892   3.974   8.683  1.9221 -2.6440 -0.5793
 4201SOL     OW24238   4.273   1.185  13.770 -0.6309 -0.4455  0.2333
 4201SOL    HW124239   4.195   1.143  13.735 -0.5722 -0.4907  0.1551
 4201SOL    HW224240   4.342   1.118  13.768 -0.9025 -0.7550  1.1223
 4202SOL     OW24241   1.846   1.120  14.369  0.2255  0.7686 -0.1280
 4202SOL    HW124242   1.789   1.125  14.291  1.4197  0.6414 -1.0095
 4202SOL    HW224243   1.900   1.049  14.335  0.6421  1.3580 -0.6963
 4203SOL     OW24244   1.483   1.805   7.023  0.1929 -0.0180  0.6364
 4203SOL    HW124245   1.427   1.752   7.080 -1.3291 -0.8247 -1.6282
 4203SOL    HW224246   1.457   1.773   6.937 -1.2796  0.3682  0.9444
 4204SOL     OW24247   4.627   3.132   4.708 -0.2592  0.0836  0.7276
 4204SOL    HW124248   4.563   3.072   4.671  0.2880  0.5154 -0.9183
 4204SOL    HW224249   4.603   3.204   4.650  1.8607  1.6614  1.8204
 4205SOL     OW24250   2.591   4.532   9.319  0.0195 -0.3976  0.5859
 4205SOL    HW124251   2.540   4.455   9.291  1.1311 -0.1259 -2.1358
 4205SOL    HW224252   2.671   4.517   9.268  1.8960 -0.6211  3.5873
 4206SOL     OW24253   1.566   0.146   0.402 -0.0567  0.0012  0.0496
 4206SOL    HW124254   1.586   0.156   0.309  0.2917 -0.2343  0.0992
 4206SOL    HW224255   1.527   0.233   0.411  0.6474  0.1874  1.2595
 4207SOL     OW24256   3.154   3.536   5.707  0.4302  0.5133 -0.1161
 4207SOL    HW124257   3.125   3.445   5.702  0.9885  0.4577 -2.5259
 4207SOL    HW224258   3.224   3.541   5.771 -0.7974 -1.0335  1.3397
 4208SOL     OW24259   3.684   1.200   4.284  0.1542 -0.0233  0.7996
 4208SOL    HW124260   3.717   1.227   4.369  1.1913  2.0257 -0.2562
 4208SOL    HW224261   3.590   1.217   4.288  0.3794  1.8319 -1.4687
 4209SOL     OW24262   1.445   1.896   9.378  0.2652  0.1891 -0.2826
 4209SOL    HW124263   1.439   1.983   9.418  1.5096  1.0293 -1.8989
 4209SOL    HW224264   1.353   1.872   9.369 -0.3409  2.3467  0.2021
 4210SOL     OW24265   0.380   2.985   8.685  0.1405 -0.0212 -0.1665
 4210SOL    HW124266   0.392   3.041   8.762  0.4938 -1.8198  1.0877
 4210SOL    HW224267   0.285   2.971   8.678 -0.0144  1.7992 -1.6737
 4211SOL     OW24268   3.003   3.473   6.473 -0.1304  0.3937  0.1203
 4211SOL    HW124269   2.919   3.510   6.444 -0.8293 -1.5859 -0.4220
 4211SOL    HW224270   3.027   3.408   6.407 -0.0640 -0.7410  1.2728
 4212SOL     OW24271   2.946   2.560  10.014 -0.8070 -0.0883  0.1297
 4212SOL    HW124272   2.880   2.539   9.948  1.7459 -0.7035 -2.1948
 4212SOL    HW224273   3.001   2.482  10.014 -1.5344 -0.5902 -1.2715
 4213SOL     OW24274   0.740   1.712   3.174 -0.1179  0.5620 -0.1915
 4213SOL    HW124275   0.656   1.756   3.185 -0.4223  0.0264 -0.3699
 4213SOL    HW224276   0.794   1.782   3.210  0.8879 -0.1147 -0.3915
 4214SOL     OW24277   2.279   1.347   6.588  0.3265  0.2939 -0.2277
 4214SOL    HW124278   2.191   1.333   6.625  1.1639 -1.0433  1.2721
 4214SOL    HW224279   2.318   1.387   6.665  0.2741  1.1209 -0.6320
 4215SOL     OW24280   4.038   4.054  15.234 -0.4601  0.0597 -0.1861
 4215SOL    HW124281   4.041   4.005  15.316 -2.5459 -0.4253 -0.4062
 4215SOL    HW224282   4.092   4.130  15.257 -0.7745 -0.0992  1.0804
 4216SOL     OW24283   0.693   0.913  11.211  0.4299 -0.4227  0.0701
 4216SOL    HW124284   0.779   0.924  11.251  0.4485  2.0266 -0.6730
 4216SOL    HW224285   0.657   0.846  11.270  0.7453  0.0460  0.7860
 4217SOL     OW24286   3.834   0.852   3.577 -0.1283  0.3654 -0.2512
 4217SOL    HW124287   3.860   0.935   3.617 -1.4793  0.0748  1.2438
 4217SOL    HW224288   3.817   0.877   3.486 -4.0605  0.8728  0.6099
 4218SOL     OW24289   0.580   2.209   3.076 -0.2050  0.2455  0.2331
 4218SOL    HW124290   0.514   2.248   3.133 -0.8934 -0.3722 -0.1359
 4218SOL    HW224291   0.656   2.202   3.134  0.2778  0.9741 -0.3111
 4219SOL     OW24292   1.332   3.844   6.692 -0.0344 -0.1234  0.1564
 4219SOL    HW124293   1.249   3.880   6.724  1.4889  0.5952  3.2975
 4219SOL    HW224294   1.299   3.817   6.607  0.0496  0.3293 -0.0217
 4220SOL     OW24295   2.798   1.715  15.200 -0.2502  0.0725 -0.4785
 4220SOL    HW124296   2.778   1.631  15.240 -2.9945  0.4589 -1.0692
 4220SOL    HW224297   2.852   1.682  15.128 -0.2208 -1.5390  0.2895
 4221SOL     OW24298   4.674   1.909  16.724 -0.4646 -0.0232 -0.0202
 4221SOL    HW124299   4.698   1.954  16.644 -0.3471 -0.5830 -0.3035
 4221SOL    HW224300   0.025   1.924  16.756 -0.4938  0.9374 -0.4040
 4222SOL     OW24301   3.441   4.239   6.334 -0.2062  0.1445  0.6572
 4222SOL    HW124302   3.436   4.299   6.260 -0.3013 -1.4947 -0.6697
 4222SOL    HW224303   3.368   4.182   6.310 -0.1824  0.3298  0.1573
 4223SOL     OW24304   2.151   2.056   8.349 -0.1766  0.0313 -0.3585
 4223SOL    HW124305   2.147   2.152   8.348 -0.6469  0.0185  0.3993
 4223SOL    HW224306   2.230   2.047   8.296  0.5290 -1.4311  0.9334
 4224SOL     OW24307   4.245   4.702   2.525  0.3725 -0.0149  0.0208
 4224SOL    HW124308   4.337   4.687   2.504 -0.1999 -0.7342 -1.9826
 4224SOL    HW224309   4.207   4.615   2.521  1.1871 -0.3480 -0.4204
 4225SOL     OW24310   3.256   4.138   5.588  0.0639 -1.0108  0.6639
 4225SOL    HW124311   3.286   4.181   5.668 -0.9108  0.6806  0.1322
 4225SOL    HW224312   3.185   4.198   5.564  1.3382 -0.0322 -0.7066
 4226SOL     OW24313   0.026   1.469  16.768 -0.2361 -0.0256 -0.0983
 4226SOL    HW124314   4.690   1.530  16.773 -0.7056 -0.5991 -0.1125
 4226SOL    HW224315   0.094   1.531  16.743 -0.4571 -0.4914 -1.8056
 4227SOL     OW24316   1.158   1.432  11.399  0.3993 -0.3825  0.2607
 4227SOL    HW124317   1.231   1.405  11.455  0.3655 -0.2702  0.3595
 4227SOL    HW224318   1.112   1.356  11.364 -0.0714 -0.7137  1.6206
 4228SOL     OW24319   2.324   3.632   2.002  0.6488 -0.1441  0.0569
 4228SOL    HW124320   2.278   3.713   2.026  0.7515 -0.5182  1.4781
 4228SOL    HW224321   2.261   3.592   1.942 -0.2187  0.8764  0.2800
 4229SOL     OW24322   0.599   3.009  17.669  0.4115  0.2478  0.3817
 4229SOL    HW124323   0.641   3.095  17.679 -1.3701  1.0083  1.1822
 4229SOL    HW224324   0.541   3.027  17.595 -0.7291  0.4813  1.3393
 4230SOL     OW24325   2.487   3.222   5.772  0.4458  0.5441  0.2323
 4230SOL    HW124326   2.489   3.313   5.802  1.6310  0.0904  1.5616
 4230SOL    HW224327   2.523   3.242   5.686  3.7603 -2.3538  0.9316
 4231SOL     OW24328   2.572   1.672   4.975  0.4052 -0.0059 -0.0181
 4231SOL    HW124329   2.493   1.633   4.939  0.6864  0.2713 -0.9239
 4231SOL    HW224330   2.607   1.729   4.907  1.1589  1.2558  1.4033
 4232SOL     OW24331   4.602   3.956   2.814 -0.2042  0.0379  0.2793
 4232SOL    HW124332   4.675   3.936   2.755 -0.7366  1.1156 -0.7418
 4232SOL    HW224333   4.656   3.998   2.881  0.6120  0.2478 -0.5209
 4233SOL     OW24334   2.070   2.620  14.358 -0.0141  0.7405 -0.2292
 4233SOL    HW124335   2.092   2.540  14.406 -3.2090 -0.0924 -0.1254
 4233SOL    HW224336   2.124   2.619  14.279 -1.8958  0.9826 -1.5194
 4234SOL     OW24337   1.684   3.926  16.155 -0.5179 -0.0422 -0.0637
 4234SOL    HW124338   1.777   3.948  16.159 -0.2582 -1.1584  0.2332
 4234SOL    HW224339   1.669   3.881  16.238 -0.1458  0.6042  0.3427
 4235SOL     OW24340   3.813   2.802  14.914  0.0646 -0.1885 -0.0012
 4235SOL    HW124341   3.824   2.713  14.880 -0.7194 -1.2319  2.4684
 4235SOL    HW224342   3.857   2.853  14.846 -1.4317 -0.7305 -1.3854
 4236SOL     OW24343   3.434   0.793  16.500 -0.1781  0.0020  0.3331
 4236SOL    HW124344   3.514   0.842  16.480 -0.2927 -0.6356 -1.6707
 4236SOL    HW224345   3.365   0.850  16.466 -0.5872 -0.3442  0.5860
 4237SOL     OW24346   0.507   4.453   8.544  0.5856 -0.0144 -0.5372
 4237SOL    HW124347   0.541   4.364   8.539  0.5047 -0.1149  0.8747
 4237SOL    HW224348   0.494   4.478   8.452 -1.6720 -2.1811 -0.7915
 4238SOL     OW24349   4.499   3.204   4.933 -0.5186 -0.2068  0.0336
 4238SOL    HW124350   4.550   3.189   4.853 -1.1732 -0.9026 -0.2572
 4238SOL    HW224351   4.524   3.118   4.969  2.6596  1.0627  0.8485
 4239SOL     OW24352   1.082   0.908   0.783  0.4868 -0.3307 -0.1861
 4239SOL    HW124353   1.141   0.904   0.857 -1.8851  0.5981  1.7411
 4239SOL    HW224354   1.108   0.832   0.730  0.0077 -0.5339 -0.1263
 4240SOL     OW24355   4.476   4.693   8.471  0.2539  0.8407  0.0938
 4240SOL    HW124356   4.535   4.642   8.526  1.4500  1.0154 -1.0359
 4240SOL    HW224357   4.533   0.016   8.424 -1.4827  1.8649 -0.6774
 4241SOL     OW24358   0.475   2.891   7.458 -0.1273  0.4759 -0.4083
 4241SOL    HW124359   0.489   2.840   7.538  0.5116  2.2778  0.6466
 4241SOL    HW224360   0.395   2.943   7.468 -0.0752  0.1706  1.7220
 4242SOL     OW24361   3.303   1.095  13.340 -0.1265  0.3357  0.9918
 4242SOL    HW124362   3.374   1.159  13.342 -1.4605  1.8276  1.1232
 4242SOL    HW224363   3.343   1.027  13.286 -2.4733 -0.5812  0.3650
 4243SOL     OW24364   2.991   1.357   9.262  0.1903 -0.5291  0.3026
 4243SOL    HW124365   2.904   1.325   9.283 -0.0741  0.2808  0.4596
 4243SOL    HW224366   2.982   1.449   9.289 -0.5261 -0.1216 -1.3238
 4244SOL     OW24367   2.083   4.260   1.874 -0.5251  0.0134 -0.1598
 4244SOL    HW124368   2.069   4.205   1.951  1.0597  0.2350  0.2989
 4244SOL    HW224369   1.991   4.285   1.873  0.2064  2.6684 -1.4768
 4245SOL     OW24370   3.682   2.303   6.447 -0.7405  0.2692  0.1279
 4245SOL    HW124371   3.701   2.220   6.403 -0.5065 -0.5375  1.7539
 4245SOL    HW224372   3.772   2.336   6.452 -0.2291 -1.0568 -0.1171
 4246SOL     OW24373   2.072   3.263   5.485 -0.7296 -0.1543 -0.5856
 4246SOL    HW124374   2.004   3.325   5.458 -0.2931  0.7272  0.3236
 4246SOL    HW224375   2.016   3.189   5.507 -1.1238  0.4084  0.2994
 4247SOL     OW24376   3.565   3.213   5.309  0.3538 -0.2965  0.5472
 4247SOL    HW124377   3.548   3.307   5.304 -1.2719 -0.6414 -0.5284
 4247SOL    HW224378   3.484   3.173   5.278  1.7042 -3.5129  1.2196
 4248SOL     OW24379   4.474   3.430   7.221 -0.0506  0.0338  0.4413
 4248SOL    HW124380   4.494   3.394   7.307  2.2488 -1.9959 -0.9539
 4248SOL    HW224381   4.476   3.351   7.167  0.1711  0.8940 -0.8070
 4249SOL     OW24382   2.773   1.478  15.914 -0.2439 -0.2137  0.7846
 4249SOL    HW124383   2.745   1.411  15.851 -1.3974 -0.0729  1.1435
 4249SOL    HW224384   2.804   1.538  15.846  0.8161  1.8498  3.1201
 4250SOL     OW24385   0.142   0.498   7.430 -0.1482  0.4568  0.2064
 4250SOL    HW124386   0.098   0.474   7.512  1.7407  2.7212  1.9127
 4250SOL    HW224387   0.061   0.507   7.380 -1.3649 -1.0985  1.8799
 4251SOL     OW24388   1.924   1.270   4.612 -0.3353  0.3702 -0.0024
 4251SOL    HW124389   1.839   1.249   4.650  0.0930  1.4766  1.5844
 4251SOL    HW224390   1.892   1.298   4.526 -0.3870  0.0290 -0.0939
 4252SOL     OW24391   1.563   2.541   8.625 -0.4782 -0.4696  0.3277
 4252SOL    HW124392   1.522   2.518   8.541 -1.4786 -0.0064  0.6939
 4252SOL    HW224393   1.618   2.463   8.637 -0.6233 -0.4943  0.8176
 4253SOL     OW24394   0.309   3.136   5.580 -0.2470 -0.0297 -0.4959
 4253SOL    HW124395   0.339   3.148   5.490 -2.0053  0.0813 -1.0563
 4253SOL    HW224396   0.215   3.139   5.563  0.0768 -2.5574 -2.7237
 4254SOL     OW24397   0.152   2.625   5.783  0.6506  0.4133  0.2674
 4254SOL    HW124398   0.162   2.664   5.696  0.8802 -1.7479 -0.6749
 4254SOL    HW224399   0.213   2.551   5.782  0.4256  0.2129  1.1563
 4255SOL     OW24400   3.047   3.178  14.096  0.1116 -0.1631 -0.4045
 4255SOL    HW124401   3.006   3.188  14.182  0.2305  0.3319 -0.4037
 4255SOL    HW224402   3.092   3.263  14.091  1.4173 -0.7823  0.9136
 4256SOL     OW24403   3.816   2.466   2.653 -0.0597  0.3814 -0.1606
 4256SOL    HW124404   3.825   2.374   2.627 -0.7834  0.5298 -0.9553
 4256SOL    HW224405   3.907   2.497   2.651  0.6658 -1.8848 -2.7760
 4257SOL     OW24406   0.950   4.100   2.109 -0.6771  0.3304  0.2152
 4257SOL    HW124407   0.983   4.029   2.054 -0.1504  1.4898 -0.9714
 4257SOL    HW224408   0.913   4.053   2.184  0.3788 -1.4548 -0.3830
 4258SOL     OW24409   3.945   4.020   2.347  0.0068  0.0135  0.0867
 4258SOL    HW124410   3.949   3.924   2.352  0.5706  0.0245 -0.1561
 4258SOL    HW224411   4.014   4.045   2.407  0.2066  0.9857 -0.5585
 4259SOL     OW24412   4.104   4.127   9.383  0.0469 -0.1659 -0.4664
 4259SOL    HW124413   4.022   4.153   9.426 -0.1390  1.1935 -1.6572
 4259SOL    HW224414   4.073   4.060   9.321  0.0883 -1.1577  0.5782
 4260SOL     OW24415   2.883   4.567   3.857  0.1539  0.0164 -0.6148
 4260SOL    HW124416   2.876   4.570   3.952 -1.5866  0.4187 -0.7578
 4260SOL    HW224417   2.803   4.613   3.835 -0.0199 -0.0093 -0.0274
 4261SOL     OW24418   3.629   3.715   2.530  0.0890  0.5692 -0.1660
 4261SOL    HW124419   3.697   3.780   2.512 -0.9936  2.0368  1.0072
 4261SOL    HW224420   3.636   3.652   2.459 -0.3665  2.5519 -1.9626
 4262SOL     OW24421   1.072   1.472   4.384  0.3604  0.5242 -0.1374
 4262SOL    HW124422   1.149   1.429   4.347  1.1661 -0.3858  2.6255
 4262SOL    HW224423   1.111   1.557   4.406  2.6118 -0.5390 -0.0469
 4263SOL     OW24424   2.406   3.533  17.129  0.5472 -0.9231  0.3445
 4263SOL    HW124425   2.465   3.601  17.098  0.0139 -0.9883 -0.8178
 4263SOL    HW224426   2.418   3.456  17.073  1.3461 -2.0680  2.0998
 4264SOL     OW24427   0.489   0.758   4.199 -0.0677 -0.0307  0.7196
 4264SOL    HW124428   0.434   0.680   4.191 -2.1137  1.4191  0.8210
 4264SOL    HW224429   0.441   0.830   4.158 -2.0728 -1.7987 -0.0104
 4265SOL     OW24430   0.065   4.384   8.015  0.4439 -0.4684  0.1930
 4265SOL    HW124431   0.057   4.379   7.919  0.6027 -0.2796  0.1716
 4265SOL    HW224432   0.075   4.475   8.041  0.9537 -0.5751  0.3652
 4266SOL     OW24433   2.081   3.757   6.919  0.0686  0.6058 -0.3948
 4266SOL    HW124434   2.098   3.677   6.869  1.0652  1.9682 -2.2121
 4266SOL    HW224435   1.990   3.778   6.896  0.6147  0.4507 -2.7099
 4267SOL     OW24436   2.852   1.016   8.133 -0.0015 -0.1392  0.2148
 4267SOL    HW124437   2.929   1.040   8.082 -0.9026  1.3703 -0.4173
 4267SOL    HW224438   2.823   0.935   8.091  0.8621 -0.8971  1.0772
 4268SOL     OW24439   4.721   1.089   7.331 -0.4095 -0.1479  0.1585
 4268SOL    HW124440   4.736   1.004   7.289 -2.0630  0.6282 -2.0396
 4268SOL    HW224441   4.703   1.058   7.420 -1.3806  0.5656  0.2155
 4269SOL     OW24442   0.907   0.251   8.367 -0.5480  0.0851  0.3109
 4269SOL    HW124443   1.002   0.255   8.355 -0.6625  2.8483  0.3860
 4269SOL    HW224444   0.896   0.207   8.451 -1.7994  0.5855  0.4198
 4270SOL     OW24445   3.168   3.957   4.642  0.0069  0.7853  0.5555
 4270SOL    HW124446   3.197   3.867   4.655  0.2564  0.8385  0.3575
 4270SOL    HW224447   3.077   3.961   4.671  0.3826  0.3071  1.8264
 4271SOL     OW24448   4.069   3.900  12.282 -0.0948  0.0819 -0.5132
 4271SOL    HW124449   4.053   3.984  12.324  0.0472  0.3235 -0.9409
 4271SOL    HW224450   4.049   3.924  12.191  0.9318  2.3162 -0.1407
 4272SOL     OW24451   1.158   1.083   3.305  0.5649  0.4863  0.1000
 4272SOL    HW124452   1.076   1.059   3.347 -0.6473 -2.1597 -3.8131
 4272SOL    HW224453   1.210   1.003   3.317 -1.0542 -0.7268 -1.0127
 4273SOL     OW24454   4.511   3.444  10.316 -0.0935 -0.2729 -0.0306
 4273SOL    HW124455   4.454   3.447  10.393  1.0750 -0.2729  0.8433
 4273SOL    HW224456   4.509   3.534  10.284  0.9451 -1.3604 -3.1331
 4274SOL     OW24457   2.864   1.389  11.227 -0.4581  0.0804  0.1533
 4274SOL    HW124458   2.786   1.344  11.260 -0.0719  0.6125  1.7701
 4274SOL    HW224459   2.881   1.442  11.305 -0.4083  0.2136  0.0509
 4275SOL     OW24460   0.635   2.138   7.425  0.2160  0.2076  0.3662
 4275SOL    HW124461   0.608   2.186   7.504 -0.2559  0.0118  0.3289
 4275SOL    HW224462   0.681   2.061   7.457  3.2124  1.5890 -0.6829
 4276SOL     OW24463   4.031   0.764   9.098 -0.2300  0.7379 -0.3321
 4276SOL    HW124464   4.001   0.823   9.029 -0.0560  0.3289 -0.7563
 4276SOL    HW224465   4.119   0.749   9.065  0.6569  1.7360  1.5165
 4277SOL     OW24466   3.485   2.328  12.770 -0.7077 -0.4745  0.0143
 4277SOL    HW124467   3.428   2.391  12.727  0.9731  1.2774  0.3001
 4277SOL    HW224468   3.466   2.244  12.731  1.7830 -1.5743  1.1266
 4278SOL     OW24469   2.987   0.003   1.593  0.2336  0.3054  0.7288
 4278SOL    HW124470   2.897   4.709   1.586 -0.0050  1.3973 -1.1503
 4278SOL    HW224471   2.986   0.047   1.678  0.9638  0.5545  0.6127
 4279SOL     OW24472   1.304   2.328   9.310  0.0523 -0.1934 -0.2549
 4279SOL    HW124473   1.235   2.388   9.340 -1.9126 -1.4901 -2.1884
 4279SOL    HW224474   1.255   2.271   9.251 -0.6912  1.1468 -0.9398
 4280SOL     OW24475   4.358   4.371   1.298  0.3627  0.1016  0.2726
 4280SOL    HW124476   4.411   4.446   1.327 -1.9800  1.8399  0.0740
 4280SOL    HW224477   4.416   4.303   1.331 -0.2733 -0.5134  0.1277
 4281SOL     OW24478   4.515   1.069  13.726 -0.1020 -0.6082  0.7127
 4281SOL    HW124479   4.523   1.130  13.799  0.9110  0.7829 -0.5644
 4281SOL    HW224480   4.608   1.059  13.708  0.1464 -0.1502  1.7657
 4282SOL     OW24481   3.900   1.813  12.506  0.3710 -0.2303 -0.0798
 4282SOL    HW124482   3.902   1.726  12.547 -1.3068  0.0641  0.6268
 4282SOL    HW224483   3.993   1.834  12.510  0.7441 -1.9282  0.1223
 4283SOL     OW24484   0.506   0.839   6.405 -0.5146  0.1236  0.4595
 4283SOL    HW124485   0.586   0.880   6.370 -0.5752  0.5918  0.8630
 4283SOL    HW224486   0.452   0.840   6.326  1.9636  1.6440 -1.2488
 4284SOL     OW24487   1.449   0.563   3.362  0.4301  0.6899  0.5765
 4284SOL    HW124488   1.407   0.646   3.383 -1.3154 -0.0781  0.1169
 4284SOL    HW224489   1.541   0.570   3.388  0.8562  1.5072 -1.1180
 4285SOL     OW24490   0.946   2.377  11.464 -0.1673  0.3031 -0.2375
 4285SOL    HW124491   1.036   2.399  11.440  0.2703 -2.1617 -0.8683
 4285SOL    HW224492   0.896   2.414  11.392 -1.9100 -0.0711  0.7778
 4286SOL     OW24493   0.985   0.869   7.135  0.8924  0.0782  0.0944
 4286SOL    HW124494   1.036   0.911   7.204  0.1888  1.4923 -0.2567
 4286SOL    HW224495   0.959   0.783   7.169  0.2251  0.2947  0.1299
 4287SOL     OW24496   4.494   0.672   6.445 -0.1835  0.4411 -0.1737
 4287SOL    HW124497   4.556   0.739   6.473 -2.2601  2.5456 -0.6658
 4287SOL    HW224498   4.466   0.644   6.533 -1.1916 -0.2300 -0.7053
 4288SOL     OW24499   0.465   0.137   7.060 -0.0737  0.2449 -0.1920
 4288SOL    HW124500   0.403   0.084   7.010 -0.6010  1.6472 -1.0367
 4288SOL    HW224501   0.532   0.144   6.992  1.0497 -2.4369  0.6529
 4289SOL     OW24502   4.398   3.885   9.043  0.1786 -0.1525 -0.3323
 4289SOL    HW124503   4.329   3.881   8.976 -2.0360 -0.4031  1.9486
 4289SOL    HW224504   4.468   3.841   8.995  0.8756  1.1724 -0.5296
 4290SOL     OW24505   2.198   1.134   1.951  0.2280  0.2801  0.5186
 4290SOL    HW124506   2.250   1.063   1.988  1.7699 -0.2285 -2.6434
 4290SOL    HW224507   2.185   1.177   2.036  0.6052  0.2389  0.5973
 4291SOL     OW24508   2.587   3.546   3.731 -0.2897  0.5587 -0.3807
 4291SOL    HW124509   2.636   3.523   3.652  0.0687 -2.8188  0.8286
 4291SOL    HW224510   2.503   3.569   3.691  0.7617  3.0352 -1.1334
 4292SOL     OW24511   2.252   4.062   5.206 -0.4726 -0.5176 -0.4771
 4292SOL    HW124512   2.165   4.021   5.202 -0.5293 -0.2833 -1.5659
 4292SOL    HW224513   2.311   3.988   5.216  1.2465  0.9840  0.3488
 4293SOL     OW24514   2.382   0.647   1.905  0.3479 -0.2585 -0.2879
 4293SOL    HW124515   2.368   0.555   1.927 -2.2171 -0.0326 -0.9926
 4293SOL    HW224516   2.384   0.649   1.810  1.8731 -2.3197 -0.2792
 4294SOL     OW24517   2.796   2.820   2.026  0.0872  0.0882  0.3570
 4294SOL    HW124518   2.744   2.740   2.031 -1.9955  1.3350 -1.6215
 4294SOL    HW224519   2.850   2.803   2.104 -1.8864 -0.2729  1.6545
 4295SOL     OW24520   4.389   2.998   1.828 -0.2872  0.2514 -0.3149
 4295SOL    HW124521   4.372   2.907   1.805 -0.4897  0.0327  0.6870
 4295SOL    HW224522   4.483   2.986   1.845 -0.4499  0.8231  1.0297
 4296SOL     OW24523   0.099   1.136   5.967  0.2889 -0.2163 -0.1746
 4296SOL    HW124524   0.117   1.045   5.940 -0.8929 -0.5802  0.2855
 4296SOL    HW224525   0.086   1.123   6.061  2.2669 -1.4393 -0.0595
 4297SOL     OW24526   0.443   4.149   7.148 -0.1248  0.0741  0.4131
 4297SOL    HW124527   0.414   4.122   7.235  2.9396 -1.7723  0.8389
 4297SOL    HW224528   0.458   4.064   7.106 -2.4106 -0.7222  1.1975
 4298SOL     OW24529   3.788   1.459   8.432  0.1070 -0.5082  0.2035
 4298SOL    HW124530   3.803   1.484   8.523  0.7985 -0.3295  0.0376
 4298SOL    HW224531   3.861   1.399   8.415  0.8056  0.7916 -1.3489
 4299SOL     OW24532   4.405   4.256   8.265 -0.5030 -0.0269 -0.0305
 4299SOL    HW124533   4.329   4.299   8.305  1.7369  0.4276  3.7237
 4299SOL    HW224534   4.475   4.311   8.300 -0.0974  0.9781 -2.3817
 4300SOL     OW24535   3.266   0.784   7.771 -0.2738  0.3257 -0.1417
 4300SOL    HW124536   3.317   0.811   7.847 -1.9483  2.2526  0.2779
 4300SOL    HW224537   3.339   0.759   7.713  1.1391 -0.4166  1.9547
 4301SOL     OW24538   0.879   0.192  13.206  0.1406 -0.3295 -0.0837
 4301SOL    HW124539   0.808   0.232  13.256 -0.2314 -1.5095  0.3395
 4301SOL    HW224540   0.918   0.272  13.173 -1.1754 -0.1670 -1.2507
 4302SOL     OW24541   1.380   1.681   8.109 -0.1605  0.1722  0.4631
 4302SOL    HW124542   1.342   1.603   8.150 -1.2362  0.6566  0.3715
 4302SOL    HW224543   1.473   1.665   8.129 -0.1514 -1.9935 -1.3539
 4303SOL     OW24544   3.309   4.479  13.738  0.1612  0.6013 -0.1659
 4303SOL    HW124545   3.298   4.517  13.651 -2.4676 -0.7136 -0.3958
 4303SOL    HW224546   3.399   4.501  13.760  0.5842 -1.3104  0.0158
 4304SOL     OW24547   4.640   0.649  10.752  0.1136 -0.3675  0.4145
 4304SOL    HW124548   4.547   0.630  10.739  0.1313  0.6197 -1.1420
 4304SOL    HW224549   4.640   0.743  10.769  1.4368 -0.7810  2.7277
 4305SOL     OW24550   2.611   4.594  10.088 -0.0460  0.1013 -0.3474
 4305SOL    HW124551   2.647   4.507  10.069 -0.5081  0.4491 -2.8680
 4305SOL    HW224552   2.521   4.572  10.064  0.0668  0.8883 -1.5033
 4306SOL     OW24553   0.532   1.044   9.674 -0.1197  0.2576  0.1252
 4306SOL    HW124554   0.603   1.107   9.665 -0.5110  0.6797  0.0169
 4306SOL    HW224555   0.572   0.969   9.629  0.2815 -0.0131  0.9339
 4307SOL     OW24556   0.124   2.868   1.139  0.1266  0.2770  0.1267
 4307SOL    HW124557   0.188   2.939   1.129  1.5907 -0.7142  2.3927
 4307SOL    HW224558   0.189   2.802   1.164 -0.5110  0.4147  2.1188
 4308SOL     OW24559   3.703   1.941   8.186 -0.0079  0.0150  1.0537
 4308SOL    HW124560   3.747   1.986   8.114 -0.6970 -2.3701 -0.8372
 4308SOL    HW224561   3.788   1.929   8.229  1.3328  3.1558 -0.6956
 4309SOL     OW24562   3.816   0.309   1.994  0.6180  0.3361  0.0449
 4309SOL    HW124563   3.744   0.261   1.953  1.6870 -0.0136 -1.4024
 4309SOL    HW224564   3.851   0.238   2.049  1.5664  0.1613 -0.7818
 4310SOL     OW24565   0.987   1.565   3.179 -0.1852  0.9036 -0.5955
 4310SOL    HW124566   1.029   1.530   3.100  0.0826 -1.2758  0.5173
 4310SOL    HW224567   0.914   1.617   3.144 -1.2399  0.6758  1.2966
 4311SOL     OW24568   4.710   4.142   3.276 -0.9792 -0.0802 -0.2341
 4311SOL    HW124569   4.654   4.219   3.286 -2.6707 -1.2842 -0.4189
 4311SOL    HW224570   4.650   4.072   3.249 -0.3608 -0.6572 -0.1115
 4312SOL     OW24571   3.583   1.674   4.686  0.2392  0.2870  0.4829
 4312SOL    HW124572   3.631   1.728   4.624  0.8810  0.1963  0.9031
 4312SOL    HW224573   3.630   1.591   4.692 -0.2835 -0.1311 -1.3781
 4313SOL     OW24574   2.275   2.847   3.901 -0.0083  0.1266  0.0941
 4313SOL    HW124575   2.340   2.880   3.839 -1.2410  1.0036 -0.7201
 4313SOL    HW224576   2.270   2.924   3.958  0.5324 -0.0202  0.3434
 4314SOL     OW24577   0.042   1.067  13.726 -0.2223 -0.9577  0.1970
 4314SOL    HW124578   0.061   1.098  13.637 -1.5918 -1.4211 -0.2562
 4314SOL    HW224579   0.102   0.993  13.724 -0.5764 -1.2606  0.6949
 4315SOL     OW24580   0.050   3.887   5.630  0.1170  0.1311 -0.0063
 4315SOL    HW124581   4.702   3.924   5.614  0.8159  1.0123 -1.7487
 4315SOL    HW224582   0.056   3.827   5.555 -0.6213  0.3119 -0.2100
 4316SOL     OW24583   1.132   1.589  11.168  0.3531 -0.4160 -0.6846
 4316SOL    HW124584   1.136   1.666  11.225  3.6351  1.1605 -3.0491
 4316SOL    HW224585   1.134   1.520  11.235  0.8053 -0.6604 -0.9488
 4317SOL     OW24586   0.107   2.368  14.682  0.6503 -0.0328 -0.0249
 4317SOL    HW124587   0.059   2.446  14.655  1.0001  0.3920  0.5754
 4317SOL    HW224588   0.183   2.396  14.733 -0.5835 -0.6216  2.1838
 4318SOL     OW24589   3.080   2.724   9.833 -0.0561 -0.3506 -0.0465
 4318SOL    HW124590   3.058   2.665   9.905  1.7354  2.2331  2.6554
 4318SOL    HW224591   3.169   2.751   9.858 -0.0693  0.2143 -0.6374
 4319SOL     OW24592   4.181   4.171   8.772 -0.4168 -0.3807  0.1612
 4319SOL    HW124593   4.226   4.195   8.853 -1.5509 -0.3204  0.7736
 4319SOL    HW224594   4.109   4.124   8.816 -0.6883 -1.4832 -1.4651
 4320SOL     OW24595   0.821   1.442  14.068  0.0318  0.0676 -0.1645
 4320SOL    HW124596   0.819   1.412  14.159  0.1849 -0.2590 -0.2691
 4320SOL    HW224597   0.730   1.428  14.043 -0.7039  0.1717  2.4606
 4321SOL     OW24598   2.760   2.451  10.257 -0.3059 -0.1950 -0.3545
 4321SOL    HW124599   2.761   2.377  10.197  0.8424  0.1805 -0.7960
 4321SOL    HW224600   2.788   2.406  10.337  1.0759  0.4694 -0.4718
 4322SOL     OW24601   0.275   0.089   9.237 -0.8559  0.3616  0.3284
 4322SOL    HW124602   0.367   0.075   9.261 -1.3475 -0.1715  1.8845
 4322SOL    HW224603   0.246   0.128   9.320 -1.1847  1.1133 -0.1355
 4323SOL     OW24604   1.522   0.990   4.774 -0.1727 -0.1889  0.1399
 4323SOL    HW124605   1.447   0.965   4.719  0.4168  1.0838 -1.2515
 4323SOL    HW224606   1.591   0.977   4.709 -0.5139  0.3159 -0.3372
 4324SOL     OW24607   4.273   3.298   4.257  0.3454  0.3901  0.3909
 4324SOL    HW124608   4.273   3.310   4.162 -0.8997 -0.6776  0.2546
 4324SOL    HW224609   4.310   3.384   4.274  0.8193  0.5930 -1.6844
 4325SOL     OW24610   0.560   3.214  14.732 -0.2061 -0.1227 -0.2277
 4325SOL    HW124611   0.639   3.266  14.713 -0.0962 -0.5018 -0.7963
 4325SOL    HW224612   0.501   3.287  14.751  0.4444  1.4697 -4.3142
 4326SOL     OW24613   4.065   3.142   4.048 -0.5184 -0.1137 -0.8925
 4326SOL    HW124614   4.058   3.236   4.066  1.0679  0.1147 -1.4816
 4326SOL    HW224615   4.160   3.148   4.040 -0.5317  0.1093 -0.8923
 4327SOL     OW24616   0.773   0.935   1.088 -0.2096 -0.2745  0.6998
 4327SOL    HW124617   0.769   0.878   1.011  0.2052 -1.1289  1.3074
 4327SOL    HW224618   0.679   0.924   1.100 -0.1930 -2.4905 -1.1142
 4328SOL     OW24619   2.307   2.954   1.844 -0.0059  0.0601 -0.7953
 4328SOL    HW124620   2.367   2.945   1.770 -0.8637 -0.0838 -1.4726
 4328SOL    HW224621   2.298   2.867   1.883  0.0006  0.4043 -0.0192
 4329SOL     OW24622   1.466   3.652   6.209 -0.0964 -0.6209  0.0882
 4329SOL    HW124623   1.443   3.560   6.226  2.4816 -0.9708  1.6917
 4329SOL    HW224624   1.383   3.685   6.175 -0.6212 -0.7980  1.1687
 4330SOL     OW24625   2.722   0.091   8.452 -0.0231 -0.1825  0.2749
 4330SOL    HW124626   2.763   0.032   8.515  3.3942  1.5114 -0.3681
 4330SOL    HW224627   2.779   0.086   8.375 -0.1867  0.4215  0.1071
 4331SOL     OW24628   4.170   1.429   6.635  0.4761 -0.3612 -0.4148
 4331SOL    HW124629   4.265   1.429   6.645  0.5298  2.6055 -0.8440
 4331SOL    HW224630   4.140   1.472   6.715  0.7780 -2.3139  0.7394
 4332SOL     OW24631   3.556   4.175   1.576  0.0519  0.0479  0.1192
 4332SOL    HW124632   3.511   4.171   1.660 -0.0453  0.6264  0.0957
 4332SOL    HW224633   3.474   4.171   1.527  1.0770 -1.9060 -1.4359
 4333SOL     OW24634   4.598   0.938  14.802  0.0123 -0.0812  0.2427
 4333SOL    HW124635   4.591   0.917  14.709  1.2389 -1.8987  0.5683
 4333SOL    HW224636   4.519   0.892  14.831  0.5291 -0.5223  0.9524
 4334SOL     OW24637   0.410   1.242   1.390  0.0305 -0.3923 -0.1090
 4334SOL    HW124638   0.322   1.241   1.427 -0.9992  0.8229 -2.4554
 4334SOL    HW224639   0.464   1.242   1.469  1.1077  3.5497 -0.8316
 4335SOL     OW24640   0.581   0.927  10.055  0.3579  0.1567 -0.3384
 4335SOL    HW124641   0.659   0.898  10.008  0.7732  2.4023 -1.0444
 4335SOL    HW224642   0.516   0.912   9.987  0.2572 -2.4548  0.3425
 4336SOL     OW24643   3.137   3.036   7.450 -0.4660 -0.4824  0.2000
 4336SOL    HW124644   3.139   2.983   7.529  2.3068  2.2927  2.0039
 4336SOL    HW224645   3.144   2.962   7.389 -0.6977 -0.0291 -0.3795
 4337SOL     OW24646   0.939   0.429  11.338 -0.2128 -0.3812 -0.4389
 4337SOL    HW124647   0.943   0.357  11.275 -2.2351  0.4480 -1.5149
 4337SOL    HW224648   0.993   0.387  11.405  4.1721  1.1355 -3.0107
 4338SOL     OW24649   2.648   0.681   5.119 -0.2891 -0.0234 -0.4101
 4338SOL    HW124650   2.640   0.711   5.029  0.2286 -1.4059 -0.9248
 4338SOL    HW224651   2.698   0.756   5.152 -1.9821  0.2845  1.4530
 4339SOL     OW24652   0.341   3.815   2.043  0.6154  0.1565  0.9123
 4339SOL    HW124653   0.283   3.775   1.979  1.0844  0.6979  0.1420
 4339SOL    HW224654   0.314   3.767   2.122 -0.0686  0.2117  0.7093
 4340SOL     OW24655   3.436   2.598   0.387  0.4000 -0.3198 -0.0897
 4340SOL    HW124656   3.502   2.537   0.353  0.7720 -0.1308  0.2954
 4340SOL    HW224657   3.378   2.532   0.424 -0.4402  1.3780  1.6270
 4341SOL     OW24658   2.875   3.167   3.437  0.1324  0.7796  0.4388
 4341SOL    HW124659   2.817   3.120   3.377 -0.6171  1.4001  0.6816
 4341SOL    HW224660   2.845   3.252   3.407 -2.7047 -0.3405  0.1288
 4342SOL     OW24661   4.169   0.892   7.097  0.1540 -0.1484 -0.2159
 4342SOL    HW124662   4.144   0.840   7.174  0.0862  0.2725  0.0449
 4342SOL    HW224663   4.169   0.981   7.131  2.2487 -0.9793  2.0137
 4343SOL     OW24664   1.294   2.100   4.207 -0.1401  0.0796  0.4996
 4343SOL    HW124665   1.314   2.190   4.233  1.4624 -0.2936  0.5692
 4343SOL    HW224666   1.218   2.084   4.263 -0.0784  1.2937  0.9372
 4344SOL     OW24667   1.887   2.951   4.076  0.0268  0.0792 -0.1870
 4344SOL    HW124668   1.973   2.992   4.061 -0.1547  0.0192 -1.4235
 4344SOL    HW224669   1.869   2.909   3.992 -3.5853 -0.2850  0.7567
 4345SOL     OW24670   3.234   1.194   2.197 -0.3659  0.2066  0.0918
 4345SOL    HW124671   3.193   1.113   2.226  1.1277 -0.4140  0.4523
 4345SOL    HW224672   3.221   1.203   2.103  0.7239  0.6715 -0.0238
 4346SOL     OW24673   2.118   0.860   2.837 -0.4067 -0.0972 -0.0325
 4346SOL    HW124674   2.179   0.925   2.873  1.2826 -0.6326 -1.9277
 4346SOL    HW224675   2.115   0.875   2.743  2.5454  0.8246  0.0308
 4347SOL     OW24676   0.788   2.331  10.005 -0.2116 -0.3103 -0.3175
 4347SOL    HW124677   0.831   2.413  10.031  0.0570  0.0519 -1.8686
 4347SOL    HW224678   0.774   2.288  10.089  0.1512  0.9932  0.4123
 4348SOL     OW24679   1.320   3.762   3.427 -0.0870 -0.0301  0.4511
 4348SOL    HW124680   1.237   3.785   3.470  2.4083 -0.6188  5.5799
 4348SOL    HW224681   1.345   3.691   3.486  0.9236  1.1496  1.4198
 4349SOL     OW24682   4.380   2.039   8.553  0.3626  0.6743  0.1124
 4349SOL    HW124683   4.359   1.947   8.566 -0.6194  0.7882 -0.7164
 4349SOL    HW224684   4.330   2.074   8.626 -0.1452  0.2641 -0.0363
 4350SOL     OW24685   4.624   3.776   9.507 -0.2895  0.6112  0.3827
 4350SOL    HW124686   4.633   3.868   9.530 -0.7991  1.4652 -2.9703
 4350SOL    HW224687   4.628   3.739   9.596  0.2918 -1.7781 -0.6274
 4351SOL     OW24688   4.150   3.866   7.849 -0.7147 -0.1885  0.0118
 4351SOL    HW124689   4.194   3.941   7.808 -0.5558  0.4016  1.2537
 4351SOL    HW224690   4.134   3.916   7.929 -1.0278  0.5674 -0.5181
 4352SOL     OW24691   2.714   3.925  10.544 -0.1146  0.2554 -0.0129
 4352SOL    HW124692   2.780   3.868  10.583 -1.3510 -2.4218 -1.8579
 4352SOL    HW224693   2.723   3.906  10.451 -0.1258 -0.2444  0.0901
 4353SOL     OW24694   2.923   2.252   8.390 -0.1495 -0.5416 -0.5996
 4353SOL    HW124695   2.996   2.194   8.411  0.2227 -1.3877 -4.2382
 4353SOL    HW224696   2.955   2.293   8.309  1.2874  0.1341  0.3232
 4354SOL     OW24697   3.737   3.881   0.089  0.1346 -0.4796 -0.1243
 4354SOL    HW124698   3.730   3.859   0.182  0.3449  3.1670  0.7172
 4354SOL    HW224699   3.820   3.928   0.085 -0.1003 -0.0218  0.5275
 4355SOL     OW24700   1.447   2.077   8.704  0.3996  0.0080 -0.0377
 4355SOL    HW124701   1.409   2.161   8.681  1.0864  0.3604  0.1107
 4355SOL    HW224702   1.382   2.041   8.764 -0.8379 -0.0181 -1.3934
 4356SOL     OW24703   4.227   0.423   7.521 -0.1147 -0.2733 -0.3898
 4356SOL    HW124704   4.299   0.374   7.562 -0.2827 -0.2248 -0.0371
 4356SOL    HW224705   4.148   0.379   7.553 -1.4376  2.0060 -0.5383
 4357SOL     OW24706   1.629   2.593   4.757  0.2708  0.1063  0.2255
 4357SOL    HW124707   1.602   2.503   4.777 -1.9118  0.3204 -1.6716
 4357SOL    HW224708   1.723   2.582   4.746  0.0845 -1.1718 -0.0887
 4358SOL     OW24709   3.672   0.540   2.399  0.3362 -0.1032  0.6981
 4358SOL    HW124710   3.600   0.488   2.436 -0.1439  0.8633  1.1174
 4358SOL    HW224711   3.662   0.619   2.451  1.2713 -1.2137  2.5708
 4359SOL     OW24712   0.680   3.159   1.311  0.2719  0.2287 -0.0257
 4359SOL    HW124713   0.714   3.112   1.235  1.7084  0.4102  0.5025
 4359SOL    HW224714   0.744   3.231   1.315 -1.5493  1.8562  0.1144
 4360SOL     OW24715   1.375   0.101  12.456 -0.1694 -0.2659 -0.1685
 4360SOL    HW124716   1.301   0.126  12.511 -0.6087 -0.8639 -0.4860
 4360SOL    HW224717   1.373   0.007  12.476  0.1999 -0.4805 -1.1212
 4361SOL     OW24718   0.845   3.080   4.316  0.8004 -0.1028  0.4849
 4361SOL    HW124719   0.754   3.092   4.288  0.3382  1.4220  2.5971
 4361SOL    HW224720   0.844   3.146   4.386 -1.4099  1.7359 -1.2552
 4362SOL     OW24721   2.095   3.902   2.711  0.6799 -0.6350 -0.4700
 4362SOL    HW124722   2.126   3.990   2.689  0.4229 -0.1931  0.9087
 4362SOL    HW224723   2.178   3.862   2.739  1.3166  0.7172 -0.4493
 4363SOL     OW24724   4.474   1.063  12.259  0.5199  0.3781 -0.0230
 4363SOL    HW124725   4.503   1.153  12.275  1.8226 -0.5159  2.6934
 4363SOL    HW224726   4.440   1.031  12.343  2.8635  1.2368  1.2648
 4364SOL     OW24727   2.014   2.020   8.676  0.3069 -0.2826 -0.2952
 4364SOL    HW124728   1.947   2.063   8.622 -1.3170 -2.0161  0.3420
 4364SOL    HW224729   1.999   1.927   8.657 -0.1938 -0.4234  0.7785
 4365SOL     OW24730   4.103   4.266   1.048  0.4101 -0.0810 -0.0461
 4365SOL    HW124731   4.135   4.188   1.004  3.7255  0.5287  1.2452
 4365SOL    HW224732   4.047   4.296   0.977  1.3109  0.0111 -0.7177
 4366SOL     OW24733   3.229   3.578   9.185  0.1790 -0.3358  0.4272
 4366SOL    HW124734   3.201   3.589   9.276 -1.4047  1.5081 -0.2915
 4366SOL    HW224735   3.296   3.512   9.202 -0.7764 -0.9759  1.7339
 4367SOL     OW24736   2.679   2.146   2.802  0.4897  0.5740 -0.3143
 4367SOL    HW124737   2.662   2.098   2.883 -2.2732  1.2563 -0.4893
 4367SOL    HW224738   2.669   2.077   2.736  0.4012  0.5894 -0.3171
 4368SOL     OW24739   0.091   1.836   7.436  0.1986 -0.5043  0.1739
 4368SOL    HW124740   0.059   1.858   7.349 -1.9193  1.3841  1.4293
 4368SOL    HW224741   0.085   1.917   7.487  1.5307  0.2259 -0.8221
 4369SOL     OW24742   1.346   0.329   5.792 -0.2463  0.1349 -0.7966
 4369SOL    HW124743   1.395   0.263   5.841  0.6274  1.6489  0.3753
 4369SOL    HW224744   1.334   0.393   5.862  0.9672 -0.6563  0.1459
 4370SOL     OW24745   3.693   1.727   6.704 -0.3582  0.3413 -0.4123
 4370SOL    HW124746   3.647   1.723   6.619 -0.1042  0.0754 -0.5375
 4370SOL    HW224747   3.666   1.808   6.746 -2.2627  0.1913 -1.3163
 4371SOL     OW24748   3.748   3.353   1.092  0.4542 -1.1377  1.0405
 4371SOL    HW124749   3.743   3.342   0.997 -2.0359 -0.4654  1.0952
 4371SOL    HW224750   3.784   3.441   1.098 -0.6430 -0.4558 -2.3781
 4372SOL     OW24751   2.520   0.928   7.764 -0.1689  0.3347  0.2086
 4372SOL    HW124752   2.593   0.988   7.748 -1.5486  1.6767 -0.9874
 4372SOL    HW224753   2.463   0.986   7.813  1.4398  2.4548 -0.4656
 4373SOL     OW24754   2.017   1.017   1.618 -0.3279 -0.5308  0.0249
 4373SOL    HW124755   1.960   1.076   1.667 -2.3814 -1.1355 -1.6650
 4373SOL    HW224756   2.107   1.036   1.646 -0.4983 -1.6423  1.3100
 4374SOL     OW24757   1.184   0.944   6.942  0.1119  0.2788 -0.4008
 4374SOL    HW124758   1.123   0.920   7.013 -1.5252 -2.3443 -2.6988
 4374SOL    HW224759   1.203   1.030   6.979  3.8454 -0.7593  0.1364
 4375SOL     OW24760   2.834   2.760   9.012  0.4522 -0.1904  0.2757
 4375SOL    HW124761   2.805   2.700   9.081  0.3731  3.1400  3.1011
 4375SOL    HW224762   2.765   2.825   9.019 -0.2314 -0.7198 -1.4537
 4376SOL     OW24763   0.544   3.385   4.125  0.2234  0.2531 -0.0766
 4376SOL    HW124764   0.605   3.452   4.155 -2.1889  1.8858  1.1123
 4376SOL    HW224765   0.463   3.428   4.152  1.0146 -0.2828  3.2255
 4377SOL     OW24766   2.110   3.310   4.447  0.5835  0.2995  0.0095
 4377SOL    HW124767   2.111   3.367   4.370 -1.7918 -0.5418 -0.6452
 4377SOL    HW224768   2.200   3.281   4.430  0.9500  2.2494 -1.4704
 4378SOL     OW24769   0.177   3.204  17.414  0.4070 -0.0278  0.1056
 4378SOL    HW124770   0.268   3.177  17.425  0.1812 -1.1181 -0.6460
 4378SOL    HW224771   0.188   3.287  17.460  2.6838  0.5278 -1.4573
 4379SOL     OW24772   4.224   3.700   8.361  0.4431 -0.0716  0.1234
 4379SOL    HW124773   4.180   3.615   8.369 -0.7378  0.5386  0.1402
 4379SOL    HW224774   4.222   3.718   8.267 -1.6784 -1.1057 -0.0227
 4380SOL     OW24775   4.508   0.721  16.183  0.1636 -0.4417  0.2617
 4380SOL    HW124776   4.599   0.692  16.185 -0.6073 -2.7745  2.2181
 4380SOL    HW224777   4.500   0.743  16.276  1.0771  0.9380  0.0094
 4381SOL     OW24778   3.371   4.495   8.306  0.2365 -0.0010  0.6533
 4381SOL    HW124779   3.401   4.404   8.316  0.4071 -0.1338 -1.0520
 4381SOL    HW224780   3.322   4.506   8.387 -0.2151 -0.6596  0.4735
 4382SOL     OW24781   4.415   3.551   5.045 -0.0675 -0.2636  0.8972
 4382SOL    HW124782   4.463   3.541   4.963 -2.0296  1.2719 -0.4272
 4382SOL    HW224783   4.327   3.578   5.019  0.1824 -0.7655 -0.4590
 4383SOL     OW24784   4.412   1.412   3.025  0.1444 -0.0353 -0.4614
 4383SOL    HW124785   4.380   1.342   3.083 -0.9324 -0.2027 -1.2744
 4383SOL    HW224786   4.485   1.449   3.076 -0.7037  0.2124  0.5796
 4384SOL     OW24787   1.404   3.591  13.147 -0.5575 -0.3743  0.1380
 4384SOL    HW124788   1.466   3.584  13.220  0.2677 -0.6849 -0.5935
 4384SOL    HW224789   1.341   3.658  13.175 -0.0407 -0.7354  2.1475
 4385SOL     OW24790   1.357   2.761   8.559  0.0459  0.2207  0.4420
 4385SOL    HW124791   1.323   2.770   8.470 -0.6800 -1.7022  0.5344
 4385SOL    HW224792   1.315   2.682   8.593 -0.3120  0.9318  1.6237
 4386SOL     OW24793   0.806   2.836   6.879  0.7172  0.0797 -0.1028
 4386SOL    HW124794   0.739   2.781   6.919  0.6344  0.4339  0.2429
 4386SOL    HW224795   0.824   2.902   6.947 -1.5182  0.1127  0.4556
 4387SOL     OW24796   0.622   0.326   3.508 -0.1277 -0.7658  0.3975
 4387SOL    HW124797   0.686   0.397   3.508 -1.2066  0.2080 -1.2965
 4387SOL    HW224798   0.648   0.279   3.588  0.0612  1.9485  1.9435
 4388SOL     OW24799   4.296   1.028  16.642 -0.9166 -0.3307  0.2836
 4388SOL    HW124800   4.284   1.090  16.713 -1.6626  0.3468 -0.4316
 4388SOL    HW224801   4.218   1.045  16.589  0.6437 -0.8137 -2.2203
 4389SOL     OW24802   4.727   1.786   4.032 -0.3519  0.0378 -0.6419
 4389SOL    HW124803   4.685   1.708   4.067 -0.8856  0.6586  0.0966
 4389SOL    HW224804   4.654   1.846   4.014 -0.2450  0.1412 -0.7358
 4390SOL     OW24805   0.696   1.822   5.738  0.1504  0.5611  0.5210
 4390SOL    HW124806   0.747   1.780   5.668 -1.8435 -0.1180 -0.5088
 4390SOL    HW224807   0.742   1.791   5.817 -4.4215  1.4005  3.5076
 4391SOL     OW24808   1.774   4.467   3.099 -0.2942  0.0938  0.1016
 4391SOL    HW124809   1.820   4.392   3.136  2.4228  1.5217 -0.3836
 4391SOL    HW224810   1.831   4.536   3.133 -0.5393  0.5690 -0.4520
 4392SOL     OW24811   1.228   0.764  14.624  0.0651 -0.4504 -0.2775
 4392SOL    HW124812   1.308   0.726  14.590 -0.2147 -1.2194 -0.0790
 4392SOL    HW224813   1.168   0.769  14.549  1.3513  2.7225 -1.1099
 4393SOL     OW24814   1.608   3.543   2.847  0.3273  0.1739 -0.3871
 4393SOL    HW124815   1.555   3.464   2.858  0.6116 -0.2664 -2.1221
 4393SOL    HW224816   1.697   3.513   2.865  0.5984  1.8903  1.1137
 4394SOL     OW24817   0.851   1.567  11.451  0.1730 -0.2826 -0.0030
 4394SOL    HW124818   0.826   1.501  11.516  0.4333 -0.3046  0.0735
 4394SOL    HW224819   0.946   1.559  11.460  0.2926  0.3741 -0.6416
 4395SOL     OW24820   4.164   3.255   0.953  0.0508  0.0209  0.2516
 4395SOL    HW124821   4.238   3.302   0.991  0.7302  0.3620 -1.5185
 4395SOL    HW224822   4.101   3.326   0.941  1.0937  0.9601  0.2714
 4396SOL     OW24823   1.589   0.889   3.871 -0.0643 -0.4626 -0.0924
 4396SOL    HW124824   1.560   0.958   3.931 -0.7251 -0.1339 -0.7848
 4396SOL    HW224825   1.587   0.812   3.928  2.3085 -0.6623 -0.2713
 4397SOL     OW24826   3.435   3.640   6.670 -0.7110 -0.3111 -0.5281
 4397SOL    HW124827   3.345   3.607   6.677 -0.5724 -0.8190 -1.1623
 4397SOL    HW224828   3.435   3.694   6.591  0.8395 -0.5086 -0.6636
 4398SOL     OW24829   4.320   4.664   3.250  0.0092  0.4336 -0.8810
 4398SOL    HW124830   4.230   4.680   3.223 -0.2598  0.9640  0.3659
 4398SOL    HW224831   4.356   0.007   3.285  2.7575 -0.5715 -1.3965
 4399SOL     OW24832   3.770   0.594  15.668  0.2481  0.1590 -0.3675
 4399SOL    HW124833   3.749   0.561  15.755 -0.9220  0.0996 -0.6710
 4399SOL    HW224834   3.856   0.555  15.656  0.1087  0.6692 -3.0430
 4400SOL     OW24835   3.155   3.511  17.558  0.0027 -0.6340 -0.4080
 4400SOL    HW124836   3.078   3.458  17.581 -1.8426  1.2502 -2.1579
 4400SOL    HW224837   3.151   3.588  17.615  1.3040 -1.7196  1.1459
 4401SOL     OW24838   2.463   4.300   8.966 -0.1298  0.6605 -0.2000
 4401SOL    HW124839   2.515   4.232   8.923  0.6073 -0.1134  1.9595
 4401SOL    HW224840   2.521   4.336   9.033 -0.8567  1.8618 -0.2057
 4402SOL     OW24841   1.399   4.633   9.934 -0.0240 -0.3247 -0.3310
 4402SOL    HW124842   1.427   4.542   9.940  2.0174  0.3144 -0.1543
 4402SOL    HW224843   1.405   4.668  10.023 -1.1305  0.5685 -0.6148
 4403SOL     OW24844   3.486   3.827  12.163  0.7453 -0.2208 -0.8679
 4403SOL    HW124845   3.434   3.757  12.122 -0.7518  0.5276 -0.2467
 4403SOL    HW224846   3.476   3.893  12.094  1.0355  0.0879 -0.6102
 4404SOL     OW24847   1.450   3.447  14.256  0.0353  0.0898  0.6895
 4404SOL    HW124848   1.468   3.353  14.269  1.4486  0.0901 -1.1385
 4404SOL    HW224849   1.540   3.478  14.249 -0.0162 -0.1577 -1.0556
 4405SOL     OW24850   0.181   1.418  17.285 -0.3195  0.6037 -0.0743
 4405SOL    HW124851   0.252   1.382  17.338 -0.0854 -0.0601 -0.8288
 4405SOL    HW224852   0.230   1.458  17.213 -0.4992  0.4616 -0.2762
 4406SOL     OW24853   3.941   2.145   7.120  0.6092 -0.3108 -0.2249
 4406SOL    HW124854   4.012   2.150   7.056  0.5402 -0.3471 -0.3038
 4406SOL    HW224855   3.881   2.206   7.076  0.6725 -0.4244 -0.4694
 4407SOL     OW24856   1.630   2.592   2.199  0.6153 -0.3051  0.2558
 4407SOL    HW124857   1.717   2.567   2.229  0.3686  1.7566  2.7270
 4407SOL    HW224858   1.613   2.661   2.263  1.9539 -0.2160  0.5052
 4408SOL     OW24859   1.931   1.345   6.431  0.4007  0.0875  0.0618
 4408SOL    HW124860   1.837   1.357   6.442  0.4016 -0.5929  0.8673
 4408SOL    HW224861   1.954   1.410   6.364 -1.2075  0.0512 -0.5118
 4409SOL     OW24862   0.322   0.787   7.262  0.2399 -0.3955 -0.1573
 4409SOL    HW124863   0.374   0.816   7.337  0.9140 -0.5566 -0.5693
 4409SOL    HW224864   0.353   0.699   7.244  0.1714  0.0420 -2.3370
 4410SOL     OW24865   3.966   2.232   7.380 -0.1992 -0.5937 -0.5428
 4410SOL    HW124866   3.950   2.178   7.302 -0.4356 -0.8670 -0.3042
 4410SOL    HW224867   4.049   2.198   7.412 -0.8544 -2.5575 -0.9177
 4411SOL     OW24868   1.207   4.683   7.557  0.4492  0.3685  0.0157
 4411SOL    HW124869   1.138   4.623   7.585  1.7845 -0.6429  1.1344
 4411SOL    HW224870   1.146   0.016   7.536  2.2777  0.7402 -3.9630
 4412SOL     OW24871   2.128   2.385  14.468 -0.2641 -0.0777 -0.1086
 4412SOL    HW124872   2.078   2.316  14.512 -0.4247  0.3009  0.2983
 4412SOL    HW224873   2.209   2.334  14.473  0.0678  0.5855  1.4748
 4413SOL     OW24874   3.330   1.811   0.332 -0.1194 -0.2701 -0.4089
 4413SOL    HW124875   3.418   1.781   0.354  0.9881  2.2752 -1.4525
 4413SOL    HW224876   3.290   1.731   0.298 -0.1225 -0.4458  0.0126
 4414SOL     OW24877   0.222   3.066   6.710 -0.2578 -0.3457 -0.3759
 4414SOL    HW124878   0.297   3.125   6.723  0.1293 -0.8091 -0.5412
 4414SOL    HW224879   0.264   2.981   6.716 -0.8883 -0.6190  0.1782
 4415SOL     OW24880   2.265   1.429   3.870 -0.0171  0.5524  0.1999
 4415SOL    HW124881   2.177   1.423   3.906  0.2119  0.9060  0.8316
 4415SOL    HW224882   2.262   1.514   3.827  0.9677  1.4340  1.8565
 4416SOL     OW24883   2.820   3.345   4.498 -0.0415  0.5791  0.2999
 4416SOL    HW124884   2.872   3.284   4.551  0.4438 -0.2465 -1.1444
 4416SOL    HW224885   2.748   3.292   4.465  0.0334  0.0354  1.0058
 4417SOL     OW24886   3.393   4.616   9.173 -0.4168  0.6924 -0.4380
 4417SOL    HW124887   3.420   4.558   9.244 -1.6946 -0.8025 -1.1636
 4417SOL    HW224888   3.348   4.551   9.119  2.1319 -2.2664  1.0160
 4418SOL     OW24889   4.295   0.348  11.374 -0.0234  0.3415 -0.0095
 4418SOL    HW124890   4.229   0.292  11.416 -1.4037  0.8631 -1.5167
 4418SOL    HW224891   4.254   0.354  11.288 -0.1176 -4.4436 -0.3119
 4419SOL     OW24892   3.296   3.479   6.284 -0.7118  0.0107 -0.4992
 4419SOL    HW124893   3.380   3.438   6.264 -0.3814  1.1468 -1.4637
 4419SOL    HW224894   3.239   3.402   6.280 -1.0364  0.2754 -0.9297
 4420SOL     OW24895   4.400   3.219   7.060  0.4786  0.3862 -0.6342
 4420SOL    HW124896   4.460   3.146   7.044  0.0179 -0.4634  1.4788
 4420SOL    HW224897   4.350   3.209   6.979 -2.6284  1.7598  1.1037
 4421SOL     OW24898   2.461   2.369   3.878  0.4982 -0.1826  0.2499
 4421SOL    HW124899   2.510   2.422   3.941  2.2456 -1.3147 -0.1360
 4421SOL    HW224900   2.541   2.339   3.834 -0.4456  2.8811 -3.4799
 4422SOL     OW24901   3.872   1.132   2.143 -0.5706 -0.3729 -0.0525
 4422SOL    HW124902   3.963   1.149   2.120 -0.4088 -1.5264 -0.2405
 4422SOL    HW224903   3.838   1.214   2.181 -0.5335 -0.2144 -0.3606
 4423SOL     OW24904   3.363   0.930   5.187 -0.2368  0.5166  0.4723
 4423SOL    HW124905   3.361   1.011   5.135 -2.4728  0.3237  0.2562
 4423SOL    HW224906   3.416   0.869   5.135 -0.9999 -1.0667  1.5653
 4424SOL     OW24907   3.679   3.976   0.542  0.0267 -0.1565 -0.0679
 4424SOL    HW124908   3.630   3.930   0.474 -2.1503  2.2926 -0.1829
 4424SOL    HW224909   3.746   3.911   0.559 -0.2157 -0.3977 -0.0346
 4425SOL     OW24910   4.087   1.195  13.985 -0.8100 -0.1099 -0.1758
 4425SOL    HW124911   4.166   1.162  13.941  1.1933  2.5290  1.4021
 4425SOL    HW224912   4.092   1.173  14.078 -1.3977  0.6080  0.0215
 4426SOL     OW24913   0.831   0.918   6.909  0.4641 -0.1031  0.2095
 4426SOL    HW124914   0.818   1.010   6.933  2.4452  0.2880 -0.1414
 4426SOL    HW224915   0.876   0.880   6.984  0.3740 -2.7415 -1.0577
 4427SOL     OW24916   0.755   0.485   7.928 -0.1021 -0.1901  0.3672
 4427SOL    HW124917   0.743   0.568   7.976  1.5929  0.4609 -0.3412
 4427SOL    HW224918   0.685   0.434   7.970 -0.1063  0.0610  0.6682
 4428SOL     OW24919   2.878   4.181  16.090 -0.7805  0.5625 -0.4353
 4428SOL    HW124920   2.866   4.153  16.180 -2.1982 -2.3404 -1.5276
 4428SOL    HW224921   2.889   4.101  16.039  0.0568 -0.4715  1.3704
 4429SOL     OW24922   0.036   0.926  11.555 -0.1253 -0.3295  0.2153
 4429SOL    HW124923   0.066   0.927  11.646 -0.2163 -0.3321  0.2454
 4429SOL    HW224924   0.104   0.882  11.505 -1.3640 -1.5180 -0.3987
 4430SOL     OW24925   2.409   0.391   4.190  0.2272  0.7574  0.0195
 4430SOL    HW124926   2.401   0.306   4.146 -0.0038  2.1981 -2.6700
 4430SOL    HW224927   2.488   0.380   4.243  1.1167  1.7576 -1.1248
 4431SOL     OW24928   0.469   1.200   2.883  0.2722  0.2756  0.3549
 4431SOL    HW124929   0.414   1.151   2.944  1.0367 -0.7765  0.2084
 4431SOL    HW224930   0.491   1.134   2.817 -0.1494  0.8299 -0.3328
 4432SOL     OW24931   4.561   0.069   7.851 -0.2012 -0.1439 -0.1466
 4432SOL    HW124932   4.641   0.063   7.799  0.2822  2.6796  0.2971
 4432SOL    HW224933   4.527   4.717   7.846 -1.4728  0.1437  3.2953
 4433SOL     OW24934   1.126   0.843  17.089 -0.8851 -0.1355  0.0153
 4433SOL    HW124935   1.177   0.917  17.056  1.0418 -2.2084 -1.5762
 4433SOL    HW224936   1.056   0.842  17.023 -0.6746 -1.0529 -0.1842
 4434SOL     OW24937   1.328   4.660   6.477  0.3325  0.4521 -0.2199
 4434SOL    HW124938   1.392   4.669   6.406 -0.0908  1.3883 -0.4850
 4434SOL    HW224939   1.263   4.729   6.465  0.2069  0.3502 -0.1163
 4435SOL     OW24940   3.992   2.518   4.074  0.6379  0.3708  0.0975
 4435SOL    HW124941   4.072   2.562   4.102  0.4045  0.9611 -0.1752
 4435SOL    HW224942   4.012   2.425   4.062 -1.4576  0.2568 -2.5151
 4436SOL     OW24943   3.378   2.529   9.300  0.2394  0.1064 -0.1747
 4436SOL    HW124944   3.408   2.440   9.279  1.1749  0.4628 -0.3635
 4436SOL    HW224945   3.455   2.586   9.296 -0.6108  1.1132 -1.8462
 4437SOL     OW24946   4.576   1.146   6.688  0.4877 -0.2451 -0.0481
 4437SOL    HW124947   4.560   1.101   6.771  1.9723  1.6102  1.2609
 4437SOL    HW224948   4.668   1.132   6.663 -0.1069  0.9056 -2.8087
 4438SOL     OW24949   3.939   3.552   1.709 -0.4124  0.6737 -0.1488
 4438SOL    HW124950   4.034   3.560   1.714 -0.1454 -3.2275  1.8006
 4438SOL    HW224951   3.898   3.634   1.734 -0.6532  0.1076  1.3213
 4439SOL     OW24952   0.307   1.610   4.196 -0.2172  0.3167 -0.0404
 4439SOL    HW124953   0.389   1.616   4.246  0.4049  1.1012 -1.1564
 4439SOL    HW224954   0.237   1.632   4.256  0.6214  0.3676  0.9257
 4440SOL     OW24955   1.178   3.557  13.484 -0.2597  0.2237  0.0379
 4440SOL    HW124956   1.209   3.473  13.449  0.4219  0.9743 -1.1668
 4440SOL    HW224957   1.085   3.557  13.462  0.1881  1.0656 -1.8441
 4441SOL     OW24958   3.971   2.861  15.814  0.1798  0.1236  0.1373
 4441SOL    HW124959   3.912   2.908  15.756  1.0568  0.3448 -0.5846
 4441SOL    HW224960   4.026   2.935  15.843 -0.4820  1.2067 -1.3893
 4442SOL     OW24961   2.518   3.171  10.190  0.2955  0.1897 -0.6005
 4442SOL    HW124962   2.450   3.238  10.190  0.6312  0.5160  1.2686
 4442SOL    HW224963   2.524   3.151  10.283 -0.7591  4.4814  0.3871
 4443SOL     OW24964   0.029   0.246  17.466  0.1965  0.2707 -0.3653
 4443SOL    HW124965   0.005   0.219  17.554  0.1141  1.8232  0.0893
 4443SOL    HW224966   0.014   0.341  17.475 -0.0109  0.2659 -0.6460
 4444SOL     OW24967   1.162   0.780   0.165  0.0328 -0.1885 -0.2994
 4444SOL    HW124968   1.164   0.799   0.259 -3.2211 -3.3440  0.4369
 4444SOL    HW224969   1.136   0.688   0.166  0.2312 -0.2429  0.7278
 4445SOL     OW24970   3.253   1.257  11.910  0.3240 -0.5154 -0.5718
 4445SOL    HW124971   3.262   1.352  11.900 -0.0973 -0.3851  0.2961
 4445SOL    HW224972   3.299   1.234  11.829  3.2134 -0.0973  0.9328
 4446SOL     OW24973   4.505   2.627   2.557  0.0794 -0.1705  0.3733
 4446SOL    HW124974   4.427   2.624   2.502 -1.4157  1.5797  2.3830
 4446SOL    HW224975   4.477   2.684   2.628 -0.0196 -0.8370  0.8727
 4447SOL     OW24976   1.188   3.889   9.756 -0.1928  0.6665  0.0673
 4447SOL    HW124977   1.251   3.856   9.821  1.3532  0.4753 -1.5377
 4447SOL    HW224978   1.245   3.957   9.720 -2.2653  1.7010 -1.2329
 4448SOL     OW24979   2.952   2.842   7.160 -0.5538  0.6024  0.2482
 4448SOL    HW124980   3.045   2.857   7.143 -0.2440 -2.1601 -0.5787
 4448SOL    HW224981   2.931   2.883   7.076 -0.7514  0.1184  0.0617
 4449SOL     OW24982   4.100   4.275   7.065 -0.3771  0.1778  0.2559
 4449SOL    HW124983   4.033   4.294   6.999  0.2524  0.4223 -0.3042
 4449SOL    HW224984   4.118   4.182   7.050  1.2803  0.3101  1.4675
 4450SOL     OW24985   2.378   4.693   7.099 -0.1270 -0.6668 -0.3774
 4450SOL    HW124986   2.311   0.003   7.148 -1.6566 -1.9068 -1.2750
 4450SOL    HW224987   2.447   4.694   7.165 -0.6794  1.2366  0.1758
 4451SOL     OW24988   4.224   1.378   4.025  0.2057  0.4979 -0.2149
 4451SOL    HW124989   4.223   1.458   3.972  2.6784  1.1526  0.7024
 4451SOL    HW224990   4.318   1.366   4.037 -0.0871 -0.5346  1.0078
 4452SOL     OW24991   3.800   0.989   8.003 -0.0833 -0.2075  0.2237
 4452SOL    HW124992   3.865   1.052   7.971  0.1977  0.2958  1.7850
 4452SOL    HW224993   3.757   0.967   7.920 -2.0324  0.4870  1.0378
 4453SOL     OW24994   2.098   4.001   7.744 -0.3386 -0.3311 -0.3354
 4453SOL    HW124995   2.093   3.925   7.802  0.3730 -1.2403 -1.4760
 4453SOL    HW224996   2.124   3.960   7.662  1.9561 -0.6206  0.5535
 4454SOL     OW24997   1.142   2.838   2.741  0.2400 -0.3606  0.2649
 4454SOL    HW124998   1.220   2.881   2.777 -0.3589  1.4228 -0.5664
 4454SOL    HW224999   1.152   2.867   2.650 -2.1425 -0.3068  0.0229
 4455SOL     OW25000   0.897   0.923   3.889  0.3014 -0.6465  0.5759
 4455SOL    HW125001   0.856   0.837   3.880 -0.1535 -0.3234 -0.4504
 4455SOL    HW225002   0.928   0.944   3.801 -0.9081 -1.8861 -0.1481
 4456SOL     OW25003   1.611   3.528   4.723  0.3188 -0.0505  0.0528
 4456SOL    HW125004   1.663   3.461   4.769 -0.3894 -0.1737  0.6736
 4456SOL    HW225005   1.533   3.526   4.778 -0.9220 -1.3261 -1.7656
 4457SOL     OW25006   3.482   1.119   8.212  0.0107 -0.0406  0.3863
 4457SOL    HW125007   3.427   1.176   8.158  0.3024 -0.6599 -0.5551
 4457SOL    HW225008   3.519   1.184   8.271 -1.2594  1.3444 -0.3432
 4458SOL     OW25009   4.674   3.018   6.558 -0.2127  0.3435  0.4096
 4458SOL    HW125010   0.028   3.030   6.582  0.1239  0.2667 -0.8131
 4458SOL    HW225011   4.647   3.109   6.569 -2.3206 -0.4027  1.3855
 4459SOL     OW25012   2.577   2.679   9.801  0.1256  0.0941 -0.0234
 4459SOL    HW125013   2.592   2.773   9.786  2.1299 -0.3917 -1.0816
 4459SOL    HW225014   2.590   2.682   9.895 -1.8236  1.5750  0.2022
 4460SOL     OW25015   4.396   1.855   2.211 -0.0871  0.0300 -0.0080
 4460SOL    HW125016   4.476   1.906   2.222 -0.2985  0.4841 -0.5239
 4460SOL    HW225017   4.392   1.809   2.294 -1.2775  2.1635  1.1316
 4461SOL     OW25018   2.161   3.118   3.832  0.1739  0.1000  0.2455
 4461SOL    HW125019   2.141   3.127   3.926 -0.5900  1.5884 -0.0575
 4461SOL    HW225020   2.256   3.114   3.834  0.1806  0.1665  0.0412
 4462SOL     OW25021   3.780   0.686   7.597 -0.2489  0.2257 -0.1578
 4462SOL    HW125022   3.776   0.745   7.672  1.3105  2.4611 -1.8562
 4462SOL    HW225023   3.875   0.689   7.586 -0.1455 -0.8522  0.3844
 4463SOL     OW25024   4.467   1.198   3.375  0.5612  0.2654  0.4032
 4463SOL    HW125025   4.435   1.107   3.372  0.9017  0.1510  0.2636
 4463SOL    HW225026   4.419   1.218   3.455  1.6738 -0.7780  1.3382
 4464SOL     OW25027   4.243   4.129   5.302 -0.0206 -0.1342 -0.2967
 4464SOL    HW125028   4.176   4.062   5.312 -2.2356  2.0736 -0.4076
 4464SOL    HW225029   4.217   4.186   5.375  1.1942  1.5162 -1.1409
 4465SOL     OW25030   1.984   3.544   0.961 -0.4734 -0.5391 -0.2430
 4465SOL    HW125031   1.989   3.633   0.995 -1.6587  0.2183 -2.0598
 4465SOL    HW225032   2.031   3.553   0.879 -0.6496  3.1258  0.0681
 4466SOL     OW25033   3.641   3.942   9.084 -0.0317  0.6333 -0.4575
 4466SOL    HW125034   3.624   3.857   9.044  0.2016 -0.9681  2.8445
 4466SOL    HW225035   3.635   4.007   9.014 -0.3555  0.9401 -0.1434
 4467SOL     OW25036   4.615   1.266  16.663 -1.0406  0.7841 -0.1907
 4467SOL    HW125037   4.635   1.275  16.570  1.9472 -1.2090  0.2480
 4467SOL    HW225038   4.670   1.324  16.716  0.8482 -0.7304 -0.4566
 4468SOL     OW25039   2.651   3.920   3.002 -0.1478 -0.5386  0.3739
 4468SOL    HW125040   2.627   3.963   3.084 -1.6935  0.1041 -0.4239
 4468SOL    HW225041   2.696   3.843   3.037  2.5441  1.0224  0.3659
 4469SOL     OW25042   1.640   0.951   7.669  0.1206 -0.1816  0.1930
 4469SOL    HW125043   1.593   0.999   7.736  1.4578  1.3101  0.0758
 4469SOL    HW225044   1.643   0.864   7.709  0.0474  0.0532  0.7067
 4470SOL     OW25045   1.202   2.340   2.068 -0.1855 -0.4398 -0.5697
 4470SOL    HW125046   1.164   2.398   2.003 -0.0970  0.9539  0.6122
 4470SOL    HW225047   1.293   2.369   2.056 -0.2957  1.1510  2.3760
 4471SOL     OW25048   1.164   4.688   4.151  0.5913  0.3638  0.7994
 4471SOL    HW125049   1.077   4.692   4.189  0.3852  1.4341  0.2260
 4471SOL    HW225050   1.206   0.027   4.191 -0.9252  1.5764  0.0415
 4472SOL     OW25051   2.706   1.599   5.783  0.0613 -0.0321 -0.4534
 4472SOL    HW125052   2.715   1.527   5.720  1.8649 -0.3024  0.1221
 4472SOL    HW225053   2.706   1.670   5.719 -0.4752 -0.1003 -0.5295
 4473SOL     OW25054   2.384   2.873  10.329  0.1630 -0.0614 -0.2043
 4473SOL    HW125055   2.387   2.961  10.368  3.6037  0.4486 -1.6001
 4473SOL    HW225056   2.358   2.887  10.238 -1.2962 -2.6748 -0.1893
 4474SOL     OW25057   2.122   4.601   7.472  0.7777 -0.6323 -0.4501
 4474SOL    HW125058   2.038   4.566   7.441 -0.4720  2.2539 -0.3573
 4474SOL    HW225059   2.138   4.555   7.554  1.0656  2.6416  1.3198
 4475SOL     OW25060   3.576   0.487  16.162  0.4330 -0.3123  0.5414
 4475SOL    HW125061   3.510   0.557  16.167  0.3927 -0.4415  1.7239
 4475SOL    HW225062   3.644   0.518  16.221  0.5732  1.1814 -0.3799
 4476SOL     OW25063   3.473   1.456  11.605 -0.6047 -0.2714 -0.1080
 4476SOL    HW125064   3.493   1.483  11.694 -1.5093 -1.4964  0.4634
 4476SOL    HW225065   3.447   1.540  11.567  1.9330  0.0294 -1.1593
 4477SOL     OW25066   2.336   0.735   8.999 -0.2262  0.5507  0.2781
 4477SOL    HW125067   2.251   0.779   9.000 -1.0576 -1.0469  0.0766
 4477SOL    HW225068   2.392   0.800   9.041  3.0187 -3.0594  1.5516
 4478SOL     OW25069   2.880   0.688   5.448 -0.4378 -0.0410  0.1470
 4478SOL    HW125070   2.900   0.741   5.525 -0.7246 -0.4851  0.5287
 4478SOL    HW225071   2.957   0.631   5.440 -1.5904 -1.3729 -1.5878
 4479SOL     OW25072   2.689   4.698  16.690  0.7880  0.0998 -0.1814
 4479SOL    HW125073   2.780   4.690  16.664  0.4008 -1.5467 -1.0338
 4479SOL    HW225074   2.670   0.054  16.685 -0.0012  0.0328  1.6801
 4480SOL     OW25075   2.788   0.894   6.335 -0.0011 -0.5851  0.3387
 4480SOL    HW125076   2.727   0.894   6.409  1.1133  2.6311  1.2880
 4480SOL    HW225077   2.734   0.857   6.265 -0.2427  0.7565 -0.1851
 4481SOL     OW25078   3.253   3.378  16.399  0.2091 -0.1405 -0.6370
 4481SOL    HW125079   3.222   3.304  16.347 -0.9823  0.1401 -0.3355
 4481SOL    HW225080   3.278   3.339  16.483  1.7351 -0.8269 -1.4249
 4482SOL     OW25081   3.933   2.601   1.992  0.4509 -0.4715 -0.2835
 4482SOL    HW125082   3.953   2.672   1.931  1.3834  0.7110  1.4038
 4482SOL    HW225083   4.012   2.549   1.979 -0.3510 -1.3527 -1.6790
 4483SOL     OW25084   4.124   2.289   9.567  0.9951 -0.5408  0.2288
 4483SOL    HW125085   4.176   2.216   9.599 -0.3064 -1.3169  0.5442
 4483SOL    HW225086   4.120   2.351   9.640 -0.5586 -0.7998  0.3626
 4484SOL     OW25087   2.793   0.543   6.231  0.4170  0.1691 -0.3926
 4484SOL    HW125088   2.824   0.585   6.152 -0.2664 -1.0681 -1.3201
 4484SOL    HW225089   2.878   0.538   6.275  0.0923 -1.2702  0.0653
 4485SOL     OW25090   4.542   0.123  15.886 -0.3079  0.1191 -0.1437
 4485SOL    HW125091   4.473   0.174  15.926  2.5579  3.0229  1.1267
 4485SOL    HW225092   4.547   0.157  15.796 -2.1027  0.4188 -0.1130
 4486SOL     OW25093   2.939   1.731  16.959  0.1108  0.2923  0.1887
 4486SOL    HW125094   2.892   1.742  17.042  0.7571  0.4419  0.5353
 4486SOL    HW225095   2.887   1.782  16.896 -1.2134 -1.2999 -0.0192
 4487SOL     OW25096   4.010   1.130   8.653  0.3454 -0.3186  0.0968
 4487SOL    HW125097   4.013   1.219   8.688  1.1588 -0.4197  0.2959
 4487SOL    HW225098   3.918   1.117   8.632  0.0382  0.2341  1.1094
 4488SOL     OW25099   4.735   3.430   3.397 -0.3914  0.5567 -0.3495
 4488SOL    HW125100   4.710   3.338   3.387  2.0632 -0.0724 -0.5648
 4488SOL    HW225101   0.072   3.424   3.337 -0.9153  1.6441 -1.1210
 4489SOL     OW25102   2.824   1.028   1.675  0.1208  0.2805 -0.2415
 4489SOL    HW125103   2.734   1.054   1.656  0.2891  0.7063 -0.4374
 4489SOL    HW225104   2.804   0.936   1.694  0.9371  0.5189  1.8000
 4490SOL     OW25105   4.582   0.268   7.064 -0.1752 -0.1776  0.3279
 4490SOL    HW125106   4.499   0.299   7.100  0.2073  0.4601  0.6616
 4490SOL    HW225107   4.556   0.198   7.005  0.7051  1.3887 -1.9458
 4491SOL     OW25108   3.910   2.414  13.264 -0.7272 -0.3074 -0.6869
 4491SOL    HW125109   3.921   2.364  13.345 -1.5677 -1.3196 -1.1791
 4491SOL    HW225110   3.983   2.382  13.211 -1.5578 -3.4118  0.0277
 4492SOL     OW25111   2.086   0.613   5.066 -0.0248  0.2236 -0.5945
 4492SOL    HW125112   2.159   0.619   5.127 -1.5236  1.4269  1.0528
 4492SOL    HW225113   2.088   0.701   5.029 -1.3235  0.5222  0.0685
 4493SOL     OW25114   4.202   3.337   2.315 -0.4707 -0.2272  0.4706
 4493SOL    HW125115   4.185   3.251   2.278  1.0292 -0.5758  0.5820
 4493SOL    HW225116   4.251   3.389   2.250 -0.6994 -0.5535  0.0383
 4494SOL     OW25117   2.580   0.735  12.698 -0.6000 -0.2075 -0.0813
 4494SOL    HW125118   2.652   0.790  12.726 -1.2202  0.8807 -0.6362
 4494SOL    HW225119   2.632   0.656  12.714  1.6295  1.1973 -0.3746
 4495SOL     OW25120   2.297   1.689   3.876 -0.5086  0.7729 -0.2791
 4495SOL    HW125121   2.271   1.758   3.937  3.4372  2.2944 -0.3150
 4495SOL    HW225122   2.389   1.715   3.866 -0.2748 -0.0954 -0.3217
 4496SOL     OW25123   3.320   4.554  16.497 -0.3273 -1.0534  0.1035
 4496SOL    HW125124   3.391   4.535  16.436 -1.8459 -2.2334 -1.2794
 4496SOL    HW225125   3.315   4.471  16.544 -0.8686 -0.2721  1.4274
 4497SOL     OW25126   1.311   4.079  12.459  0.8483  0.2448 -0.2061
 4497SOL    HW125127   1.376   4.149  12.455  1.3934 -0.3153 -1.3699
 4497SOL    HW225128   1.237   4.107  12.406 -0.9217 -3.2392  0.4647
 4498SOL     OW25129   4.670   0.372   6.419  0.3070  0.4538 -0.1953
 4498SOL    HW125130   4.608   0.372   6.492  0.7487 -0.5669  0.1754
 4498SOL    HW225131   4.616   0.365   6.341  0.1177 -1.5502  0.1130
 4499SOL     OW25132   0.212   2.993   7.894 -0.2706  0.3504 -0.0179
 4499SOL    HW125133   0.308   2.995   7.899 -0.3972  2.4431  1.4786
 4499SOL    HW225134   0.198   3.088   7.899 -1.3884  0.1411  0.8630
 4500SOL     OW25135   3.671   4.615   8.247  0.4874  0.3407 -0.2164
 4500SOL    HW125136   3.759   4.599   8.212  0.0268 -1.6649 -0.4454
 4500SOL    HW225137   3.618   4.629   8.169 -0.5699 -1.2146  0.2239
 4501SOL     OW25138   3.379   0.136   3.721  0.0655  0.6083  0.2157
 4501SOL    HW125139   3.331   0.168   3.798 -1.3018  0.5178 -0.5889
 4501SOL    HW225140   3.314   0.099   3.661  2.9807  1.0185 -3.1963
 4502SOL     OW25141   3.204   3.064  12.958 -0.3868 -0.8093 -0.3940
 4502SOL    HW125142   3.279   3.005  12.951  0.4692  0.0531  1.5932
 4502SOL    HW225143   3.250   3.140  12.922  0.4137 -1.4210 -0.6556
 4503SOL     OW25144   3.574   2.277   8.306  0.1765  0.6767  0.4252
 4503SOL    HW125145   3.618   2.282   8.391 -0.2788  2.0066  0.5816
 4503SOL    HW225146   3.638   2.313   8.245 -0.3138 -0.1843 -0.5921
 4504SOL     OW25147   2.720   2.902  14.790  0.4793  0.0290  0.5236
 4504SOL    HW125148   2.634   2.872  14.762  1.2964 -1.4958 -0.3367
 4504SOL    HW225149   2.728   2.838  14.860  0.1174  0.2923  0.8077
 4505SOL     OW25150   3.760   4.297  11.820  0.6342  0.4874 -0.0705
 4505SOL    HW125151   3.670   4.317  11.797  0.8879  0.1296 -1.3778
 4505SOL    HW225152   3.817   4.338  11.754  3.0098  1.0834  2.3072
 4506SOL     OW25153   0.381   3.404   8.838 -0.1278 -0.0258  0.2829
 4506SOL    HW125154   0.379   3.494   8.871 -0.1026  0.6223 -1.4838
 4506SOL    HW225155   0.310   3.403   8.774 -0.1164  1.1128  0.2454
 4507SOL     OW25156   2.257   2.770   8.097 -0.0142 -0.8509  0.1442
 4507SOL    HW125157   2.257   2.690   8.149 -1.2842 -1.0612 -0.1748
 4507SOL    HW225158   2.222   2.831   8.162  0.6248 -0.8854  0.5184
 4508SOL     OW25159   0.136   4.453  16.026 -0.2954 -0.0629 -0.5404
 4508SOL    HW125160   0.183   4.431  15.946  0.3687 -2.3537  0.4768
 4508SOL    HW225161   0.041   4.453  16.012 -0.8196 -0.3609  2.9679
 4509SOL     OW25162   1.897   2.486   2.306 -0.1657  0.4859 -0.9126
 4509SOL    HW125163   1.944   2.459   2.227  1.4846 -1.2259  0.6503
 4509SOL    HW225164   1.840   2.409   2.312  0.6822 -0.2561 -2.1681
 4510SOL     OW25165   3.926   0.041   3.698 -0.2694  0.0922 -0.3420
 4510SOL    HW125166   3.906   4.688   3.721  0.5027 -0.1011 -0.4348
 4510SOL    HW225167   3.836   0.070   3.704 -0.8389 -1.3347 -2.1753
 4511SOL     OW25168   1.092   3.835   5.102 -0.2116  0.3151 -0.4265
 4511SOL    HW125169   1.164   3.898   5.110  0.3235 -0.3691  0.1800
 4511SOL    HW225170   1.024   3.902   5.108 -0.3734  0.3047 -2.4121
 4512SOL     OW25171   3.528   3.899  10.059  0.2240  0.6019  0.2880
 4512SOL    HW125172   3.480   3.879   9.978  0.2247 -2.4482  1.0367
 4512SOL    HW225173   3.617   3.892  10.023  0.7820 -0.3623  1.8906
 4513SOL     OW25174   3.663   0.474   6.140 -0.2558 -0.1935 -0.4005
 4513SOL    HW125175   3.693   0.550   6.191  0.3749  0.2110 -1.3662
 4513SOL    HW225176   3.697   0.396   6.183  2.3966  0.9898 -0.3290
 4514SOL     OW25177   3.205   4.386   9.193  0.1690 -0.3861  0.0302
 4514SOL    HW125178   3.119   4.427   9.196  0.9722  1.3085  0.1140
 4514SOL    HW225179   3.223   4.377   9.287 -3.4674  1.5868  0.8980
 4515SOL     OW25180   3.898   1.283  13.446 -0.0874 -0.1238  0.3969
 4515SOL    HW125181   3.975   1.234  13.414 -0.8031 -2.0876  1.6908
 4515SOL    HW225182   3.922   1.361  13.396  2.9539 -1.2703  0.0527
 4516SOL     OW25183   4.445   2.353   8.312 -0.4714  0.2341  0.1465
 4516SOL    HW125184   4.486   2.408   8.245  0.3650 -0.3033  0.2263
 4516SOL    HW225185   4.356   2.387   8.321 -1.0082 -1.6107  1.8430
 4517SOL     OW25186   0.628   3.750  12.765 -0.5172  0.2070 -0.2775
 4517SOL    HW125187   0.694   3.692  12.728  0.0517 -0.9099  2.4562
 4517SOL    HW225188   0.616   3.810  12.692  0.7426 -0.7363 -1.2520
 4518SOL     OW25189   2.953   3.782   9.010 -0.3204  0.5152 -0.4577
 4518SOL    HW125190   2.896   3.763   9.084 -0.5633 -0.2518 -0.8457
 4518SOL    HW225191   2.914   3.864   8.978 -1.3767  1.0385  2.2071
 4519SOL     OW25192   4.411   2.164   3.121  0.1328  0.5601  0.1743
 4519SOL    HW125193   4.447   2.144   3.035  0.3703 -1.4463  0.7338
 4519SOL    HW225194   4.324   2.124   3.114  0.5059 -0.2773  0.2558
 4520SOL     OW25195   3.013   2.140   6.878 -0.0558  0.6186  0.3858
 4520SOL    HW125196   3.104   2.137   6.909  0.2813 -0.4784 -0.7392
 4520SOL    HW225197   2.978   2.186   6.954 -2.2666 -0.2631 -0.1013
 4521SOL     OW25198   2.941   1.501  10.344 -0.2010  0.2177 -0.3882
 4521SOL    HW125199   2.978   1.577  10.388  1.9192 -0.7701 -0.5076
 4521SOL    HW225200   2.910   1.444  10.415  0.0461 -0.4961 -0.8496
 4522SOL     OW25201   2.530   2.786  15.429 -0.0990  0.3052  0.6054
 4522SOL    HW125202   2.492   2.872  15.413 -2.3077 -0.8429 -0.4830
 4522SOL    HW225203   2.512   2.734  15.350  0.5732  0.9666  0.0125
 4523SOL     OW25204   3.181   3.191   1.991 -0.0482  0.5549  0.2028
 4523SOL    HW125205   3.179   3.287   1.992 -0.3328  0.5393  1.0850
 4523SOL    HW225206   3.172   3.171   2.085 -1.5859 -0.3075 -0.1249
 4524SOL     OW25207   3.571   1.437   8.029 -0.5147  0.1000 -0.2401
 4524SOL    HW125208   3.635   1.375   8.065 -0.0161 -0.0319 -1.3575
 4524SOL    HW225209   3.509   1.374   7.994  0.5082 -1.7343  1.2393
 4525SOL     OW25210   3.514   4.311   9.877 -0.6424 -0.2512  0.4894
 4525SOL    HW125211   3.455   4.359   9.819  0.9441  0.4616 -0.5603
 4525SOL    HW225212   3.448   4.275   9.936 -0.5908 -2.8940 -1.1036
 4526SOL     OW25213   3.939   0.657  11.265 -0.2649  0.0008 -0.2130
 4526SOL    HW125214   3.921   0.728  11.327 -0.4248  0.0618 -0.3284
 4526SOL    HW225215   4.020   0.625  11.305 -0.1664  1.7289  0.9448
 4527SOL     OW25216   0.908   0.463  10.231  0.0678  0.6082 -0.0554
 4527SOL    HW125217   0.930   0.372  10.253 -2.0136  1.0068  3.7565
 4527SOL    HW225218   0.991   0.508  10.214  2.1972 -3.9221 -1.5912
 4528SOL     OW25219   4.100   4.407   1.288  0.2410 -0.0786 -0.0838
 4528SOL    HW125220   4.088   4.372   1.199  0.2440 -0.6144  0.1242
 4528SOL    HW225221   4.195   4.392   1.288  0.3646  0.6138 -2.7875
 4529SOL     OW25222   0.298   1.406   8.015 -0.8949 -0.0611  0.7957
 4529SOL    HW125223   0.218   1.453   7.989 -1.6604 -0.3542  2.6043
 4529SOL    HW225224   0.272   1.317   7.993 -0.2839  0.0904 -0.5670
 4530SOL     OW25225   2.542   2.265  14.394  0.2240 -0.2735  0.4827
 4530SOL    HW125226   2.598   2.248  14.469  0.1417 -0.0118  0.6007
 4530SOL    HW225227   2.462   2.260  14.445 -0.3771  0.9521 -0.3489
 4531SOL     OW25228   3.440   1.721   4.090 -0.1926  0.5997  0.3271
 4531SOL    HW125229   3.461   1.659   4.020 -0.0006  0.6231  0.3632
 4531SOL    HW225230   3.383   1.771   4.031 -0.1846 -0.2781 -0.4203
 4532SOL     OW25231   4.021   1.077   6.421  0.2592  0.4228  0.7276
 4532SOL    HW125232   4.005   1.153   6.476  0.6879  0.1477  1.2289
 4532SOL    HW225233   4.116   1.067   6.413  0.2575  2.0347 -1.3128
 4533SOL     OW25234   3.890   0.829   6.492 -0.3621  0.2757 -0.1999
 4533SOL    HW125235   3.906   0.919   6.466  1.4983  0.2478  0.8533
 4533SOL    HW225236   3.984   0.812   6.501  0.3363  2.6423 -3.1180
 4534SOL     OW25237   0.991   0.101   7.481 -0.3899  0.7654 -0.8747
 4534SOL    HW125238   0.921   0.164   7.493 -0.0206  0.6039  2.0890
 4534SOL    HW225239   0.939   0.022   7.463  1.7231 -0.9153  0.3635
 4535SOL     OW25240   4.264   1.554   8.994  0.5612  0.1109 -0.0411
 4535SOL    HW125241   4.303   1.578   9.077 -0.8749  2.0935  0.0499
 4535SOL    HW225242   4.211   1.482   9.028 -0.8209  0.5162 -1.3040
 4536SOL     OW25243   0.105   4.621   5.404  0.3226  0.4977  0.0746
 4536SOL    HW125244   0.194   4.619   5.439  0.9289 -0.7639 -1.5364
 4536SOL    HW225245   0.058   4.549   5.447 -0.1012  0.5354 -0.3217
 4537SOL     OW25246   0.085   2.377   5.053 -0.0776 -0.9349 -0.0461
 4537SOL    HW125247   0.160   2.319   5.058  1.0824  0.4525 -1.3864
 4537SOL    HW225248   0.036   2.334   4.983 -0.3727  3.1177 -2.3282
 4538SOL     OW25249   3.092   3.934   1.502  0.1777 -0.1477  0.1142
 4538SOL    HW125250   3.139   3.968   1.578  0.2120  0.1067 -0.0212
 4538SOL    HW225251   3.004   3.967   1.523  0.4664  0.9916 -0.4347
 4539SOL     OW25252   3.473   0.226  14.467 -0.1336 -0.3755 -0.6209
 4539SOL    HW125253   3.380   0.210  14.484 -0.4744  0.8975 -1.2682
 4539SOL    HW225254   3.478   0.225  14.371 -0.7266 -1.2449 -0.6373
 4540SOL     OW25255   2.218   0.935   7.662  0.3294  0.1712 -0.4639
 4540SOL    HW125256   2.123   0.944   7.665  0.4507  1.3535 -0.0132
 4540SOL    HW225257   2.230   0.913   7.754  0.8546  1.0194 -0.3286
 4541SOL     OW25258   2.100   0.523  15.415  0.6211  0.0144  0.5220
 4541SOL    HW125259   2.027   0.463  15.430 -1.1314  2.6110  2.5533
 4541SOL    HW225260   2.056   0.608  15.417  0.9084  0.1782 -0.2907
 4542SOL     OW25261   3.956   2.142   5.147 -0.2836 -0.3267 -0.5458
 4542SOL    HW125262   3.902   2.073   5.110 -0.3214 -1.3692  1.4485
 4542SOL    HW225263   3.889   2.210   5.131  1.4025  1.1815 -1.1710
 4543SOL     OW25264   4.165   2.401   8.333 -0.2200 -0.4021 -0.0105
 4543SOL    HW125265   4.134   2.492   8.330  2.1012  0.3483 -1.2442
 4543SOL    HW225266   4.088   2.353   8.304 -1.8338  0.8453  2.1582
 4544SOL     OW25267   2.177   0.769   6.367 -0.3541  0.4674  0.2063
 4544SOL    HW125268   2.087   0.758   6.395 -0.2640  1.6075  0.9463
 4544SOL    HW225269   2.175   0.853   6.320 -0.7018  0.2030 -0.2525
 4545SOL     OW25270   2.173   3.189  14.530 -0.6957  0.8250 -0.0092
 4545SOL    HW125271   2.210   3.277  14.522 -0.4318  0.6674 -0.4914
 4545SOL    HW225272   2.163   3.159  14.621  1.2655 -1.8381 -0.6818
 4546SOL     OW25273   4.621   1.670   8.613 -0.4856  0.3930  0.0844
 4546SOL    HW125274   4.634   1.596   8.672 -2.6450 -0.0715 -0.0374
 4546SOL    HW225275   4.704   1.713   8.635 -0.9288  0.4339  1.6661
 4547SOL     OW25276   1.890   1.359   9.281 -0.1824 -0.1620  0.3687
 4547SOL    HW125277   1.818   1.376   9.221  1.5710 -1.8917 -2.2518
 4547SOL    HW225278   1.862   1.413   9.354 -1.8417  0.0902 -0.4679
 4548SOL     OW25279   0.738   3.416  14.630 -0.1169 -0.5012 -0.5722
 4548SOL    HW125280   0.689   3.495  14.653  2.0498  0.5020  0.6050
 4548SOL    HW225281   0.707   3.405  14.540 -0.6184 -0.4177 -0.4129
 4549SOL     OW25282   2.106   2.514   5.232 -0.0881  0.2390  0.5529
 4549SOL    HW125283   2.186   2.462   5.220  0.0480  0.6336 -0.2189
 4549SOL    HW225284   2.109   2.582   5.165  1.4304  1.5769  1.9670
 4550SOL     OW25285   4.579   1.991  11.706  0.2716  0.2112  0.0509
 4550SOL    HW125286   4.594   2.038  11.789 -0.9866 -1.5419  1.2816
 4550SOL    HW225287   4.540   2.057  11.650 -0.3678  0.2569  0.5457
 4551SOL     OW25288   0.359   0.256  14.896 -0.0736 -0.1479 -0.3581
 4551SOL    HW125289   0.378   0.243  14.803 -0.0498  0.0979 -0.3869
 4551SOL    HW225290   0.443   0.277  14.935 -1.0962 -0.0667  1.7717
 4552SOL     OW25291   1.831   4.712   7.186  0.4355  0.5121  0.3402
 4552SOL    HW125292   1.800   4.629   7.222  0.6993 -0.7139 -2.2475
 4552SOL    HW225293   1.802   4.712   7.094 -0.2129  1.8205  0.5466
 4553SOL     OW25294   1.204   1.479   1.878  0.0200  0.2624  0.2260
 4553SOL    HW125295   1.189   1.568   1.909 -0.7056  0.9993 -2.2515
 4553SOL    HW225296   1.299   1.483   1.885  0.1637 -1.5691 -0.4864
 4554SOL     OW25297   4.596   1.561   4.865 -0.2229  0.6364  0.0311
 4554SOL    HW125298   4.679   1.583   4.907  0.0310  2.8972 -1.6274
 4554SOL    HW225299   4.596   1.467   4.883  1.2352  0.0075 -3.3230
 4555SOL     OW25300   4.718   0.550   7.192  0.2334  0.0593  0.0237
 4555SOL    HW125301   4.718   0.454   7.185  0.6688 -0.0420  1.4128
 4555SOL    HW225302   4.638   0.568   7.142 -0.2830 -0.1398  0.7772
 4556SOL     OW25303   0.555   3.374   6.319 -0.3375  0.0409  0.1361
 4556SOL    HW125304   0.511   3.301   6.364 -2.7013 -0.0173 -2.2893
 4556SOL    HW225305   0.487   3.376   6.253 -0.3911  1.6612  0.2516
 4557SOL     OW25306   0.962   4.578  17.230 -0.1672 -0.0870  0.4025
 4557SOL    HW125307   1.009   4.511  17.179 -1.5219 -1.3166  0.7787
 4557SOL    HW225308   0.927   4.628  17.156  2.1038  0.7670 -0.1239
 4558SOL     OW25309   3.029   0.916   9.600 -0.4254  0.2654 -0.4471
 4558SOL    HW125310   3.086   0.948   9.530 -0.0399 -0.0078 -0.2589
 4558SOL    HW225311   3.089   0.879   9.665  0.2825 -1.4321 -2.0583
 4559SOL     OW25312   2.212   1.141   6.944  0.2434 -0.3799  0.0168
 4559SOL    HW125313   2.278   1.120   7.011 -1.5876 -1.4359  1.4985
 4559SOL    HW225314   2.247   1.096   6.867  0.2624 -0.5443  0.1216
 4560SOL     OW25315   3.123   1.666   6.703  0.1846 -0.4476 -0.7557
 4560SOL    HW125316   3.136   1.727   6.631 -1.5529  1.8710  0.9289
 4560SOL    HW225317   3.031   1.677   6.728  0.5202  3.8565 -1.4431
 4561SOL     OW25318   3.928   3.475  16.692  0.1865 -0.3761 -0.0317
 4561SOL    HW125319   3.973   3.485  16.608  1.2553 -3.9049  0.1406
 4561SOL    HW225320   3.870   3.551  16.688  0.5886 -0.1230 -1.1914
 4562SOL     OW25321   4.047   1.377  14.374 -0.1517 -0.3086 -0.3253
 4562SOL    HW125322   4.000   1.362  14.455 -0.0651 -2.7510 -0.7367
 4562SOL    HW225323   4.133   1.413  14.397 -0.4771  0.5592 -0.4818
 4563SOL     OW25324   4.359   1.392   8.608  0.2955 -0.9172 -0.3364
 4563SOL    HW125325   4.340   1.317   8.665  0.4071 -0.4546  0.3149
 4563SOL    HW225326   4.320   1.467   8.653 -2.3639 -2.4386 -0.1420
 4564SOL     OW25327   3.282   3.130   5.285 -0.4852  0.1550 -0.2456
 4564SOL    HW125328   3.200   3.093   5.318 -1.6162 -0.3200 -3.6310
 4564SOL    HW225329   3.237   3.206   5.247 -1.0546 -0.0298  0.0512
 4565SOL     OW25330   3.453   4.313   8.537  0.6955  0.3170  0.2854
 4565SOL    HW125331   3.431   4.225   8.506 -1.2034 -0.7344  4.6587
 4565SOL    HW225332   3.445   4.295   8.630 -0.7694 -3.0134 -0.4919
 4566SOL     OW25333   4.076   4.720   4.393 -0.2638  0.1500  0.1016
 4566SOL    HW125334   4.168   0.001   4.407 -0.3703  1.4951 -1.0266
 4566SOL    HW225335   4.058   0.060   4.341  2.6160  0.4125 -0.4921
 4567SOL     OW25336   1.435   1.597   7.823  0.4675 -0.0672  0.2724
 4567SOL    HW125337   1.362   1.536   7.815  0.9654 -0.8595  1.8905
 4567SOL    HW225338   1.376   1.670   7.805  0.2824 -0.0239  1.0443
 4568SOL     OW25339   3.508   1.942   1.815 -0.0698  0.1193  0.5330
 4568SOL    HW125340   3.501   2.031   1.779  2.0817  0.4646  0.9993
 4568SOL    HW225341   3.423   1.933   1.857 -0.8416  0.1784 -1.0057
 4569SOL     OW25342   3.190   3.460   1.982  0.1080 -0.2284 -0.3109
 4569SOL    HW125343   3.186   3.547   1.941 -0.3839 -0.8157 -1.5159
 4569SOL    HW225344   3.122   3.477   2.047  0.3118  2.4719 -0.7776
 4570SOL     OW25345   0.281   1.109   1.950  0.3498  0.5777 -0.0458
 4570SOL    HW125346   0.359   1.145   1.909 -0.4175  1.9469 -0.3106
 4570SOL    HW225347   0.244   1.064   1.874 -4.1645 -1.1370  3.1221
 4571SOL     OW25348   3.032   1.528   4.061 -0.3380  0.3152 -0.5705
 4571SOL    HW125349   2.988   1.609   4.036 -0.9937  0.7838  2.0689
 4571SOL    HW225350   3.077   1.498   3.982 -0.6111 -3.1706  0.5709
 4572SOL     OW25351   3.726   4.583  13.155 -0.8038 -0.0152 -0.0681
 4572SOL    HW125352   3.684   4.668  13.145 -1.9919 -0.5445  0.5111
 4572SOL    HW225353   3.806   4.600  13.105  0.4541 -2.2942  1.1533
 4573SOL     OW25354   3.025   1.290   5.185  0.5556 -0.1218  0.1482
 4573SOL    HW125355   3.017   1.309   5.278  1.2327  2.0662 -0.2345
 4573SOL    HW225356   3.046   1.371   5.138  1.9285 -1.9370 -2.3406
 4574SOL     OW25357   4.007   2.012   8.295  0.4317  0.0303 -0.2712
 4574SOL    HW125358   4.025   1.918   8.308  0.0126 -0.2354 -1.5919
 4574SOL    HW225359   4.085   2.052   8.257  0.7431  2.0724  2.5233
 4575SOL     OW25360   1.369   1.069   0.246 -0.3501 -0.1308  0.1563
 4575SOL    HW125361   1.392   1.099   0.158 -1.5046  1.8411  0.5316
 4575SOL    HW225362   1.440   1.114   0.292  0.6755 -1.9273  0.3253
 4576SOL     OW25363   3.175   0.324  10.981  0.3931 -0.3151  0.6011
 4576SOL    HW125364   3.107   0.383  11.014  1.4585  2.3646 -1.9523
 4576SOL    HW225365   3.243   0.350  11.044  0.7196  2.6468 -0.9659
 4577SOL     OW25366   1.732   0.470   5.968  0.3109 -1.1130 -0.4173
 4577SOL    HW125367   1.670   0.505   5.904  1.2375  3.9039  1.4411
 4577SOL    HW225368   1.810   0.463   5.914  0.4055  1.0902 -0.5699
 4578SOL     OW25369   3.854   0.796   7.127  0.1242 -0.5563  0.2937
 4578SOL    HW125370   3.876   0.800   7.221  3.5746 -1.6087 -0.4499
 4578SOL    HW225371   3.907   0.861   7.081  1.7939 -2.9131 -1.1310
 4579SOL     OW25372   0.982   2.214   1.448  0.4289 -0.3261 -0.0779
 4579SOL    HW125373   1.024   2.245   1.368  0.0295  1.0816  0.2601
 4579SOL    HW225374   0.973   2.119   1.439 -1.3122  0.0939 -2.5029
 4580SOL     OW25375   0.434   1.818  10.509 -0.3942 -0.2013 -0.0182
 4580SOL    HW125376   0.518   1.779  10.484  0.1239  0.2400  1.0344
 4580SOL    HW225377   0.382   1.738  10.511 -2.0550  0.8444 -1.3366
 4581SOL     OW25378   0.113   4.642  12.611  0.5783  0.1491  0.2938
 4581SOL    HW125379   0.080   4.672  12.526 -1.2296 -0.2130  0.8605
 4581SOL    HW225380   0.199   4.610  12.583  1.0142 -0.2291  2.0907
 4582SOL     OW25381   2.384   3.221   6.788  0.2551  0.5304 -0.0685
 4582SOL    HW125382   2.348   3.267   6.712 -0.9186 -0.3207 -0.0223
 4582SOL    HW225383   2.383   3.282   6.862 -1.5906 -0.8072  1.0021
 4583SOL     OW25384   3.047   3.265   5.726 -0.4856 -0.1347 -1.0549
 4583SOL    HW125385   3.012   3.181   5.695  0.4074 -0.6241 -0.7318
 4583SOL    HW225386   2.973   3.314   5.691  0.4080  2.1692  0.2883
 4584SOL     OW25387   3.527   2.169  14.012  0.5779  0.4799 -0.2746
 4584SOL    HW125388   3.491   2.214  14.089 -0.8328  1.7419 -1.6638
 4584SOL    HW225389   3.595   2.229  13.980  1.9220  0.4744  2.5134
 4585SOL     OW25390   1.232   4.226   4.559  0.5090 -0.1894  0.0295
 4585SOL    HW125391   1.154   4.187   4.597  0.5354 -0.1216  0.1513
 4585SOL    HW225392   1.299   4.226   4.627  1.0934 -0.3096 -0.5406
 4586SOL     OW25393   1.162   0.033   9.231 -0.2279  0.2478  0.1490
 4586SOL    HW125394   1.253   0.048   9.255 -0.4999 -0.2722  1.5170
 4586SOL    HW225395   1.148   0.093   9.158 -1.3204  0.3188  0.4217
 4587SOL     OW25396   0.125   3.503   5.373 -0.2267 -0.1510 -0.4365
 4587SOL    HW125397   0.067   3.579   5.379 -1.9028 -1.4907  0.4519
 4587SOL    HW225398   0.124   3.494   5.277  0.7943  0.0770 -0.4689
 4588SOL     OW25399   3.526   4.167   1.855  0.4540 -0.3334 -0.0839
 4588SOL    HW125400   3.504   4.184   1.946 -2.4072 -3.9657 -0.1170
 4588SOL    HW225401   3.622   4.175   1.856  0.1160  3.3904  1.8418
 4589SOL     OW25402   2.118   4.515   3.863 -0.3107 -0.2781  0.2629
 4589SOL    HW125403   2.205   4.550   3.846 -0.2290 -0.8259 -0.4710
 4589SOL    HW225404   2.055   4.566   3.813  0.7700 -0.5426 -1.3796
 4590SOL     OW25405   2.314   4.201  13.211 -0.2665  0.1235  0.0956
 4590SOL    HW125406   2.329   4.107  13.202 -3.3774 -0.2290 -1.3346
 4590SOL    HW225407   2.403   4.236  13.224  0.5375 -0.5141 -3.5309
 4591SOL     OW25408   1.095   2.554   6.491  0.3560 -1.0878  0.3139
 4591SOL    HW125409   1.094   2.551   6.395 -0.0035 -2.5056  0.3706
 4591SOL    HW225410   1.187   2.530   6.505  0.6015 -1.1005 -1.3046
 4592SOL     OW25411   3.220   4.407   4.600 -0.3420  0.2551  0.4911
 4592SOL    HW125412   3.200   4.500   4.608  0.2244  0.6224 -2.3370
 4592SOL    HW225413   3.210   4.378   4.691 -1.5454 -2.4125 -0.5023
 4593SOL     OW25414   2.841   2.231   3.036  0.0301 -0.1615 -0.6072
 4593SOL    HW125415   2.925   2.188   3.021 -0.1298 -0.4080 -0.8021
 4593SOL    HW225416   2.802   2.224   2.949 -0.8500  1.8092 -0.3563
 4594SOL     OW25417   2.350   3.701   8.591  0.5237 -0.2487 -0.1060
 4594SOL    HW125418   2.274   3.758   8.601 -0.2509 -1.3129  0.0515
 4594SOL    HW225419   2.307   3.620   8.618  2.4270 -0.9377  0.9091
 4595SOL     OW25420   3.026   3.218   6.807  0.0938 -0.4168  0.0094
 4595SOL    HW125421   3.055   3.301   6.845  1.5532 -0.9227 -0.0024
 4595SOL    HW225422   2.984   3.249   6.727  2.2545  1.2880 -0.4576
 4596SOL     OW25423   0.784   3.688   8.311 -0.5291  0.0831 -0.1132
 4596SOL    HW125424   0.726   3.757   8.280 -1.7753 -0.4115  1.1116
 4596SOL    HW225425   0.872   3.724   8.297 -1.1068  1.1610 -0.9227
 4597SOL     OW25426   3.765   0.725   4.302 -0.1247 -0.3762 -0.5548
 4597SOL    HW125427   3.840   0.674   4.270  0.0499 -0.8542  0.6141
 4597SOL    HW225428   3.819   0.751   4.377 -1.1685  0.1364  0.0145
 4598SOL     OW25429   1.255   1.575  14.974 -0.6859 -0.0382  0.2043
 4598SOL    HW125430   1.251   1.493  14.925  0.1897 -0.6402  1.1553
 4598SOL    HW225431   1.326   1.550  15.033 -1.3128 -0.5267  0.7425
 4599SOL     OW25432   2.765   1.694   7.793  0.6429  0.0348 -0.3935
 4599SOL    HW125433   2.729   1.768   7.842  0.4966 -1.8360  2.3134
 4599SOL    HW225434   2.707   1.624   7.822  1.5713  0.1126  1.6578
 4600SOL     OW25435   4.104   3.901  15.483  0.0825  0.3521 -0.3657
 4600SOL    HW125436   4.167   3.907  15.554 -0.9033  0.9922  0.4525
 4600SOL    HW225437   4.119   3.807  15.476 -0.5206  0.3927 -2.1758
 4601SOL     OW25438   4.514   2.276   0.662  0.1446 -0.0683 -0.0024
 4601SOL    HW125439   4.529   2.312   0.574 -1.1088  1.1186  0.2808
 4601SOL    HW225440   4.425   2.243   0.668 -0.1152  0.6421 -0.0432
 4602SOL     OW25441   3.408   2.918   8.868  0.0496  0.2650 -0.1523
 4602SOL    HW125442   3.341   2.986   8.869  0.4954  0.6740  2.1531
 4602SOL    HW225443   3.455   2.914   8.952 -0.0122 -0.6011 -0.1671
 4603SOL     OW25444   2.876   0.673   4.141  0.1314  0.3503  0.0109
 4603SOL    HW125445   2.867   0.766   4.161  2.1822  0.9094 -1.6400
 4603SOL    HW225446   2.901   0.667   4.049  1.6966 -1.0964  0.5136
 4604SOL     OW25447   0.672   0.985   7.511 -0.5979 -0.5996 -0.5336
 4604SOL    HW125448   0.670   1.074   7.547 -0.5759 -1.7060  2.1326
 4604SOL    HW225449   0.759   0.950   7.531 -0.9985 -1.5653 -0.4812
 4605SOL     OW25450   0.514   3.063  13.538 -0.0657 -0.3810  0.1250
 4605SOL    HW125451   0.610   3.068  13.532 -0.0300  1.9768  2.6118
 4605SOL    HW225452   0.501   2.977  13.499  1.5631 -0.3064 -0.6152
 4606SOL     OW25453   2.078   1.573  10.270  0.3739 -0.3011  0.2818
 4606SOL    HW125454   1.983   1.574  10.261  0.4790 -1.9156 -0.9821
 4606SOL    HW225455   2.101   1.660  10.304  3.5581 -0.7445 -0.7504
 4607SOL     OW25456   2.002   4.705   3.697  0.1765 -0.7143 -0.6181
 4607SOL    HW125457   1.923   0.001   3.740 -0.1366 -0.7079 -1.1942
 4607SOL    HW225458   2.054   0.046   3.711 -0.5437  0.0116 -1.9770
 4608SOL     OW25459   0.879   3.074  13.748 -0.0695 -0.3751  0.2715
 4608SOL    HW125460   0.843   3.033  13.670  0.1489  1.1753 -0.6531
 4608SOL    HW225461   0.835   3.024  13.816 -0.0510 -1.2359 -0.3487
 4609SOL     OW25462   3.143   0.802   8.105  0.2933  0.2190  0.5131
 4609SOL    HW125463   3.131   0.884   8.058  2.1866  0.4350  0.4108
 4609SOL    HW225464   3.116   0.824   8.194  1.0020 -0.4108  0.8852
 4610SOL     OW25465   2.445   1.139   1.110 -0.8748 -0.1677  0.2291
 4610SOL    HW125466   2.450   1.107   1.020  0.0008 -0.2805  0.3142
 4610SOL    HW225467   2.468   1.231   1.096 -2.6825 -0.0126 -1.7586
 4611SOL     OW25468   4.039   2.690   8.396 -0.2710  0.0593  0.6448
 4611SOL    HW125469   3.990   2.707   8.315  0.5905 -1.0880 -0.1228
 4611SOL    HW225470   3.996   2.743   8.462 -0.4423 -1.3488  1.6748
 4612SOL     OW25471   0.272   4.641   1.175  0.0397 -0.3094 -0.1229
 4612SOL    HW125472   0.358   4.635   1.133 -0.2625 -3.6827 -0.2695
 4612SOL    HW225473   0.263   4.735   1.190 -0.4977 -0.4332  0.3061
 4613SOL     OW25474   0.234   2.728   3.274  0.4639  0.0089  0.2427
 4613SOL    HW125475   0.184   2.808   3.255  0.3648 -0.5337 -1.8668
 4613SOL    HW225476   0.309   2.763   3.322 -1.4729  2.0539  1.8031
 4614SOL     OW25477   2.023   1.888   6.376  0.4371  0.3474  0.1077
 4614SOL    HW125478   1.986   1.971   6.405 -1.5909 -0.4380 -0.2024
 4614SOL    HW225479   2.022   1.844   6.461 -0.3881  1.2556  0.5777
 4615SOL     OW25480   3.904   3.145   2.064 -0.0350 -0.6006  0.4594
 4615SOL    HW125481   3.995   3.145   2.091 -0.2825  1.0571  1.3446
 4615SOL    HW225482   3.859   3.118   2.144 -0.1660  0.3649  0.7131
 4616SOL     OW25483   1.427   0.115   0.839  0.0162  0.3150 -0.6014
 4616SOL    HW125484   1.481   0.094   0.763 -2.6440  0.0528 -2.4371
 4616SOL    HW225485   1.442   0.034   0.888 -0.2749  0.1318 -0.8084
 4617SOL     OW25486   3.689   4.171   8.913 -0.1292 -0.6172  0.2762
 4617SOL    HW125487   3.649   4.253   8.885 -0.8208 -1.0872 -0.1182
 4617SOL    HW225488   3.780   4.201   8.918 -0.0106 -0.8462 -0.3967
 4618SOL     OW25489   1.265   4.444   8.846 -0.3781  0.0042 -0.2211
 4618SOL    HW125490   1.334   4.410   8.790  0.8838  1.3616  0.5128
 4618SOL    HW225491   1.235   4.370   8.898  0.9145  0.4166  1.0929
 4619SOL     OW25492   4.341   1.966   9.497 -0.5408  0.4781  0.4510
 4619SOL    HW125493   4.343   1.998   9.587 -1.9739 -1.2145  1.1061
 4619SOL    HW225494   4.430   1.945   9.471 -0.4032  1.5816  0.0491
 4620SOL     OW25495   1.987   4.426   8.959  0.6573 -0.0231  0.1288
 4620SOL    HW125496   1.925   4.437   8.887 -0.5843 -0.3033  1.1674
 4620SOL    HW225497   2.065   4.473   8.928  0.7826 -0.6869 -0.5380
 4621SOL     OW25498   2.985   1.940   2.245  0.1171  0.5969 -0.1484
 4621SOL    HW125499   2.909   1.891   2.213  0.1953  0.3664  0.0198
 4621SOL    HW225500   2.936   1.989   2.312 -2.0254  0.6048 -1.7392
 4622SOL     OW25501   4.274   4.422   2.897 -0.8489  0.6996 -0.3287
 4622SOL    HW125502   4.184   4.449   2.880 -1.4707 -0.7696  0.5526
 4622SOL    HW225503   4.294   4.396   2.807  0.1041 -0.1069  0.1164
 4623SOL     OW25504   1.756   3.203  11.508 -0.0216 -0.0658  1.0013
 4623SOL    HW125505   1.715   3.154  11.436  2.6352 -0.0327 -0.5698
 4623SOL    HW225506   1.830   3.145  11.527 -0.1798 -0.7087 -0.3365
 4624SOL     OW25507   3.436   1.684   7.998  0.2940 -0.2241  0.2163
 4624SOL    HW125508   3.372   1.620   8.030  0.2829 -1.3801 -2.1193
 4624SOL    HW225509   3.518   1.659   8.041  0.4758 -1.4371 -0.8218
 4625SOL     OW25510   2.096   1.943   1.979  0.5317  0.7715  0.0985
 4625SOL    HW125511   2.042   1.968   1.905 -0.0916  0.7142  0.5305
 4625SOL    HW225512   2.095   1.851   1.955  3.4783  0.5622  0.8464
 4626SOL     OW25513   1.661   3.559   2.580 -0.9183 -0.0047  0.2503
 4626SOL    HW125514   1.673   3.592   2.669 -0.6636  0.1789  0.1494
 4626SOL    HW225515   1.693   3.469   2.579  1.0813  0.7184 -0.3849
 4627SOL     OW25516   3.410   1.590  11.339  0.0250 -0.8093 -0.1716
 4627SOL    HW125517   3.437   1.499  11.350 -0.0508 -0.6357  1.5118
 4627SOL    HW225518   3.463   1.626  11.410 -2.5124  0.7316  0.9385
 4628SOL     OW25519   1.187   4.584   6.798  0.0976 -0.3244  0.5771
 4628SOL    HW125520   1.175   4.561   6.706 -0.1200 -3.3962  1.3473
 4628SOL    HW225521   1.278   4.613   6.800  0.7032 -2.1924  0.5472
 4629SOL     OW25522   3.963   1.179   7.866 -0.4489 -0.1626 -0.5252
 4629SOL    HW125523   4.040   1.214   7.910  1.2094 -2.1915 -1.7961
 4629SOL    HW225524   3.918   1.262   7.854 -0.0039 -0.0274 -1.2819
 4630SOL     OW25525   1.289   0.754   6.491 -0.0393 -0.0894  0.4920
 4630SOL    HW125526   1.373   0.769   6.534 -0.7557 -2.3941  2.6795
 4630SOL    HW225527   1.296   0.659   6.484  2.0234  0.0011  1.2863
 4631SOL     OW25528   0.961   2.461   7.176 -0.0640 -0.1106 -0.3568
 4631SOL    HW125529   0.931   2.455   7.085  0.4545  2.7509 -0.7280
 4631SOL    HW225530   1.028   2.530   7.179 -0.5994  0.3697  0.5557
 4632SOL     OW25531   4.003   3.483   2.440  0.1505 -0.3440 -0.1141
 4632SOL    HW125532   3.956   3.400   2.429  0.2507  0.0856 -3.7986
 4632SOL    HW225533   4.082   3.450   2.397  1.1460  0.8084  0.8359
 4633SOL     OW25534   4.667   1.193  14.929  0.1992 -0.2882 -0.1570
 4633SOL    HW125535   4.620   1.134  14.869  1.0502 -1.4418  0.3171
 4633SOL    HW225536   4.645   1.152  15.013  0.9763  2.1701  1.2401
 4634SOL     OW25537   0.406   4.477   6.278 -0.2245  0.0215  0.3040
 4634SOL    HW125538   0.325   4.435   6.307 -0.0527 -0.6984 -0.2661
 4634SOL    HW225539   0.446   4.404   6.231  0.1429 -0.3386  1.1787
 4635SOL     OW25540   3.753   4.297  15.411 -0.2997  0.2335  0.0886
 4635SOL    HW125541   3.802   4.232  15.462 -0.2288  0.5652  0.4453
 4635SOL    HW225542   3.832   4.318  15.362 -1.3450 -2.9019 -2.8813
 4636SOL     OW25543   3.878   3.775   0.630 -0.0866  0.4291 -0.2815
 4636SOL    HW125544   3.888   3.682   0.652 -0.4382  0.5045  0.2034
 4636SOL    HW225545   3.933   3.820   0.695  1.0602  0.4075 -1.2340
 4637SOL     OW25546   4.529   4.073   1.785  0.1169 -0.4230 -0.5214
 4637SOL    HW125547   4.587   4.130   1.735 -2.2303  0.9586 -1.6954
 4637SOL    HW225548   4.450   4.073   1.730 -0.5203 -0.8408  0.4062
 4638SOL     OW25549   1.386   3.719   8.674 -0.1814  0.0993  0.5894
 4638SOL    HW125550   1.293   3.702   8.656 -0.3142  0.3222  1.0537
 4638SOL    HW225551   1.422   3.637   8.705 -0.2076 -0.4585 -0.8718
 4639SOL     OW25552   1.287   3.721   2.003 -0.1539  0.7959 -0.3278
 4639SOL    HW125553   1.352   3.674   2.056 -0.6352 -1.4219 -1.6940
 4639SOL    HW225554   1.207   3.700   2.051  0.9312 -0.3594  0.9624
 4640SOL     OW25555   2.697   4.704   3.311  0.2591  0.4630 -0.2758
 4640SOL    HW125556   2.673   4.637   3.247 -0.0919 -0.1724  0.5229
 4640SOL    HW225557   2.611   4.737   3.335  0.0874  0.5583 -1.0167
 4641SOL     OW25558   3.213   1.769   3.912  0.3567  0.2145 -0.3631
 4641SOL    HW125559   3.131   1.804   3.875 -0.1671  0.9663  1.4606
 4641SOL    HW225560   3.212   1.684   3.869 -0.6435  0.2931 -0.5125
 4642SOL     OW25561   1.842   0.531   8.347 -0.2627 -0.4173 -0.7486
 4642SOL    HW125562   1.832   0.609   8.401 -0.1854 -1.3405  0.5839
 4642SOL    HW225563   1.776   0.548   8.280  0.3549  1.1264 -0.9558
 4643SOL     OW25564   3.301   3.588   2.259  0.2300  0.2739  0.0784
 4643SOL    HW125565   3.343   3.671   2.237  0.2162  0.3876  0.4827
 4643SOL    HW225566   3.360   3.526   2.217 -0.4965 -1.3661  1.5097
 4644SOL     OW25567   1.587   1.231   5.860 -0.0210 -0.3189  0.2693
 4644SOL    HW125568   1.531   1.159   5.831 -1.0190  0.7980 -0.6105
 4644SOL    HW225569   1.526   1.303   5.876  1.4199  0.8269  0.5548
 4645SOL     OW25570   2.354   3.201   4.377 -0.0519  0.3313 -0.3055
 4645SOL    HW125571   2.444   3.200   4.408  0.0637  0.5007 -0.6369
 4645SOL    HW225572   2.339   3.106   4.378 -1.1078  0.5037  0.0176
 4646SOL     OW25573   3.586   0.931   5.896 -0.3302 -0.2294  0.5259
 4646SOL    HW125574   3.544   1.012   5.923  1.0162  0.9455 -0.9340
 4646SOL    HW225575   3.548   0.912   5.809 -0.3357 -0.6232  0.6118
 4647SOL     OW25576   2.304   0.607  12.494 -0.1552 -0.0018  0.2397
 4647SOL    HW125577   2.285   0.530  12.441  0.0451 -0.4673  0.8385
 4647SOL    HW225578   2.240   0.595  12.564  2.2280 -2.6788  1.9686
 4648SOL     OW25579   3.958   0.289   2.510  0.2179 -0.6032  0.1464
 4648SOL    HW125580   3.926   0.199   2.513 -2.0774  0.1858 -0.7103
 4648SOL    HW225581   4.046   0.281   2.546  0.2938  1.4034  0.4037
 4649SOL     OW25582   1.667   2.034   8.851  0.5447 -0.0129 -0.1529
 4649SOL    HW125583   1.708   1.967   8.796  2.4178  2.2701 -1.5465
 4649SOL    HW225584   1.583   2.049   8.808 -0.2902 -0.2124  1.4013
 4650SOL     OW25585   2.556   1.650   5.504  0.1387  0.0938  0.2086
 4650SOL    HW125586   2.587   1.710   5.437  1.2137 -1.0806 -0.3458
 4650SOL    HW225587   2.611   1.573   5.495 -2.4131 -1.5991 -0.9961
 4651SOL     OW25588   4.409   0.650   4.901 -0.0904 -0.3380 -0.2181
 4651SOL    HW125589   4.322   0.615   4.920  0.4455 -1.6110 -0.0841
 4651SOL    HW225590   4.464   0.616   4.972  0.3032 -0.6079 -0.6443
 4652SOL     OW25591   4.447   2.962   4.642  0.1013  0.4361  0.0203
 4652SOL    HW125592   4.396   2.907   4.702  1.3034  0.7168  1.2999
 4652SOL    HW225593   4.392   2.953   4.565  0.2334 -0.2884  0.0123
 4653SOL     OW25594   0.083   4.115  16.492  0.2006  0.0184  0.1347
 4653SOL    HW125595   0.106   4.202  16.461  0.1487  0.6947  1.9775
 4653SOL    HW225596   0.038   4.132  16.575 -3.0618 -0.2944 -1.6197
 4654SOL     OW25597   3.826   1.274   7.554  0.6474 -0.6737 -0.2612
 4654SOL    HW125598   3.740   1.285   7.513 -0.2622  1.2700  2.1589
 4654SOL    HW225599   3.813   1.317   7.638  1.2838 -0.5964 -0.2016
 4655SOL     OW25600   3.959   0.507   6.714  0.1531 -0.3700 -0.1438
 4655SOL    HW125601   4.005   0.525   6.795 -1.2078 -0.4793  0.6637
 4655SOL    HW225602   4.024   0.456   6.665 -1.5410 -2.8273  0.1427
 4656SOL     OW25603   2.277   3.592  13.576 -0.0425 -0.1479  0.2709
 4656SOL    HW125604   2.291   3.501  13.601  1.1873 -0.0132  0.0556
 4656SOL    HW225605   2.347   3.639  13.622  0.8248 -0.4650 -0.7415
 4657SOL     OW25606   3.328   0.456   6.198  0.1459 -0.2660 -0.1159
 4657SOL    HW125607   3.315   0.551   6.187 -0.8197 -0.0490  2.7206
 4657SOL    HW225608   3.414   0.462   6.240 -0.5175  3.8831  0.7011
 4658SOL     OW25609   0.350   2.941   2.523  0.4048  0.4106  0.3595
 4658SOL    HW125610   0.365   2.849   2.542 -1.4965  0.7033  3.2720
 4658SOL    HW225611   0.269   2.941   2.471 -0.5752  0.6769  1.8976
 4659SOL     OW25612   4.073   2.319  15.513  0.3187 -0.3557 -0.7022
 4659SOL    HW125613   4.028   2.394  15.554 -1.9780 -0.4334 -3.0420
 4659SOL    HW225614   3.995   2.275  15.479 -0.1859 -0.4604  0.5638
 4660SOL     OW25615   1.087   1.337  11.675  0.5328  0.7969 -0.4058
 4660SOL    HW125616   1.135   1.291  11.744 -1.0221  1.4204  1.1031
 4660SOL    HW225617   1.103   1.429  11.697  0.3534  0.7536 -0.0914
 4661SOL     OW25618   0.247   3.104  13.478 -0.4665 -0.1987  0.4591
 4661SOL    HW125619   0.315   3.105  13.546  0.7375 -2.1659 -0.7474
 4661SOL    HW225620   0.177   3.161  13.511 -1.3600 -0.1370 -1.5697
 4662SOL     OW25621   1.912   2.834   5.510 -0.1810  0.2553  0.4312
 4662SOL    HW125622   1.829   2.808   5.469 -0.3443  1.8740 -0.2742
 4662SOL    HW225623   1.938   2.906   5.451 -0.0512  1.0064  1.4134
 4663SOL     OW25624   3.616   2.135   7.176 -0.4488  0.4585  0.6404
 4663SOL    HW125625   3.647   2.193   7.107 -1.8016  0.3378 -0.0778
 4663SOL    HW225626   3.526   2.166   7.183 -0.4387  0.5064  0.5631
 4664SOL     OW25627   0.950   3.801   7.343 -0.6580 -0.1033  0.3098
 4664SOL    HW125628   0.969   3.855   7.266 -0.7382 -0.6222 -0.0745
 4664SOL    HW225629   0.915   3.726   7.295  1.4842 -0.1915 -1.1148
 4665SOL     OW25630   3.511   0.980   8.464  0.0725 -0.3206 -0.2930
 4665SOL    HW125631   3.514   1.052   8.402 -0.0363  0.9392  1.1617
 4665SOL    HW225632   3.417   0.962   8.461  0.2556 -1.1737 -0.8708
 4666SOL     OW25633   3.478   2.009   6.455 -0.0281  0.4321 -0.7560
 4666SOL    HW125634   3.535   2.024   6.380 -0.3020  0.8444 -0.8788
 4666SOL    HW225635   3.403   2.055   6.417 -0.2053  1.7544  1.1987
 4667SOL     OW25636   3.104   2.148  13.729 -0.4572  0.2194 -0.4303
 4667SOL    HW125637   3.186   2.172  13.771 -0.5430  1.1741 -0.8208
 4667SOL    HW225638   3.048   2.137  13.806 -0.9987  2.5360 -0.4984
 4668SOL     OW25639   1.599   3.597   5.462  0.0375 -0.0859 -0.1061
 4668SOL    HW125640   1.600   3.596   5.557 -2.0002  0.0628 -0.0801
 4668SOL    HW225641   1.506   3.600   5.440 -0.3033 -1.1826  1.2067
 4669SOL     OW25642   1.172   1.919   9.614  0.3280 -0.0203 -0.0418
 4669SOL    HW125643   1.112   1.911   9.689 -0.1151 -0.5998 -0.4608
 4669SOL    HW225644   1.119   1.885   9.542 -0.8081  0.2998  0.6459
 4670SOL     OW25645   0.244   1.942   5.546  0.1263  0.2015  0.1841
 4670SOL    HW125646   0.240   1.854   5.584 -1.8418  0.4908  0.6428
 4670SOL    HW225647   0.281   1.917   5.461  0.1607  1.7118 -0.2407
 4671SOL     OW25648   0.801   3.714  10.138 -0.4949  0.0019  0.1018
 4671SOL    HW125649   0.867   3.739  10.203 -0.4914 -0.1254  0.1471
 4671SOL    HW225650   0.781   3.803  10.109 -1.0049 -0.6593 -1.5690
 4672SOL     OW25651   3.840   1.398   9.033  0.4442 -0.1624  0.6619
 4672SOL    HW125652   3.901   1.378   9.105  0.1260  1.2652  1.3389
 4672SOL    HW225653   3.753   1.392   9.072 -0.3864  0.4704 -1.0972
 4673SOL     OW25654   3.110   1.089   4.265  0.4082 -0.2275 -0.6961
 4673SOL    HW125655   3.039   1.037   4.302  1.0438 -1.1401 -0.7667
 4673SOL    HW225656   3.070   1.176   4.268 -1.4295 -1.0106 -2.3268
 4674SOL     OW25657   4.527   2.912   6.374  0.4540  0.1172  0.0154
 4674SOL    HW125658   4.548   2.945   6.287 -2.6681  2.0033 -0.0207
 4674SOL    HW225659   4.591   2.946   6.436 -0.4129 -1.2536  1.6762
 4675SOL     OW25660   1.923   1.018   4.771  0.4521 -0.1734 -0.5938
 4675SOL    HW125661   1.865   1.093   4.783 -1.6641 -1.6992 -1.2411
 4675SOL    HW225662   1.868   0.971   4.708 -0.9501  1.2739 -0.4353
 4676SOL     OW25663   4.125   2.813   6.681  0.5795  0.6069  0.6739
 4676SOL    HW125664   4.145   2.721   6.665  0.6878  0.8375 -0.5158
 4676SOL    HW225665   4.147   2.846   6.595  0.2481 -1.2982 -0.1458
 4677SOL     OW25666   0.067   4.347   7.735  0.1489  0.4516 -0.1495
 4677SOL    HW125667   0.017   4.266   7.728  0.3837  0.3047 -0.0983
 4677SOL    HW225668   0.132   4.316   7.673  0.1925  0.2675 -0.0133
 4678SOL     OW25669   4.325   0.973   0.018 -0.4748 -0.0546 -0.3224
 4678SOL    HW125670   4.286   1.059   0.036 -1.7454 -0.9268  1.1114
 4678SOL    HW225671   4.420   0.983   0.008 -0.2274 -0.0417  1.9594
 4679SOL     OW25672   2.172   3.295  16.061 -0.1278 -0.6329 -0.2784
 4679SOL    HW125673   2.081   3.269  16.046 -0.9096  1.7783  0.3229
 4679SOL    HW225674   2.163   3.372  16.117 -0.0528 -1.1584  0.4517
 4680SOL     OW25675   4.267   0.037  10.464 -0.2890  0.2461  0.0072
 4680SOL    HW125676   4.305   4.697  10.424  0.8514 -0.6102  2.7919
 4680SOL    HW225677   4.317   0.039  10.545  0.7570 -1.1348 -0.6037
 4681SOL     OW25678   0.509   0.157   4.010  0.3738 -0.3045 -0.1442
 4681SOL    HW125679   0.417   0.171   4.031  1.2191  4.0743  0.8111
 4681SOL    HW225680   0.513   0.062   3.999 -0.5924 -0.3481 -0.0933
 4682SOL     OW25681   1.718   2.002   9.466 -0.2866 -0.2023 -0.3766
 4682SOL    HW125682   1.780   1.990   9.394 -0.5619 -1.7601 -0.3678
 4682SOL    HW225683   1.641   1.959   9.428 -1.6120  1.8526 -0.0101
 4683SOL     OW25684   0.940   1.296   6.817  0.5747 -0.5067 -0.4087
 4683SOL    HW125685   0.909   1.236   6.885  1.3308 -1.0616 -0.5538
 4683SOL    HW225686   0.852   1.305   6.781  0.6186 -0.9876 -0.6285
 4684SOL     OW25687   0.180   4.023   6.718  0.2987  0.1215  0.5760
 4684SOL    HW125688   0.095   4.000   6.682  1.2161 -1.2287 -0.7092
 4684SOL    HW225689   0.158   4.084   6.789  1.2431  0.8309  0.2573
 4685SOL     OW25690   0.397   2.453   5.156  0.0107 -0.0986  0.2367
 4685SOL    HW125691   0.412   2.541   5.121  1.1148  0.2773  1.6628
 4685SOL    HW225692   0.337   2.474   5.228 -1.4052 -1.3932 -0.5597
 4686SOL     OW25693   3.002   3.633  11.498 -0.0445 -0.5395  0.3647
 4686SOL    HW125694   3.047   3.605  11.578 -2.7696 -1.8997  1.4150
 4686SOL    HW225695   2.912   3.609  11.518  0.2630 -3.6024 -1.8126
 4687SOL     OW25696   0.517   0.381  14.226  0.7609 -0.3799  0.6121
 4687SOL    HW125697   0.519   0.427  14.310 -0.6791  0.9968 -0.1144
 4687SOL    HW225698   0.592   0.323  14.240  0.8438 -0.3311  0.3630
 4688SOL     OW25699   3.956   3.555  13.713  0.5060  0.3136  0.2166
 4688SOL    HW125700   4.039   3.520  13.679 -0.2291 -0.3231 -0.8916
 4688SOL    HW225701   3.889   3.498  13.675  0.3115  1.1334 -0.6566
 4689SOL     OW25702   0.066   0.174   1.951  0.6486  0.2952  0.5696
 4689SOL    HW125703   0.093   0.255   1.908 -0.8658  1.7860  2.3976
 4689SOL    HW225704   0.063   0.201   2.043  0.7305  0.0748  0.6385
 4690SOL     OW25705   4.150   2.910   4.238 -0.5512 -0.1308 -0.0534
 4690SOL    HW125706   4.084   2.979   4.244 -0.6736 -0.1109 -1.6550
 4690SOL    HW225707   4.229   2.949   4.202 -0.7229 -1.3560 -1.7225
 4691SOL     OW25708   1.151   4.716   2.641 -0.6031  0.1300 -0.6219
 4691SOL    HW125709   1.191   4.632   2.620 -2.0551 -0.6228 -0.3344
 4691SOL    HW225710   1.156   4.721   2.737 -0.2084 -0.5921 -0.6076
 4692SOL     OW25711   2.365   2.105  12.801 -0.2663 -0.5486 -0.0894
 4692SOL    HW125712   2.435   2.066  12.748 -1.1363  1.2859 -2.5987
 4692SOL    HW225713   2.411   2.093  12.884  1.6791 -0.9220 -1.2376
 4693SOL     OW25714   2.736   3.062   6.271 -0.4320 -0.0860 -0.1535
 4693SOL    HW125715   2.778   3.071   6.356 -0.5283 -1.7645  0.0738
 4693SOL    HW225716   2.803   3.002   6.237 -1.2875 -0.2638 -1.5461
 4694SOL     OW25717   1.492   1.019   1.744  0.3220  0.7935 -0.1748
 4694SOL    HW125718   1.412   1.018   1.692  0.6917 -0.1226 -0.7281
 4694SOL    HW225719   1.558   0.977   1.689  0.2799  0.1437  0.2582
 4695SOL     OW25720   2.670   2.673   5.260 -0.2547  0.1803  0.1156
 4695SOL    HW125721   2.705   2.645   5.345 -2.9744 -0.0694  1.1476
 4695SOL    HW225722   2.596   2.612   5.255  0.1414 -0.2743 -0.2825
 4696SOL     OW25723   3.454   3.830   8.762 -0.1076  0.0882 -0.3572
 4696SOL    HW125724   3.401   3.883   8.823  0.0153 -1.9245  1.4886
 4696SOL    HW225725   3.516   3.790   8.823 -1.5428 -1.9528 -0.2421
 4697SOL     OW25726   0.049   3.749   5.399  0.5518  0.7030  0.3989
 4697SOL    HW125727   0.118   3.803   5.360  0.1838  0.6977 -0.2603
 4697SOL    HW225728   4.711   3.754   5.341  1.2143  0.9086 -0.4700
 4698SOL     OW25729   4.354   3.208   3.995  0.2285 -0.0105 -0.1216
 4698SOL    HW125730   4.434   3.187   4.043  0.7867  1.2652 -0.5131
 4698SOL    HW225731   4.361   3.153   3.917 -4.3653 -2.0459  0.8668
 4699SOL     OW25732   3.152   3.160   0.598 -0.3973 -0.2189  0.7112
 4699SOL    HW125733   3.160   3.065   0.598  0.3884 -0.1595 -1.6844
 4699SOL    HW225734   3.101   3.176   0.677  0.2902  0.6839  0.9765
 4700SOL     OW25735   0.977   2.082  17.715 -0.0499 -0.3449 -0.0720
 4700SOL    HW125736   0.948   2.170  17.738 -0.1666 -0.7924  1.5220
 4700SOL    HW225737   0.915   2.030   0.015  0.8508  0.2821  1.6879
 4701SOL     OW25738   3.440   3.739   7.406 -0.4172  0.5587 -0.6761
 4701SOL    HW125739   3.470   3.829   7.414 -3.6773  1.4699  0.9839
 4701SOL    HW225740   3.346   3.752   7.409 -0.6397 -0.7818 -1.5202
 4702SOL     OW25741   2.598   1.253   4.802  0.1184  1.0254  0.4514
 4702SOL    HW125742   2.627   1.298   4.881 -0.1234  1.7509  0.1231
 4702SOL    HW225743   2.611   1.161   4.826  0.1791  0.6103 -1.1726
 4703SOL     OW25744   1.264   2.625   7.898 -0.1102 -0.3337  0.5820
 4703SOL    HW125745   1.348   2.603   7.940  0.3721 -0.0864 -0.2611
 4703SOL    HW225746   1.289   2.623   7.806 -0.0871 -0.5334  0.5908
 4704SOL     OW25747   0.075   3.995   1.917  0.0905  0.2056 -0.6628
 4704SOL    HW125748   0.001   4.000   1.856  0.7311  0.2548 -1.4344
 4704SOL    HW225749   0.089   3.900   1.918  0.3124  0.2878  2.1292
 4705SOL     OW25750   3.714   3.914   3.295  0.5416 -0.3034 -0.1054
 4705SOL    HW125751   3.763   3.995   3.277  0.0250  0.0644  0.1585
 4705SOL    HW225752   3.772   3.843   3.266 -1.9776 -1.8415 -1.3663
 4706SOL     OW25753   4.718   4.620   3.306 -0.2559 -0.2169  0.4158
 4706SOL    HW125754   0.025   4.565   3.370 -2.8503 -1.1700  1.3930
 4706SOL    HW225755   4.727   4.707   3.344  0.1394  0.4296 -1.1430
 4707SOL     OW25756   1.069   2.671   5.301  0.1782 -0.7562 -0.4079
 4707SOL    HW125757   1.065   2.729   5.377  0.6480 -0.8470 -0.3122
 4707SOL    HW225758   1.156   2.635   5.318  0.4818 -0.5917 -1.6460
 4708SOL     OW25759   2.506   1.457   2.079  0.2270  0.0684 -0.4295
 4708SOL    HW125760   2.594   1.494   2.066  0.4189 -0.6409 -1.1347
 4708SOL    HW225761   2.509   1.362   2.080  1.4290  0.1055  0.3697
 4709SOL     OW25762   4.051   1.319   7.402 -0.0062 -0.4881 -0.3849
 4709SOL    HW125763   3.999   1.300   7.480 -1.2302 -0.7046 -1.2708
 4709SOL    HW225764   3.976   1.321   7.344 -3.0380  0.1136  3.5234
 4710SOL     OW25765   4.662   1.177   1.832 -0.3845 -0.4849 -0.1924
 4710SOL    HW125766   4.590   1.130   1.874 -0.9123 -1.2545 -1.9509
 4710SOL    HW225767   4.619   1.207   1.752 -4.0325  2.6881  3.0127
 4711SOL     OW25768   2.218   4.077  10.806  0.7026  0.2241  0.0976
 4711SOL    HW125769   2.188   4.150  10.860 -1.9258 -2.3322  2.0908
 4711SOL    HW225770   2.164   4.010  10.848  1.8104 -1.0267 -0.4702
 4712SOL     OW25771   2.628   3.869   2.104  0.4607 -0.4300 -0.4141
 4712SOL    HW125772   2.709   3.822   2.125  0.4659 -0.1872  0.0840
 4712SOL    HW225773   2.647   3.877   2.010  0.3257 -0.4922 -0.4474
 4713SOL     OW25774   4.310   0.154   9.432 -0.0634 -0.4409  0.0855
 4713SOL    HW125775   4.214   0.144   9.436 -0.2742  2.2325  1.2424
 4713SOL    HW225776   4.316   0.238   9.476  1.0858  0.6460 -2.1703
 4714SOL     OW25777   1.166   3.636   4.133 -0.0596  0.2952 -0.0200
 4714SOL    HW125778   1.186   3.562   4.190  0.5978  0.7228  0.3030
 4714SOL    HW225779   1.169   3.709   4.195  0.4938  1.4780 -1.4363
 4715SOL     OW25780   1.780   3.531   6.712  0.0906 -0.3113  0.1221
 4715SOL    HW125781   1.848   3.585   6.672  0.0122 -1.3692 -1.4173
 4715SOL    HW225782   1.713   3.598   6.724  1.4537  1.0249  0.1212
 4716SOL     OW25783   0.195   3.891   5.215  0.9562 -0.0728 -0.5062
 4716SOL    HW125784   0.284   3.867   5.240  0.9338 -0.0126 -0.3712
 4716SOL    HW225785   0.210   3.913   5.123  0.2920  1.1792 -0.3253
 4717SOL     OW25786   3.235   0.354   4.478 -0.1380  0.6230  0.2137
 4717SOL    HW125787   3.303   0.315   4.424 -0.4006 -0.1055  0.4175
 4717SOL    HW225788   3.178   0.409   4.423  0.6387  0.5475 -0.6587
 4718SOL     OW25789   3.281   4.592   1.259 -0.0071  0.1606  0.6271
 4718SOL    HW125790   3.291   4.651   1.184 -2.2380  0.4134  0.5411
 4718SOL    HW225791   3.318   4.508   1.231  0.2221  0.4419  0.0764
 4719SOL     OW25792   4.295   2.734   9.018 -0.0848  0.3452  0.5262
 4719SOL    HW125793   4.213   2.708   9.060  0.3752  1.4577  2.1366
 4719SOL    HW225794   4.289   2.826   8.993  2.5395  0.2723 -0.3409
 4720SOL     OW25795   4.107   2.081   5.613 -0.1094  0.3161 -0.4398
 4720SOL    HW125796   4.022   2.071   5.571 -0.1064  0.3731 -0.4579
 4720SOL    HW225797   4.137   1.990   5.608  1.2709  0.7591 -0.2237
 4721SOL     OW25798   2.081   3.737   3.216  0.6891 -0.7944 -0.1355
 4721SOL    HW125799   2.085   3.691   3.132 -0.6888 -0.8356 -0.1790
 4721SOL    HW225800   2.168   3.777   3.215  0.1481  0.3849  0.9867
 4722SOL     OW25801   2.761   1.607   9.025  0.0798  0.8044  0.4600
 4722SOL    HW125802   2.814   1.627   9.102  0.9751 -1.7343  0.5091
 4722SOL    HW225803   2.751   1.512   9.030 -0.9508  0.7721 -1.9353
 4723SOL     OW25804   0.163   2.716   7.488 -0.5157 -1.0114  0.4176
 4723SOL    HW125805   0.108   2.650   7.529  0.1780 -0.7803  1.7176
 4723SOL    HW225806   0.249   2.676   7.504  0.4963  0.3358 -1.7140
 4724SOL     OW25807   1.797   0.380   5.001 -0.4670 -0.1822  0.4271
 4724SOL    HW125808   1.844   0.307   5.040  1.0680 -0.2770 -1.5849
 4724SOL    HW225809   1.773   0.431   5.078  1.3462  1.2143  0.0485
 4725SOL     OW25810   4.394   3.262   8.687  0.0746 -0.0654  0.2077
 4725SOL    HW125811   4.483   3.287   8.662 -0.8632  1.7785 -1.2869
 4725SOL    HW225812   4.405   3.168   8.672 -0.9289 -0.1766  0.1952
 4726SOL     OW25813   2.123   3.694   9.260  0.4292  0.7995  0.5610
 4726SOL    HW125814   2.055   3.762   9.259 -1.3971 -1.0393 -0.3715
 4726SOL    HW225815   2.115   3.643   9.180 -0.4784 -1.6535  2.2131
 4727SOL     OW25816   2.298   2.973   8.402 -0.5657 -0.1580  0.1026
 4727SOL    HW125817   2.346   3.004   8.325 -0.2076 -1.2894 -0.1369
 4727SOL    HW225818   2.287   3.058   8.444  0.7192  0.0231  0.0886
 4728SOL     OW25819   3.709   0.068  16.984  0.2077 -0.6461  0.2958
 4728SOL    HW125820   3.658   0.080  17.064  1.1201  2.0070  0.4944
 4728SOL    HW225821   3.788   0.023  17.013  0.4761  0.2780  0.9998
 4729SOL     OW25822   3.774   0.103   0.636  0.1819  0.0231  0.3313
 4729SOL    HW125823   3.833   0.140   0.570 -1.0104 -0.5120 -1.0432
 4729SOL    HW225824   3.830   0.107   0.714  1.4103 -0.5826 -0.5109
 4730SOL     OW25825   4.107   1.309   4.248  0.7517  0.5300  0.3107
 4730SOL    HW125826   4.023   1.354   4.233 -0.3990 -0.9235  2.3438
 4730SOL    HW225827   4.157   1.333   4.170  0.8728  0.1401  0.2674
 4731SOL     OW25828   2.961   2.165   1.538  0.0253 -0.2823 -0.3737
 4731SOL    HW125829   3.022   2.100   1.573 -1.9746 -1.8491  0.2038
 4731SOL    HW225830   2.901   2.111   1.486 -1.2522 -0.3935  1.2506
 4732SOL     OW25831   2.059   1.076   5.181 -0.1330  1.0044 -0.3007
 4732SOL    HW125832   1.967   1.102   5.183 -0.9984 -1.8687 -1.6446
 4732SOL    HW225833   2.084   1.163   5.211 -0.1194  1.0484 -0.4370
 4733SOL     OW25834   0.599   1.365   4.578  0.8285  0.1018 -0.0640
 4733SOL    HW125835   0.660   1.355   4.650  1.6256  1.1059 -0.6003
 4733SOL    HW225836   0.538   1.294   4.599 -0.0926  1.0324  0.3937
 4734SOL     OW25837   3.861   4.564   3.127  0.4034  0.0684 -0.1678
 4734SOL    HW125838   3.937   4.620   3.147  0.7659 -0.7116  0.6449
 4734SOL    HW225839   3.804   4.591   3.199 -1.8089 -1.8314 -1.2055
 4735SOL     OW25840   1.269   0.819   5.159 -0.3591 -0.0358  1.2003
 4735SOL    HW125841   1.197   0.879   5.141  0.0529 -0.7076 -2.6024
 4735SOL    HW225842   1.289   0.794   5.069 -2.6505  0.7429  0.4800
 4736SOL     OW25843   0.948   4.550   2.388  0.0379  1.1052  0.1408
 4736SOL    HW125844   0.920   4.474   2.336  1.4183  1.2233 -0.7499
 4736SOL    HW225845   0.884   4.549   2.460 -0.7219 -1.0678 -0.5521
 4737SOL     OW25846   4.274   1.726  15.639  0.4401  0.1061  0.1100
 4737SOL    HW125847   4.230   1.811  15.626 -0.7052 -0.7400 -1.6121
 4737SOL    HW225848   4.366   1.752  15.646  0.6513 -0.5086 -0.3906
 4738SOL     OW25849   1.814   4.661  12.890 -0.3407  0.1277  0.2446
 4738SOL    HW125850   1.909   4.668  12.881 -0.3012 -1.0518 -0.2235
 4738SOL    HW225851   1.817   4.582  12.943 -0.8464 -0.3847 -0.4851
 4739SOL     OW25852   2.740   1.737   4.780  0.0883  0.3398 -0.2946
 4739SOL    HW125853   2.774   1.765   4.695  0.1048  0.9277 -0.0964
 4739SOL    HW225854   2.811   1.684   4.815 -0.7104 -0.1952  0.5270
 4740SOL     OW25855   3.406   1.984   3.839  0.0303  0.1224  0.1662
 4740SOL    HW125856   3.366   1.928   3.773  2.2481 -2.0378  0.6585
 4740SOL    HW225857   3.333   2.044   3.853 -0.6886 -1.1072  1.6910
 4741SOL     OW25858   0.472   1.011  11.543  0.3843 -0.1272  0.3600
 4741SOL    HW125859   0.508   1.098  11.525 -0.5681 -0.1511 -1.6722
 4741SOL    HW225860   0.461   0.971  11.456  0.0441  2.6079 -0.8524
 4742SOL     OW25861   0.008   1.730   1.351  0.3641  0.1980 -0.1754
 4742SOL    HW125862   0.088   1.684   1.329  0.7130  2.3312 -3.4736
 4742SOL    HW225863   0.051   1.807   1.389 -1.1336  2.6573 -3.4285
 4743SOL     OW25864   4.660   3.484   1.337 -0.2272  0.4016  0.3160
 4743SOL    HW125865   4.713   3.559   1.309  0.7071 -0.0845  0.7920
 4743SOL    HW225866   4.715   3.406   1.327 -0.0598  0.4105  1.2293
 4744SOL     OW25867   3.901   3.436  12.318  0.6745  0.2255  1.2183
 4744SOL    HW125868   3.919   3.342  12.306  2.6218  0.6606  0.7971
 4744SOL    HW225869   3.987   3.477  12.309 -0.7449  3.1991  1.1423
 4745SOL     OW25870   2.830   2.857  16.436  0.5633  0.0115 -0.7597
 4745SOL    HW125871   2.895   2.853  16.366  0.0656 -1.0589 -1.1648
 4745SOL    HW225872   2.777   2.778  16.425  0.5154  0.1288 -1.3970
 4746SOL     OW25873   1.635   0.169   2.783  0.2412  0.0091 -0.1268
 4746SOL    HW125874   1.684   0.141   2.860 -0.3552 -1.9525 -0.4670
 4746SOL    HW225875   1.698   0.144   2.716 -0.0522 -2.0511  0.3646
 4747SOL     OW25876   1.620   2.913   5.272  0.0848 -0.4703  0.3033
 4747SOL    HW125877   1.710   2.944   5.261  0.4763 -2.2519 -1.5997
 4747SOL    HW225878   1.582   2.957   5.348  1.3018 -1.0464  1.2493
 4748SOL     OW25879   2.509   4.476  12.642  0.1760  0.0928 -0.3582
 4748SOL    HW125880   2.580   4.413  12.627  0.7290  0.5684  0.2601
 4748SOL    HW225881   2.498   4.491  12.736  0.0169  0.5192 -0.4461
 4749SOL     OW25882   0.063   1.513   7.900  0.0335 -0.0905 -0.1187
 4749SOL    HW125883   0.000   1.556   7.841 -2.2225 -2.3262  0.6544
 4749SOL    HW225884   0.026   1.519   7.988 -0.7961  0.3814 -0.4976
 4750SOL     OW25885   1.234   2.943   6.846  0.1693  0.1892  0.0702
 4750SOL    HW125886   1.166   3.001   6.880 -1.2499 -0.5769 -1.5018
 4750SOL    HW225887   1.177   2.881   6.801  1.0006 -0.3258 -0.2744
 4751SOL     OW25888   0.995   1.546  16.923 -0.1827  0.5351 -0.1954
 4751SOL    HW125889   1.026   1.456  16.928  1.3351  1.1489  1.1692
 4751SOL    HW225890   1.013   1.566  16.831  1.3283 -1.3917 -0.3005
 4752SOL     OW25891   1.062   1.884   1.091 -0.7406  0.2382  0.2433
 4752SOL    HW125892   1.086   1.798   1.058  1.1356  1.7367 -2.2822
 4752SOL    HW225893   1.144   1.930   1.077 -0.6056 -0.1896 -0.3394
 4753SOL     OW25894   2.677   2.346   5.611  0.9169  0.1985 -0.2015
 4753SOL    HW125895   2.639   2.420   5.659 -1.7240 -4.4055  4.8286
 4753SOL    HW225896   2.732   2.402   5.556  1.2104 -1.0887 -1.2071
 4754SOL     OW25897   4.528   1.576   3.835  0.0321  0.6612  0.2145
 4754SOL    HW125898   4.580   1.568   3.915  1.2574 -3.5313 -0.9904
 4754SOL    HW225899   4.594   1.571   3.766 -0.6444  1.5244 -0.4903
 4755SOL     OW25900   3.110   3.017   3.323 -0.1315 -0.3145 -0.1257
 4755SOL    HW125901   3.030   3.044   3.370  0.1524  0.7892 -0.2724
 4755SOL    HW225902   3.076   2.979   3.242 -2.0748  0.9392  0.0804
 4756SOL     OW25903   2.042   1.994   3.681 -0.0769 -0.3878 -0.1206
 4756SOL    HW125904   1.960   1.952   3.655 -0.1091 -0.3004 -0.1603
 4756SOL    HW225905   2.032   1.982   3.776  1.7748  3.1295  0.5074
 4757SOL     OW25906   0.344   1.162   3.923 -0.0679 -0.5940  0.2899
 4757SOL    HW125907   0.392   1.201   3.851 -0.9414 -0.7342 -0.3681
 4757SOL    HW225908   0.254   1.169   3.891 -0.0359 -0.9832  0.1266
 4758SOL     OW25909   2.680   2.867   9.345  0.1913  0.0326  0.5039
 4758SOL    HW125910   2.590   2.833   9.344 -0.8841  2.9645 -1.0386
 4758SOL    HW225911   2.699   2.909   9.261 -0.3320 -0.4783  0.1273
 4759SOL     OW25912   3.685   0.843   6.156 -0.1828  0.1111  0.0786
 4759SOL    HW125913   3.721   0.929   6.178 -1.2538  0.5915 -0.0647
 4759SOL    HW225914   3.655   0.859   6.067  0.8159 -1.2244 -0.4999
 4760SOL     OW25915   3.795   1.604   8.716  0.4033 -0.2325  0.8880
 4760SOL    HW125916   3.842   1.683   8.690  0.7453 -0.0710  1.9759
 4760SOL    HW225917   3.860   1.553   8.764 -1.1778 -0.4906  2.7936
 4761SOL     OW25918   4.494   4.656  12.375  0.4633 -0.3425  0.1206
 4761SOL    HW125919   4.471   4.698  12.458  0.6783  1.8079 -0.9173
 4761SOL    HW225920   4.589   4.657  12.372  0.4075  0.4574 -1.6383
 4762SOL     OW25921   0.116   0.526   5.869  0.3871  0.1405  0.0947
 4762SOL    HW125922   0.206   0.497   5.853  0.1082 -0.0059 -1.2269
 4762SOL    HW225923   0.099   0.478   5.950  0.6737  2.5055  1.5753
 4763SOL     OW25924   2.823   4.585   7.608  0.2566  0.2436  0.1720
 4763SOL    HW125925   2.734   4.550   7.621 -0.1826  1.0236 -0.7297
 4763SOL    HW225926   2.828   4.660   7.666 -1.5781 -1.2189  2.2186
 4764SOL     OW25927   0.733   4.545   6.552  0.5477 -0.4575 -0.1484
 4764SOL    HW125928   0.800   4.498   6.503  0.3221 -0.2125 -0.7009
 4764SOL    HW225929   0.770   4.555   6.639 -0.3885 -2.6397  0.4796
 4765SOL     OW25930   1.961   1.340   3.951 -0.0773  0.0274  0.1674
 4765SOL    HW125931   1.893   1.285   3.912  0.1027  0.4499 -0.7389
 4765SOL    HW225932   2.001   1.280   4.013 -1.0914 -0.6628  0.1440
 4766SOL     OW25933   0.088   3.453   2.312  0.0956  0.1748  0.3278
 4766SOL    HW125934   0.097   3.388   2.381  0.4557  0.6262  0.7140
 4766SOL    HW225935   4.734   3.478   2.323 -0.6315 -1.8692 -1.2084
 4767SOL     OW25936   1.056   2.227   4.548  0.0397 -0.2167  1.5744
 4767SOL    HW125937   1.140   2.246   4.589  1.4671 -1.1933 -0.9320
 4767SOL    HW225938   1.061   2.286   4.474  0.3884  0.0375  1.8010
 4768SOL     OW25939   1.661   0.638  10.705  0.0176  0.0212 -0.0089
 4768SOL    HW125940   1.700   0.551  10.699 -0.9851 -0.5257  1.5910
 4768SOL    HW225941   1.740   0.689  10.722  0.2290  0.0678 -1.0889
 4769SOL     OW25942   2.712   2.186  15.195 -0.1539  0.2409  0.1845
 4769SOL    HW125943   2.700   2.242  15.271  0.3326 -0.1926  0.5782
 4769SOL    HW225944   2.666   2.104  15.215 -0.6286  0.8447  1.5614
 4770SOL     OW25945   0.590   0.408  10.347  0.7417  0.6091 -0.0217
 4770SOL    HW125946   0.644   0.486  10.365  0.7097  0.4794  0.6501
 4770SOL    HW225947   0.608   0.349  10.420  0.0765  0.0821 -0.2879
 4771SOL     OW25948   1.442   4.181   2.914  0.1343 -0.3297 -0.1322
 4771SOL    HW125949   1.370   4.208   2.970  0.4470  0.8022 -0.2741
 4771SOL    HW225950   1.413   4.095   2.885 -0.6532  0.7747 -2.6740
 4772SOL     OW25951   1.583   2.895   0.103  0.4043  0.3372 -0.1734
 4772SOL    HW125952   1.514   2.842   0.143  0.3745  0.8400  0.4497
 4772SOL    HW225953   1.663   2.845   0.119 -1.6723 -2.8016  0.3716
 4773SOL     OW25954   0.426   1.063   6.011 -0.6639  0.2431  1.0497
 4773SOL    HW125955   0.435   1.039   5.919  0.7996  1.8710  0.7698
 4773SOL    HW225956   0.508   1.108   6.032 -0.8979  0.7770  0.8182
 4774SOL     OW25957   2.782   2.136   1.321  0.2177 -0.8463  0.5258
 4774SOL    HW125958   2.794   2.048   1.355  1.8885 -1.6153 -2.0124
 4774SOL    HW225959   2.806   2.115   1.231  0.6805 -1.6732  0.8464
 4775SOL     OW25960   3.760   1.232   5.758  0.2734  0.4575 -0.1724
 4775SOL    HW125961   3.755   1.270   5.846  0.2616  0.4782 -0.1821
 4775SOL    HW225962   3.855   1.229   5.745 -0.0212 -0.0062 -2.3094
 4776SOL     OW25963   4.576   1.760  15.685  0.1008  0.3057 -0.0422
 4776SOL    HW125964   4.650   1.728  15.632 -0.3659 -0.8426 -0.0012
 4776SOL    HW225965   4.534   1.825  15.628 -1.2732 -0.9346 -0.4635
 4777SOL     OW25966   0.677   1.288   7.544 -0.4053 -0.0017  0.7016
 4777SOL    HW125967   0.602   1.338   7.573  0.4268  2.4069 -1.3849
 4777SOL    HW225968   0.745   1.342   7.585 -1.4408  1.0133  1.0456
 4778SOL     OW25969   0.966   1.647   8.491  0.1553 -0.1215  0.6607
 4778SOL    HW125970   1.060   1.662   8.502  0.0747  0.6040  0.3905
 4778SOL    HW225971   0.937   1.722   8.438 -1.1953 -0.2016  1.3045
 4779SOL     OW25972   0.635   3.502  10.682  0.5148  0.5153  0.1723
 4779SOL    HW125973   0.658   3.570  10.619 -0.0294  1.4955  1.0454
 4779SOL    HW225974   0.544   3.490  10.653  1.3571 -0.5014 -2.1372
 4780SOL     OW25975   2.040   3.978   9.479  0.1708 -0.8728 -0.1933
 4780SOL    HW125976   2.057   4.059   9.528 -2.3901  0.0068 -0.7114
 4780SOL    HW225977   2.102   3.915   9.514 -0.3173 -0.1891  1.9219
 4781SOL     OW25978   2.427   2.415   7.569 -0.0547  0.2190 -0.2320
 4781SOL    HW125979   2.377   2.337   7.545  0.0504 -0.3723  1.5270
 4781SOL    HW225980   2.373   2.462   7.633  2.2485  2.3267  0.1772
 4782SOL     OW25981   3.814   2.351  17.294  0.1944  0.3107 -0.1150
 4782SOL    HW125982   3.734   2.339  17.242  0.6348  0.1756 -0.7569
 4782SOL    HW225983   3.867   2.413  17.244  0.3522  1.0060  0.9002
 4783SOL     OW25984   0.278   2.071  16.346 -0.1940 -0.3479  0.2253
 4783SOL    HW125985   0.356   2.019  16.365  1.1652  2.4349  2.1507
 4783SOL    HW225986   0.241   2.036  16.265  2.1753  1.2724 -1.5362
 4784SOL     OW25987   1.963   1.507   2.144  0.5473  0.3531  0.1894
 4784SOL    HW125988   1.967   1.592   2.187  1.0815  0.7426 -0.6279
 4784SOL    HW225989   1.869   1.494   2.155  0.7203 -1.6535 -0.6625
 4785SOL     OW25990   1.007   3.332   5.001  0.3492 -0.1242  0.1493
 4785SOL    HW125991   0.922   3.290   4.988  0.2737  0.4645 -1.3604
 4785SOL    HW225992   0.972   3.421   5.000  0.8407  0.0839  1.7584
 4786SOL     OW25993   0.033   2.106   4.818  0.1561  0.0196 -0.6856
 4786SOL    HW125994   0.021   2.194   4.784  0.3240  0.2557 -0.1423
 4786SOL    HW225995   4.683   2.073   4.798  0.3004 -0.3080 -0.7846
 4787SOL     OW25996   0.749   2.873   2.686  0.2780 -0.3447  0.2906
 4787SOL    HW125997   0.695   2.951   2.677  0.3982 -0.3225 -0.1921
 4787SOL    HW225998   0.742   2.860   2.781  0.0458  0.7378  0.4139
 4788SOL     OW25999   2.520   1.747   3.724  0.0820 -0.2669 -0.2844
 4788SOL    HW126000   2.584   1.693   3.679 -0.7883 -2.5969  1.2665
 4788SOL    HW226001   2.550   1.838   3.715 -2.0110 -0.0718 -5.0820
 4789SOL     OW26002   0.603   3.259  17.389 -0.4338 -0.2794  0.2649
 4789SOL    HW126003   0.541   3.333  17.390  2.0007  1.7630 -0.8331
 4789SOL    HW226004   0.653   3.280  17.468 -1.2803  2.3039  0.1128
 4790SOL     OW26005   1.746   4.735   6.941 -0.0202  0.4123  0.0333
 4790SOL    HW126006   1.707   0.043   6.866 -2.3488  2.3907  2.4804
 4790SOL    HW226007   1.823   4.693   6.901 -0.2553 -0.8827  0.9544
 4791SOL     OW26008   1.723   3.742  10.585 -0.0857  0.0782 -0.4748
 4791SOL    HW126009   1.690   3.655  10.561 -0.6335  0.7164 -2.0966
 4791SOL    HW226010   1.685   3.793  10.513 -2.0970  0.5278  0.8942
 4792SOL     OW26011   1.030   2.177   3.332 -0.0471  0.1608 -0.2517
 4792SOL    HW126012   1.117   2.206   3.306  1.1225 -2.7339  0.4989
 4792SOL    HW226013   1.038   2.180   3.427  1.5899 -0.5841 -0.3805
 4793SOL     OW26014   3.973   0.588   1.726  0.2501 -0.0079  0.0987
 4793SOL    HW126015   3.904   0.653   1.734  0.8174  0.8993 -2.4428
 4793SOL    HW226016   3.998   0.570   1.816 -1.7113 -1.8479  0.2899
 4794SOL     OW26017   3.450   0.886  14.982  0.2271  0.2851  0.1926
 4794SOL    HW126018   3.488   0.822  15.043 -1.1781  0.2719  1.0436
 4794SOL    HW226019   3.470   0.849  14.896 -0.8000  1.9241 -0.7308
 4795SOL     OW26020   4.237   3.027   2.633  0.1847  0.1614  0.0728
 4795SOL    HW126021   4.296   3.091   2.592  1.4484 -1.4076 -0.5962
 4795SOL    HW226022   4.206   3.000   2.546  0.0153  1.7814 -0.3671
 4796SOL     OW26023   2.179   3.998   6.358 -0.2843 -0.6271  0.1450
 4796SOL    HW126024   2.223   4.066   6.307  1.0448 -2.3754 -1.0384
 4796SOL    HW226025   2.138   3.960   6.280 -0.9845  0.8905 -0.2152
 4797SOL     OW26026   4.141   3.283   1.252 -0.2119 -0.0837 -0.4876
 4797SOL    HW126027   4.206   3.327   1.197 -0.2029 -0.1463 -0.5276
 4797SOL    HW226028   4.095   3.353   1.297  1.0250  1.5451 -1.7612
 4798SOL     OW26029   0.620   0.789  14.634 -0.1594  0.3010 -0.2135
 4798SOL    HW126030   0.620   0.773  14.539 -0.6935 -2.1411  0.2031
 4798SOL    HW226031   0.593   0.880  14.621  0.5867  0.6173  0.4703
 4799SOL     OW26032   0.986   2.193   4.151 -0.0528  0.5825  0.2692
 4799SOL    HW126033   1.006   2.263   4.213 -0.0439  1.8745 -1.2025
 4799SOL    HW226034   0.988   2.113   4.203 -0.0653  0.4684  0.0935
 4800SOL     OW26035   4.256   4.328   7.618 -0.2473  0.0750 -0.1994
 4800SOL    HW126036   4.175   4.286   7.647 -0.3875 -0.7612 -1.7961
 4800SOL    HW226037   4.218   4.413   7.595  0.6323  0.8653  1.2830
 4801SOL     OW26038   1.641   3.975  11.599 -0.0857 -0.2500 -0.2016
 4801SOL    HW126039   1.732   3.983  11.568 -0.7996  2.4244 -1.5519
 4801SOL    HW226040   1.642   3.879  11.607  0.0393 -0.0505  2.1018
 4802SOL     OW26041   4.399   1.584  17.201 -0.0936 -0.0593  0.3284
 4802SOL    HW126042   4.484   1.543  17.184 -0.6579 -0.8589 -0.6098
 4802SOL    HW226043   4.416   1.671  17.165  2.1009 -0.3004  0.7963
 4803SOL     OW26044   2.988   3.422   5.118 -0.1066  0.4431 -0.3135
 4803SOL    HW126045   2.898   3.413   5.151  0.4816  1.0104  1.4158
 4803SOL    HW226046   2.974   3.486   5.049  0.0665  1.8941  1.0076
 4804SOL     OW26047   3.668   1.793  15.779  0.2967 -0.6422 -0.2189
 4804SOL    HW126048   3.743   1.823  15.830  0.5264  1.1245 -1.5784
 4804SOL    HW226049   3.598   1.778  15.842  1.1442 -0.8442  0.6779
 4805SOL     OW26050   3.456   2.010   8.761  0.3242 -0.4806  0.4773
 4805SOL    HW126051   3.377   1.955   8.764  0.8710 -1.3333 -1.1693
 4805SOL    HW226052   3.460   2.031   8.668 -0.9377  1.0417  0.7576
 4806SOL     OW26053   2.778   3.057  14.008 -0.4051  0.5765 -0.4279
 4806SOL    HW126054   2.820   2.973  14.025 -0.1461  0.3910 -2.0162
 4806SOL    HW226055   2.838   3.122  14.047 -0.0390  0.0064 -0.0458
 4807SOL     OW26056   2.167   1.141   7.496  0.0014 -0.2617 -0.1076
 4807SOL    HW126057   2.198   1.061   7.538 -0.9429 -1.4018 -1.5527
 4807SOL    HW226058   2.185   1.122   7.404  1.3732 -2.6662  0.6564
 4808SOL     OW26059   0.727   3.623   4.556 -0.4168  0.0076 -0.0928
 4808SOL    HW126060   0.697   3.693   4.498  0.2701  2.7121  2.8743
 4808SOL    HW226061   0.797   3.578   4.508 -1.5688 -0.9226 -0.9040
 4809SOL     OW26062   4.002   1.375   8.812 -0.1575  0.0628  0.3051
 4809SOL    HW126063   4.085   1.341   8.846 -0.0450 -0.9686 -0.9747
 4809SOL    HW226064   3.946   1.359   8.888 -0.9353  0.5051 -0.1670
 4810SOL     OW26065   0.581   2.447  11.747  0.0495 -0.1241 -0.4501
 4810SOL    HW126066   0.514   2.425  11.812 -0.5863 -1.1869 -1.4885
 4810SOL    HW226067   0.549   2.400  11.670  0.4468 -2.3171  0.7209
 4811SOL     OW26068   3.389   3.610  15.267 -0.3600 -0.0112 -0.1179
 4811SOL    HW126069   3.353   3.645  15.185 -1.4323  0.3953  0.5229
 4811SOL    HW226070   3.477   3.647  15.266  1.0460 -3.3421  0.5226
 4812SOL     OW26071   1.803   2.270  17.077  0.1187  0.2157 -0.1299
 4812SOL    HW126072   1.857   2.264  16.998  0.1188  2.0042 -0.2716
 4812SOL    HW226073   1.748   2.194  17.062  0.0749 -0.2837  2.4417
 4813SOL     OW26074   4.081   0.078   2.952  0.0854  0.4247  0.0363
 4813SOL    HW126075   4.136   0.118   2.885  2.3775 -2.1404  0.4091
 4813SOL    HW226076   4.008   0.066   2.891  0.8432 -1.2361 -0.5363
 4814SOL     OW26077   3.145   1.820  11.293  0.0110 -0.0859 -0.0706
 4814SOL    HW126078   3.139   1.915  11.283  0.3459 -0.2040 -1.2930
 4814SOL    HW226079   3.180   1.816  11.382 -2.0088 -1.4354  0.6690
 4815SOL     OW26080   3.425   2.743   2.871  0.2242 -0.0271  0.5668
 4815SOL    HW126081   3.496   2.805   2.857  2.5087 -2.9786 -0.9058
 4815SOL    HW226082   3.401   2.718   2.782  1.7275 -1.0435  0.4506
 4816SOL     OW26083   0.292   0.105   8.640  0.6457  0.0704  0.1204
 4816SOL    HW126084   0.296   0.200   8.649  0.8953  0.2481 -1.8041
 4816SOL    HW226085   0.383   0.079   8.655  0.3228 -1.6117 -0.8880
 4817SOL     OW26086   3.514   1.870   9.586  0.0595 -0.1029  0.3976
 4817SOL    HW126087   3.441   1.829   9.539  0.2987 -0.4010  0.2889
 4817SOL    HW226088   3.561   1.916   9.517 -2.4074  0.8260 -0.6637
 4818SOL     OW26089   3.696   2.721   8.813  0.0970 -0.0423  0.9664
 4818SOL    HW126090   3.695   2.808   8.853  0.6925 -0.3142  1.5677
 4818SOL    HW226091   3.737   2.735   8.728 -0.8329  0.4993  0.6096
 4819SOL     OW26092   0.476   4.676   6.111 -0.4037  0.7617  0.3395
 4819SOL    HW126093   0.472   4.597   6.165 -2.2741 -1.4305 -2.9744
 4819SOL    HW226094   0.495   0.000   6.181  0.9134  0.9527 -0.1920
 4820SOL     OW26095   3.178   1.789   2.711 -0.4000 -0.4536 -0.2431
 4820SOL    HW126096   3.167   1.710   2.658  0.4974  0.2851 -1.5303
 4820SOL    HW226097   3.085   1.799   2.735 -0.2903 -0.4640  0.1810
 4821SOL     OW26098   2.321   3.646   6.573  0.8490  0.1956  0.1641
 4821SOL    HW126099   2.349   3.732   6.606  0.6554  0.6860 -0.9218
 4821SOL    HW226100   2.346   3.587   6.644 -0.5165 -0.0639  0.4392
 4822SOL     OW26101   4.549   0.150   3.410 -0.2426  0.1064 -0.5396
 4822SOL    HW126102   4.629   0.157   3.357 -1.2625 -0.1055 -2.1230
 4822SOL    HW226103   4.550   0.242   3.438 -0.6120 -0.3449  0.9593
 4823SOL     OW26104   2.398   1.940   7.290  0.4755 -0.2246 -0.3944
 4823SOL    HW126105   2.430   1.898   7.369  0.8819 -0.5089 -0.7176
 4823SOL    HW226106   2.469   1.959   7.228 -0.9365  0.1018 -1.9262
 4824SOL     OW26107   4.184   2.778   6.967  0.5557 -0.7775 -0.1377
 4824SOL    HW126108   4.161   2.795   6.876  0.5484 -0.8327 -0.1459
 4824SOL    HW226109   4.122   2.705   6.977 -1.4582  0.9256 -0.2049
 4825SOL     OW26110   3.336   1.737  11.953 -0.1389 -0.1410 -0.3791
 4825SOL    HW126111   3.410   1.682  11.926 -0.6399 -0.1081 -1.8088
 4825SOL    HW226112   3.376   1.812  11.998 -1.4513  0.7353 -0.6710
 4826SOL     OW26113   3.920   2.988   9.126 -0.0582  0.8235  0.7059
 4826SOL    HW126114   3.964   3.071   9.110 -0.5703  0.7764 -0.9854
 4826SOL    HW226115   3.984   2.942   9.180  1.1169 -1.3075 -2.5283
 4827SOL     OW26116   1.474   0.266   4.470 -0.0133  0.3458 -0.4453
 4827SOL    HW126117   1.456   0.360   4.472  0.4730  0.4572 -1.2060
 4827SOL    HW226118   1.487   0.245   4.563  2.7031  3.1234 -0.2214
 4828SOL     OW26119   2.628   0.709   5.555 -0.3616 -0.0187 -0.1671
 4828SOL    HW126120   2.703   0.700   5.496 -0.6109  0.0938 -0.5023
 4828SOL    HW226121   2.554   0.690   5.497 -2.7677 -2.7699  3.8310
 4829SOL     OW26122   3.291   2.362   3.792 -0.5644  0.0755 -0.5911
 4829SOL    HW126123   3.205   2.396   3.767 -0.2968 -0.4212 -2.1924
 4829SOL    HW226124   3.314   2.410   3.872 -0.3959  0.7896 -1.0633
 4830SOL     OW26125   3.005   4.505   4.992 -0.0445  0.6060 -0.2963
 4830SOL    HW126126   3.086   4.459   4.968  0.2179  1.5818 -1.2347
 4830SOL    HW226127   2.990   4.470   5.080 -1.9382  0.1444 -0.7961
 4831SOL     OW26128   2.598   2.579   3.227 -0.7418 -0.2438 -0.3003
 4831SOL    HW126129   2.595   2.485   3.208 -1.6710 -0.4840  1.0794
 4831SOL    HW226130   2.548   2.577   3.308 -1.1813 -0.1351 -0.5718
 4832SOL     OW26131   2.594   3.318  14.925  0.4079 -0.6127 -0.5703
 4832SOL    HW126132   2.642   3.392  14.887 -0.5992  0.9503  1.1800
 4832SOL    HW226133   2.580   3.358  15.011  0.6340  0.3661 -0.9921
 4833SOL     OW26134   2.142   2.298   1.841  0.5316 -0.0886 -0.6407
 4833SOL    HW126135   2.106   2.258   1.762  0.0287 -0.6533 -0.1228
 4833SOL    HW226136   2.205   2.361   1.806 -1.2466  2.1624  0.2303
 4834SOL     OW26137   3.346   4.606   2.983  0.3541  0.1142  0.4430
 4834SOL    HW126138   3.351   4.685   2.929  0.5660 -0.7800 -0.8456
 4834SOL    HW226139   3.441   4.599   2.995  0.2053 -0.2651  1.3659
 4835SOL     OW26140   4.451   4.094  11.710 -0.4275 -0.0237 -0.2664
 4835SOL    HW126141   4.542   4.095  11.678  0.7070  0.9515  3.0119
 4835SOL    HW226142   4.452   4.012  11.759  1.1279  0.0082 -0.2273
 4836SOL     OW26143   2.283   0.559  17.194  0.2736  0.2178 -0.0956
 4836SOL    HW126144   2.327   0.516  17.121 -1.0067  0.3827 -0.9671
 4836SOL    HW226145   2.358   0.589  17.246  0.8248  0.2793 -0.9184
 4837SOL     OW26146   1.334   1.067   6.535  0.7289  0.1699  0.3099
 4837SOL    HW126147   1.310   1.106   6.619  1.1111  0.1647  0.4210
 4837SOL    HW226148   1.288   0.983   6.530 -1.0844  1.2163 -0.6089
 4838SOL     OW26149   2.327   3.067   7.933 -0.1186 -0.2845  0.0825
 4838SOL    HW126150   2.314   3.012   7.855 -3.5715 -0.6243  0.9280
 4838SOL    HW226151   2.422   3.061   7.923  0.0907  0.8798  1.4066
 4839SOL     OW26152   2.939   0.357  15.611 -0.8717 -0.0252  0.8324
 4839SOL    HW126153   3.028   0.327  15.591 -0.0334  2.7001  0.5072
 4839SOL    HW226154   2.885   0.323  15.539 -0.5791 -0.0830  0.6382
 4840SOL     OW26155   3.042   2.478   5.198 -0.3505 -0.2257  0.0493
 4840SOL    HW126156   3.103   2.540   5.237  0.7359 -1.0875 -0.2835
 4840SOL    HW226157   3.085   2.395   5.218 -1.4054 -0.8651 -0.3113
 4841SOL     OW26158   0.046   1.176   5.237 -0.3258 -0.0820  0.4467
 4841SOL    HW126159   0.060   1.120   5.160  1.0986 -0.9079  1.3070
 4841SOL    HW226160   4.717   1.122   5.278  1.1657 -3.1558 -1.1742
 4842SOL     OW26161   2.429   2.599   5.131 -0.3043  0.2316  0.2439
 4842SOL    HW126162   2.418   2.562   5.218 -0.0270  1.0202  0.6141
 4842SOL    HW226163   2.405   2.691   5.141  3.0790  1.0536  0.8605
 4843SOL     OW26164   3.596   0.260  12.489  0.6990 -0.1386  0.7510
 4843SOL    HW126165   3.515   0.311  12.493  0.0733 -1.0519 -0.7967
 4843SOL    HW226166   3.660   0.329  12.510  1.2548 -0.5718  0.4617
 4844SOL     OW26167   1.627   1.848   4.269  0.2426 -0.0789  0.2225
 4844SOL    HW126168   1.699   1.809   4.318 -0.1357 -1.8768 -0.6701
 4844SOL    HW226169   1.574   1.769   4.269 -1.1004  0.8176 -1.3107
 4845SOL     OW26170   0.342   3.708   7.224 -0.0221  0.2554 -0.2585
 4845SOL    HW126171   0.396   3.779   7.260 -1.2157 -0.3063  2.6881
 4845SOL    HW226172   0.396   3.630   7.226  1.4536  1.1912 -3.6000
 4846SOL     OW26173   1.761   3.868   3.572 -0.1029 -0.2006 -0.5668
 4846SOL    HW126174   1.833   3.883   3.633 -0.8033 -0.7299  0.3720
 4846SOL    HW226175   1.729   3.781   3.597  2.2282 -1.0081 -0.3818
 4847SOL     OW26176   2.211   3.127   5.280 -0.0610 -0.3016 -0.3948
 4847SOL    HW126177   2.166   3.185   5.341  1.9925  0.9917 -0.1104
 4847SOL    HW226178   2.254   3.192   5.224  1.6261 -1.3448 -0.3015
 4848SOL     OW26179   0.026   4.548   7.157 -0.0404 -0.1791 -0.4417
 4848SOL    HW126180   4.716   4.467   7.138  0.6815 -1.2069  2.0895
 4848SOL    HW226181   4.705   4.588   7.221  1.5086 -1.1127  1.5723
 4849SOL     OW26182   3.197   1.236   3.982 -0.6764 -0.1911 -0.3849
 4849SOL    HW126183   3.102   1.243   3.991 -0.4614  1.8455  0.2412
 4849SOL    HW226184   3.223   1.261   3.894 -1.6319  3.1081  0.2796
 4850SOL     OW26185   3.088   1.031   5.511 -0.1780  0.0153  0.3304
 4850SOL    HW126186   3.150   1.095   5.544 -1.4065  2.3196 -1.8432
 4850SOL    HW226187   3.148   0.963   5.480  0.7671  1.5708 -1.2847
 4851SOL     OW26188   1.745   1.678   4.482  0.4345  0.3569 -0.6342
 4851SOL    HW126189   1.700   1.594   4.491  1.6659  0.1739  3.6070
 4851SOL    HW226190   1.832   1.642   4.462  1.5622  3.0038 -0.4038
 4852SOL     OW26191   1.594   4.071   6.750  0.4416 -0.5348  0.2892
 4852SOL    HW126192   1.528   4.095   6.815 -0.1442 -0.6153 -0.2796
 4852SOL    HW226193   1.675   4.065   6.801 -0.1483  1.0451  1.4277
 4853SOL     OW26194   2.634   1.929   5.921 -0.0777 -0.2900  0.5026
 4853SOL    HW126195   2.673   1.887   5.844 -1.2017 -0.4454  0.0200
 4853SOL    HW226196   2.654   2.020   5.898 -3.7315  0.6450  0.9251
 4854SOL     OW26197   3.091   1.117  16.186  0.0192  0.3267  0.2597
 4854SOL    HW126198   3.014   1.159  16.148  0.5221  1.1476  0.1490
 4854SOL    HW226199   3.099   1.178  16.260  0.5325 -1.2835  1.5370
 4855SOL     OW26200   2.668   4.392   2.675  0.3029 -0.5338 -0.5826
 4855SOL    HW126201   2.654   4.314   2.621 -0.8222 -1.2727  0.7696
 4855SOL    HW226202   2.615   4.455   2.627  0.6904  0.0088 -0.3000
 4856SOL     OW26203   0.500   4.564   0.053  0.0696  0.5195  0.0968
 4856SOL    HW126204   0.577   4.583   0.107  1.0945  0.7613 -1.4462
 4856SOL    HW226205   0.504   4.628  17.731 -0.3742 -0.2718 -0.6223
 4857SOL     OW26206   0.125   2.512   1.673 -0.5743 -0.4059 -0.1311
 4857SOL    HW126207   0.161   2.601   1.668  0.4407 -0.6951  2.1784
 4857SOL    HW226208   0.049   2.531   1.617 -0.1232  0.0394 -0.5958
 4858SOL     OW26209   3.168   3.034  10.386  0.5411 -0.1625  0.3205
 4858SOL    HW126210   3.162   3.054  10.292  0.5184 -1.2972  0.0820
 4858SOL    HW226211   3.212   3.110  10.424  0.8524 -1.1319  1.8749
 4859SOL     OW26212   3.693   2.145   4.561 -0.4006  0.2395  0.0875
 4859SOL    HW126213   3.758   2.205   4.598 -0.6500  0.9020 -0.5603
 4859SOL    HW226214   3.699   2.169   4.469  2.4394 -2.1468 -0.3341
 4860SOL     OW26215   4.234   3.877   1.155  0.1037  0.0335  0.1156
 4860SOL    HW126216   4.142   3.903   1.159 -0.5864 -2.0100 -2.3568
 4860SOL    HW226217   4.267   3.889   1.244 -2.0705  0.9029  0.8137
 4861SOL     OW26218   0.155   1.395   8.484 -0.3172  0.1283 -0.4339
 4861SOL    HW126219   0.171   1.306   8.450  1.8524  0.0572  0.8003
 4861SOL    HW226220   0.060   1.395   8.497 -0.0991 -1.5721  1.1177
 4862SOL     OW26221   2.929   2.541   3.058  0.5554  0.0905  0.4254
 4862SOL    HW126222   2.879   2.563   2.980  3.9139 -0.2528 -1.8630
 4862SOL    HW226223   2.904   2.449   3.065 -1.0212  0.4861 -0.1706
 4863SOL     OW26224   4.416   1.719  15.272 -0.6195  0.2142  0.2816
 4863SOL    HW126225   4.459   1.698  15.355  1.5493 -2.1140 -1.4041
 4863SOL    HW226226   4.477   1.674  15.213  0.3890  0.2184  1.3315
 4864SOL     OW26227   3.738   0.636   6.775 -0.6958 -0.8127  0.8496
 4864SOL    HW126228   3.820   0.629   6.726 -0.5790  1.1873  0.7617
 4864SOL    HW226229   3.718   0.724   6.745 -2.2874 -1.4214  0.0857
 4865SOL     OW26230   3.713   0.485   8.352  0.6326  0.4005 -0.4650
 4865SOL    HW126231   3.704   0.396   8.319  1.8652  0.2839 -0.4993
 4865SOL    HW226232   3.676   0.534   8.279  2.8656  1.4608 -0.8740
 4866SOL     OW26233   0.162   3.379   1.718 -0.0480 -0.0462  0.1542
 4866SOL    HW126234   0.119   3.406   1.800  1.5054  0.2758  0.8811
 4866SOL    HW226235   0.175   3.466   1.680 -0.7837 -0.2758 -0.6256
 4867SOL     OW26236   2.139   2.716   4.379 -0.1433 -0.6076 -0.3783
 4867SOL    HW126237   2.048   2.741   4.395  0.7598  1.3379  1.7954
 4867SOL    HW226238   2.153   2.644   4.441  0.8089 -0.4746 -0.4409
 4868SOL     OW26239   4.621   1.784  11.546  0.0180  0.2491 -0.3624
 4868SOL    HW126240   4.620   1.840  11.623 -1.9014  0.7503 -0.7337
 4868SOL    HW226241   4.715   1.766  11.548  0.4183  2.5808  1.4470
 4869SOL     OW26242   1.886   1.163   3.405 -0.1300  0.1513  0.0700
 4869SOL    HW126243   1.795   1.134   3.400 -0.6030  1.6324  0.1706
 4869SOL    HW226244   1.918   1.165   3.315  0.0554  0.8937  0.1538
 4870SOL     OW26245   4.719   3.661   3.725  0.0484  0.0084 -0.6792
 4870SOL    HW126246   0.064   3.697   3.757  0.4949 -1.4740 -0.1602
 4870SOL    HW226247   4.658   3.726   3.760  0.2052 -1.3037  2.0862
 4871SOL     OW26248   4.371   1.119   5.945  0.1739  0.5293 -0.5126
 4871SOL    HW126249   4.392   1.106   6.037 -2.4626  0.2700  0.0463
 4871SOL    HW226250   4.424   1.197   5.927  1.8363 -0.1235  1.5074
 4872SOL     OW26251   0.836   2.704   5.142  0.0821  0.4999 -0.2405
 4872SOL    HW126252   0.826   2.619   5.099 -1.6190 -0.2701  1.7373
 4872SOL    HW226253   0.899   2.688   5.212 -2.7508 -1.6464  1.8198
 4873SOL     OW26254   2.577   2.506   8.735 -0.7306  0.8205 -0.3965
 4873SOL    HW126255   2.629   2.503   8.654 -0.4071 -2.2873 -0.0689
 4873SOL    HW226256   2.569   2.599   8.753 -2.4916  0.8867 -1.5074
 4874SOL     OW26257   0.893   0.015  16.746 -0.1779  0.1212  0.2932
 4874SOL    HW126258   0.808   0.059  16.752 -0.2708  0.2357 -1.7798
 4874SOL    HW226259   0.866   4.694  16.675  0.3598  0.7180 -0.4064
 4875SOL     OW26260   1.132   1.210  17.535  0.0036  0.0209 -0.4158
 4875SOL    HW126261   1.143   1.277  17.468  0.1322 -0.9807 -1.3841
 4875SOL    HW226262   1.217   1.165  17.540 -0.6447 -1.1227  0.3633
 4876SOL     OW26263   2.836   3.176  11.901 -0.0402 -0.0058 -0.3518
 4876SOL    HW126264   2.815   3.095  11.948 -1.7423  1.2908  1.1004
 4876SOL    HW226265   2.759   3.173  11.846  0.2798 -3.9809 -0.6200
 4877SOL     OW26266   4.120   1.019   9.218 -0.0116  0.1925  0.1075
 4877SOL    HW126267   4.125   0.941   9.164  2.4699  0.9449 -0.7620
 4877SOL    HW226268   4.153   0.987   9.302  0.3257 -0.0994 -0.1377
 4878SOL     OW26269   2.187   0.195   0.282 -0.0463  0.2523 -0.4453
 4878SOL    HW126270   2.096   0.167   0.279 -0.0495  0.2352 -0.1320
 4878SOL    HW226271   2.190   0.235   0.195 -2.1595  0.4449 -0.4193
 4879SOL     OW26272   3.767   3.125   9.651  0.1586  0.4161 -0.3692
 4879SOL    HW126273   3.836   3.069   9.687 -0.9993 -1.4655 -1.0861
 4879SOL    HW226274   3.719   3.164   9.724  0.2455  0.4097 -0.3091
 4880SOL     OW26275   2.601   0.896   4.328  0.0293  0.0087  0.1524
 4880SOL    HW126276   2.639   0.808   4.326 -2.5846 -1.0887 -1.1555
 4880SOL    HW226277   2.576   0.909   4.419 -0.5702 -4.0329  0.5879
 4881SOL     OW26278   1.858   0.303   0.425 -0.7124 -0.8199  0.3672
 4881SOL    HW126279   1.792   0.372   0.415  2.5984  2.3049 -0.1963
 4881SOL    HW226280   1.862   0.284   0.331  1.3498 -0.1014  0.3034
 4882SOL     OW26281   0.132   1.813   5.818 -0.1548 -0.1334 -0.5479
 4882SOL    HW126282   0.148   1.903   5.790  0.5746 -0.3939 -0.9734
 4882SOL    HW226283   0.038   1.821   5.838  0.1466  1.5198  0.2037
 4883SOL     OW26284   1.040   1.634  13.986  0.4700  0.1638 -0.0368
 4883SOL    HW126285   1.012   1.542  13.981 -1.7705  0.8483  0.0837
 4883SOL    HW226286   0.959   1.671  14.021 -0.2230 -2.5895  1.3174
 4884SOL     OW26287   4.363   3.508   8.006  0.0620  0.2352  0.1783
 4884SOL    HW126288   4.376   3.482   7.915  0.2212 -2.2471  0.9047
 4884SOL    HW226289   4.352   3.418   8.038 -0.0194  0.2809  0.2763
 4885SOL     OW26290   1.433   2.731  13.096  0.1702  0.2961  0.3574
 4885SOL    HW126291   1.473   2.728  13.009  0.5387  0.5989  0.5118
 4885SOL    HW226292   1.409   2.823  13.084 -0.5162  0.1516  0.6398
 4886SOL     OW26293   0.415   0.026   0.849  0.1529  0.4099  0.1209
 4886SOL    HW126294   0.430   4.671   0.865  1.2132  0.1950 -2.1500
 4886SOL    HW226295   0.499   0.067   0.870  0.6035 -0.9596  0.9157
 4887SOL     OW26296   3.598   0.184   5.738 -0.5139  0.2650 -0.2493
 4887SOL    HW126297   3.688   0.217   5.738 -0.3884 -0.0807 -3.0960
 4887SOL    HW226298   3.560   0.231   5.812  0.4804  0.9609 -0.1734
 4888SOL     OW26299   0.304   2.548   7.844 -0.1831  0.2893  0.2504
 4888SOL    HW126300   0.372   2.517   7.784 -0.0957  0.5542  0.2119
 4888SOL    HW226301   0.367   2.565   7.914  1.3228  1.2577 -1.3499
 4889SOL     OW26302   0.685   0.354  11.361  0.0789 -0.1964 -0.5477
 4889SOL    HW126303   0.642   0.393  11.285 -0.1964 -0.5046 -0.5485
 4889SOL    HW226304   0.773   0.388  11.345  0.8309 -2.1011 -0.4090
 4890SOL     OW26305   1.230   1.775   7.802 -0.0381  0.0195 -0.0505
 4890SOL    HW126306   1.187   1.848   7.758  0.5089  1.1595  1.2913
 4890SOL    HW226307   1.160   1.759   7.866 -1.6625  0.1774 -1.7994
 4891SOL     OW26308   3.105   1.888   9.600  0.3076  1.0398  0.0262
 4891SOL    HW126309   3.070   1.931   9.522 -1.3551  0.8015  0.6510
 4891SOL    HW226310   3.176   1.843   9.553  1.8365  1.3795  2.0328
 4892SOL     OW26311   0.650   3.451   3.387  0.4675 -0.4962  0.3181
 4892SOL    HW126312   0.636   3.544   3.404 -1.2961 -0.5505 -0.8709
 4892SOL    HW226313   0.659   3.446   3.291 -0.8071  1.9651  0.0661
 4893SOL     OW26314   1.969   2.466   4.001  0.1066 -0.0477  0.0119
 4893SOL    HW126315   2.062   2.467   4.024  0.1344  0.7869 -0.1357
 4893SOL    HW226316   1.965   2.372   4.014  0.5706 -0.1634 -0.6991
 4894SOL     OW26317   0.206   4.192   3.151  0.4698  0.1387  0.0112
 4894SOL    HW126318   0.128   4.193   3.207  1.6257  1.7101  1.5753
 4894SOL    HW226319   0.231   4.283   3.135 -0.1014  0.1714 -0.7118
 4895SOL     OW26320   0.555   4.669   2.440  0.2206 -0.8103  0.3499
 4895SOL    HW126321   0.469   4.710   2.434  1.2478  0.9145 -2.7416
 4895SOL    HW226322   0.601   4.732   2.383  0.5317 -2.7091 -1.4857
 4896SOL     OW26323   4.041   0.449   8.991  0.3696  0.2023  0.2115
 4896SOL    HW126324   3.963   0.457   9.045 -1.0092  0.0509 -1.7711
 4896SOL    HW226325   4.108   0.421   9.053  1.2499  0.3718 -0.6512
 4897SOL     OW26326   1.947   4.315  16.688 -0.2467 -0.0265 -0.4231
 4897SOL    HW126327   1.998   4.379  16.738  0.1387 -0.2380 -0.5420
 4897SOL    HW226328   2.015   4.305  16.621  1.1353 -1.1430  1.1632
 4898SOL     OW26329   3.168   2.510   4.024  0.0256 -0.1902 -0.4119
 4898SOL    HW126330   3.232   2.574   4.056 -1.0039 -0.1889  1.5725
 4898SOL    HW226331   3.099   2.561   3.982 -0.0340  0.0903  0.0393
 4899SOL     OW26332   4.567   0.995   5.320 -0.1532 -0.6459  0.5840
 4899SOL    HW126333   4.475   0.999   5.346 -0.0278  1.3172  0.7192
 4899SOL    HW226334   4.586   0.923   5.381  0.8788  1.4272  2.6790
 4900SOL     OW26335   2.811   3.903  16.142  0.0796  0.2442 -0.3291
 4900SOL    HW126336   2.774   3.957  16.212  2.4951  1.3647  0.0993
 4900SOL    HW226337   2.904   3.908  16.163 -0.4719 -2.1911  2.6747
 4901SOL     OW26338   1.480   4.249   3.256  0.4087  0.4100  0.2034
 4901SOL    HW126339   1.525   4.164   3.258  2.4459  1.5163  1.2320
 4901SOL    HW226340   1.531   4.285   3.328  0.8863  3.9341 -1.9307
 4902SOL     OW26341   3.057   0.773  17.329  0.6901 -0.2431 -0.3524
 4902SOL    HW126342   3.144   0.795  17.296 -0.0330  0.7400 -1.6089
 4902SOL    HW226343   3.061   0.809  17.418 -1.6686  3.2030 -1.6283
 4903SOL     OW26344   3.732   0.342   2.826  0.2330 -0.5574 -0.0580
 4903SOL    HW126345   3.781   0.263   2.803 -0.7093 -0.5538 -2.0713
 4903SOL    HW226346   3.662   0.304   2.880 -0.5708  2.7290  1.2138
 4904SOL     OW26347   3.070   0.615   1.866 -0.1748 -1.1125  0.1747
 4904SOL    HW126348   2.994   0.654   1.908 -0.6674 -1.6140 -0.2547
 4904SOL    HW226349   3.099   0.563   1.941 -1.8378 -0.2835  1.4022
 4905SOL     OW26350   3.836   0.559   4.697 -0.3726 -0.5884  0.7021
 4905SOL    HW126351   3.784   0.526   4.770 -0.7615 -0.7608  0.3456
 4905SOL    HW226352   3.843   0.482   4.641  0.6525 -0.6343  0.8850
 4906SOL     OW26353   2.059   4.574   6.484 -0.5012  0.0478 -0.1360
 4906SOL    HW126354   2.050   4.659   6.441 -4.4455 -0.3627 -0.1515
 4906SOL    HW226355   1.980   4.526   6.461 -1.0129  0.2158  1.2528
 4907SOL     OW26356   3.373   1.972   0.579 -0.0658  0.6216  0.6820
 4907SOL    HW126357   3.337   2.061   0.580 -0.1261  0.5772  3.2433
 4907SOL    HW226358   3.339   1.932   0.499 -2.5201 -0.4416  2.2550
 4908SOL     OW26359   2.056   0.890   4.976  0.1544  0.1147  0.0545
 4908SOL    HW126360   1.993   0.934   4.919 -0.3492 -1.1289 -0.3514
 4908SOL    HW226361   2.077   0.967   5.030  1.1278 -0.3203  0.2999
 4909SOL     OW26362   3.657   4.088   7.643  0.6013  0.2558 -0.3823
 4909SOL    HW126363   3.620   4.043   7.567  2.2390 -0.6840 -0.6363
 4909SOL    HW226364   3.733   4.131   7.602  0.7034 -0.0204 -0.4798
 4910SOL     OW26365   2.338   3.432  13.811  0.4623  0.0643 -0.6343
 4910SOL    HW126366   2.243   3.447  13.805  0.1449 -1.9647 -0.7875
 4910SOL    HW226367   2.361   3.444  13.903  0.8362  0.5198 -0.7902
 4911SOL     OW26368   2.440   4.112   9.480 -0.0020  0.6724  0.0533
 4911SOL    HW126369   2.394   4.071   9.407 -1.8443  0.1749  1.4711
 4911SOL    HW226370   2.501   4.044   9.507 -1.4504  0.3616  2.5524
 4912SOL     OW26371   2.732   4.380   7.248 -0.3743  0.3944 -0.2102
 4912SOL    HW126372   2.786   4.458   7.260 -2.3634  1.8413 -0.8337
 4912SOL    HW226373   2.726   4.344   7.337 -0.5360 -0.4567 -0.5609
 4913SOL     OW26374   2.072   3.536  16.920 -0.2035 -0.2435 -0.6844
 4913SOL    HW126375   1.983   3.569  16.933  0.6968  2.4017 -1.3135
 4913SOL    HW226376   2.118   3.615  16.946  0.8249 -1.1308  0.1810
 4914SOL     OW26377   3.705   3.583   6.132 -0.5014 -0.6198  0.1819
 4914SOL    HW126378   3.644   3.511   6.146  1.7233 -1.9675  2.7704
 4914SOL    HW226379   3.776   3.538   6.087  1.7028  0.6193  2.4531
 4915SOL     OW26380   4.168   0.981  12.724 -0.1473  0.0068 -0.3233
 4915SOL    HW126381   4.193   0.995  12.815 -0.4183 -1.9727  0.0554
 4915SOL    HW226382   4.193   1.062  12.679  2.0624 -0.5490 -0.1103
 4916SOL     OW26383   1.409   3.960   1.198  0.0361  0.0088  0.1950
 4916SOL    HW126384   1.351   4.021   1.243  0.1859 -0.3015  0.8019
 4916SOL    HW226385   1.418   3.896   1.269  0.8766 -0.8619 -0.6934
 4917SOL     OW26386   4.202   1.045   3.387 -0.1717  0.1024  0.0609
 4917SOL    HW126387   4.174   1.095   3.310 -1.4283 -0.1170  0.3865
 4917SOL    HW226388   4.202   0.955   3.353  1.1276  0.0458  0.1886
 4918SOL     OW26389   2.880   3.088  16.165 -0.3911  0.2252  0.4951
 4918SOL    HW126390   2.949   3.143  16.128 -0.2184 -0.0958  0.3420
 4918SOL    HW226391   2.910   2.999  16.149 -0.5060  0.9156 -3.4912
 4919SOL     OW26392   3.478   0.186   5.134 -0.2182 -0.2135 -0.4644
 4919SOL    HW126393   3.410   0.124   5.162 -1.3867  0.3761 -2.0343
 4919SOL    HW226394   3.429   0.244   5.076  0.9239  1.1123 -0.0882
 4920SOL     OW26395   0.621   3.887   5.005  0.6190 -0.3054  0.3096
 4920SOL    HW126396   0.593   3.827   4.936 -1.9872  0.5757  0.6269
 4920SOL    HW226397   0.536   3.876   5.048  0.8623  0.0159  0.8775
 4921SOL     OW26398   2.088   1.612  17.747 -0.0125  0.0695 -0.7719
 4921SOL    HW126399   2.122   1.575   0.078  0.9202  0.0347 -1.1831
 4921SOL    HW226400   1.997   1.638   0.010 -0.1828 -0.3331 -1.1856
 4922SOL     OW26401   3.214   3.700   2.891  0.1846  0.4131 -0.3605
 4922SOL    HW126402   3.288   3.683   2.949 -1.1993 -1.1706  0.9377
 4922SOL    HW226403   3.262   3.731   2.814 -0.8904  0.9506 -0.8186
 4923SOL     OW26404   0.977   3.115   6.675 -0.2532 -0.1944  0.2452
 4923SOL    HW126405   1.049   3.170   6.645 -1.4461  2.1112  1.6013
 4923SOL    HW226406   0.982   3.142   6.767 -3.0139  1.0035  0.0526
 4924SOL     OW26407   2.854   0.105   7.097 -0.3909 -0.1324  0.2178
 4924SOL    HW126408   2.770   0.067   7.123 -0.2728 -2.0726 -2.2251
 4924SOL    HW226409   2.884   0.157   7.171 -0.4331  1.8026 -1.1307
 4925SOL     OW26410   0.924   4.504   3.635 -0.4188  0.4508 -0.4782
 4925SOL    HW126411   0.901   4.412   3.638 -0.8260  0.6176  1.3676
 4925SOL    HW226412   0.939   4.516   3.541  1.3018  1.6010 -0.0735
 4926SOL     OW26413   3.583   4.046  12.385  0.3103 -0.0582 -0.4577
 4926SOL    HW126414   3.616   4.099  12.312  1.0490 -0.0137 -0.0871
 4926SOL    HW226415   3.492   4.072  12.400  0.6388  0.7036  0.1904
 4927SOL     OW26416   0.419   3.842   2.600 -0.1350  0.5590  0.5351
 4927SOL    HW126417   0.421   3.757   2.556 -1.1557  0.9619 -0.2858
 4927SOL    HW226418   0.329   3.874   2.603 -0.5870 -0.8911  2.6624
 4928SOL     OW26419   1.025   1.231  11.286  0.0381 -0.2915 -0.7078
 4928SOL    HW126420   0.992   1.147  11.318 -1.0946  1.3824  2.4707
 4928SOL    HW226421   0.943   1.281  11.291  1.3747  1.7759  0.3996
 4929SOL     OW26422   0.218   0.798  11.425  0.4861  0.2153 -0.4996
 4929SOL    HW126423   0.255   0.859  11.361  0.4795 -0.4462 -1.1397
 4929SOL    HW226424   0.182   0.727  11.371 -1.7394  1.5365 -0.7296
 4930SOL     OW26425   2.229   4.388  17.082 -0.0913  0.4290  0.1336
 4930SOL    HW126426   2.318   4.357  17.064 -0.3782  0.9515 -2.2105
 4930SOL    HW226427   2.196   4.333  17.153 -1.0104 -1.2497 -1.6006
 4931SOL     OW26428   0.798   0.815  14.855 -0.3600 -0.8394  0.0037
 4931SOL    HW126429   0.731   0.792  14.790  0.2138  0.3115 -0.9653
 4931SOL    HW226430   0.794   0.910  14.843 -0.1171 -0.6506  1.4188
 4932SOL     OW26431   1.701   1.541   9.315  0.2578 -0.5233 -0.3876
 4932SOL    HW126432   1.640   1.615   9.312  0.4354 -0.3434  0.6931
 4932SOL    HW226433   1.745   1.562   9.397 -0.4896  1.9054 -0.6184
 4933SOL     OW26434   0.411   1.764  14.192 -0.0702 -0.2482 -0.0151
 4933SOL    HW126435   0.346   1.720  14.138 -1.4133  0.1989  1.2593
 4933SOL    HW226436   0.382   1.854  14.178 -0.6232 -0.1941  1.4355
 4934SOL     OW26437   0.469   3.534  13.886 -0.1191  0.5735 -0.6125
 4934SOL    HW126438   0.551   3.583  13.892  0.5633 -0.6382 -0.0310
 4934SOL    HW226439   0.483   3.462  13.825 -2.5910 -0.4359  0.0097
 4935SOL     OW26440   0.964   0.571   4.570  0.0050 -0.2100 -0.1629
 4935SOL    HW126441   0.957   0.579   4.475 -0.1889 -0.5984 -0.1795
 4935SOL    HW226442   0.873   0.579   4.600 -0.0489 -0.7744 -0.1825
 4936SOL     OW26443   3.387   3.364   1.771  0.3154 -0.1188  0.3498
 4936SOL    HW126444   3.301   3.375   1.811  0.2073  0.4136 -0.0244
 4936SOL    HW226445   3.364   3.375   1.679 -0.7752  3.3907  1.0565
 4937SOL     OW26446   0.523   3.791   4.743  0.3277 -0.0281  0.1907
 4937SOL    HW126447   0.598   3.827   4.696 -0.2798  1.0892  0.0579
 4937SOL    HW226448   0.463   3.865   4.748 -0.8026 -0.9090 -0.1896
 4938SOL     OW26449   4.046   2.143   0.436  0.3948  0.1673 -0.5018
 4938SOL    HW126450   4.062   2.051   0.418  2.1420  0.2719  0.4349
 4938SOL    HW226451   3.954   2.143   0.463  0.5936  0.7583  0.1810
 4939SOL     OW26452   1.523   4.450   5.129 -0.2380 -0.3324 -0.0131
 4939SOL    HW126453   1.465   4.479   5.200  1.2630  2.0925  0.2039
 4939SOL    HW226454   1.503   4.513   5.060  2.2436 -1.1821 -1.4858
 4940SOL     OW26455   1.477   2.549   6.698  0.7410 -0.0645 -0.4482
 4940SOL    HW126456   1.491   2.458   6.722 -1.1003  0.0152  0.9014
 4940SOL    HW226457   1.434   2.579   6.778  0.7061 -0.8702 -0.1680
 4941SOL     OW26458   0.274   1.350   1.631  0.5261 -0.0556 -0.3301
 4941SOL    HW126459   0.336   1.422   1.639  1.2218 -0.5517 -1.1926
 4941SOL    HW226460   0.321   1.286   1.685  0.4181  0.4545  0.3740
 4942SOL     OW26461   4.368   1.369  14.414  0.2918 -0.1714 -0.0937
 4942SOL    HW126462   4.435   1.387  14.480 -0.0669 -1.0393  0.5238
 4942SOL    HW226463   4.391   1.278  14.395 -0.7852 -0.3367 -0.5843
 4943SOL     OW26464   3.459   1.907  12.167 -0.1551  0.4291  0.2643
 4943SOL    HW126465   3.536   1.932  12.217  0.3899 -1.1660  0.2417
 4943SOL    HW226466   3.400   1.886  12.239  0.4323  1.2510  0.9769
 4944SOL     OW26467   1.860   2.875   6.179 -0.0413 -0.1572  0.2067
 4944SOL    HW126468   1.887   2.916   6.262  1.2971 -0.1663 -0.2255
 4944SOL    HW226469   1.942   2.885   6.130 -1.0642  0.7793 -1.2770
 4945SOL     OW26470   1.081   0.856   6.349  0.2322 -0.1760 -0.1605
 4945SOL    HW126471   1.001   0.858   6.402  0.2701  0.2988 -0.1173
 4945SOL    HW226472   1.146   0.816   6.408  0.4628  0.6092  0.1205
 4946SOL     OW26473   2.098   3.497  16.252 -0.1504 -0.2212  0.0644
 4946SOL    HW126474   2.014   3.513  16.210 -0.3087 -0.7316  0.1756
 4946SOL    HW226475   2.112   3.580  16.298 -2.3405 -0.0928  0.4963
 4947SOL     OW26476   3.435   3.155   5.558 -0.4705 -0.6320  0.5367
 4947SOL    HW126477   3.502   3.223   5.570  0.2969 -0.9736 -1.9038
 4947SOL    HW226478   3.414   3.161   5.465  0.9854  2.0743  0.3839
 4948SOL     OW26479   2.358   2.984   5.769 -0.2832  0.0681  0.2770
 4948SOL    HW126480   2.360   2.969   5.863 -0.9415  0.7813  0.4038
 4948SOL    HW226481   2.404   3.068   5.762 -0.0372 -0.3765 -3.2302
 4949SOL     OW26482   3.024   0.564   5.097  0.0510  0.6327  0.2516
 4949SOL    HW126483   3.119   0.565   5.079 -0.2090  1.7069 -1.0884
 4949SOL    HW226484   3.040   0.569   5.192  1.7208  3.4484 -0.1641
 4950SOL     OW26485   4.075   3.541   3.059 -0.8139 -0.5868 -0.0015
 4950SOL    HW126486   4.168   3.543   3.038 -0.5150  0.7285  1.4623
 4950SOL    HW226487   4.059   3.456   3.100 -1.2020 -0.0188  1.0296
 4951SOL     OW26488   0.535   0.056   4.459  0.2439  0.0861  0.2047
 4951SOL    HW126489   0.589   0.093   4.389 -1.3353  2.1171  0.0613
 4951SOL    HW226490   0.491   4.729   4.405  0.6669  0.0043 -0.0440
 4952SOL     OW26491   2.458   2.274   9.443 -0.5786 -0.2014  0.5020
 4952SOL    HW126492   2.468   2.348   9.503  2.1109  0.2180 -0.4625
 4952SOL    HW226493   2.390   2.305   9.383  0.6361 -0.1457 -0.8414
 4953SOL     OW26494   4.165   3.514   9.624 -0.0383  0.0461  0.1262
 4953SOL    HW126495   4.240   3.553   9.580 -0.3568  1.1513  0.5466
 4953SOL    HW226496   4.142   3.568   9.700  0.9246  0.2270  0.2925
 4954SOL     OW26497   1.322   0.689   2.430  0.9914  0.0993 -0.1954
 4954SOL    HW126498   1.249   0.751   2.437  1.4110  0.3671  1.5674
 4954SOL    HW226499   1.276   0.613   2.394  0.9903 -0.1354  0.3149
 4955SOL     OW26500   0.182   3.421   6.401 -0.2751  0.3201 -0.2573
 4955SOL    HW126501   0.216   3.336   6.429  0.1324  0.4255 -0.4279
 4955SOL    HW226502   0.262   3.454   6.358 -0.7778  1.0566 -0.6351
 4956SOL     OW26503   2.027   2.253   1.602 -0.7194  0.7347 -0.6576
 4956SOL    HW126504   2.032   2.326   1.540 -1.4984  1.2810 -0.0766
 4956SOL    HW226505   2.007   2.179   1.544  1.2889 -0.3286  0.0141
 4957SOL     OW26506   2.691   1.371  12.486  0.5988 -0.5624 -0.2336
 4957SOL    HW126507   2.712   1.407  12.400 -2.7072 -1.1616 -1.2830
 4957SOL    HW226508   2.674   1.446  12.542  1.2506 -1.2767  0.9395
 4958SOL     OW26509   4.497   0.204   5.070 -0.0620  0.4810 -0.1742
 4958SOL    HW126510   4.495   0.156   5.153 -0.2989  2.1230  0.7677
 4958SOL    HW226511   4.489   0.290   5.110 -3.5022  0.1022 -0.0469
 4959SOL     OW26512   4.652   1.328  10.654 -0.5208  0.2683  0.1113
 4959SOL    HW126513   4.725   1.268  10.669  0.1266  1.5291  1.8876
 4959SOL    HW226514   4.604   1.279  10.721  1.3809  0.0948  1.3312
 4960SOL     OW26515   0.764   1.301   4.796  0.2600 -0.0236  0.4130
 4960SOL    HW126516   0.854   1.332   4.787  0.1384  0.3362  0.4390
 4960SOL    HW226517   0.774   1.223   4.851  2.3533 -1.0373 -1.4119
 4961SOL     OW26518   1.453   3.463   9.275  0.0249 -0.6441 -0.1450
 4961SOL    HW126519   1.400   3.527   9.324  1.5652 -0.7029  1.5905
 4961SOL    HW226520   1.396   3.388   9.290 -0.3260 -0.4043 -0.2624
 4962SOL     OW26521   2.737   1.832  11.054 -0.5874  0.6940 -0.2329
 4962SOL    HW126522   2.653   1.808  11.091  1.0676 -4.0513  0.3809
 4962SOL    HW226523   2.793   1.765  11.094 -0.2414  1.0078 -0.1880
 4963SOL     OW26524   3.722   2.522  14.576 -0.0206 -0.5809  0.0150
 4963SOL    HW126525   3.675   2.553  14.653  0.3488  1.3790 -0.5471
 4963SOL    HW226526   3.701   2.430  14.592  0.0851 -0.5593  0.2936
 4964SOL     OW26527   4.503   2.208  14.735 -0.1880  0.5406 -0.2929
 4964SOL    HW126528   4.423   2.246  14.772 -0.9537 -0.9215 -0.4497
 4964SOL    HW226529   4.555   2.208  14.816  1.8155 -0.7392 -1.5931
 4965SOL     OW26530   3.107   0.906   2.780 -0.3987  0.2085  0.2550
 4965SOL    HW126531   3.177   0.855   2.820  0.3968 -0.4531 -1.9988
 4965SOL    HW226532   3.104   0.865   2.693  0.8844 -0.2984  0.4583
 4966SOL     OW26533   3.200   0.089  10.855 -0.2414 -0.4052  0.0994
 4966SOL    HW126534   3.200   0.172  10.903  1.7417 -0.7218  0.6382
 4966SOL    HW226535   3.248   0.116  10.776 -0.5378 -4.9959 -1.6254
 4967SOL     OW26536   2.298   3.213   1.937  0.5133  0.0927 -0.4994
 4967SOL    HW126537   2.234   3.176   1.998  0.9717 -1.5540 -1.0106
 4967SOL    HW226538   2.307   3.134   1.884 -2.3322 -0.2492 -0.4676
 4968SOL     OW26539   3.709   3.003   0.448 -0.2280 -0.4955 -0.5528
 4968SOL    HW126540   3.758   2.924   0.425 -1.8116 -1.3477 -1.0352
 4968SOL    HW226541   3.622   2.965   0.437 -0.6147  0.6140 -1.3496
 4969SOL     OW26542   3.553   0.310  15.781  0.5049 -0.0166  0.1883
 4969SOL    HW126543   3.484   0.253  15.815 -1.4119  2.8588  1.1608
 4969SOL    HW226544   3.547   0.289  15.688  1.2697  3.3579 -0.6588
 4970SOL     OW26545   1.818   0.081   2.961  0.2849 -0.0568 -0.0666
 4970SOL    HW126546   1.914   0.081   2.957  0.2351 -1.0230 -1.2819
 4970SOL    HW226547   1.807   0.053   3.052  1.0357 -0.2374 -0.0289
 4971SOL     OW26548   2.858   0.437  12.064 -0.2506 -0.6519  0.4768
 4971SOL    HW126549   2.915   0.430  12.141  0.5102 -0.4931 -0.0715
 4971SOL    HW226550   2.819   0.349  12.067 -0.3573 -0.6136  0.2385
 4972SOL     OW26551   1.861   1.798  14.005 -0.2043  0.0816 -0.3814
 4972SOL    HW126552   1.833   1.883  13.970 -3.4889 -1.1428 -0.6973
 4972SOL    HW226553   1.954   1.819  14.014 -0.0218 -1.4151  1.2092
 4973SOL     OW26554   3.503   4.735   3.518  0.3147 -0.0817  0.2194
 4973SOL    HW126555   3.469   0.056   3.585 -0.7778 -0.5552  0.0770
 4973SOL    HW226556   3.578   0.053   3.498  1.5818 -0.8922  2.7130
 4974SOL     OW26557   4.335   4.239   5.699 -0.3491 -0.2073  0.4901
 4974SOL    HW126558   4.262   4.246   5.637 -1.3507 -1.4058  1.5346
 4974SOL    HW226559   4.289   4.259   5.781 -1.6238  0.7261 -0.4388
 4975SOL     OW26560   0.385   0.661  17.558 -0.6398  0.4276  0.2743
 4975SOL    HW126561   0.445   0.730  17.588 -0.0477  0.5915 -1.2986
 4975SOL    HW226562   0.341   0.646  17.642  0.0592  1.6354  0.8723
 4976SOL     OW26563   3.002   3.804   5.253 -0.2257 -0.5600  0.2834
 4976SOL    HW126564   3.037   3.767   5.172  0.4779  0.1260  0.2781
 4976SOL    HW226565   2.913   3.821   5.221  0.8012  0.2441 -2.1547
 4977SOL     OW26566   2.327   1.778   6.799  0.1616  0.2639 -0.0623
 4977SOL    HW126567   2.385   1.768   6.874  0.4679 -1.1467 -0.4826
 4977SOL    HW226568   2.348   1.702   6.744 -0.5106 -0.4638  0.6962
 4978SOL     OW26569   2.814   4.180   6.117 -0.0003 -0.7859  0.8429
 4978SOL    HW126570   2.782   4.091   6.134  0.7669 -1.1666  0.3188
 4978SOL    HW226571   2.864   4.202   6.195  0.6459 -0.6639  0.3921
 4979SOL     OW26572   1.068   2.014   2.498 -0.1614  0.3622  0.4185
 4979SOL    HW126573   1.064   2.069   2.420 -2.2836  0.6909  0.7495
 4979SOL    HW226574   1.028   1.930   2.476  0.1538  0.2516  0.2646
 4980SOL     OW26575   1.265   4.307  13.620  0.3214  0.1457 -0.3996
 4980SOL    HW126576   1.209   4.368  13.668  2.5473  1.6433  0.2820
 4980SOL    HW226577   1.221   4.318  13.536 -0.8638 -2.1646 -0.0820
 4981SOL     OW26578   0.792   3.514  11.728  0.2011 -0.1075  0.1694
 4981SOL    HW126579   0.845   3.594  11.723  1.8004 -1.2304 -0.7939
 4981SOL    HW226580   0.744   3.527  11.810 -1.6229  0.3946 -0.9748
 4982SOL     OW26581   1.362   2.725   5.895 -0.1755 -0.3205 -0.0123
 4982SOL    HW126582   1.401   2.734   5.808 -2.5870  1.2595 -0.9245
 4982SOL    HW226583   1.361   2.631   5.912 -1.2137 -0.0054  1.6431
 4983SOL     OW26584   2.087   3.289   0.840  0.5782 -0.2152  0.5960
 4983SOL    HW126585   2.068   3.209   0.889  0.4004 -1.4384 -1.4776
 4983SOL    HW226586   1.997   3.316   0.819 -0.1209 -0.5333  3.1225
 4984SOL     OW26587   1.195   2.636  14.042  0.1874  0.0257 -0.0098
 4984SOL    HW126588   1.247   2.591  14.109 -1.6763  0.7228  1.9070
 4984SOL    HW226589   1.128   2.569  14.027  1.3944 -0.9581 -1.0104
 4985SOL     OW26590   4.543   3.639   2.063  0.0087  0.0379  0.0584
 4985SOL    HW126591   4.598   3.706   2.105 -0.0553  1.3284 -1.9148
 4985SOL    HW226592   4.550   3.683   1.978 -1.2667 -0.0600 -0.0930
 4986SOL     OW26593   0.918   2.054   1.964 -0.3098 -0.0423 -0.2173
 4986SOL    HW126594   0.842   2.020   2.012 -1.8837 -1.0579 -3.4034
 4986SOL    HW226595   0.884   2.129   1.915 -1.7762 -0.8161 -0.3862
 4987SOL     OW26596   3.802   1.794  12.057  0.2421 -0.2115  1.1714
 4987SOL    HW126597   3.888   1.759  12.080  0.1545 -2.6457 -2.1825
 4987SOL    HW226598   3.751   1.770  12.134  0.1835  0.8055  1.4467
 4988SOL     OW26599   3.435   2.165   5.562  0.8191  0.6292 -0.6654
 4988SOL    HW126600   3.516   2.201   5.600  0.1606  0.0136  1.3340
 4988SOL    HW226601   3.456   2.072   5.572 -0.7321  0.2113 -1.4022
 4989SOL     OW26602   2.879   1.156   6.276  0.3465  0.2624  0.2315
 4989SOL    HW126603   2.787   1.183   6.271  0.8270  1.9581  0.4921
 4989SOL    HW226604   2.873   1.061   6.286 -1.0403  0.2298 -0.8469
 4990SOL     OW26605   0.811   0.297   0.605 -0.6464  0.0625  0.2529
 4990SOL    HW126606   0.858   0.359   0.549 -2.1517  2.6608  1.8557
 4990SOL    HW226607   0.851   0.311   0.691 -0.0014  0.3577 -0.0922
 4991SOL     OW26608   3.427   3.042   3.995 -0.0393  0.0377 -0.5792
 4991SOL    HW126609   3.500   2.987   3.967  0.7753 -0.1418  1.8974
 4991SOL    HW226610   3.427   3.021   4.089 -1.2644  0.3006 -0.5214
 4992SOL     OW26611   1.061   3.290   8.323 -0.0701 -0.0787  0.0179
 4992SOL    HW126612   1.077   3.308   8.230  0.2399  1.8589  0.4452
 4992SOL    HW226613   1.069   3.378   8.360  0.0949  0.2890 -0.8852
 4993SOL     OW26614   2.449   4.179  17.102  0.3461  0.3677  0.1037
 4993SOL    HW126615   2.462   4.084  17.103 -2.4090  0.0089  2.1034
 4993SOL    HW226616   2.480   4.195  17.192  0.8331  1.7419 -0.3250
 4994SOL     OW26617   3.279   3.602  13.276  0.6756  0.3068  0.3755
 4994SOL    HW126618   3.255   3.695  13.283  1.3794  0.6075 -1.0908
 4994SOL    HW226619   3.193   3.565  13.254  0.6069  0.5172  0.2851
 4995SOL     OW26620   3.182   3.665   6.106  0.1707 -0.2092 -0.7473
 4995SOL    HW126621   3.215   3.642   6.019 -1.7873 -1.0216 -1.2567
 4995SOL    HW226622   3.227   3.604   6.165  0.2358  2.9043  2.4431
 4996SOL     OW26623   3.442   4.300  10.882 -0.8637  0.3782  0.6399
 4996SOL    HW126624   3.366   4.291  10.939  0.4305 -1.5581  2.0642
 4996SOL    HW226625   3.489   4.362  10.939 -1.6717 -0.7790  2.5673
 4997SOL     OW26626   1.973   1.308   7.428 -0.3767 -0.3556 -0.1029
 4997SOL    HW126627   2.042   1.249   7.456 -0.1342  0.5603  1.2241
 4997SOL    HW226628   1.891   1.260   7.438  0.5889 -2.4284 -2.0896
 4998SOL     OW26629   0.594   0.431   4.167  0.2821  0.5014  0.3181
 4998SOL    HW126630   0.534   0.469   4.103  1.1777 -2.1181 -2.0589
 4998SOL    HW226631   0.664   0.396   4.112 -0.7476 -1.2043  0.1017
 4999SOL     OW26632   1.643   1.829   2.448  0.0560  0.2791 -0.1436
 4999SOL    HW126633   1.564   1.870   2.483 -0.1378  0.7460 -1.1165
 4999SOL    HW226634   1.619   1.812   2.356 -1.3893  3.9649 -0.4441
 5000SOL     OW26635   4.091   2.458   9.333  0.1889 -0.5249  0.9869
 5000SOL    HW126636   4.103   2.381   9.389 -1.1210 -1.9462 -0.6911
 5000SOL    HW226637   4.120   2.524   9.396 -1.6272  1.2176 -0.0066
 5001SOL     OW26638   2.913   3.520   1.933  0.5425  0.6296 -0.3222
 5001SOL    HW126639   2.844   3.454   1.930  0.2495  1.0011 -1.7831
 5001SOL    HW226640   2.934   3.533   1.840  0.8643 -0.2114 -0.3651
 5002SOL     OW26641   3.425   3.840  12.566 -0.0976 -0.5597 -0.1041
 5002SOL    HW126642   3.356   3.874  12.509  0.9407  1.5627 -0.1195
 5002SOL    HW226643   3.495   3.861  12.503  0.7088 -0.6968  0.7449
 5003SOL     OW26644   1.413   4.394   2.711 -0.0030 -0.4134 -0.0632
 5003SOL    HW126645   1.376   4.445   2.783  0.6564  0.7356 -0.5364
 5003SOL    HW226646   1.399   4.305   2.743  0.2635 -0.3209  0.3225
 5004SOL     OW26647   3.460   1.258   0.779 -0.1065 -0.3849 -0.4317
 5004SOL    HW126648   3.463   1.199   0.855  0.1684  2.3752  1.6736
 5004SOL    HW226649   3.552   1.274   0.760 -0.3036 -0.8968 -1.8641
 5005SOL     OW26650   3.241   0.871   9.092  0.1256  0.5364 -0.6226
 5005SOL    HW126651   3.148   0.856   9.107 -0.0077  0.7189 -1.2465
 5005SOL    HW226652   3.277   0.837   9.174  0.3442 -1.4006 -1.5139
 5006SOL     OW26653   1.978   3.584   5.235 -0.3428 -0.0962  0.1385
 5006SOL    HW126654   1.893   3.612   5.201 -0.2291  0.3415  0.2232
 5006SOL    HW226655   1.959   3.555   5.325  0.3192  0.0625  0.3303
 5007SOL     OW26656   3.417   1.709  11.108  0.0858 -0.3979  0.2680
 5007SOL    HW126657   3.422   1.623  11.068 -1.7917 -0.8316  0.9873
 5007SOL    HW226658   3.413   1.691  11.202  0.7915  2.8126  0.9226
 5008SOL     OW26659   1.050   3.592   2.115 -0.1053 -0.0663  0.7509
 5008SOL    HW126660   1.055   3.547   2.199 -0.3616 -0.9122  0.3064
 5008SOL    HW226661   1.012   3.528   2.055  0.5748  1.4993 -1.3696
 5009SOL     OW26662   4.160   2.980  10.834  0.8739  0.2453 -0.0911
 5009SOL    HW126663   4.135   2.903  10.885  2.1266  0.7335  1.2667
 5009SOL    HW226664   4.126   2.952  10.749  3.5464  0.8523 -1.3499
 5010SOL     OW26665   3.250   2.436  16.653 -0.4134  0.2486  0.0056
 5010SOL    HW126666   3.229   2.517  16.607  2.0375 -0.4860 -2.4237
 5010SOL    HW226667   3.332   2.469  16.689 -0.2612  0.4764 -0.5545
 5011SOL     OW26668   1.248   0.777   7.373  0.2262  0.0056  0.0748
 5011SOL    HW126669   1.230   0.723   7.450 -2.2431  1.0724  0.2247
 5011SOL    HW226670   1.340   0.801   7.387  0.0761  0.4844  0.2300
 5012SOL     OW26671   3.314   3.497  12.364 -0.2234 -0.0959  0.2697
 5012SOL    HW126672   3.337   3.590  12.356 -0.4537 -0.0651 -0.0330
 5012SOL    HW226673   3.221   3.502  12.384 -0.4935 -1.3960 -0.6661
 5013SOL     OW26674   2.409   2.978   9.097  0.2842  0.1915  0.1855
 5013SOL    HW126675   2.358   2.897   9.096  1.5648 -0.6159  0.4897
 5013SOL    HW226676   2.353   3.040   9.144 -1.9434 -1.3280 -0.4097
 5014SOL     OW26677   2.675   3.952   7.622 -0.2973 -0.5823  0.6020
 5014SOL    HW126678   2.666   3.874   7.678  0.3579  0.3634  2.0225
 5014SOL    HW226679   2.603   4.008   7.651  0.8624  0.3986  1.6093
 5015SOL     OW26680   0.070   3.227   2.508  0.1707 -0.4253  0.2103
 5015SOL    HW126681   0.140   3.261   2.564 -0.6663 -0.8644  1.5220
 5015SOL    HW226682   0.026   3.187   2.583  0.2275 -2.0871 -0.6521
 5016SOL     OW26683   2.623   4.652   4.114 -0.1367  0.7881 -0.3343
 5016SOL    HW126684   2.635   4.564   4.150 -2.8174  1.2198  1.5958
 5016SOL    HW226685   2.529   4.669   4.115 -0.4802 -1.1197 -1.1280
 5017SOL     OW26686   3.988   2.597   2.878 -0.3417 -0.2295 -0.7331
 5017SOL    HW126687   3.951   2.684   2.892  0.9702  0.4428 -1.4619
 5017SOL    HW226688   3.938   2.545   2.940  3.2935 -1.1414  1.4728
 5018SOL     OW26689   3.348   1.391   4.794  0.0862 -0.4871 -0.7195
 5018SOL    HW126690   3.412   1.321   4.803  0.4958 -0.1306 -0.8488
 5018SOL    HW226691   3.290   1.345   4.733 -1.5920  1.5214 -0.6411
 5019SOL     OW26692   1.353   3.960  11.870 -0.0314 -0.4556 -0.0309
 5019SOL    HW126693   1.418   3.913  11.923  0.8889  0.9968  0.1392
 5019SOL    HW226694   1.361   3.899  11.797 -1.7000 -1.3228  0.5178
 5020SOL     OW26695   1.970   2.881   8.707 -0.0116 -0.5224  0.2631
 5020SOL    HW126696   1.949   2.793   8.674 -0.3694 -0.6575  0.8625
 5020SOL    HW226697   1.941   2.880   8.798 -2.1949  1.2974 -0.4299
 5021SOL     OW26698   3.687   2.537   0.008  0.3161  0.4412  0.5901
 5021SOL    HW126699   3.668   2.497  17.673  0.4354 -1.5213  1.4702
 5021SOL    HW226700   3.783   2.537   0.013  0.5653 -1.9420 -3.9626
 5022SOL     OW26701   1.157   4.445   2.004 -0.6160 -0.1163 -0.5867
 5022SOL    HW126702   1.109   4.371   1.967  1.7176 -1.5941 -0.6320
 5022SOL    HW226703   1.243   4.406   1.991  0.2955  1.1884  1.5879
 5023SOL     OW26704   2.167   4.602   1.113 -0.3304 -0.2504 -0.3891
 5023SOL    HW126705   2.187   4.633   1.202 -4.4768  0.9216  0.1274
 5023SOL    HW226706   2.160   4.510   1.139  1.8533 -0.4576 -0.5637
 5024SOL     OW26707   1.027   0.511  14.374 -0.7800 -0.6022 -0.6754
 5024SOL    HW126708   1.068   0.594  14.397 -0.9622 -0.5661 -0.4759
 5024SOL    HW226709   0.943   0.544  14.340  0.1339 -0.3671 -2.6906
 5025SOL     OW26710   4.714   0.367   6.814  0.1884  0.1456  0.0292
 5025SOL    HW126711   4.732   0.381   6.907 -1.3523 -2.0494  0.6380
 5025SOL    HW226712   0.007   0.278   6.804  0.7987  0.1677  1.8139
 5026SOL     OW26713   3.944   2.389   6.605  1.0546  0.0569 -0.2470
 5026SOL    HW126714   4.013   2.445   6.642 -0.6717  0.2622  2.5980
 5026SOL    HW226715   3.981   2.353   6.524 -0.1926 -1.3110 -0.1982
 5027SOL     OW26716   2.379   0.352   4.987  0.0696 -0.4474 -0.1756
 5027SOL    HW126717   2.291   0.332   5.019 -0.0151  0.0663 -0.0873
 5027SOL    HW226718   2.406   0.261   4.996 -0.8997 -0.7968 -0.7173
 5028SOL     OW26719   0.808   3.351   5.869 -0.0707  0.1744  0.2719
 5028SOL    HW126720   0.827   3.272   5.919  1.6587  0.3261 -0.1587
 5028SOL    HW226721   0.712   3.348   5.870  0.0306 -2.3671  1.3972
 5029SOL     OW26722   2.940   0.519  13.701  0.4911  0.2243  0.3040
 5029SOL    HW126723   2.909   0.468  13.776  0.7208 -1.3100 -0.6427
 5029SOL    HW226724   2.951   0.606  13.739  2.1989 -0.3286  1.1100
 5030SOL     OW26725   3.288   1.174   5.094  0.0694 -0.8386  0.5158
 5030SOL    HW126726   3.228   1.175   5.019  1.0593  0.6817 -0.2586
 5030SOL    HW226727   3.236   1.211   5.166  0.9569 -0.7124  1.0850
 5031SOL     OW26728   3.322   2.505   5.073 -0.3547  0.6985  0.4628
 5031SOL    HW126729   3.325   2.580   5.133 -1.0494  1.8817 -0.9849
 5031SOL    HW226730   3.386   2.442   5.105 -1.3210  0.7486  2.4889
 5032SOL     OW26731   4.424   0.254   2.616 -0.6549 -0.3862  0.0757
 5032SOL    HW126732   4.456   0.257   2.526  1.5646 -1.1820  0.8285
 5032SOL    HW226733   4.498   0.209   2.657 -0.0625 -0.9497 -1.6092
 5033SOL     OW26734   3.892   3.751   2.347 -0.2716  0.0937  0.3202
 5033SOL    HW126735   3.950   3.699   2.402 -1.2331  0.9973  2.2041
 5033SOL    HW226736   3.828   3.687   2.317  0.1493 -0.3499  0.3809
 5034SOL     OW26737   2.947   2.763   6.743  0.3818 -0.8981 -0.1765
 5034SOL    HW126738   2.945   2.669   6.763 -0.7516 -1.0221 -0.8748
 5034SOL    HW226739   2.999   2.800   6.814 -0.8650 -1.4503  1.0353
 5035SOL     OW26740   0.192   4.234   2.040  0.0651  0.1715  0.6170
 5035SOL    HW126741   0.157   4.147   2.019 -0.9233  1.0890 -1.6096
 5035SOL    HW226742   0.286   4.220   2.037 -0.5269 -2.9689 -3.0389
 5036SOL     OW26743   2.536   2.602   7.400 -0.3664 -0.4058 -0.4433
 5036SOL    HW126744   2.597   2.592   7.326 -1.6348 -2.9563 -1.1189
 5036SOL    HW226745   2.513   2.513   7.425 -1.7486  0.3455  0.9394
 5037SOL     OW26746   2.740   0.001   9.410 -0.2464  0.0619 -0.4644
 5037SOL    HW126747   2.822   4.720   9.365  0.8137  0.6034  1.2388
 5037SOL    HW226748   2.685   4.675   9.365 -0.2271  0.3269 -0.8638
 5038SOL     OW26749   1.653   1.290   8.570  0.1510  0.1921  0.2014
 5038SOL    HW126750   1.729   1.334   8.533  0.0029  1.1081  0.9988
 5038SOL    HW226751   1.582   1.353   8.578  1.6314  2.1530 -2.4717
 5039SOL     OW26752   1.060   1.128   4.293  0.0867  0.1339  0.6228
 5039SOL    HW126753   1.014   1.204   4.258 -1.0360 -1.5848 -1.6803
 5039SOL    HW226754   1.016   1.064   4.237 -1.3230  3.8170 -2.5024
 5040SOL     OW26755   2.958   1.170   3.557  0.5377  0.4613 -0.6020
 5040SOL    HW126756   2.896   1.098   3.567 -1.1885  2.4887  3.2031
 5040SOL    HW226757   2.921   1.219   3.484 -2.9986 -1.0660  0.1564
 5041SOL     OW26758   2.400   2.944   5.379  0.7947 -0.1165  0.1663
 5041SOL    HW126759   2.332   3.009   5.361  0.8585 -0.1378 -0.1645
 5041SOL    HW226760   2.358   2.892   5.448  0.0181 -1.8614 -1.5972
 5042SOL     OW26761   4.132   2.320   0.075 -0.5754  0.0954  0.1761
 5042SOL    HW126762   4.105   2.408   0.103  0.0259  0.8123 -1.5227
 5042SOL    HW226763   4.064   2.313   0.009  1.9391 -2.0954 -2.1324
 5043SOL     OW26764   2.369   4.631   3.828 -0.0160 -0.2924  0.0683
 5043SOL    HW126765   2.431   4.559   3.815 -3.7412 -3.7829  1.5753
 5043SOL    HW226766   2.427   4.704   3.810 -0.6443  0.0537 -0.5647
 5044SOL     OW26767   0.129   2.620  12.267  0.7178 -0.0286  0.0820
 5044SOL    HW126768   0.171   2.540  12.299  0.4389  0.1702  0.9459
 5044SOL    HW226769   0.191   2.635  12.196  0.5669  1.0845  0.1877
 5045SOL     OW26770   0.438   1.892   8.728  0.4084  0.0456  0.5875
 5045SOL    HW126771   0.378   1.832   8.685  0.7924 -0.8101  1.2412
 5045SOL    HW226772   0.386   1.967   8.757 -0.7206 -0.6954  0.4643
 5046SOL     OW26773   1.018   2.542   7.525 -0.0636  0.1521  0.2330
 5046SOL    HW126774   1.109   2.563   7.545  0.3453 -0.2136 -1.2491
 5046SOL    HW226775   0.985   2.614   7.472  1.9860  0.9867  0.0929
 5047SOL     OW26776   0.257   1.849   2.654 -0.6994 -0.0377 -0.1625
 5047SOL    HW126777   0.278   1.822   2.564 -1.6608  0.3677 -0.5081
 5047SOL    HW226778   0.167   1.880   2.639 -1.1269 -0.3490  1.8362
 5048SOL     OW26779   0.954   3.276  15.406 -0.3809  0.3154  0.4827
 5048SOL    HW126780   0.998   3.282  15.321  0.4527  2.0066  1.0263
 5048SOL    HW226781   0.885   3.341  15.392 -0.7689 -0.5396 -1.6753
 5049SOL     OW26782   0.809   2.089   5.667  0.2273 -0.4570  0.0338
 5049SOL    HW126783   0.794   1.994   5.658  0.9796 -0.3811 -2.0652
 5049SOL    HW226784   0.848   2.087   5.754  2.2387 -1.1020 -0.8694
 5050SOL     OW26785   0.409   0.758   6.679  0.1757 -0.6759 -0.4913
 5050SOL    HW126786   0.365   0.740   6.596 -0.5532 -0.2201 -0.2136
 5050SOL    HW226787   0.484   0.812   6.654 -0.8134  1.1987  0.5184
 5051SOL     OW26788   4.256   4.681   7.947  0.1209 -0.1266  0.3131
 5051SOL    HW126789   4.227   4.599   7.988  0.6486 -0.5341 -0.1244
 5051SOL    HW226790   4.184   4.693   7.886  1.5651  1.9474 -0.9894
 5052SOL     OW26791   0.175   3.014  13.030 -0.4923  0.1476 -0.0954
 5052SOL    HW126792   0.129   3.041  12.950 -0.2302  0.0074 -0.2930
 5052SOL    HW226793   0.217   2.932  13.003 -1.1886  0.5183 -2.3299
 5053SOL     OW26794   0.900   3.771   9.153 -0.7559 -0.5208  0.0313
 5053SOL    HW126795   0.953   3.835   9.200 -0.4147  0.2684 -1.4502
 5053SOL    HW226796   0.858   3.729   9.228 -0.2063 -1.3730 -0.1285
 5054SOL     OW26797   2.344   4.052   7.826  0.6749  0.3993  0.0281
 5054SOL    HW126798   2.345   4.042   7.922  2.1298 -1.1977 -0.1367
 5054SOL    HW226799   2.250   4.062   7.809  1.0737  1.2710 -1.6251
 5055SOL     OW26800   2.284   4.698   0.394  0.0425 -0.6818 -0.0728
 5055SOL    HW126801   2.246   0.035   0.349  2.1239  0.6041  0.3311
 5055SOL    HW226802   2.227   4.694   0.471  0.1089  2.4963  0.1346
 5056SOL     OW26803   4.307   4.021   1.633  0.3714  0.1191  0.1807
 5056SOL    HW126804   4.324   3.998   1.541  1.9528 -3.6887  1.4365
 5056SOL    HW226805   4.212   4.009   1.641  0.4934  0.7995  2.3983
 5057SOL     OW26806   0.000   3.025   4.042  0.0496  0.2427  0.2443
 5057SOL    HW126807   0.056   3.071   3.979 -0.3300 -0.1238 -0.3521
 5057SOL    HW226808   4.673   2.983   3.986  0.3808 -2.2037  1.6813
 5058SOL     OW26809   1.998   4.718   8.712  0.7520 -0.1993  0.0358
 5058SOL    HW126810   2.036   4.652   8.655  1.2608 -0.5366  0.7707
 5058SOL    HW226811   2.075   0.036   8.719 -0.0422  0.9483 -0.3336
 5059SOL     OW26812   1.378   2.976   3.160 -0.8037 -0.6665 -0.3909
 5059SOL    HW126813   1.312   2.958   3.227 -0.5166  3.2137  0.9273
 5059SOL    HW226814   1.410   3.059   3.195  0.8630 -1.1659 -0.7163
 5060SOL     OW26815   2.797   0.529   7.888  0.2433  0.4212  0.1504
 5060SOL    HW126816   2.714   0.574   7.871 -0.4081 -0.2859  1.3955
 5060SOL    HW226817   2.785   0.439   7.858  1.6254 -0.1948  1.4241
 5061SOL     OW26818   4.192   4.383   8.402 -0.3232 -0.0789  0.1931
 5061SOL    HW126819   4.212   4.471   8.373  0.2683 -0.2338  0.1370
 5061SOL    HW226820   4.155   4.403   8.488 -1.0284  0.2660 -0.1921
 5062SOL     OW26821   4.176   0.928  10.945 -0.3631 -0.2685  0.2795
 5062SOL    HW126822   4.130   0.845  10.956 -0.0124 -0.4016  0.7134
 5062SOL    HW226823   4.261   0.902  10.909 -1.6064 -2.2206 -1.2401
 5063SOL     OW26824   2.465   2.496  10.041  0.0110 -0.7303  0.0174
 5063SOL    HW126825   2.460   2.491  10.137 -0.2775  1.7196  0.1304
 5063SOL    HW226826   2.547   2.448  10.029 -0.8523 -2.1449 -0.2232
 5064SOL     OW26827   1.093   1.824   5.649 -0.2014 -0.5168 -0.1060
 5064SOL    HW126828   1.186   1.801   5.643  0.1098  0.3056  1.3135
 5064SOL    HW226829   1.060   1.736   5.637  1.2771 -1.1449  0.3560
 5065SOL     OW26830   1.075   4.034  10.538  0.3024  0.6013 -0.2043
 5065SOL    HW126831   1.145   3.971  10.527  0.7759  1.4567 -2.0502
 5065SOL    HW226832   1.097   4.105  10.477 -2.0934  1.2331 -0.3491
 5066SOL     OW26833   0.763   2.748  11.003  0.3738 -0.7168 -0.4088
 5066SOL    HW126834   0.752   2.699  11.085 -1.5257 -0.3112 -0.4226
 5066SOL    HW226835   0.733   2.681  10.942  0.6312 -0.6190 -0.6431
 5067SOL     OW26836   0.765   1.073  12.665  0.5722 -0.7879  0.1980
 5067SOL    HW126837   0.830   1.140  12.689 -2.0062  2.3689 -1.6825
 5067SOL    HW226838   0.827   1.026  12.608  0.7364  1.0186 -1.1163
 5068SOL     OW26839   1.679   4.101   2.332  0.0181 -0.2076 -0.5990
 5068SOL    HW126840   1.593   4.103   2.374  0.5132  0.1624  0.3936
 5068SOL    HW226841   1.736   4.130   2.404 -0.0576  0.1019 -0.6639
 5069SOL     OW26842   4.626   3.980   0.075  0.1249 -0.0581  0.0135
 5069SOL    HW126843   4.715   3.986   0.042 -0.1452  0.0435 -0.6937
 5069SOL    HW226844   4.637   3.889   0.100  2.1989 -0.2853 -1.7673
 5070SOL     OW26845   2.385   3.855   3.267 -0.0765 -0.5392  0.0904
 5070SOL    HW126846   2.459   3.797   3.283 -1.0913 -1.5280  1.2010
 5070SOL    HW226847   2.436   3.931   3.238 -2.6391  1.0018 -0.2975
 5071SOL     OW26848   3.151   2.216   7.883  0.2361 -0.0832  0.4065
 5071SOL    HW126849   3.189   2.254   7.961  0.1530 -1.2918  1.0375
 5071SOL    HW226850   3.098   2.144   7.918 -1.5412  0.0347 -1.9759
 5072SOL     OW26851   4.435   0.118   6.579  0.4542  0.1333 -0.1049
 5072SOL    HW126852   4.416   0.136   6.671  2.4531 -1.8920  0.7234
 5072SOL    HW226853   4.426   0.023   6.586 -0.4802  0.1844 -0.6364
 5073SOL     OW26854   2.300   0.936  17.067  1.0045  0.2219 -0.6023
 5073SOL    HW126855   2.294   1.030  17.053 -0.2598  0.1580 -0.5056
 5073SOL    HW226856   2.338   0.927  17.154  3.8968 -0.0300 -1.8809
 5074SOL     OW26857   4.139   1.651   7.628 -0.0332  0.3750 -0.3270
 5074SOL    HW126858   4.201   1.671   7.558 -0.1593 -3.0542 -1.4351
 5074SOL    HW226859   4.128   1.736   7.670 -0.6535 -0.1118  0.4918
 5075SOL     OW26860   0.886   3.857   8.752 -0.3840  0.5446  0.4321
 5075SOL    HW126861   0.969   3.895   8.783  0.1506 -0.9186  0.7979
 5075SOL    HW226862   0.914   3.782   8.701  0.8339  0.5840  1.0334
 5076SOL     OW26863   2.965   0.493   7.186 -0.4542 -0.6853 -0.6221
 5076SOL    HW126864   2.947   0.586   7.172 -1.0742 -0.7716 -0.3867
 5076SOL    HW226865   3.053   0.505   7.149 -0.3027 -1.4417 -0.5078
 5077SOL     OW26866   0.141   4.295   5.341  0.0545  0.5523  0.1315
 5077SOL    HW126867   0.148   4.258   5.429 -0.3863  2.9361  1.1572
 5077SOL    HW226868   0.229   4.334   5.338  0.3905 -0.1958  0.1753
 5078SOL     OW26869   2.192   1.740   9.375  0.0316  0.3023 -0.1664
 5078SOL    HW126870   2.201   1.670   9.440 -1.1271 -0.1917 -0.5377
 5078SOL    HW226871   2.233   1.812   9.424  1.2882 -1.2848  1.1247
 5079SOL     OW26872   1.828   0.921  10.647 -0.1151  0.2110 -0.3492
 5079SOL    HW126873   1.863   1.001  10.607 -0.3451  1.6689  2.3249
 5079SOL    HW226874   1.742   0.915  10.605 -0.3741 -0.0353  0.2132
 5080SOL     OW26875   2.192   0.625   3.800 -0.8251 -0.1875  0.3212
 5080SOL    HW126876   2.240   0.705   3.777 -0.9013 -0.1590  0.2614
 5080SOL    HW226877   2.133   0.652   3.871  0.2104  1.0771  0.7088
 5081SOL     OW26878   4.390   2.184   4.634 -0.0966 -0.7824  0.6381
 5081SOL    HW126879   4.465   2.142   4.677 -0.0078 -0.9154  0.3536
 5081SOL    HW226880   4.357   2.224   4.714 -1.5257  0.0131 -0.3459
 5082SOL     OW26881   1.630   2.069  12.522  0.1831  0.4246 -0.3763
 5082SOL    HW126882   1.548   2.075  12.474  0.4343 -1.7656 -1.0880
 5082SOL    HW226883   1.645   2.163  12.536 -1.7793  0.5383  0.9964
 5083SOL     OW26884   2.762   4.353   6.592 -0.0969  0.0897  0.4480
 5083SOL    HW126885   2.770   4.446   6.571 -1.9884  0.1025 -0.2497
 5083SOL    HW226886   2.760   4.365   6.687  0.4298  0.3835  0.4223
 5084SOL     OW26887   2.832   4.721   5.014  0.8405  0.0283 -0.0980
 5084SOL    HW126888   2.898   4.654   4.997  0.7706  0.4991 -2.2551
 5084SOL    HW226889   2.867   0.014   5.098 -0.2383 -0.6124  0.5936
 5085SOL     OW26890   3.705   1.328   5.495  0.7129 -0.2813  0.1048
 5085SOL    HW126891   3.709   1.253   5.435 -0.7777  0.2066 -0.6052
 5085SOL    HW226892   3.694   1.292   5.583  1.4005 -0.5553  0.0812
 5086SOL     OW26893   1.115   1.558   0.682 -0.6728 -0.8774 -0.6055
 5086SOL    HW126894   1.127   1.464   0.667 -0.5869 -0.9700  0.0352
 5086SOL    HW226895   1.069   1.553   0.766  0.7914 -1.8475  0.1311
 5087SOL     OW26896   4.418   3.765   7.114 -0.1619  0.9358 -0.7308
 5087SOL    HW126897   4.401   3.813   7.195  1.3069 -0.4456  0.4093
 5087SOL    HW226898   4.506   3.732   7.131 -0.9175 -0.1380  1.1356
 5088SOL     OW26899   2.192   2.384  11.339 -0.3806 -0.1720  0.5574
 5088SOL    HW126900   2.113   2.397  11.392 -0.1567  1.0371  0.5920
 5088SOL    HW226901   2.235   2.310  11.382  0.7773  0.0655 -0.2224
 5089SOL     OW26902   0.322   0.596  10.747 -0.0641 -0.3279  0.1144
 5089SOL    HW126903   0.408   0.630  10.723 -0.4701  1.1112  0.6605
 5089SOL    HW226904   0.319   0.519  10.690  0.0335 -0.0004 -0.3327
 5090SOL     OW26905   1.292   1.688   2.541  0.1554 -0.3747  0.1452
 5090SOL    HW126906   1.358   1.628   2.506 -0.0713 -1.6665  1.9465
 5090SOL    HW226907   1.262   1.640   2.618 -1.7996 -0.2784 -0.5499
 5091SOL     OW26908   2.298   2.127  17.277  0.1300  0.0188  0.1257
 5091SOL    HW126909   2.387   2.097  17.259 -0.5178 -0.1675 -2.6807
 5091SOL    HW226910   2.293   2.211  17.231  2.2877  0.8304  1.3538
 5092SOL     OW26911   3.703   4.127   9.819 -0.2106  0.0226  0.1543
 5092SOL    HW126912   3.629   4.181   9.848  2.4100  1.7071  3.6122
 5092SOL    HW226913   3.771   4.193   9.809 -0.1529  0.0450  0.6794
 5093SOL     OW26914   0.085   1.250   1.084  0.1689 -0.2214  0.1570
 5093SOL    HW126915   0.032   1.171   1.097 -0.3580 -0.1684 -1.6525
 5093SOL    HW226916   0.024   1.323   1.078 -0.3117 -1.0003 -4.4298
 5094SOL     OW26917   4.654   1.834   6.006 -0.4290 -0.2101 -0.3985
 5094SOL    HW126918   4.603   1.773   6.059 -0.3043 -0.6547 -0.7910
 5094SOL    HW226919   4.709   1.880   6.068  0.3014  1.6010 -2.3962
 5095SOL     OW26920   3.118   2.455   5.527 -0.0768  0.1461 -0.0447
 5095SOL    HW126921   3.156   2.533   5.568  0.9808 -0.7026  0.5706
 5095SOL    HW226922   3.192   2.414   5.481  0.6448  0.1907  1.0754
 5096SOL     OW26923   1.968   0.378   3.749 -0.0860 -0.1508 -0.2114
 5096SOL    HW126924   1.958   0.472   3.762  0.1886 -0.1813  0.2144
 5096SOL    HW226925   1.877   0.353   3.762  0.5486 -1.3858  1.8201
 5097SOL     OW26926   2.066   4.064   6.073 -0.3612 -0.1868 -0.5272
 5097SOL    HW126927   2.143   4.118   6.091  0.6663 -0.9597 -2.6720
 5097SOL    HW226928   2.119   3.992   6.040  1.5636  1.4851 -1.1122
 5098SOL     OW26929   3.336   0.384   3.461  0.0279 -0.1798 -0.8066
 5098SOL    HW126930   3.254   0.337   3.474  0.6719 -0.9253  0.5378
 5098SOL    HW226931   3.320   0.460   3.405 -3.0731 -0.6196 -0.5370
 5099SOL     OW26932   4.590   0.821   2.174  0.0829 -0.1503  0.4318
 5099SOL    HW126933   4.626   0.897   2.128 -1.6886  1.0157  0.9717
 5099SOL    HW226934   4.498   0.841   2.156  0.0513  0.2670  1.0981
 5100SOL     OW26935   2.649   0.368   4.703 -0.1588  0.0406  0.7552
 5100SOL    HW126936   2.606   0.435   4.757 -0.5345  1.1456 -0.9083
 5100SOL    HW226937   2.601   0.291   4.734 -0.2459 -1.4001 -2.9492
 5101SOL     OW26938   3.153   1.512   5.056  0.4343 -0.6251  0.2457
 5101SOL    HW126939   3.231   1.490   5.005  0.4772  1.2363 -0.4785
 5101SOL    HW226940   3.192   1.550   5.135  0.7039  0.8412 -0.5968
 5102SOL     OW26941   3.855   1.365  12.472 -0.1841  0.1637  0.2646
 5102SOL    HW126942   3.795   1.392  12.403  0.7476 -1.4903 -1.1958
 5102SOL    HW226943   3.858   1.449  12.518  0.8029 -0.5225  1.4781
 5103SOL     OW26944   0.529   0.666   6.932  0.0030  0.0971  1.1541
 5103SOL    HW126945   0.484   0.654   6.848  1.1032  0.3850  0.5173
 5103SOL    HW226946   0.579   0.746   6.911 -0.7575  0.3315  0.2488
 5104SOL     OW26947   0.269   4.152  17.133 -0.2048  0.4563  0.2941
 5104SOL    HW126948   0.244   4.240  17.105  0.8300  0.7806  0.4095
 5104SOL    HW226949   0.180   4.116  17.125  0.8370 -1.9982 -0.3188
 5105SOL     OW26950   1.374   1.074   3.007 -0.2481 -0.6300 -0.0036
 5105SOL    HW126951   1.451   1.079   3.064  0.5425  2.3525 -1.3786
 5105SOL    HW226952   1.302   1.082   3.070 -1.1142 -3.1291 -0.6848
 5106SOL     OW26953   3.350   2.703   4.100 -0.1827  0.9212 -1.0196
 5106SOL    HW126954   3.390   2.667   4.179  1.1277  1.6415 -1.3475
 5106SOL    HW226955   3.413   2.694   4.028  1.1428  2.4813 -0.0444
 5107SOL     OW26956   3.297   1.575   5.271 -0.0674 -0.1707  0.2724
 5107SOL    HW126957   3.346   1.500   5.305  1.6167  1.0087  0.4580
 5107SOL    HW226958   3.369   1.636   5.254  1.1149 -1.4079  0.9103
 5108SOL     OW26959   0.745   3.936   4.667  0.4012  0.1131 -0.7149
 5108SOL    HW126960   0.807   3.881   4.714 -0.6606  0.2915  0.9058
 5108SOL    HW226961   0.736   4.009   4.728  0.1793  0.0640 -0.6896
 5109SOL     OW26962   4.538   0.710   9.734 -0.7118 -0.4492  0.3259
 5109SOL    HW126963   4.617   0.674   9.774  1.4994  1.8593 -2.0270
 5109SOL    HW226964   4.557   0.697   9.641  0.1900  2.2019  0.1536
 5110SOL     OW26965   3.538   2.478   5.681 -0.1340 -0.0619 -0.2157
 5110SOL    HW126966   3.549   2.383   5.677 -0.4806  0.0199 -2.7810
 5110SOL    HW226967   3.583   2.498   5.763 -0.9601  0.5385  0.0811
 5111SOL     OW26968   2.868   2.917   1.090 -0.5550 -0.3512  0.0369
 5111SOL    HW126969   2.950   2.954   1.123  0.5208 -0.6599 -2.3013
 5111SOL    HW226970   2.822   2.995   1.059  2.7099  1.4629 -0.2726
 5112SOL     OW26971   3.097   4.586   6.528 -0.0309 -0.5521 -0.4800
 5112SOL    HW126972   3.059   4.563   6.444 -1.5422 -0.7575  0.2676
 5112SOL    HW226973   3.030   4.573   6.595  1.0680  1.8375  1.1041
 5113SOL     OW26974   4.668   0.893   6.468 -0.6775  0.5468  0.1018
 5113SOL    HW126975   0.019   0.926   6.481 -1.6708  3.8824 -1.8316
 5113SOL    HW226976   4.631   0.972   6.428  1.0812  0.3844 -1.8324
 5114SOL     OW26977   3.276   2.155   6.329 -0.5720  0.5837  0.2096
 5114SOL    HW126978   3.206   2.093   6.348  1.1729 -1.6559 -0.6979
 5114SOL    HW226979   3.249   2.190   6.244  1.4440 -2.9117 -1.8670
 5115SOL     OW26980   3.036   3.062   0.058  0.0092 -0.1117 -0.1774
 5115SOL    HW126981   3.129   3.076   0.076 -0.1508  0.6494  0.0435
 5115SOL    HW226982   3.003   3.018   0.137  0.2350 -0.2191 -0.1444
 5116SOL     OW26983   4.222   4.049   6.335 -0.0057  0.1413 -0.0737
 5116SOL    HW126984   4.203   3.972   6.282 -1.3469  1.0069 -0.8655
 5116SOL    HW226985   4.180   4.033   6.419 -2.3890 -1.5381 -1.5860
 5117SOL     OW26986   1.025   0.467  13.162 -0.9188 -0.5566 -0.3322
 5117SOL    HW126987   0.979   0.538  13.117  0.8644 -1.0680 -2.9795
 5117SOL    HW226988   1.111   0.465  13.121  0.2243 -0.1144  2.0475
 5118SOL     OW26989   1.972   0.199  10.952 -0.2827  0.1544 -0.2847
 5118SOL    HW126990   1.949   0.254  10.877 -1.0272  0.0272 -0.1495
 5118SOL    HW226991   2.067   0.194  10.940 -0.0970  1.6363  0.4998
 5119SOL     OW26992   2.749   3.645   6.443 -0.5215  0.4709  0.0850
 5119SOL    HW126993   2.702   3.610   6.519 -1.3438  0.8748 -0.2438
 5119SOL    HW226994   2.708   3.731   6.442 -4.0560 -1.2073  0.9896
 5120SOL     OW26995   3.738   4.138  14.309 -0.0887 -0.4505  0.1478
 5120SOL    HW126996   3.751   4.064  14.368  0.7005  1.6192  2.5675
 5120SOL    HW226997   3.662   4.183  14.345  0.8573  0.1309  1.3838
 5121SOL     OW26998   1.433   4.272  16.299  0.2959  0.0141  0.6386
 5121SOL    HW126999   1.493   4.248  16.228 -0.5828 -0.5332  0.0880
 5121SOL    HW227000   1.371   4.200  16.286  0.6790  0.0637 -1.4461
 5122SOL     OW27001   3.429   2.887   0.385 -0.2078  0.1809 -0.2036
 5122SOL    HW127002   3.360   2.906   0.449  0.0014  0.5779 -0.0961
 5122SOL    HW227003   3.419   2.793   0.377 -4.0888  0.7460 -2.1430
 5123SOL     OW27004   2.989   1.226   5.722  0.0202  0.4355  0.7688
 5123SOL    HW127005   2.935   1.186   5.790 -1.4947  1.4050  0.1309
 5123SOL    HW227006   3.079   1.213   5.752 -0.2150 -1.9789  0.4890
 5124SOL     OW27007   1.861   4.353  11.287  0.4238  0.9141 -0.2440
 5124SOL    HW127008   1.817   4.316  11.364  1.2694  0.3362 -0.0392
 5124SOL    HW227009   1.838   4.290  11.219 -0.9148  2.8321 -1.5634
 5125SOL     OW27010   1.100   0.178   2.236 -0.0730 -0.3950  0.0730
 5125SOL    HW127011   1.136   0.090   2.228  0.5513  0.0339 -2.0113
 5125SOL    HW227012   1.060   0.178   2.323  0.7031  0.2791  0.4231
 5126SOL     OW27013   3.932   1.073  11.078  0.2913  0.1637  0.3394
 5126SOL    HW127014   3.876   0.998  11.057 -0.4564  0.3892  1.5468
 5126SOL    HW227015   4.012   1.061  11.027 -0.9682  4.9813 -2.7722
 5127SOL     OW27016   3.615   1.709   1.679  0.4610 -0.1008 -0.4440
 5127SOL    HW127017   3.597   1.796   1.715 -0.4027  0.0846 -1.3240
 5127SOL    HW227018   3.709   1.704   1.661  0.7776  0.4298  1.0988
 5128SOL     OW27019   3.729   1.393   6.028  0.0113 -0.1122 -0.3166
 5128SOL    HW127020   3.779   1.361   6.104  1.2695 -0.5124 -1.3129
 5128SOL    HW227021   3.661   1.326   6.032  1.2349 -1.3224  0.6049
 5129SOL     OW27022   3.957   0.522   0.565 -0.4827 -0.1881  0.1300
 5129SOL    HW127023   3.864   0.545   0.563 -0.3599  0.2587 -0.4440
 5129SOL    HW227024   3.957   0.453   0.631  2.0640  1.4620  1.8497
 5130SOL     OW27025   0.638   4.051   7.771  0.0175 -0.0972  0.1130
 5130SOL    HW127026   0.666   4.033   7.681 -1.6786 -2.4392  0.0396
 5130SOL    HW227027   0.593   4.134   7.754  2.3176  1.2102  0.4054
 5131SOL     OW27028   2.288   1.328   7.317 -0.5019 -0.0693  0.0662
 5131SOL    HW127029   2.243   1.351   7.398 -0.5830  1.0017 -0.2794
 5131SOL    HW227030   2.325   1.413   7.293  1.2476 -1.2445 -1.4249
 5132SOL     OW27031   4.066   2.061   6.167 -0.2068 -0.0528  0.0045
 5132SOL    HW127032   4.126   2.053   6.241 -0.8007  0.2711  0.5181
 5132SOL    HW227033   4.124   2.038   6.094  0.1105 -2.0011  0.8743
 5133SOL     OW27034   3.641   2.166   2.131 -0.5237 -0.4701 -0.2178
 5133SOL    HW127035   3.679   2.252   2.115 -0.7530 -0.4161 -0.4739
 5133SOL    HW227036   3.547   2.184   2.130 -0.4634 -0.1650 -0.0938
 5134SOL     OW27037   3.256   3.043   6.585 -0.3633  0.0908  0.5738
 5134SOL    HW127038   3.289   3.132   6.572  0.3910 -0.2602  0.0444
 5134SOL    HW227039   3.275   3.032   6.678  0.7152 -0.5302  0.2826
 5135SOL     OW27040   0.018   0.482  12.649  0.3060 -0.2826  0.2203
 5135SOL    HW127041   4.726   0.420  12.583  1.4441  1.9288 -2.3596
 5135SOL    HW227042   4.686   0.464  12.713  0.7909  1.2748  1.1939
 5136SOL     OW27043   3.654   4.612  17.696 -0.3327 -0.1269  0.0302
 5136SOL    HW127044   3.635   4.551   0.018 -0.4883 -0.5073 -0.3339
 5136SOL    HW227045   3.637   4.695  17.740 -0.1884 -0.3288  0.4685
 5137SOL     OW27046   1.432   1.729   3.123 -0.4225 -0.0905 -0.0639
 5137SOL    HW127047   1.454   1.821   3.110 -0.4413 -0.0132  0.4331
 5137SOL    HW227048   1.359   1.728   3.062 -0.5728  2.5629  0.0607
 5138SOL     OW27049   1.223   3.085  16.416  0.1719  0.6927 -0.2019
 5138SOL    HW127050   1.268   3.058  16.496 -1.5894 -2.1194 -0.1609
 5138SOL    HW227051   1.198   3.172  16.446  1.5556  1.0526 -0.0826
 5139SOL     OW27052   2.757   1.238  12.971 -0.2941 -0.0284 -0.2397
 5139SOL    HW127053   2.766   1.243  12.876  1.7835  1.2631  0.0370
 5139SOL    HW227054   2.723   1.148  12.974 -0.1884  0.0198  2.5788
 5140SOL     OW27055   2.218   1.370  13.113  0.2408 -0.2745 -0.3306
 5140SOL    HW127056   2.164   1.359  13.191 -0.8621  4.1989 -0.4480
 5140SOL    HW227057   2.267   1.450  13.133  0.1082 -0.6418  1.4332
 5141SOL     OW27058   2.069   2.756  13.343 -0.3808 -0.9310  0.5917
 5141SOL    HW127059   2.126   2.684  13.314 -1.0047 -1.5555  0.9129
 5141SOL    HW227060   2.131   2.828  13.339 -0.7330 -0.6584  0.0992
 5142SOL     OW27061   2.847   3.712  16.413  0.2134 -0.2663  0.5588
 5142SOL    HW127062   2.869   3.790  16.363  2.1153 -1.5710 -0.6570
 5142SOL    HW227063   2.857   3.744  16.502  0.0774  1.4763 -0.0463
 5143SOL     OW27064   4.328   2.854   9.309 -0.1321 -0.0687  0.1942
 5143SOL    HW127065   4.390   2.888   9.243  0.4628  1.0524  1.3405
 5143SOL    HW227066   4.273   2.933   9.315  1.7412  1.2880 -0.3750
 5144SOL     OW27067   1.906   4.220   3.170  0.5020  0.4496  0.1708
 5144SOL    HW127068   1.863   4.178   3.245 -0.1607 -0.5865 -0.7927
 5144SOL    HW227069   1.845   4.198   3.100 -0.1959 -0.2154  0.9833
 5145SOL     OW27070   3.664   1.939   0.584 -0.5654  0.0400  0.1190
 5145SOL    HW127071   3.709   2.023   0.589 -1.2517  0.5200 -1.6649
 5145SOL    HW227072   3.576   1.976   0.591  0.0938  1.3974  1.3152
 5146SOL     OW27073   2.075   3.856   9.745  0.3839 -0.0571 -0.0872
 5146SOL    HW127074   2.146   3.866   9.809  0.0766 -0.2025  0.2787
 5146SOL    HW227075   2.012   3.906   9.796  1.8271  0.3867  1.2686
 5147SOL     OW27076   3.009   4.738   5.356  0.3767 -0.1463 -0.8444
 5147SOL    HW127077   3.007   0.095   5.350 -0.7078 -0.2950 -2.8792
 5147SOL    HW227078   3.061   4.737   5.437 -1.4189 -0.0437  0.3187
 5148SOL     OW27079   0.270   0.699   3.346 -0.3028 -0.4871  0.4284
 5148SOL    HW127080   0.187   0.678   3.390  0.0434  0.4206  1.5075
 5148SOL    HW227081   0.252   0.792   3.328 -0.6759 -0.5065  0.6903
 5149SOL     OW27082   3.982   2.849   2.971 -0.1317 -0.0613 -0.2647
 5149SOL    HW127083   4.057   2.907   2.961 -0.0767  0.2615  2.1701
 5149SOL    HW227084   3.926   2.900   3.029 -0.9476 -2.6277  1.2279
 5150SOL     OW27085   3.496   0.400   2.557  0.1851 -0.4266 -0.3491
 5150SOL    HW127086   3.532   0.314   2.575  3.6205  1.0275 -0.4064
 5150SOL    HW227087   3.408   0.373   2.529 -0.6023  0.5022  1.1627
 5151SOL     OW27088   2.795   2.779  15.896 -0.2839  0.3467 -0.0237
 5151SOL    HW127089   2.718   2.782  15.839 -0.4442 -0.9529  0.1390
 5151SOL    HW227090   2.854   2.828  15.839 -2.4354  0.7620 -1.8786
 5152SOL     OW27091   1.142   3.450   3.020  0.1424 -0.4712  0.1877
 5152SOL    HW127092   1.203   3.523   3.034  0.6540 -1.2725  2.0807
 5152SOL    HW227093   1.053   3.479   3.042 -0.3004 -0.4935 -1.5730
 5153SOL     OW27094   0.704   4.225  13.706  0.9931 -0.2823  0.0805
 5153SOL    HW127095   0.687   4.134  13.728  0.5615 -0.4511 -0.9591
 5153SOL    HW227096   0.630   4.272  13.746 -0.6930 -2.2631 -0.7456
 5154SOL     OW27097   2.762   3.935   4.061  0.4881  0.2530  0.4513
 5154SOL    HW127098   2.845   3.888   4.072 -0.2820 -1.2182 -0.1459
 5154SOL    HW227099   2.782   4.010   4.118  0.3715  3.0710 -3.1769
 5155SOL     OW27100   4.554   3.608   2.822  0.6584 -0.3277  0.5039
 5155SOL    HW127101   4.503   3.665   2.764  1.0887  0.8015  1.2158
 5155SOL    HW227102   4.540   3.531   2.768  1.3207  1.8283 -2.7200
 5156SOL     OW27103   1.340   0.602   5.551 -0.3521 -0.0383 -0.1327
 5156SOL    HW127104   1.264   0.612   5.493  1.4133  1.4943 -2.1555
 5156SOL    HW227105   1.324   0.523   5.603  0.2184 -1.2433 -1.7856
 5157SOL     OW27106   2.839   0.784  16.886 -0.7848  0.5026 -0.3808
 5157SOL    HW127107   2.910   0.766  16.824 -0.4926 -1.3200  0.4700
 5157SOL    HW227108   2.837   0.880  16.893  1.0239  0.3532  2.6287
 5158SOL     OW27109   1.744   0.814   5.278  0.1752  0.4416 -0.3052
 5158SOL    HW127110   1.829   0.798   5.318 -0.9023  0.1986  1.9034
 5158SOL    HW227111   1.683   0.828   5.350  1.1120 -1.2237  0.8050
 5159SOL     OW27112   0.920   3.166   6.050 -0.1918  0.1017  0.2723
 5159SOL    HW127113   0.991   3.103   6.033 -0.4168 -0.7300  2.3945
 5159SOL    HW227114   0.897   3.147   6.141  0.6145  1.6746  0.7893
 5160SOL     OW27115   4.463   2.765  17.286 -0.6415  0.4086 -0.2691
 5160SOL    HW127116   4.395   2.702  17.310 -1.7339  0.8745 -2.1407
 5160SOL    HW227117   4.470   2.769  17.190 -3.5558 -0.3089 -0.5013
 5161SOL     OW27118   2.772   0.594   2.184 -0.2226 -0.0062  0.1847
 5161SOL    HW127119   2.815   0.510   2.169  0.1377  0.5289 -1.7794
 5161SOL    HW227120   2.796   0.655   2.114  0.8662 -2.2638 -1.4326
 5162SOL     OW27121   1.412   0.118   9.321 -0.7098  0.1763  0.8580
 5162SOL    HW127122   1.500   0.157   9.319 -0.2879 -0.9314 -2.2186
 5162SOL    HW227123   1.427   0.029   9.356 -0.1887  0.8721  2.4271
 5163SOL     OW27124   0.282   2.176   4.057 -0.4349  0.0741 -0.2937
 5163SOL    HW127125   0.233   2.136   4.129  1.2793 -1.5824 -0.0302
 5163SOL    HW227126   0.355   2.113   4.059 -1.1906 -0.8101 -0.6561
 5164SOL     OW27127   3.228   4.592   3.861  0.0639  0.5779  0.5264
 5164SOL    HW127128   3.216   4.628   3.773  0.1686 -0.8645 -0.0778
 5164SOL    HW227129   3.145   4.614   3.904 -1.3879 -1.1347 -1.3701
 5165SOL     OW27130   2.885   1.755   5.981  0.1008  0.1704 -0.2894
 5165SOL    HW127131   2.854   1.773   6.070 -0.7254 -0.3833 -0.4608
 5165SOL    HW227132   2.815   1.723   5.924  1.5914 -0.0372 -2.0075
 5166SOL     OW27133   0.923   0.131  17.505 -0.0918  0.4186  0.2564
 5166SOL    HW127134   1.012   0.114  17.475  0.0888 -0.7508  1.4335
 5166SOL    HW227135   0.921   0.223  17.479 -0.3432  0.6255  1.0120
 5167SOL     OW27136   3.222   3.372   1.534  0.4744 -0.2341  0.2225
 5167SOL    HW127137   3.181   3.326   1.607  1.0286 -3.7253 -1.6409
 5167SOL    HW227138   3.258   3.305   1.476  0.2367  0.6704 -0.9767
 5168SOL     OW27139   1.309   0.893   4.657 -0.0336  0.1503  0.4351
 5168SOL    HW127140   1.302   0.915   4.564 -1.4519  1.2948  0.7996
 5168SOL    HW227141   1.218   0.889   4.686 -0.6356 -0.1830 -1.4504
 5169SOL     OW27142   0.235   4.510   0.132 -0.0598  0.3244 -0.1471
 5169SOL    HW127143   0.208   4.581   0.191 -3.5831  0.4359 -1.8919
 5169SOL    HW227144   0.314   4.550   0.096 -0.8019 -0.7865 -2.9685
 5170SOL     OW27145   2.609   1.981   7.122 -0.2269 -0.0172 -0.4614
 5170SOL    HW127146   2.698   1.959   7.096 -0.7290 -0.5177 -1.7491
 5170SOL    HW227147   2.599   2.069   7.086 -3.5117  0.0737  0.7299
 5171SOL     OW27148   3.636   1.526   6.885 -0.2609  0.2350  0.0710
 5171SOL    HW127149   3.654   1.585   6.811 -0.4608  0.7110  0.4044
 5171SOL    HW227150   3.631   1.587   6.958  1.1376  0.1995  0.1917
 5172SOL     OW27151   4.046   0.129  17.686 -0.1978 -0.1451 -0.3303
 5172SOL    HW127152   4.118   0.066  17.694 -0.5121 -0.6832 -1.6763
 5172SOL    HW227153   3.979   0.084  17.738 -0.0188 -0.4383 -0.3513
 5173SOL     OW27154   0.871   0.108   0.017 -0.2637 -0.0585  0.2238
 5173SOL    HW127155   0.890   0.099  17.673  3.5064 -1.9774  1.1314
 5173SOL    HW227156   0.864   0.015   0.041 -1.7025 -0.0379 -0.1356
 5174SOL     OW27157   4.573   4.439  14.694 -0.1545 -0.0621 -0.5261
 5174SOL    HW127158   4.661   4.447  14.731 -0.3280 -0.5250 -0.0167
 5174SOL    HW227159   4.598   4.400  14.610 -0.9682  0.9767 -1.2436
 5175SOL     OW27160   1.939   3.989   9.224  0.0012  0.0911 -0.6760
 5175SOL    HW127161   2.001   4.046   9.180  1.7245 -0.5246  0.9435
 5175SOL    HW227162   1.986   3.968   9.305 -0.5086  1.3758 -0.0528
 5176SOL     OW27163   4.705   3.713   0.067 -0.5754 -0.0090 -0.3044
 5176SOL    HW127164   4.674   3.622   0.060 -1.7013  0.5989 -3.3889
 5176SOL    HW227165   0.056   3.697   0.099 -0.8566  1.2508  1.0744
 5177SOL     OW27166   0.478   1.717  15.106  0.1873  0.3468 -0.3001
 5177SOL    HW127167   0.532   1.789  15.073  0.4391  1.7833  3.2356
 5177SOL    HW227168   0.452   1.684  15.020 -1.8379  2.6519 -0.5881
 5178SOL     OW27169   0.402   3.490  10.569  0.2156 -0.0579 -0.3239
 5178SOL    HW127170   0.336   3.548  10.531  1.0526 -0.2180 -2.0414
 5178SOL    HW227171   0.349   3.439  10.630 -0.5576  1.4931  0.2867
 5179SOL     OW27172   4.318   1.423  14.801 -0.2611  0.0721  0.0273
 5179SOL    HW127173   4.403   1.448  14.836 -0.4032  0.0149  0.4048
 5179SOL    HW227174   4.265   1.499  14.826 -0.0151  0.6511 -1.1843
 5180SOL     OW27175   0.740   0.479   4.404  0.0084  0.6701  0.3244
 5180SOL    HW127176   0.695   0.459   4.322  2.3594  2.6266 -1.4502
 5180SOL    HW227177   0.657   0.484   4.451 -0.6808  0.1031 -0.8208
 5181SOL     OW27178   0.813   1.371  14.772 -0.2863  0.0058 -0.2843
 5181SOL    HW127179   0.888   1.375  14.713 -0.2450  0.9297 -0.1731
 5181SOL    HW227180   0.795   1.464  14.789  1.3060  0.1893  0.3544
 5182SOL     OW27181   2.053   1.328  13.326 -0.4050  0.8553  0.4495
 5182SOL    HW127182   2.048   1.305  13.418 -1.7609  0.3822  0.2537
 5182SOL    HW227183   1.963   1.302  13.308  0.1142 -2.0992  2.0936
 5183SOL     OW27184   2.728   0.074   4.424  0.0116 -0.1240 -0.0409
 5183SOL    HW127185   2.786   0.035   4.489 -1.9068 -1.3206  0.9590
 5183SOL    HW227186   2.653   0.017   4.439  0.2605  0.3886  3.2452
 5184SOL     OW27187   3.979   3.476  11.240  0.1441  0.3449  0.4456
 5184SOL    HW127188   3.957   3.569  11.236 -1.0123  0.0783  0.5771
 5184SOL    HW227189   3.992   3.469  11.334 -0.4326 -0.4338  0.4684
 5185SOL     OW27190   4.342   2.319   6.736  0.3745 -0.3027  0.1682
 5185SOL    HW127191   4.359   2.311   6.830  0.2978  0.5908  0.2620
 5185SOL    HW227192   4.356   2.231   6.703  1.1234 -0.1527  0.0952
 5186SOL     OW27193   3.051   4.336   7.422 -0.5723 -0.3414  0.1071
 5186SOL    HW127194   3.122   4.400   7.420 -1.7289  0.9740  0.7816
 5186SOL    HW227195   3.017   4.342   7.511 -2.6196  0.3597 -0.7147
 5187SOL     OW27196   3.418   0.149  14.181 -0.2265 -0.2646 -0.5337
 5187SOL    HW127197   3.402   0.091  14.107  0.9128 -1.1339 -0.0993
 5187SOL    HW227198   3.440   0.227  14.130 -0.1783  0.1555  0.1236
 5188SOL     OW27199   3.213   0.964   1.564  0.2074 -0.4633 -0.0252
 5188SOL    HW127200   3.277   0.910   1.520  0.1214  0.7884 -1.6836
 5188SOL    HW227201   3.230   0.961   1.658  3.0408 -0.3063 -0.5602
 5189SOL     OW27202   1.895   2.512   6.924 -0.5688 -0.1287  0.0699
 5189SOL    HW127203   1.971   2.569   6.936 -1.2209  0.3348  1.8940
 5189SOL    HW227204   1.824   2.575   6.910 -0.8291 -0.1905  1.1414
 5190SOL     OW27205   2.413   3.296  15.944  0.2620  0.5755 -0.0891
 5190SOL    HW127206   2.318   3.287  15.953  0.2446 -1.8854 -2.9694
 5190SOL    HW227207   2.433   3.346  16.023  2.2923  1.8160 -1.3940
 5191SOL     OW27208   2.117   0.192   3.378 -0.6201 -0.1339  0.0813
 5191SOL    HW127209   2.195   0.237   3.408 -2.0635  1.6316  1.2347
 5191SOL    HW227210   2.141   0.106   3.411  0.7153 -0.3134 -1.3762
 5192SOL     OW27211   3.736   3.986   7.983 -0.3874  0.0072  0.2652
 5192SOL    HW127212   3.747   3.987   7.888  0.8567 -2.0040  0.3940
 5192SOL    HW227213   3.774   3.899   7.982  0.6705  0.4807 -2.1999
 5193SOL     OW27214   3.124   1.645  10.474 -0.1347  0.1692  0.2380
 5193SOL    HW127215   3.088   1.727  10.505 -2.1074 -0.2650 -0.8507
 5193SOL    HW227216   3.180   1.626  10.549  0.6882 -0.2999 -0.4964
 5194SOL     OW27217   3.234   3.017  13.993  0.0543 -0.2748  0.2400
 5194SOL    HW127218   3.170   3.062  14.048  0.7769  1.5799 -0.3963
 5194SOL    HW227219   3.308   3.076  14.009  1.7162 -2.8171  1.9314
 5195SOL     OW27220   0.170   3.683   7.426  0.2063  0.5847  0.3704
 5195SOL    HW127221   0.099   3.737   7.392 -0.8921 -0.4530  0.9796
 5195SOL    HW227222   0.242   3.697   7.365 -1.6073 -1.6026 -2.2827
 5196SOL     OW27223   3.319   1.487   2.084  0.0512  0.4174  0.0612
 5196SOL    HW127224   3.372   1.522   2.013  1.8103  0.0677  1.2133
 5196SOL    HW227225   3.387   1.437   2.129  0.5873 -0.0768 -1.3167
 5197SOL     OW27226   2.135   3.942   3.404 -0.7424  0.1888  0.0924
 5197SOL    HW127227   2.081   3.877   3.450 -1.5809  0.5452 -0.3920
 5197SOL    HW227228   2.207   3.891   3.365 -0.1884  1.4719 -0.5507
 5198SOL     OW27229   2.760   2.261   5.319 -0.5250  0.5381  0.2522
 5198SOL    HW127230   2.815   2.201   5.268  0.9798  0.3672  2.0808
 5198SOL    HW227231   2.735   2.318   5.247 -0.1182 -0.8624 -1.0055
 5199SOL     OW27232   0.509   4.212  15.111  0.3643 -0.4535 -0.1160
 5199SOL    HW127233   0.531   4.297  15.073  0.8345  0.0515  1.2535
 5199SOL    HW227234   0.580   4.199  15.173  1.2323  3.2538 -0.3081
 5200SOL     OW27235   3.427   2.123   4.630 -0.3516 -0.6352  0.1889
 5200SOL    HW127236   3.522   2.126   4.619 -0.2390  0.3597  1.4201
 5200SOL    HW227237   3.422   2.162   4.717  0.3413  0.8981 -0.4492
 5201SOL     OW27238   2.572   0.735   3.410  0.7662  0.5341  0.0244
 5201SOL    HW127239   2.616   0.666   3.460  0.2459  0.2769  0.1217
 5201SOL    HW227240   2.485   0.744   3.448 -0.0083  0.0668 -1.6303
 5202SOL     OW27241   3.122   1.311   8.124  0.0200  0.0938 -0.0560
 5202SOL    HW127242   3.158   1.399   8.114 -1.6504  0.5806 -1.8646
 5202SOL    HW227243   3.086   1.305   8.036  3.0693 -0.5895 -1.2552
 5203SOL     OW27244   3.874   1.360   6.261 -0.4595  0.4913  0.1140
 5203SOL    HW127245   3.862   1.397   6.349 -0.5662 -0.3507  0.4505
 5203SOL    HW227246   3.965   1.380   6.242  0.1911 -1.4989  1.1759
 5204SOL     OW27247   3.174   3.381   7.726  0.2432  0.2235  0.4089
 5204SOL    HW127248   3.180   3.291   7.759 -0.1561 -0.0734 -0.3503
 5204SOL    HW227249   3.082   3.388   7.704  0.7372 -0.1602 -1.7074
 5205SOL     OW27250   0.552   2.842   4.880  0.2605  0.4507  0.5704
 5205SOL    HW127251   0.612   2.775   4.848 -0.7365  0.9512 -2.2996
 5205SOL    HW227252   0.511   2.866   4.797  0.4927 -0.6097  0.1558
 5206SOL     OW27253   2.293   2.034   5.487 -0.1402  0.1360  0.7528
 5206SOL    HW127254   2.300   2.127   5.510  0.4381  0.5814 -1.2844
 5206SOL    HW227255   2.383   2.023   5.456 -1.4051 -0.4001 -2.7365
 5207SOL     OW27256   3.692   0.225   8.245 -0.2410  0.3984  0.9306
 5207SOL    HW127257   3.783   0.219   8.218 -0.5518 -0.0966  0.0105
 5207SOL    HW227258   3.688   0.137   8.284  0.8131 -0.7683 -1.5932
 5208SOL     OW27259   1.816   0.685   1.768  0.0111 -0.3356  0.3812
 5208SOL    HW127260   1.727   0.700   1.736 -0.0146 -0.2229  0.5038
 5208SOL    HW227261   1.798   0.626   1.842 -0.1572  0.5345  1.0444
 5209SOL     OW27262   2.547   3.260   7.631  0.7263 -0.0957 -0.2026
 5209SOL    HW127263   2.476   3.322   7.618 -1.1610 -2.1679  0.1007
 5209SOL    HW227264   2.558   3.247   7.726 -1.8817 -1.9570 -0.1317
 5210SOL     OW27265   3.109   1.885   1.599 -0.3974 -0.3516 -0.1522
 5210SOL    HW127266   3.106   1.833   1.679  0.0850 -0.9536 -0.5270
 5210SOL    HW227267   3.200   1.889   1.572 -0.5474 -0.7445 -0.7134
 5211SOL     OW27268   1.912   3.062   3.130  0.4282 -0.1362  0.5873
 5211SOL    HW127269   1.888   3.002   3.200  1.5613 -1.9383 -0.5803
 5211SOL    HW227270   1.975   3.116   3.178  0.1027  0.4423  0.3573
 5212SOL     OW27271   4.363   0.437   3.182  0.0856 -0.1911  0.1163
 5212SOL    HW127272   4.368   0.520   3.228 -1.7011  0.3445 -0.6573
 5212SOL    HW227273   4.270   0.439   3.158 -0.1440  0.8095  1.1081
 5213SOL     OW27274   0.688   1.973  15.415 -0.0877 -0.3279 -0.2193
 5213SOL    HW127275   0.665   2.046  15.474 -2.0352 -0.2854 -1.0265
 5213SOL    HW227276   0.638   2.000  15.338 -1.0438  0.7932  0.7831
 5214SOL     OW27277   0.418   1.760   6.656  0.0934  0.0421  0.2896
 5214SOL    HW127278   0.510   1.778   6.670  0.3107  0.0630 -1.1157
 5214SOL    HW227279   0.407   1.721   6.742 -0.6866 -0.0122  0.1657
 5215SOL     OW27280   0.691   2.724   9.116  0.5675  0.4772 -0.4283
 5215SOL    HW127281   0.598   2.722   9.092  0.6238  0.3661 -0.6330
 5215SOL    HW227282   0.719   2.633   9.104  1.2583  0.5155  0.8689
 5216SOL     OW27283   4.175   0.145   2.703 -0.6388 -0.0432 -0.1805
 5216SOL    HW127284   4.245   0.194   2.660  0.1713  0.5260  1.7885
 5216SOL    HW227285   4.175   0.063   2.654  0.1523 -0.4977  0.5950
 5217SOL     OW27286   3.038   1.409   1.406 -0.1965  0.1757  0.7723
 5217SOL    HW127287   3.127   1.417   1.439  0.3346 -2.2583 -0.0460
 5217SOL    HW227288   3.022   1.322   1.442  2.2606 -1.7337 -2.7564
 5218SOL     OW27289   2.098   2.501   1.484  0.2932 -0.1976 -0.1409
 5218SOL    HW127290   2.168   2.521   1.422 -1.6735  3.3708 -1.2103
 5218SOL    HW227291   2.038   2.574   1.469 -1.0773 -1.5150 -1.1448
 5219SOL     OW27292   3.079   2.791   0.906 -0.1767  0.0474  0.1770
 5219SOL    HW127293   3.100   2.703   0.873 -2.4260 -0.6586  0.6104
 5219SOL    HW227294   2.987   2.806   0.886  0.4909  0.7497 -2.3873
 5220SOL     OW27295   4.428   3.877  14.362  0.3295  0.4602  0.3220
 5220SOL    HW127296   4.334   3.864  14.363  0.5870 -1.4235 -0.3139
 5220SOL    HW227297   4.455   3.884  14.453 -0.2327  1.5036  0.4107
 5221SOL     OW27298   1.624   1.788  12.338 -0.1270  0.4991  0.4357
 5221SOL    HW127299   1.630   1.834  12.422 -0.9115  1.0410  0.1976
 5221SOL    HW227300   1.601   1.699  12.364 -2.8218  1.5740  1.7777
 5222SOL     OW27301   1.939   1.945   1.756  0.1866  0.2424 -0.1104
 5222SOL    HW127302   1.987   1.893   1.692  1.3660  0.8367  0.3015
 5222SOL    HW227303   1.861   1.975   1.708  0.1144 -0.9935 -0.7800
 5223SOL     OW27304   2.724   1.615   3.575 -0.4448 -0.0169  0.1873
 5223SOL    HW127305   2.787   1.650   3.512 -0.0905 -0.6287  0.1974
 5223SOL    HW227306   2.781   1.558   3.628  0.4109  0.7910  0.1310
 5224SOL     OW27307   1.455   4.597   7.396  0.7712  0.0264  0.1208
 5224SOL    HW127308   1.404   4.633   7.468  1.5297 -0.7338  1.0491
 5224SOL    HW227309   1.405   4.629   7.321 -2.5634 -1.3849  1.7857
 5225SOL     OW27310   1.190   2.196   7.513  0.3366 -0.2058  0.0315
 5225SOL    HW127311   1.257   2.228   7.452 -0.1572  1.9709  0.6352
 5225SOL    HW227312   1.106   2.219   7.474  2.5660  3.3677 -2.8216
 5226SOL     OW27313   3.274   2.094   2.678  0.2353 -0.0299 -0.2393
 5226SOL    HW127314   3.296   2.150   2.604 -2.3399 -1.3238 -1.9810
 5226SOL    HW227315   3.287   2.010   2.635  1.2767 -0.1012  0.1980
 5227SOL     OW27316   1.985   4.520  10.079 -0.1632 -0.4215 -0.7398
 5227SOL    HW127317   1.985   4.443  10.135  2.0212 -0.1870 -0.4146
 5227SOL    HW227318   2.073   4.512  10.044  0.3842  0.9192  0.3066
 5228SOL     OW27319   2.378   2.630   5.520 -0.0116  0.7227  1.0369
 5228SOL    HW127320   2.337   2.600   5.602  0.5705  0.1191  1.1143
 5228SOL    HW227321   2.297   2.646   5.473  1.9097  0.6732 -2.2875
 5229SOL     OW27322   3.129   2.511   7.312 -0.4655 -0.0540 -0.5017
 5229SOL    HW127323   3.101   2.539   7.399  3.3501 -0.9892  1.0264
 5229SOL    HW227324   3.041   2.493   7.276 -0.5038  0.9316 -0.8864
 5230SOL     OW27325   3.027   2.889   3.109 -0.2826 -0.7049 -0.1421
 5230SOL    HW127326   3.085   2.813   3.110 -0.2904 -0.6960  1.0335
 5230SOL    HW227327   3.023   2.913   3.016 -0.1437  0.3906  0.1321
 5231SOL     OW27328   4.176   2.501   5.597 -0.0602 -0.0632 -0.1690
 5231SOL    HW127329   4.241   2.431   5.610  0.1394 -0.1186 -1.3925
 5231SOL    HW227330   4.226   2.565   5.546 -0.8928  0.0571 -0.8310
 5232SOL     OW27331   3.050   3.896   2.988 -0.1927  0.1515 -0.1027
 5232SOL    HW127332   3.044   3.849   3.071 -0.0267 -1.1411 -0.8224
 5232SOL    HW227333   3.092   3.834   2.927 -0.6827 -0.0392 -0.2475
 5233SOL     OW27334   2.640   0.620  16.466 -0.0256  0.0746  0.0352
 5233SOL    HW127335   2.733   0.644  16.471 -0.2272  0.7122  0.7628
 5233SOL    HW227336   2.609   0.704  16.501 -0.3157  0.2915 -0.7469
 5234SOL     OW27337   1.759   4.218  15.609  0.1529  0.1300  0.2170
 5234SOL    HW127338   1.759   4.255  15.520 -0.3153 -1.7713 -0.5843
 5234SOL    HW227339   1.829   4.153  15.604 -1.4128 -1.5893  0.9288
 5235SOL     OW27340   0.841   3.316   2.401  0.1884 -0.7953 -0.1425
 5235SOL    HW127341   0.755   3.311   2.358 -0.6896 -0.5832  1.5953
 5235SOL    HW227342   0.819   3.308   2.494  1.2714  0.9273  0.2574
 5236SOL     OW27343   1.704   2.090   2.553 -0.4341  0.0420  0.0954
 5236SOL    HW127344   1.710   2.068   2.646  1.1161  1.1823  0.2597
 5236SOL    HW227345   1.707   2.001   2.519 -0.6476 -0.2219  0.7616
 5237SOL     OW27346   3.410   4.085   4.255 -0.4270 -0.3377  0.2159
 5237SOL    HW127347   3.354   4.161   4.275  0.3138  0.2523  0.0389
 5237SOL    HW227348   3.488   4.112   4.303 -1.1612  1.9507  0.1418
 5238SOL     OW27349   3.472   0.666   0.537  0.5370 -0.4007 -0.0046
 5238SOL    HW127350   3.420   0.587   0.553 -1.0719  0.8902  1.1960
 5238SOL    HW227351   3.465   0.681   0.443  2.5177  0.3401 -0.0330
 5239SOL     OW27352   1.862   4.022   7.597  0.2767  0.2851 -0.1583
 5239SOL    HW127353   1.941   4.030   7.650  0.1582  0.9741 -0.0802
 5239SOL    HW227354   1.799   4.072   7.649  0.3634  0.8143 -0.5542
 5240SOL     OW27355   4.047   4.700   1.678 -0.4357 -0.2342 -0.6303
 5240SOL    HW127356   4.054   0.057   1.675  0.5050 -0.3069 -0.8033
 5240SOL    HW227357   4.099   4.671   1.603  2.3369 -1.2992  1.6919
 5241SOL     OW27358   0.213   2.177  14.300  0.0785 -0.3643  0.4285
 5241SOL    HW127359   0.142   2.240  14.291  0.7074 -0.0925 -2.5260
 5241SOL    HW227360   0.263   2.235  14.358  1.8446  0.0176 -1.5023
 5242SOL     OW27361   2.154   3.058   4.132  1.0740  0.3740 -0.1660
 5242SOL    HW127362   2.089   3.123   4.160  0.3768  0.9500 -3.1419
 5242SOL    HW227363   2.210   3.052   4.210  0.7580  0.5350  0.0748
 5243SOL     OW27364   0.088   2.790   5.996  0.2784  0.2851 -0.4394
 5243SOL    HW127365   0.119   2.729   5.928  1.1075  0.3117 -0.0812
 5243SOL    HW227366   0.170   2.814   6.039 -1.2789 -0.6902  3.0181
 5244SOL     OW27367   4.329   1.779   0.876  0.2137  0.4427 -0.0155
 5244SOL    HW127368   4.407   1.778   0.820 -0.0843  1.3817 -0.4393
 5244SOL    HW227369   4.257   1.814   0.825  1.2372  1.1961 -0.9550
 5245SOL     OW27370   1.918   2.055   1.439  0.3631 -0.5965  0.2225
 5245SOL    HW127371   1.837   2.046   1.490 -0.1787  0.2991 -0.4875
 5245SOL    HW227372   1.892   2.079   1.350 -1.4206  1.0952  1.2054
 5246SOL     OW27373   0.383   2.490   2.234  0.1590 -0.4222  0.2374
 5246SOL    HW127374   0.401   2.445   2.316  1.9799 -0.4240 -0.1575
 5246SOL    HW227375   0.457   2.550   2.239  2.1328 -2.9094  0.8530
 5247SOL     OW27376   4.587   1.260  17.193  0.3783 -0.5218  0.3556
 5247SOL    HW127377   4.509   1.286  17.143  0.2298  1.8204  1.8142
 5247SOL    HW227378   4.653   1.279  17.126 -2.6372  0.4149 -2.3471
 5248SOL     OW27379   1.948   4.673   7.745 -0.0350  0.1057 -0.1628
 5248SOL    HW127380   1.906   4.629   7.819 -2.2136  2.4579 -0.0119
 5248SOL    HW227381   1.971   4.596   7.692  1.1223  0.7198 -0.5555
 5249SOL     OW27382   1.653   4.359   9.370 -0.6046 -0.5333 -0.4541
 5249SOL    HW127383   1.715   4.366   9.298 -0.6119  0.0224 -0.4043
 5249SOL    HW227384   1.703   4.319   9.442  1.7764  0.9189 -1.2826
 5250SOL     OW27385   0.688   4.146   2.178 -0.4112 -0.0202 -0.3738
 5250SOL    HW127386   0.625   4.202   2.133 -0.3359  0.3587 -0.0012
 5250SOL    HW227387   0.649   4.060   2.164 -1.1976  0.3929 -0.6897
 5251SOL     OW27388   3.935   2.784   9.389  0.1463 -0.2404 -0.1776
 5251SOL    HW127389   4.002   2.832   9.439 -0.1607  1.4878 -1.4400
 5251SOL    HW227390   3.862   2.840   9.415  0.3092 -0.5997  1.0850
 5252SOL     OW27391   2.088   1.419   8.942  0.0371 -0.0935  0.5509
 5252SOL    HW127392   2.167   1.395   8.991  1.3626  1.6987 -0.6705
 5252SOL    HW227393   2.036   1.340   8.931  0.2703  0.1754 -2.6657
 5253SOL     OW27394   0.160   4.349  17.398  0.5221  0.5513  0.3212
 5253SOL    HW127395   0.073   4.313  17.380  1.0667 -1.1542  1.1479
 5253SOL    HW227396   0.153   4.440  17.427  1.8676  0.7933 -0.1054
 5254SOL     OW27397   3.176   0.572   7.047  0.1429  0.6258  0.1722
 5254SOL    HW127398   3.159   0.558   6.954  0.3719  0.8529  0.0943
 5254SOL    HW227399   3.196   0.666   7.049  0.6740  0.4907  1.0094
 5255SOL     OW27400   4.627   3.430   9.385 -0.3980  0.0465 -0.0284
 5255SOL    HW127401   4.684   3.492   9.430  2.2155 -2.0077 -0.5224
 5255SOL    HW227402   4.606   3.370   9.456 -0.5515  0.4951  0.3096
 5256SOL     OW27403   0.733   1.698   2.650 -0.0372  0.3149 -0.3154
 5256SOL    HW127404   0.663   1.706   2.716  0.7235  1.6216  0.3331
 5256SOL    HW227405   0.802   1.658   2.703 -1.5573  1.1724  2.3269
 5257SOL     OW27406   3.933   0.678   7.840 -0.2433  0.1453 -0.0193
 5257SOL    HW127407   4.019   0.683   7.798 -0.9670  0.4049 -1.4545
 5257SOL    HW227408   3.931   0.750   7.903  0.3996  0.9241 -0.8799
 5258SOL     OW27409   1.069   3.331   8.749  0.2975  0.6130  0.4554
 5258SOL    HW127410   1.076   3.347   8.843  1.6958  2.5728  0.0243
 5258SOL    HW227411   1.148   3.373   8.714 -0.0276  1.5080  0.7935
 5259SOL     OW27412   0.019   0.837  16.571 -0.1383 -0.1231  0.0044
 5259SOL    HW127413   0.018   0.756  16.621  1.0570 -0.6926 -0.9009
 5259SOL    HW227414   4.698   0.896  16.618 -1.7128 -1.7094  0.0304
 5260SOL     OW27415   0.291   1.289   2.202  0.1352  0.1609  0.0614
 5260SOL    HW127416   0.207   1.330   2.180  0.1671 -0.4467 -1.1879
 5260SOL    HW227417   0.301   1.217   2.140 -1.4278  2.2911 -2.6654
 5261SOL     OW27418   2.808   1.814   1.881  0.5772 -0.4241 -0.6227
 5261SOL    HW127419   2.778   1.772   1.800 -0.1537 -0.5708 -0.2664
 5261SOL    HW227420   2.896   1.778   1.896  0.7179 -0.0908 -0.6507
 5262SOL     OW27421   0.079   2.179  16.158 -0.5889  0.0971  0.4911
 5262SOL    HW127422   0.040   2.252  16.110  0.1075 -0.3221 -0.7070
 5262SOL    HW227423   0.105   2.216  16.242 -0.4543 -0.5773  0.7465
 5263SOL     OW27424   2.774   0.961   3.613 -0.3187 -0.2200 -0.2825
 5263SOL    HW127425   2.681   0.985   3.615 -0.3538  0.0967 -4.5458
 5263SOL    HW227426   2.779   0.882   3.560 -1.2559 -0.4565 -0.0285
 5264SOL     OW27427   4.122   1.413   8.023  0.4624 -0.1234 -0.1377
 5264SOL    HW127428   4.054   1.451   8.079 -0.3107 -0.2252 -1.0013
 5264SOL    HW227429   4.202   1.446   8.064  1.9340  0.5351 -3.5375
 5265SOL     OW27430   0.076   3.695   8.494  0.1043 -0.1666  0.6082
 5265SOL    HW127431   0.126   3.618   8.469  0.0635  0.7496 -2.3535
 5265SOL    HW227432   0.133   3.755   8.445  1.4965 -0.2789  2.0750
 5266SOL     OW27433   4.120   0.137  11.520 -0.6814 -0.0575  1.1385
 5266SOL    HW127434   4.090   0.075  11.587 -1.6985  0.6610  1.3501
 5266SOL    HW227435   4.038   0.140  11.471 -0.2805  0.7111  0.5110
 5267SOL     OW27436   1.194   3.601   7.337 -0.1805 -0.1777  0.0826
 5267SOL    HW127437   1.147   3.685   7.336  0.5692  0.2347 -0.1218
 5267SOL    HW227438   1.278   3.642   7.317  0.0969 -1.9290 -2.3611
 5268SOL     OW27439   3.122   1.984  12.838  0.3722  0.0263  0.6394
 5268SOL    HW127440   3.094   2.073  12.862  4.4715  0.8054  2.7756
 5268SOL    HW227441   3.164   1.994  12.753  0.5963 -0.6136  0.6726
 5269SOL     OW27442   1.525   4.177   1.063  0.7030  0.3823 -0.4011
 5269SOL    HW127443   1.451   4.192   1.004 -0.3764  0.5494  0.9861
 5269SOL    HW227444   1.495   4.095   1.103 -0.9914  1.6730  0.9632
 5270SOL     OW27445   3.881   3.713  14.878  0.1849 -0.6027 -0.4107
 5270SOL    HW127446   3.958   3.727  14.934  0.6628 -0.2336 -1.1661
 5270SOL    HW227447   3.808   3.738  14.934 -0.0776  0.8058 -1.3702
 5271SOL     OW27448   2.097   2.571  10.118  0.2593 -0.3133 -0.2298
 5271SOL    HW127449   2.138   2.558  10.033 -1.5113 -2.7775 -0.6780
 5271SOL    HW227450   2.025   2.509  10.108 -1.6214  1.5571  1.6498
 5272SOL     OW27451   4.191   0.410   6.572  0.6288 -0.2180 -0.1437
 5272SOL    HW127452   4.238   0.382   6.494  0.1546 -1.6493  0.0775
 5272SOL    HW227453   4.266   0.396   6.631  0.0173 -0.9183  0.4694
 5273SOL     OW27454   4.552   1.606   2.654 -0.0043  0.4851  0.3042
 5273SOL    HW127455   4.486   1.555   2.701  1.7235 -0.8392  1.3262
 5273SOL    HW227456   4.621   1.605   2.721 -0.2749  1.7738  0.6049
 5274SOL     OW27457   3.420   2.276   4.873  0.0329  0.0507  0.3243
 5274SOL    HW127458   3.509   2.306   4.853 -0.6985  1.5686 -0.6918
 5274SOL    HW227459   3.446   2.216   4.942 -0.9534 -2.5552 -1.5850
 5275SOL     OW27460   3.943   0.651  13.994 -0.1186  0.1004  0.1742
 5275SOL    HW127461   4.015   0.609  14.040 -0.8749 -0.2761  1.0012
 5275SOL    HW227462   3.952   0.738  14.034  1.1445  0.8376 -1.6986
 5276SOL     OW27463   1.685   0.986   0.157  0.3240 -0.1066  0.1693
 5276SOL    HW127464   1.686   0.959   0.249 -0.3062 -0.4040  0.0862
 5276SOL    HW227465   1.608   0.933   0.136  0.0078 -0.4035  2.1231
 5277SOL     OW27466   3.196   0.563   5.882  0.3752  0.0864  0.3767
 5277SOL    HW127467   3.181   0.629   5.950 -0.5210  2.2157 -1.8967
 5277SOL    HW227468   3.117   0.568   5.829 -0.7986 -1.1495  1.9741
 5278SOL     OW27469   4.208   1.449   1.856 -0.1878  0.5355 -0.2482
 5278SOL    HW127470   4.160   1.524   1.891  0.6182  0.8149  0.2555
 5278SOL    HW227471   4.299   1.478   1.850  0.1954 -0.6723 -0.3683
 5279SOL     OW27472   2.341   1.225   3.706  0.0318 -0.1066  0.1308
 5279SOL    HW127473   2.248   1.220   3.683  0.2645  3.2225 -1.5725
 5279SOL    HW227474   2.347   1.292   3.774 -1.6648  0.1166  0.0701
 5280SOL     OW27475   0.830   1.673   6.781 -0.2045  0.4802 -0.6204
 5280SOL    HW127476   0.925   1.679   6.785 -0.1334 -0.1601 -1.5815
 5280SOL    HW227477   0.820   1.653   6.874 -1.4032 -0.8961 -1.0468
 5281SOL     OW27478   0.022   4.077  17.167 -0.0134  0.1699  0.0718
 5281SOL    HW127479   4.710   4.121  17.235 -0.4596  1.7833 -1.3069
 5281SOL    HW227480   0.068   4.017  17.226  0.7637  1.8620  1.1734
 5282SOL     OW27481   0.371   1.002   4.134  0.1218 -0.2643  0.8899
 5282SOL    HW127482   0.290   0.954   4.118 -0.0651 -0.3490  2.0960
 5282SOL    HW227483   0.365   1.062   4.060  1.0188 -1.0850  0.1516
 5283SOL     OW27484   3.160   4.452   5.588  0.3392  0.0986  0.0861
 5283SOL    HW127485   3.127   4.539   5.613 -2.2069 -0.7752 -0.1734
 5283SOL    HW227486   3.079   4.401   5.582  0.8203 -0.8279  1.4575
 5284SOL     OW27487   4.212   0.972   6.780 -0.0036 -0.3544 -0.2226
 5284SOL    HW127488   4.227   1.062   6.753  3.3973 -0.7822  0.2729
 5284SOL    HW227489   4.117   0.959   6.775  0.1264 -0.8999 -1.2882
 5285SOL     OW27490   1.943   0.688   7.164  0.0342  0.0765 -0.4393
 5285SOL    HW127491   1.953   0.595   7.146 -2.3759 -0.4512  0.9825
 5285SOL    HW227492   1.864   0.689   7.218  0.7627 -0.0326  0.6371
 5286SOL     OW27493   2.641   1.382  11.516  0.5635 -0.1243  0.1568
 5286SOL    HW127494   2.611   1.322  11.447 -4.0208  0.8402  1.3018
 5286SOL    HW227495   2.620   1.329  11.592 -0.6829 -0.0347 -0.1152
 5287SOL     OW27496   0.326   0.345   5.901  0.1310  0.6505 -0.6062
 5287SOL    HW127497   0.382   0.267   5.896 -0.9555 -0.1307 -0.5353
 5287SOL    HW227498   0.355   0.385   5.820  1.4128 -1.6000 -1.2551
 5288SOL     OW27499   0.974   4.682   6.167  0.0714 -0.4553 -0.0591
 5288SOL    HW127500   0.934   4.661   6.083  2.8007 -1.9011 -1.0268
 5288SOL    HW227501   1.068   4.687   6.147  0.0488 -1.4546 -0.4241
 5289SOL     OW27502   3.500   4.027  11.983  0.1674 -0.3922 -0.3531
 5289SOL    HW127503   3.455   4.078  11.916  1.7873  2.4195  0.6716
 5289SOL    HW227504   3.549   4.090  12.037 -2.1054  1.1234 -0.0766
 5290SOL     OW27505   3.992   2.547  12.916  0.1150 -0.4534 -0.7704
 5290SOL    HW127506   4.055   2.584  12.854 -0.6040  2.4062  0.2002
 5290SOL    HW227507   3.910   2.540  12.868 -0.5445  0.9293  0.1726
 5291SOL     OW27508   2.974   1.206  10.157 -0.6768 -0.6260 -0.3993
 5291SOL    HW127509   2.981   1.270  10.227  0.1724 -0.1479 -0.9187
 5291SOL    HW227510   2.949   1.132  10.212  1.2979 -0.4417  0.7187
 5292SOL     OW27511   3.769   2.035   6.834 -0.0195 -0.3924 -0.2708
 5292SOL    HW127512   3.766   1.977   6.910  0.8343 -0.5936 -0.3817
 5292SOL    HW227513   3.678   2.047   6.807  0.7579  1.0063 -2.2606
 5293SOL     OW27514   0.619   0.989   4.292 -0.3359  0.1069  0.2878
 5293SOL    HW127515   0.583   0.911   4.335  0.6171 -0.1558  0.6059
 5293SOL    HW227516   0.556   0.998   4.220 -0.5410  1.3088  0.6150
 5294SOL     OW27517   1.431   1.283   8.007 -0.1677  0.4219 -0.5737
 5294SOL    HW127518   1.441   1.288   8.102  0.1068  0.8554 -0.6272
 5294SOL    HW227519   1.368   1.354   7.997  0.2768  0.6840 -1.5465
 5295SOL     OW27520   1.396   0.500   8.479  0.6109 -0.3798 -0.2934
 5295SOL    HW127521   1.390   0.408   8.457  1.9414 -0.2344 -1.3357
 5295SOL    HW227522   1.382   0.528   8.388  1.9776  0.3288 -0.3051
 5296SOL     OW27523   4.330   4.544  13.065 -0.0153  0.2002 -0.2118
 5296SOL    HW127524   4.360   4.454  13.050 -0.2653  0.0378  0.2742
 5296SOL    HW227525   4.292   4.542  13.152 -0.3791 -1.4089 -0.4008
 5297SOL     OW27526   3.974   4.642   6.516  0.0202  0.1669  0.4981
 5297SOL    HW127527   3.997   4.730   6.485 -2.4018  0.2261 -1.1827
 5297SOL    HW227528   4.059   4.599   6.512  0.2422  0.5251  1.4268
 5298SOL     OW27529   1.663   4.506   7.268  0.2209  0.1176  0.0408
 5298SOL    HW127530   1.597   4.552   7.320  1.8448  0.6818  1.6084
 5298SOL    HW227531   1.615   4.428   7.240 -0.7307  0.3516  1.0256
 5299SOL     OW27532   3.083   4.104   7.695 -0.1941 -0.2816  0.3972
 5299SOL    HW127533   3.011   4.057   7.736  0.7296 -0.9446  1.2257
 5299SOL    HW227534   3.132   4.139   7.769  0.4519 -0.2837 -0.0305
 5300SOL     OW27535   1.242   2.343  16.174  0.2866 -0.4536  0.1160
 5300SOL    HW127536   1.280   2.266  16.132  0.2486 -0.5628  0.2826
 5300SOL    HW227537   1.185   2.376  16.104  1.6271  0.0504 -0.7342
 5301SOL     OW27538   3.581   2.387   0.285 -0.2929  0.4434  0.1594
 5301SOL    HW127539   3.667   2.368   0.247 -0.6991  1.4153 -1.2411
 5301SOL    HW227540   3.538   2.429   0.211  0.8652 -1.7703 -1.7896
 5302SOL     OW27541   0.269   0.144  11.112 -0.0398  0.3907 -0.9798
 5302SOL    HW127542   0.361   0.139  11.086 -0.0246 -0.7953 -0.6894
 5302SOL    HW227543   0.221   0.101  11.041 -0.3238 -2.4395  0.8939
 5303SOL     OW27544   0.361   1.392   3.485 -0.3828 -0.0394 -0.2811
 5303SOL    HW127545   0.313   1.419   3.563 -0.9743  1.5935 -1.2255
 5303SOL    HW227546   0.380   1.481   3.457 -1.4114 -0.6374 -2.8722
 5304SOL     OW27547   4.378   0.735   0.849 -0.2893 -0.2581 -0.3384
 5304SOL    HW127548   4.377   0.830   0.860 -1.2707 -0.3520  0.4559
 5304SOL    HW227549   4.294   0.728   0.802 -0.6364 -0.0592  0.2461
 5305SOL     OW27550   2.260   4.694   3.537  0.2505  0.2725  0.0440
 5305SOL    HW127551   2.232   4.701   3.628 -0.4121  2.1925 -0.2888
 5305SOL    HW227552   2.236   4.606   3.508 -0.8251  0.3433  0.7305
 5306SOL     OW27553   1.628   0.542   8.153 -0.1603 -0.2772  0.2780
 5306SOL    HW127554   1.601   0.454   8.127  0.4401 -0.2177 -0.5352
 5306SOL    HW227555   1.542   0.581   8.173 -0.5007 -0.7525 -0.2769
 5307SOL     OW27556   4.595   2.422   3.039  0.9753  0.7049  0.3128
 5307SOL    HW127557   4.545   2.425   2.957  2.2258 -1.6002 -0.5465
 5307SOL    HW227558   4.526   2.423   3.105  0.9522  0.1403  0.2956
 5308SOL     OW27559   1.562   2.630   7.879  0.0162  0.0036  0.5219
 5308SOL    HW127560   1.516   2.618   7.962 -1.5009  0.5642 -0.2244
 5308SOL    HW227561   1.651   2.639   7.913  0.6584 -1.7227 -0.6793
 5309SOL     OW27562   2.124   1.363   1.325 -0.1905 -0.6882  0.3872
 5309SOL    HW127563   2.164   1.436   1.277 -1.4796  0.6672  1.3905
 5309SOL    HW227564   2.031   1.383   1.312 -0.1811 -0.8595  0.0395
 5310SOL     OW27565   4.371   0.164   0.462  0.0693  0.2386 -0.0361
 5310SOL    HW127566   4.311   0.111   0.514 -0.6970 -0.4631 -1.6343
 5310SOL    HW227567   4.319   0.193   0.387  0.4071 -0.2796 -0.4754
 5311SOL     OW27568   1.192   3.621  15.678  0.1324  0.2539  0.4896
 5311SOL    HW127569   1.112   3.575  15.702  0.3012  1.6836  3.7863
 5311SOL    HW227570   1.250   3.545  15.670 -2.3891 -2.0433  4.3461
 5312SOL     OW27571   1.706   1.997   3.249  0.0615  0.1305 -0.3656
 5312SOL    HW127572   1.632   1.999   3.187 -1.3979 -0.1914  1.3851
 5312SOL    HW227573   1.700   1.910   3.286 -0.1459  1.0507  1.7395
 5313SOL     OW27574   4.485   2.461   3.511  0.1561  0.1170 -0.0748
 5313SOL    HW127575   4.482   2.379   3.461  0.3700  1.1498 -1.7997
 5313SOL    HW227576   4.391   2.466   3.528  0.1794 -3.7342  1.1076
 5314SOL     OW27577   2.255   1.015   4.112 -0.4416  0.1219 -0.4854
 5314SOL    HW127578   2.347   1.004   4.087 -0.0767  1.4367  0.2583
 5314SOL    HW227579   2.237   0.950   4.180  0.4710  0.1634 -0.1986
 5315SOL     OW27580   4.164   1.005   3.044  0.1335  0.1789  0.1998
 5315SOL    HW127581   4.128   1.037   2.961 -0.5876 -0.8049  0.1328
 5315SOL    HW227582   4.151   0.910   3.044 -0.1358  0.2161  0.8487
 5316SOL     OW27583   4.080   3.268  16.498  0.6351 -0.2925 -0.8122
 5316SOL    HW127584   4.137   3.208  16.546  0.9100  1.1141  0.6220
 5316SOL    HW227585   4.105   3.263  16.405  0.8403 -0.8279 -0.7258
 5317SOL     OW27586   1.283   3.865  10.848 -0.7803 -0.0818  0.1726
 5317SOL    HW127587   1.328   3.871  10.932 -1.1470 -0.1421  0.3745
 5317SOL    HW227588   1.280   3.956  10.817 -0.2061  0.2347  1.0412
 5318SOL     OW27589   2.887   3.778   6.242 -0.1806  0.3808  0.8554
 5318SOL    HW127590   2.888   3.751   6.334  2.6289 -1.0458  0.3902
 5318SOL    HW227591   2.815   3.732   6.200  0.0816 -1.3197  2.3010
 5319SOL     OW27592   0.746   1.489  17.031  0.1743  0.4175 -0.0296
 5319SOL    HW127593   0.715   1.579  17.041  0.6683  0.8180 -2.1917
 5319SOL    HW227594   0.833   1.507  16.997  1.3110 -1.1225  2.1126
 5320SOL     OW27595   0.915   4.640   9.030 -0.3576  1.0163 -0.0637
 5320SOL    HW127596   0.863   4.596   9.097  0.4073  0.4890  0.1795
 5320SOL    HW227597   0.951   4.560   8.994  0.8918  1.9689 -0.9368
 5321SOL     OW27598   2.294   0.961  16.459 -0.7146 -0.0289 -0.1255
 5321SOL    HW127599   2.244   1.033  16.497 -0.7160 -0.6677  1.0749
 5321SOL    HW227600   2.318   1.004  16.377 -0.2000 -1.6131 -0.8077
 5322SOL     OW27601   2.641   2.615   4.766  0.1580 -0.1861 -0.0243
 5322SOL    HW127602   2.701   2.544   4.790  0.4061  0.6282  1.7564
 5322SOL    HW227603   2.686   2.696   4.792  1.9219 -0.2293 -2.9705
 5323SOL     OW27604   2.593   3.680  16.964  0.1795 -0.2618 -0.4095
 5323SOL    HW127605   2.611   3.610  16.901 -1.4391 -0.9847 -0.0766
 5323SOL    HW227606   2.669   3.736  16.949 -0.8187  1.3950  0.7353
 5324SOL     OW27607   3.626   2.526   3.691  0.0123 -0.8368 -0.8953
 5324SOL    HW127608   3.569   2.602   3.687  1.1197  0.0229 -0.5882
 5324SOL    HW227609   3.710   2.573   3.688 -0.8322  0.6329 -1.3519
 5325SOL     OW27610   1.631   3.678  14.780  0.1118  0.0868 -0.2062
 5325SOL    HW127611   1.542   3.710  14.765  0.4898  1.1109 -0.2805
 5325SOL    HW227612   1.627   3.649  14.871 -1.1688 -2.0394 -0.9533
 5326SOL     OW27613   0.528   0.971   1.606  0.1695 -0.4678  0.1722
 5326SOL    HW127614   0.537   0.910   1.533  1.2044 -1.1431  0.8799
 5326SOL    HW227615   0.570   0.920   1.675 -1.5455 -0.2728  1.3653
 5327SOL     OW27616   2.499   2.919   6.320 -0.5997 -0.2686 -0.1808
 5327SOL    HW127617   2.479   2.952   6.408  1.5670  2.3084 -0.6531
 5327SOL    HW227618   2.570   2.977   6.291 -1.8939  1.0112 -0.7928
 5328SOL     OW27619   0.666   2.117   3.886  0.0116 -0.1814  0.3662
 5328SOL    HW127620   0.710   2.069   3.816  2.3016  1.2043  0.8132
 5328SOL    HW227621   0.649   2.041   3.940  0.2700  0.9477  2.0378
 5329SOL     OW27622   4.508   4.493   7.564 -0.2668  0.6595 -0.0621
 5329SOL    HW127623   4.553   4.473   7.646  0.0619  0.3654 -0.3164
 5329SOL    HW227624   4.417   4.472   7.584 -0.6269  1.8850 -0.4410
 5330SOL     OW27625   3.104   0.046   8.139 -0.0144 -0.6043 -0.1418
 5330SOL    HW127626   3.186   0.022   8.096 -0.6739 -1.5853 -0.8727
 5330SOL    HW227627   3.142   0.073   8.223 -1.7336  0.9338  0.1330
 5331SOL     OW27628   2.298   0.405  15.281 -0.2410  0.2348 -0.6387
 5331SOL    HW127629   2.229   0.450  15.328 -0.9493  1.3965 -2.7918
 5331SOL    HW227630   2.262   0.328  15.238 -2.4553  0.8564  0.1176
 5332SOL     OW27631   2.049   3.251  13.768 -0.0264  1.1011 -0.3714
 5332SOL    HW127632   2.131   3.233  13.815 -1.7123  0.7038  2.4305
 5332SOL    HW227633   2.034   3.161  13.741  1.7006  0.5023  0.6148
 5333SOL     OW27634   0.808   1.843   3.929 -0.1452  0.4648  0.0944
 5333SOL    HW127635   0.766   1.818   4.012 -0.0166 -1.0858 -0.3106
 5333SOL    HW227636   0.809   1.757   3.888 -0.0252 -0.0142  1.1045
 5334SOL     OW27637   2.213   4.228   7.519  0.0267  0.0562  0.3902
 5334SOL    HW127638   2.277   4.161   7.493 -0.9755 -1.1973  1.1820
 5334SOL    HW227639   2.135   4.205   7.468 -0.3044  1.0379  0.4431
 5335SOL     OW27640   0.797   0.272   7.163  0.5344 -0.1316 -0.2657
 5335SOL    HW127641   0.884   0.282   7.123  0.7428 -0.8579  0.0050
 5335SOL    HW227642   0.746   0.335   7.112  1.1252 -0.6644 -1.5421
 5336SOL     OW27643   2.055   3.728   2.081  0.0327 -0.2828  0.8321
 5336SOL    HW127644   1.972   3.768   2.052 -0.0050  0.3128  1.7717
 5336SOL    HW227645   2.089   3.790   2.146 -0.1838 -0.0781  0.7535
 5337SOL     OW27646   3.110   2.222   3.250 -0.4485 -0.0086 -0.7893
 5337SOL    HW127647   3.027   2.183   3.278 -0.3732 -0.1155 -0.7182
 5337SOL    HW227648   3.122   2.280   3.325  0.7621  1.2638 -1.9599
 5338SOL     OW27649   3.501   1.224   1.938  0.3442 -0.3257  0.1742
 5338SOL    HW127650   3.533   1.274   2.013 -3.6850  2.5257  0.0030
 5338SOL    HW227651   3.407   1.230   1.952  0.9713  0.5642  3.9158
 5339SOL     OW27652   2.892   0.996  16.373 -0.7831 -0.0969  0.2818
 5339SOL    HW127653   2.896   1.072  16.431  0.6305  1.4612 -1.8689
 5339SOL    HW227654   2.832   1.030  16.306 -0.5130  0.4658  0.3206
 5340SOL     OW27655   1.723   4.355   7.652 -0.1437 -0.4524  0.1582
 5340SOL    HW127656   1.640   4.401   7.662  0.7672  0.4767  3.3891
 5340SOL    HW227657   1.758   4.399   7.575 -0.7100  1.7391  1.1566
 5341SOL     OW27658   3.763   0.372   7.482 -0.0306 -0.2769 -0.3079
 5341SOL    HW127659   3.834   0.336   7.535  0.6949 -0.4447 -1.3991
 5341SOL    HW227660   3.699   0.383   7.553 -0.3278  1.4377 -0.8510
 5342SOL     OW27661   1.766   2.975   7.791  0.4687  0.1490 -0.7012
 5342SOL    HW127662   1.728   3.050   7.836 -0.1647  0.7253 -2.2051
 5342SOL    HW227663   1.844   2.959   7.844 -0.4644 -0.2406  0.5544
 5343SOL     OW27664   2.602   2.234   6.693  0.0985 -0.4087  0.1712
 5343SOL    HW127665   2.641   2.318   6.667  0.4857 -1.4037 -2.4743
 5343SOL    HW227666   2.521   2.234   6.641 -0.1269  3.0362  0.5222
 5344SOL     OW27667   4.535   2.243  15.614  0.1249  0.0046  0.2974
 5344SOL    HW127668   4.462   2.305  15.623 -0.4764 -0.7474  0.6431
 5344SOL    HW227669   4.604   2.289  15.662  0.7022  0.0426 -0.5607
 5345SOL     OW27670   4.641   1.980   4.320 -0.1515 -0.1244  0.6650
 5345SOL    HW127671   4.633   1.999   4.226  0.3535 -3.9565 -0.1457
 5345SOL    HW227672   4.643   2.072   4.347 -1.4247 -0.1708  0.9130
 5346SOL     OW27673   3.333   3.352   1.011  0.4268 -1.1957 -0.0964
 5346SOL    HW127674   3.370   3.335   1.097 -2.3373 -3.3996  0.6531
 5346SOL    HW227675   3.240   3.328   1.019  0.4058 -1.0800 -0.0021
 5347SOL     OW27676   2.248   2.699   1.932  0.0321  0.3343  0.5255
 5347SOL    HW127677   2.250   2.688   2.027 -0.3039 -0.0636  0.4841
 5347SOL    HW227678   2.172   2.647   1.909 -0.8286  1.4217  0.8865
 5348SOL     OW27679   1.178   4.330  10.876 -0.0227 -0.0601  0.3244
 5348SOL    HW127680   1.150   4.405  10.928  3.4776 -0.3091  2.5545
 5348SOL    HW227681   1.217   4.366  10.796 -1.1473 -0.1516 -0.2709
 5349SOL     OW27682   1.214   3.201   3.035  0.0470 -0.4205  0.5508
 5349SOL    HW127683   1.196   3.294   3.042 -3.3994 -0.9741 -0.6777
 5349SOL    HW227684   1.155   3.164   3.101  0.4343 -2.5601 -0.3064
 5350SOL     OW27685   4.275   0.475   9.465  0.1783 -0.2420 -0.2026
 5350SOL    HW127686   4.220   0.533   9.518 -0.2819  1.0520 -2.1189
 5350SOL    HW227687   4.346   0.448   9.523 -0.1465 -1.7484 -0.5017
 5351SOL     OW27688   3.200   2.396  11.586  0.3230 -0.8926 -0.1807
 5351SOL    HW127689   3.267   2.389  11.518  1.4920  0.6007  0.8283
 5351SOL    HW227690   3.227   2.475  11.633  2.0129 -0.9969 -0.9840
 5352SOL     OW27691   0.659   0.557  13.695  0.1501  0.0247 -0.2263
 5352SOL    HW127692   0.598   0.494  13.732  0.4273  1.3192  2.4724
 5352SOL    HW227693   0.720   0.567  13.769 -0.7796  0.1934  0.5143
 5353SOL     OW27694   3.997   3.893   4.000 -0.5125  0.1942 -0.0656
 5353SOL    HW127695   4.049   3.924   3.926  1.0167  0.0185  0.9348
 5353SOL    HW227696   4.060   3.900   4.072  1.1559 -3.4409 -1.1795
 5354SOL     OW27697   1.606   1.434   4.645 -0.4451  0.6045  0.2342
 5354SOL    HW127698   1.544   1.363   4.659 -0.7676  1.0058  0.8209
 5354SOL    HW227699   1.617   1.470   4.733 -0.3616  0.9248  0.0954
 5355SOL     OW27700   4.689   3.636   5.755  0.3003 -0.1594  0.4328
 5355SOL    HW127701   0.010   3.709   5.736  0.8216  0.0415  2.7699
 5355SOL    HW227702   4.732   3.563   5.711  0.2507  0.0153  0.0934
 5356SOL     OW27703   0.766   1.257   3.953 -0.1231 -0.3076 -0.0175
 5356SOL    HW127704   0.786   1.241   3.860 -0.2006  2.4114 -0.5040
 5356SOL    HW227705   0.720   1.174   3.967  0.4511 -0.6916 -0.3808
 5357SOL     OW27706   0.159   1.157  10.602  0.1724  0.2709 -0.2618
 5357SOL    HW127707   0.217   1.118  10.667  0.4116 -3.5705 -2.7851
 5357SOL    HW227708   0.218   1.170  10.529 -1.9680  2.0277 -1.6838
 5358SOL     OW27709   0.753   4.502   2.544  0.4243  0.1902 -0.1128
 5358SOL    HW127710   0.671   4.540   2.512 -0.6322 -1.1520  0.9881
 5358SOL    HW227711   0.745   4.532   2.635 -1.2518  0.4675 -0.3490
 5359SOL     OW27712   0.216   2.142   2.536 -0.0760 -0.5792  0.2635
 5359SOL    HW127713   0.199   2.216   2.594 -0.3753 -1.4649  1.3046
 5359SOL    HW227714   0.307   2.117   2.553  0.2796 -0.4081 -1.3564
 5360SOL     OW27715   1.592   2.787   8.838 -0.5204 -0.0625  0.4982
 5360SOL    HW127716   1.536   2.719   8.800 -0.7994  0.0998  0.6225
 5360SOL    HW227717   1.569   2.855   8.774 -2.5680 -0.7810  0.4594
 5361SOL     OW27718   1.627   0.150   4.154 -0.7747  0.7726 -0.5169
 5361SOL    HW127719   1.581   0.068   4.174 -0.4850  1.6710  3.8454
 5361SOL    HW227720   1.696   0.148   4.220 -0.3698  2.8481 -0.8746
 5362SOL     OW27721   0.545   0.522   3.807  0.4444 -0.5842  0.5085
 5362SOL    HW127722   0.590   0.438   3.806  1.3700 -0.0711 -0.2316
 5362SOL    HW227723   0.487   0.524   3.884  1.6022  0.3240  1.3543
 5363SOL     OW27724   4.222   3.531   3.439 -0.0148 -0.2074 -0.2000
 5363SOL    HW127725   4.294   3.494   3.490  0.0261  1.0268  0.6326
 5363SOL    HW227726   4.217   3.466   3.368  0.4481 -0.8548  0.3578
 5364SOL     OW27727   1.536   1.549   5.605 -0.2248  0.3828 -0.0623
 5364SOL    HW127728   1.492   1.513   5.528 -0.6043 -1.4988  1.0323
 5364SOL    HW227729   1.502   1.498   5.678 -0.7598  0.5597 -0.1948
 5365SOL     OW27730   3.070   3.281   1.746 -0.7482  0.2645  0.2510
 5365SOL    HW127731   3.092   3.270   1.838  1.6214  0.1207 -0.3521
 5365SOL    HW227732   3.010   3.209   1.728  1.6034 -1.6372  0.0157
 5366SOL     OW27733   0.878   4.546   4.606  0.1688 -0.6535 -0.4873
 5366SOL    HW127734   0.915   4.473   4.657  2.2012  1.8457  1.6229
 5366SOL    HW227735   0.946   4.559   4.540 -0.3879  0.3780 -0.8490
 5367SOL     OW27736   4.709   3.776   1.527 -0.6320  0.3286 -0.2935
 5367SOL    HW127737   4.656   3.792   1.449 -0.6256 -0.5705 -0.4874
 5367SOL    HW227738   4.684   3.686   1.551  0.0144  0.0565 -0.6382
 5368SOL     OW27739   4.393   0.048   7.234  0.4369  0.2035 -0.0642
 5368SOL    HW127740   4.365   4.716   7.176  1.6393 -2.8526  3.0070
 5368SOL    HW227741   4.377   0.132   7.190 -0.9424  0.8813  1.7040
 5369SOL     OW27742   0.643   1.043  15.484 -0.5295  0.2249 -0.3107
 5369SOL    HW127743   0.611   1.024  15.572 -0.1495 -0.8078 -0.4050
 5369SOL    HW227744   0.713   1.107  15.500 -0.7145  0.3334  0.0583
 5370SOL     OW27745   1.839   3.285   3.744 -0.1652  0.1416  0.2992
 5370SOL    HW127746   1.927   3.256   3.717 -0.9625 -2.5560  0.5849
 5370SOL    HW227747   1.815   3.328   3.662 -1.7255 -0.5949  0.3762
 5371SOL     OW27748   3.724   1.419   4.711  0.2240  0.4290 -0.7385
 5371SOL    HW127749   3.804   1.459   4.679  0.7827  0.4206  0.6574
 5371SOL    HW227750   3.746   1.329   4.684  0.9778  0.3516  0.1515
 5372SOL     OW27751   1.472   1.544   8.406  0.2553 -0.9601  0.8273
 5372SOL    HW127752   1.536   1.581   8.345 -0.4183 -0.7887  0.2358
 5372SOL    HW227753   1.505   1.574   8.491  0.6361  1.0150 -0.0169
 5373SOL     OW27754   2.795   1.380   8.256 -0.5126 -0.4667 -0.1504
 5373SOL    HW127755   2.793   1.446   8.326  2.9352 -1.2241  0.6872
 5373SOL    HW227756   2.852   1.310   8.290  2.2379  1.2235 -1.2764
 5374SOL     OW27757   4.584   0.507  14.162 -0.3559 -0.5617 -0.4981
 5374SOL    HW127758   4.517   0.575  14.154 -1.1022 -1.4453 -1.7528
 5374SOL    HW227759   4.618   0.515  14.073 -1.3555  0.9022 -0.7426
 5375SOL     OW27760   1.268   2.670   4.312  0.2125  0.2224  0.2119
 5375SOL    HW127761   1.329   2.658   4.385  0.1559  0.0926  0.2374
 5375SOL    HW227762   1.264   2.765   4.324  0.9826  0.5927 -2.2904
 5376SOL     OW27763   2.029   0.576  12.993  0.6528 -0.0999  0.0714
 5376SOL    HW127764   2.057   0.539  13.077  0.7127  1.5836  0.7949
 5376SOL    HW227765   2.048   0.668  13.009 -2.8320  0.0690  3.1749
 5377SOL     OW27766   2.089   0.922   3.907  0.8321 -0.4269 -0.0958
 5377SOL    HW127767   2.165   0.957   3.951  0.2267  1.2181 -0.3752
 5377SOL    HW227768   2.063   0.856   3.972  1.0641 -0.0461  0.3762
 5378SOL     OW27769   2.916   3.333   3.688  0.1305  0.0451 -0.0599
 5378SOL    HW127770   2.972   3.321   3.611  0.6364 -2.0195  0.6248
 5378SOL    HW227771   2.833   3.354   3.647 -0.4404 -1.7007  0.2102
 5379SOL     OW27772   4.268   0.785   9.740 -0.2918 -0.3683  0.1174
 5379SOL    HW127773   4.363   0.782   9.746 -0.3026 -3.1613 -1.1357
 5379SOL    HW227774   4.241   0.873   9.765  2.3584 -0.2313  2.4799
 5380SOL     OW27775   2.711   3.034   4.653 -0.0079 -0.0625  0.2037
 5380SOL    HW127776   2.686   3.045   4.744  0.2094  0.4602  0.2021
 5380SOL    HW227777   2.802   3.063   4.663  0.1550 -0.2813 -0.6220
 5381SOL     OW27778   4.099   2.956   9.525 -0.0013 -0.3415  0.2474
 5381SOL    HW127779   4.075   3.026   9.586 -0.6683  1.4713 -2.1122
 5381SOL    HW227780   4.138   3.005   9.453  0.2936  0.8753  1.2321
 5382SOL     OW27781   4.045   0.468   7.244 -0.2167 -0.1443  0.1374
 5382SOL    HW127782   4.037   0.376   7.269  1.2457 -0.4126 -0.3963
 5382SOL    HW227783   4.006   0.514   7.319  0.2922  1.1045 -0.3591
 5383SOL     OW27784   2.316   4.597  10.035 -0.3719 -0.5300  0.5251
 5383SOL    HW127785   2.318   4.677   9.982  0.9956 -0.5684  0.5088
 5383SOL    HW227786   2.301   4.531   9.967  2.3916 -0.1381 -0.4992
 5384SOL     OW27787   0.946   1.883   9.763  0.2282 -0.5837  0.0860
 5384SOL    HW127788   0.871   1.827   9.744  1.4841 -3.1307  2.7547
 5384SOL    HW227789   0.906   1.968   9.744 -1.8933 -1.5229  0.4357
 5385SOL     OW27790   3.896   1.542   7.137 -0.3655  0.5746 -0.5821
 5385SOL    HW127791   3.853   1.456   7.138  2.7763 -0.9768 -1.3544
 5385SOL    HW227792   3.942   1.535   7.220  1.2170 -0.8926 -1.5827
 5386SOL     OW27793   2.109   1.708   8.072  0.0155  0.3424 -0.4862
 5386SOL    HW127794   2.033   1.699   8.014  0.7167  0.1809 -1.3776
 5386SOL    HW227795   2.075   1.691   8.160 -0.5622 -0.1778 -0.8094
 5387SOL     OW27796   0.251   3.436   3.298 -0.0858  0.3485  0.4861
 5387SOL    HW127797   0.330   3.383   3.306 -0.6079 -0.6887 -1.2600
 5387SOL    HW227798   0.281   3.526   3.308 -0.7311  0.4963  1.1496
 5388SOL     OW27799   1.288   3.518   6.674  0.5047 -0.1305 -0.2957
 5388SOL    HW127800   1.342   3.592   6.646  0.6447 -0.2322 -0.2932
 5388SOL    HW227801   1.346   3.472   6.733  1.4189  0.0824 -1.0288
 5389SOL     OW27802   0.944   4.675   4.926  0.5398  0.0189 -0.0449
 5389SOL    HW127803   0.874   4.641   4.981 -0.2768  3.2054  0.8733
 5389SOL    HW227804   0.937   4.625   4.844  2.8164 -2.8488  1.4888
 5390SOL     OW27805   0.859   0.576   7.699  0.1286 -0.4644  0.6885
 5390SOL    HW127806   0.791   0.580   7.631 -0.0310  4.2917  1.1069
 5390SOL    HW227807   0.805   0.555   7.775 -1.4778  3.2000  0.5768
 5391SOL     OW27808   0.056   3.095   4.480  0.4179  0.2374  0.2033
 5391SOL    HW127809   4.711   3.093   4.529 -0.6449 -1.6906 -1.6684
 5391SOL    HW227810   0.064   3.002   4.456 -2.0959  1.2425 -4.5346
 5392SOL     OW27811   1.031   0.539   8.480  0.5406  0.0807 -0.2069
 5392SOL    HW127812   1.062   0.577   8.562  0.4294 -0.7280  0.2097
 5392SOL    HW227813   1.081   0.457   8.487 -0.6078 -0.5845  0.2479
 5393SOL     OW27814   1.981   0.076   9.476 -0.1365  0.2564  0.4317
 5393SOL    HW127815   1.931   0.069   9.395 -0.7484  0.0457  0.8268
 5393SOL    HW227816   1.951   0.165   9.495 -1.0249 -0.0461  0.4120
 5394SOL     OW27817   0.151   2.344   4.598  0.1575 -0.1168  0.3649
 5394SOL    HW127818   0.101   2.337   4.680  1.8921  5.1875  1.9102
 5394SOL    HW227819   0.229   2.391   4.628 -0.4698 -0.4018  2.4684
 5395SOL     OW27820   0.314   4.617   4.110  0.2368 -0.0291 -0.0371
 5395SOL    HW127821   0.378   4.595   4.179  0.4432 -0.8560 -0.4917
 5395SOL    HW227822   0.308   4.526   4.079  0.5986  0.7073 -2.2380
 5396SOL     OW27823   3.645   0.066  14.601 -0.0451  0.3283 -0.6181
 5396SOL    HW127824   3.628   4.713  14.574 -0.7184  0.5431 -0.9214
 5396SOL    HW227825   3.592   0.116  14.539  2.2713  1.0404 -2.0444
 5397SOL     OW27826   4.584   1.533   9.342  0.5049 -0.4924  0.2338
 5397SOL    HW127827   4.591   1.547   9.247 -0.0435  0.8453  0.3951
 5397SOL    HW227828   4.510   1.473   9.347 -0.0701  0.2399  0.4941
 5398SOL     OW27829   3.310   0.441   0.549  0.7653 -0.1451  0.4990
 5398SOL    HW127830   3.221   0.435   0.513  1.0913  1.7405 -0.6325
 5398SOL    HW227831   3.310   0.364   0.606  1.1582 -0.7383 -0.3057
 5399SOL     OW27832   2.191   1.796  10.384 -0.0049  0.1165 -0.0752
 5399SOL    HW127833   2.188   1.891  10.386 -2.5378  0.0692 -1.1037
 5399SOL    HW227834   2.286   1.792  10.378  0.0564  0.6091  0.5709
 5400SOL     OW27835   2.157   0.597   2.877 -0.3301  0.4513 -0.0276
 5400SOL    HW127836   2.143   0.691   2.865 -0.3671 -0.0177 -3.5932
 5400SOL    HW227837   2.080   0.553   2.840  0.1683 -0.4071 -0.0533
 5401SOL     OW27838   2.406   0.232  16.180  0.2955 -0.0215  0.6529
 5401SOL    HW127839   2.337   0.296  16.201 -0.4253 -0.7019  0.3346
 5401SOL    HW227840   2.429   0.217  16.271 -1.7355 -0.8238  1.0181
 5402SOL     OW27841   0.784   0.830   4.842 -0.3979 -0.8178 -0.1670
 5402SOL    HW127842   0.822   0.890   4.906 -2.4994  1.4904 -1.0856
 5402SOL    HW227843   0.745   0.898   4.788 -0.9936 -0.3445  0.8701
 5403SOL     OW27844   0.681   0.832   7.817  0.1434 -0.1608 -0.6657
 5403SOL    HW127845   0.624   0.831   7.894  0.0543  0.2028 -0.7268
 5403SOL    HW227846   0.660   0.917   7.778 -0.6486  0.7101  1.6749
 5404SOL     OW27847   3.591   2.386   2.525  0.0548  0.3439 -0.1681
 5404SOL    HW127848   3.654   2.441   2.571 -2.2635  0.7713  2.4773
 5404SOL    HW227849   3.579   2.320   2.593  0.0336  0.4789 -0.0402
 5405SOL     OW27850   2.885   0.742  16.397 -0.1485 -0.0713 -0.0828
 5405SOL    HW127851   2.932   0.736  16.314  0.1147 -0.2616  0.0807
 5405SOL    HW227852   2.874   0.838  16.400 -1.1800 -0.2255  1.2505
 5406SOL     OW27853   2.619   2.421   2.467  0.2845 -0.0994 -0.1581
 5406SOL    HW127854   2.703   2.402   2.423  0.3519  0.2124 -0.1603
 5406SOL    HW227855   2.647   2.399   2.556  2.1913  0.5096 -0.6034
 5407SOL     OW27856   0.518   0.619  11.139 -0.7656 -0.7990 -0.5173
 5407SOL    HW127857   0.544   0.527  11.130  0.0636 -0.5993 -0.1584
 5407SOL    HW227858   0.508   0.630  11.234  1.1054 -1.6508 -0.2115
 5408SOL     OW27859   4.485   4.545   7.846 -0.5402  0.1077  0.1485
 5408SOL    HW127860   4.501   4.513   7.934  0.6359 -0.3475 -0.2374
 5408SOL    HW227861   4.396   4.579   7.858 -1.1666 -1.8271  0.9553
 5409SOL     OW27862   4.345   3.204   9.600  0.1791  0.4215  0.1356
 5409SOL    HW127863   4.328   3.259   9.524 -1.5718 -0.4062 -0.0694
 5409SOL    HW227864   4.440   3.205   9.612  0.3429  4.9481 -1.9698
 5410SOL     OW27865   2.956   2.725   9.401  0.3428 -0.0979  0.1642
 5410SOL    HW127866   2.873   2.771   9.410 -0.3653 -1.2297 -0.5112
 5410SOL    HW227867   2.964   2.687   9.489 -1.2612  0.3646  0.4954
 5411SOL     OW27868   1.774   0.330   8.680  0.4133  0.0720  0.0432
 5411SOL    HW127869   1.755   0.422   8.699 -1.4455  0.2546 -2.7588
 5411SOL    HW227870   1.709   0.296   8.742 -0.2660  0.6708 -0.3471
 5412SOL     OW27871   0.459   3.693   6.057 -0.2899  0.3463  0.3369
 5412SOL    HW127872   0.391   3.759   6.044  0.5411  1.2443  0.5310
 5412SOL    HW227873   0.503   3.711   5.974  0.9934 -0.0843  0.9267
 5413SOL     OW27874   2.950   1.954   2.658 -0.2084  0.1051  0.2836
 5413SOL    HW127875   3.026   2.005   2.689  1.7637 -1.3517 -2.1524
 5413SOL    HW227876   2.923   2.011   2.586  3.0239  1.9246  0.4710
 5414SOL     OW27877   3.845   1.890   7.457 -0.0571  0.1539  0.1973
 5414SOL    HW127878   3.787   1.861   7.528 -1.0517 -0.0854 -0.7082
 5414SOL    HW227879   3.875   1.804   7.427  0.1838  0.0881  0.6112
 5415SOL     OW27880   4.143   2.419   7.587 -0.7205 -0.0387  0.1996
 5415SOL    HW127881   4.088   2.492   7.559 -2.5978 -0.4787  2.6633
 5415SOL    HW227882   4.208   2.473   7.631  1.5481 -2.6321  0.0023
 5416SOL     OW27883   1.526   3.384  12.940  0.3922  0.1917  0.2046
 5416SOL    HW127884   1.488   3.471  12.946 -1.5746 -0.7500  1.3765
 5416SOL    HW227885   1.555   3.394  12.850  0.6960  1.7127  0.4706
 5417SOL     OW27886   4.507   1.635   0.459 -0.0171  0.5306  0.6760
 5417SOL    HW127887   4.589   1.632   0.410  0.6330  0.6965  1.7455
 5417SOL    HW227888   4.470   1.708   0.410 -1.0567  0.0872  0.7942
 5418SOL     OW27889   1.124   2.289   9.907  0.1318  0.0555  0.2810
 5418SOL    HW127890   1.095   2.347   9.837  1.6046  1.3568  0.7417
 5418SOL    HW227891   1.153   2.363   9.961  1.1513  0.9303 -1.4773
 5419SOL     OW27892   0.416   2.700   4.176  0.0467  0.1882 -0.1975
 5419SOL    HW127893   0.364   2.624   4.153  2.2385 -1.2611 -0.3582
 5419SOL    HW227894   0.507   2.676   4.155  0.2061  0.6715 -0.0649
 5420SOL     OW27895   4.099   1.886   0.363 -0.0359  0.4851 -0.0311
 5420SOL    HW127896   4.174   1.831   0.338 -0.1531 -0.3097  1.3936
 5420SOL    HW227897   4.031   1.820   0.349  0.3232 -0.0238  0.6066
 5421SOL     OW27898   4.377   4.066   3.367 -0.1982  0.1742 -0.1886
 5421SOL    HW127899   4.439   4.025   3.307 -1.3699 -1.4802 -0.2742
 5421SOL    HW227900   4.350   3.983   3.406 -1.4970  1.5678  1.8655
 5422SOL     OW27901   1.734   3.922   9.480 -0.0816  0.2147  0.1925
 5422SOL    HW127902   1.747   3.942   9.573  2.1284  2.4288 -0.6057
 5422SOL    HW227903   1.801   3.981   9.446  1.0654  1.0947  3.9941
 5423SOL     OW27904   2.902   2.807  14.629  0.2109 -0.1220  0.1992
 5423SOL    HW127905   2.857   2.843  14.705 -1.2623  1.4566 -1.4365
 5423SOL    HW227906   2.966   2.876  14.611  0.7253 -0.2124  1.6249
 5424SOL     OW27907   0.214   3.356   5.880 -0.3215  0.7934  0.3879
 5424SOL    HW127908   0.176   3.360   5.792  1.3115 -0.1886 -0.3618
 5424SOL    HW227909   0.197   3.264   5.901  2.2121  0.0360 -0.9009
 5425SOL     OW27910   2.961   2.932   0.608 -0.0477  0.7253 -0.0043
 5425SOL    HW127911   2.913   2.864   0.656 -0.6245  1.2044  0.0916
 5425SOL    HW227912   2.908   3.009   0.626 -1.3530 -0.3225  0.7120
 5426SOL     OW27913   0.737   3.471   1.335 -0.4988  0.1098  0.3422
 5426SOL    HW127914   0.651   3.429   1.332 -0.4498 -0.0347  0.9640
 5426SOL    HW227915   0.748   3.481   1.430  1.0557 -1.6313  0.3504
 5427SOL     OW27916   4.232   3.451  12.445 -0.1005 -0.0213 -0.4447
 5427SOL    HW127917   4.307   3.465  12.502 -0.2256  2.5328 -0.8881
 5427SOL    HW227918   4.170   3.517  12.475  0.6526  0.3129  0.3628
 5428SOL     OW27919   0.571   1.716   8.460 -0.0695 -0.3618 -0.0531
 5428SOL    HW127920   0.573   1.621   8.461 -0.7382 -0.3568  1.3493
 5428SOL    HW227921   0.514   1.733   8.384  0.3302 -1.6581 -0.6437
 5429SOL     OW27922   4.718   3.466   7.851 -0.1281 -0.2988 -0.6469
 5429SOL    HW127923   4.678   3.380   7.862 -0.9972  0.3080  0.9177
 5429SOL    HW227924   0.024   3.455   7.767  2.5140 -1.6011  0.8934
 5430SOL     OW27925   4.341   3.379   7.726 -0.0331 -0.1535  0.3255
 5430SOL    HW127926   4.303   3.291   7.732  2.9128 -1.4041  0.8958
 5430SOL    HW227927   4.377   3.394   7.639  0.2236  0.2096  0.4932
 5431SOL     OW27928   3.078   4.454   3.633  0.4588  0.1573 -0.3094
 5431SOL    HW127929   3.022   4.478   3.707  3.0685  2.6133  0.8542
 5431SOL    HW227930   3.047   4.525   3.576  1.1888  0.7763  0.0739
 5432SOL     OW27931   1.627   3.436   9.550 -0.0157 -0.6054  0.1148
 5432SOL    HW127932   1.662   3.521   9.524 -0.1104 -0.7026 -0.3369
 5432SOL    HW227933   1.618   3.390   9.466  1.4586 -2.3845  0.9505
 5433SOL     OW27934   0.405   3.455  17.341 -0.5044 -0.5199  0.0237
 5433SOL    HW127935   0.321   3.459  17.385 -0.0472  1.8471  0.7295
 5433SOL    HW227936   0.381   3.463  17.249  0.0835  2.1567  0.0732
 5434SOL     OW27937   0.841   4.604   6.797 -0.5652  0.6965 -0.4172
 5434SOL    HW127938   0.805   4.651   6.873  1.8296  0.7564  0.6939
 5434SOL    HW227939   0.932   4.596   6.828 -1.0151 -2.2218  0.1539
 5435SOL     OW27940   4.064   1.768  12.213 -0.3012 -0.3562 -0.3183
 5435SOL    HW127941   4.122   1.741  12.142  0.4897 -0.6034  0.4194
 5435SOL    HW227942   4.053   1.860  12.189  0.4239 -0.1402  0.1777
 5436SOL     OW27943   2.698   0.478   4.063  0.3128 -0.4715  0.3621
 5436SOL    HW127944   2.769   0.539   4.080 -0.4216  0.6758 -0.6209
 5436SOL    HW227945   2.718   0.409   4.126  1.3149  0.8959  1.5508
 5437SOL     OW27946   2.240   0.409  13.676 -0.3597 -0.0503 -0.3110
 5437SOL    HW127947   2.275   0.454  13.753 -1.7101 -0.4027  0.4954
 5437SOL    HW227948   2.154   0.450  13.673  0.3062  1.3950  0.1851
 5438SOL     OW27949   2.959   0.273   5.407  0.0299  0.0124 -0.2336
 5438SOL    HW127950   2.881   0.329   5.405 -1.3019 -1.8531 -0.4425
 5438SOL    HW227951   2.988   0.278   5.499  0.2949 -1.9352 -0.2000
 5439SOL     OW27952   4.176   1.364   3.351 -0.6116 -0.0522  0.2403
 5439SOL    HW127953   4.204   1.423   3.280 -2.9846  0.3821 -0.3356
 5439SOL    HW227954   4.121   1.298   3.309  1.9293 -0.6868 -2.1206
 5440SOL     OW27955   1.016   0.671   6.691  0.2890 -0.2959  0.6278
 5440SOL    HW127956   1.010   0.640   6.781  0.5189 -0.1739  0.6843
 5440SOL    HW227957   1.040   0.764   6.698 -2.0853  0.5416 -2.1977
 5441SOL     OW27958   3.162   2.737   1.213 -0.1938  0.0854  0.3877
 5441SOL    HW127959   3.128   2.815   1.256  2.5437  1.4847  0.0230
 5441SOL    HW227960   3.117   2.745   1.129 -0.2287  0.9934  0.4920
 5442SOL     OW27961   1.379   0.312   5.477  0.1306 -0.2844 -0.7669
 5442SOL    HW127962   1.440   0.375   5.438  0.7537 -0.1793  0.3702
 5442SOL    HW227963   1.442   0.278   5.540  1.5482 -0.4673 -2.2824
 5443SOL     OW27964   0.027   3.777   4.083  0.4797  0.1963  0.0058
 5443SOL    HW127965   0.039   3.692   4.125 -3.0539  0.0725  0.8149
 5443SOL    HW227966   4.708   3.749   4.010  0.8609  0.0929 -0.2526
 5444SOL     OW27967   4.590   0.596   4.465 -0.6559 -0.1062  0.4990
 5444SOL    HW127968   4.625   0.613   4.553 -1.8072  0.0593  0.9242
 5444SOL    HW227969   4.497   0.608   4.485 -0.5419  0.6385  0.5871
 5445SOL     OW27970   2.688   4.438   5.018  0.6492 -0.1650 -0.4749
 5445SOL    HW127971   2.758   4.452   4.955  1.9366 -3.8054  0.1243
 5445SOL    HW227972   2.730   4.499   5.079  0.1780 -0.0244 -0.2934
 5446SOL     OW27973   0.370   3.709  10.789  0.5232 -0.2511  0.3738
 5446SOL    HW127974   0.332   3.750  10.712 -2.5834 -1.3456  1.3384
 5446SOL    HW227975   0.294   3.703  10.847  1.5962 -2.2015  1.5793
 5447SOL     OW27976   0.898   4.543  17.490 -0.1195  0.2806  0.4581
 5447SOL    HW127977   0.921   4.545  17.397  0.1030  2.6923  0.5752
 5447SOL    HW227978   0.802   4.552  17.491 -0.0721  0.5997  1.6874
 5448SOL     OW27979   0.705   0.187   2.778 -0.3715  0.1753 -0.3742
 5448SOL    HW127980   0.716   0.251   2.848 -0.2159  0.0125 -0.2510
 5448SOL    HW227981   0.766   0.217   2.711  0.2962 -0.0666  0.1293
 5449SOL     OW27982   4.513   3.160   5.916  0.0785  0.6258 -0.0522
 5449SOL    HW127983   4.544   3.152   5.826 -1.2078  2.2943 -0.6504
 5449SOL    HW227984   4.445   3.228   5.912 -0.5999 -0.0087  0.8185
 5450SOL     OW27985   4.473   2.576   2.167  0.0406 -0.1685  0.3407
 5450SOL    HW127986   4.480   2.562   2.073 -2.9989  3.3790 -0.3980
 5450SOL    HW227987   4.563   2.604   2.182  0.7041 -0.9784 -2.1586
 5451SOL     OW27988   1.379   1.072  12.741 -0.3364 -0.1736  1.0184
 5451SOL    HW127989   1.402   1.165  12.745 -0.3440 -0.1398  0.3365
 5451SOL    HW227990   1.439   1.030  12.802  0.3810 -0.3767  0.1721
 5452SOL     OW27991   0.846   1.312   3.678  0.0895 -1.0547  0.3037
 5452SOL    HW127992   0.808   1.345   3.597  2.0929  1.1074  0.2409
 5452SOL    HW227993   0.927   1.272   3.646  1.2880  1.9494 -0.3844
 5453SOL     OW27994   3.904   2.462  12.062 -0.3832  0.2424  0.1283
 5453SOL    HW127995   3.968   2.480  12.129 -0.0833 -0.2100 -0.0348
 5453SOL    HW227996   3.824   2.467  12.114 -1.4599 -0.1094 -1.4726
 5454SOL     OW27997   2.968   2.260  13.115 -0.0725  0.0440  0.6188
 5454SOL    HW127998   2.885   2.212  13.116  0.3124 -0.6128  0.8900
 5454SOL    HW227999   3.003   2.243  13.028 -0.3053 -0.0478  0.5446
 5455SOL     OW28000   3.519   4.412   6.124 -0.1429  0.1002 -0.1103
 5455SOL    HW128001   3.567   4.334   6.095  0.3448  0.8411 -1.2978
 5455SOL    HW228002   3.571   4.471   6.070 -1.1318 -1.8684 -3.2389
 5456SOL     OW28003   2.701   1.232   7.967  0.1124 -0.3160 -0.2056
 5456SOL    HW128004   2.737   1.236   8.055 -2.4270 -1.6131  0.8833
 5456SOL    HW228005   2.616   1.189   7.979  1.6317 -3.1478  0.4251
 5457SOL     OW28006   3.640   2.892   3.919  0.0799  0.4095  0.2819
 5457SOL    HW128007   3.667   2.803   3.941 -0.7787 -0.2245 -1.1791
 5457SOL    HW228008   3.616   2.891   3.826 -0.2473  1.1027  0.3587
 5458SOL     OW28009   0.825   0.743   8.540 -0.3497 -0.1852  0.2592
 5458SOL    HW128010   0.900   0.725   8.597  0.1000 -2.2141 -0.9731
 5458SOL    HW228011   0.837   0.680   8.469 -0.5952  0.8394 -0.6834
 5459SOL     OW28012   3.256   0.345   2.437 -0.2208  0.6440  0.3431
 5459SOL    HW128013   3.301   0.297   2.367 -1.0495 -1.0402  0.9759
 5459SOL    HW228014   3.220   0.280   2.497  0.5219 -0.7625 -0.7330
 5460SOL     OW28015   3.701   2.357  11.888 -0.2695 -0.0590  0.6299
 5460SOL    HW128016   3.615   2.397  11.890  0.2399  1.1170 -1.3633
 5460SOL    HW228017   3.750   2.438  11.880  1.6298 -1.1748  0.9264
 5461SOL     OW28018   0.892   1.992  14.922 -0.4171  0.5573  0.0177
 5461SOL    HW128019   0.943   2.070  14.943  0.7457  0.3658 -2.0454
 5461SOL    HW228020   0.943   1.925  14.967  1.7196  1.0461 -1.6180
 5462SOL     OW28021   4.585   4.255   2.954  0.0567 -0.1173  0.7025
 5462SOL    HW128022   4.541   4.268   3.037 -0.9228 -0.7811  0.2906
 5462SOL    HW228023   4.648   4.187   2.979 -0.5899 -0.7203  0.6869
 5463SOL     OW28024   3.453   0.057   6.000 -0.1374 -0.1132  0.2529
 5463SOL    HW128025   3.436   0.022   6.087  0.7431  0.1672  0.5433
 5463SOL    HW228026   3.492   0.144   6.009  1.5006 -0.8374  0.2731
 5464SOL     OW28027   0.434   1.839   5.817 -0.1518  0.4257  0.1110
 5464SOL    HW128028   0.525   1.822   5.795 -0.9188 -3.2337 -0.1172
 5464SOL    HW228029   0.383   1.804   5.744 -0.9292 -1.0146  1.3607
 5465SOL     OW28030   3.125   4.474   1.873 -0.0181 -0.1779  0.0531
 5465SOL    HW128031   3.171   4.391   1.867  1.1596  0.4156  0.9105
 5465SOL    HW228032   3.065   4.472   1.798 -0.0428  2.3035 -0.0062
 5466SOL     OW28033   4.461   2.356  17.713 -0.3065  0.2376 -0.3542
 5466SOL    HW128034   4.554   2.368  17.731 -0.1374 -1.5053 -0.0728
 5466SOL    HW228035   4.422   2.420   0.022 -0.9941  0.1563 -0.7076
 5467SOL     OW28036   3.564   1.228   6.932 -0.4298  0.4736  0.0310
 5467SOL    HW128037   3.585   1.301   6.874 -1.3854 -0.7715 -1.8866
 5467SOL    HW228038   3.527   1.282   7.002  1.3304  1.3679  0.2987
 5468SOL     OW28039   0.264   4.157   6.198  0.2998 -0.3956  0.3107
 5468SOL    HW128040   0.237   4.215   6.269 -1.5807 -1.8495  0.7831
 5468SOL    HW228041   0.334   4.212   6.161 -0.5548  0.1692 -0.4583
 5469SOL     OW28042   2.268   2.871   6.860 -0.3787  0.0441  0.7544
 5469SOL    HW128043   2.258   2.858   6.766 -0.0626  3.4390  0.2321
 5469SOL    HW228044   2.338   2.937   6.862 -2.0214  1.8263  0.1493
 5470SOL     OW28045   2.413   0.324  13.469  0.3145 -0.3857 -0.1077
 5470SOL    HW128046   2.346   0.338  13.535 -0.0366 -2.0712 -0.0922
 5470SOL    HW228047   2.490   0.327  13.526 -0.0359 -1.8956  0.4382
 5471SOL     OW28048   3.983   0.157  13.657  0.1218 -0.2613  0.2580
 5471SOL    HW128049   3.938   0.074  13.647  1.4693 -1.1277  1.4788
 5471SOL    HW228050   3.994   0.198  13.571  0.0164  0.1742  0.4519
 5472SOL     OW28051   3.048   0.900   7.289  0.6242 -0.3869  0.0133
 5472SOL    HW128052   3.058   0.974   7.229 -1.8521 -0.1940 -0.1571
 5472SOL    HW228053   3.138   0.884   7.317  0.4613 -1.6134 -0.2006
 5473SOL     OW28054   4.239   0.521   1.557  0.0751  0.3597  0.2912
 5473SOL    HW128055   4.204   0.608   1.572 -0.7102 -0.2425  1.9978
 5473SOL    HW228056   4.280   0.507   1.643  3.2052  0.6416 -1.1734
 5474SOL     OW28057   3.690   2.053   6.273  0.1276 -0.1987  0.1519
 5474SOL    HW128058   3.747   1.982   6.304 -1.1089 -0.8926  0.8237
 5474SOL    HW228059   3.743   2.099   6.208  0.4332 -2.6130 -1.2928
 5475SOL     OW28060   0.304   4.010   3.385 -0.1783  0.8015 -0.1485
 5475SOL    HW128061   0.312   4.105   3.392  2.6226  0.6119 -0.8157
 5475SOL    HW228062   0.321   4.005   3.291  0.2301  1.0258 -0.0866
 5476SOL     OW28063   0.807   4.590  10.752 -0.0161 -0.3137 -0.0460
 5476SOL    HW128064   0.752   4.610  10.828  0.7967 -0.9786  0.7261
 5476SOL    HW228065   0.807   4.494  10.752  0.1159 -0.3130 -0.6110
 5477SOL     OW28066   3.247   2.458   2.720  0.5740  0.2265  0.3857
 5477SOL    HW128067   3.205   2.373   2.705  0.6536  0.2189  0.2059
 5477SOL    HW228068   3.299   2.435   2.797 -1.0479 -2.9787  0.5456
 5478SOL     OW28069   4.701   0.680   4.002 -0.0478 -0.6286  0.2952
 5478SOL    HW128070   4.724   0.588   3.992 -1.5838 -1.1698  1.5743
 5478SOL    HW228071   4.615   0.686   3.959  0.1864  0.0587 -0.0698
 5479SOL     OW28072   4.711   3.550  11.477  0.0979  0.0421 -0.2698
 5479SOL    HW128073   4.679   3.463  11.450  1.4793 -1.0147  1.4916
 5479SOL    HW228074   0.064   3.557  11.448  0.5083 -1.4959  0.5909
 5480SOL     OW28075   4.571   2.929   3.194 -0.1772 -0.6806  0.0433
 5480SOL    HW128076   4.639   2.899   3.134  0.6857  1.2292  0.0637
 5480SOL    HW228077   4.503   2.953   3.131  0.1675  0.5824  0.1625
 5481SOL     OW28078   3.418   1.781  15.913 -0.4668 -0.2832  0.1549
 5481SOL    HW128079   3.436   1.733  15.993 -3.0542  0.5655  1.2546
 5481SOL    HW228080   3.440   1.871  15.939 -3.6142  0.8577 -1.1389
 5482SOL     OW28081   4.607   4.229   4.676  0.2764  0.1311  0.0098
 5482SOL    HW128082   4.685   4.284   4.683  0.2832  0.0925  0.2209
 5482SOL    HW228083   4.608   4.226   4.580 -1.0770 -2.4531  0.0655
 5483SOL     OW28084   1.006   1.211  12.948  0.1935  0.7802  0.1578
 5483SOL    HW128085   0.931   1.204  13.006  0.3389  0.5792  0.3175
 5483SOL    HW228086   1.078   1.241  13.003 -1.0027  0.8436  1.6878
 5484SOL     OW28087   2.585   2.786  15.686 -0.1486 -0.8300  0.1483
 5484SOL    HW128088   2.558   2.781  15.595  0.3700 -0.8143 -0.0034
 5484SOL    HW228089   2.606   2.879  15.691 -0.0964 -0.9250  1.9911
 5485SOL     OW28090   2.691   3.173   2.743 -0.0191  0.8668 -0.4880
 5485SOL    HW128091   2.660   3.083   2.756 -1.7996  1.6827  0.9492
 5485SOL    HW228092   2.757   3.157   2.677  0.5879  0.6909  0.1603
 5486SOL     OW28093   4.604   2.945   7.868 -0.0948  0.1204  0.3752
 5486SOL    HW128094   4.663   2.895   7.924 -0.1818 -0.2049  0.1736
 5486SOL    HW228095   4.565   2.879   7.811  1.6963 -0.0472 -0.6652
 5487SOL     OW28096   4.000   3.414   2.739  1.0619 -0.5044 -0.1521
 5487SOL    HW128097   3.951   3.380   2.664 -1.2936 -0.4443  1.3580
 5487SOL    HW228098   4.088   3.414   2.703 -0.3410 -1.0727 -3.5822
 5488SOL     OW28099   1.186   4.357   5.766  0.7080 -0.2042  0.0873
 5488SOL    HW128100   1.183   4.262   5.758  1.1882 -0.1269 -1.0510
 5488SOL    HW228101   1.255   4.372   5.701  0.8167  2.5136  0.8111
 5489SOL     OW28102   3.460   4.025   1.306  0.1230  0.0394  0.0184
 5489SOL    HW128103   3.548   4.063   1.305 -0.1367  0.5524 -2.0171
 5489SOL    HW228104   3.406   4.091   1.350  0.4425 -1.3151  2.4778
 5490SOL     OW28105   4.319   1.076   5.410  0.1628 -0.3892 -0.1615
 5490SOL    HW128106   4.226   1.056   5.422 -0.2120  0.8748 -0.9829
 5490SOL    HW228107   4.338   1.091   5.503  1.7597 -0.2198 -0.5082
 5491SOL     OW28108   1.686   2.345  14.845  0.1666 -0.0781 -0.3137
 5491SOL    HW128109   1.602   2.390  14.841  1.8302  2.9266 -1.3000
 5491SOL    HW228110   1.692   2.307  14.757  0.5270 -0.8312  0.0355
 5492SOL     OW28111   1.593   2.887  12.165  0.4127  0.4445  0.0501
 5492SOL    HW128112   1.627   2.961  12.115  0.3044  1.1349  0.9959
 5492SOL    HW228113   1.511   2.931  12.189 -1.2810 -4.0682  2.6118
 5493SOL     OW28114   2.298   1.299  16.051 -0.1901  0.5485 -0.0111
 5493SOL    HW128115   2.333   1.260  16.131 -1.9983 -1.3715 -0.1417
 5493SOL    HW228116   2.224   1.345  16.089 -0.3122 -0.1122  0.5623
 5494SOL     OW28117   2.954   0.704   6.750  0.2678 -0.1082  0.1068
 5494SOL    HW128118   2.979   0.648   6.676  0.4584 -1.0294  0.8690
 5494SOL    HW228119   2.869   0.741   6.728  0.3513  0.8934  1.4244
 5495SOL     OW28120   2.222   3.659   7.138  0.1014  0.4239 -1.0893
 5495SOL    HW128121   2.159   3.702   7.080 -1.7319  0.2510  0.8028
 5495SOL    HW228122   2.194   3.569   7.123  3.2221 -0.8293  0.5975
 5496SOL     OW28123   3.843   1.991   7.977 -0.1882 -0.1070 -0.1548
 5496SOL    HW128124   3.818   1.966   7.888  1.7469  1.9777 -1.2920
 5496SOL    HW228125   3.938   2.003   7.969  0.0532 -1.5019  0.5526
 5497SOL     OW28126   3.667   1.224  11.309 -0.2199  0.1763  0.3840
 5497SOL    HW128127   3.617   1.296  11.347 -1.3538 -0.9085  0.9450
 5497SOL    HW228128   3.603   1.155  11.291 -0.5908  0.6911 -0.2821
 5498SOL     OW28129   0.112   0.110   3.404  0.4579 -0.2475  0.1644
 5498SOL    HW128130   0.169   0.156   3.466  1.8348 -1.1984 -0.4042
 5498SOL    HW228131   0.159   0.125   3.322  1.5587  1.1285  1.0538
 5499SOL     OW28132   0.839   2.196   5.221 -0.2383  0.1132 -0.5439
 5499SOL    HW128133   0.866   2.286   5.238 -1.8058  0.2163  1.4279
 5499SOL    HW228134   0.794   2.164   5.299  0.9412  1.1046  0.5397
 5500SOL     OW28135   0.090   1.158  12.074  0.8066 -0.0066  0.7189
 5500SOL    HW128136   0.109   1.249  12.093 -0.5890  0.4887 -0.1937
 5500SOL    HW228137   0.161   1.107  12.112  1.9593  0.2170 -1.1558
 5501SOL     OW28138   2.909   3.430  11.954  0.0479 -0.3309 -0.1001
 5501SOL    HW128139   2.872   3.345  11.927 -0.3825  0.2471 -1.3290
 5501SOL    HW228140   2.973   3.407  12.022  1.3498 -0.1000 -1.2572
 5502SOL     OW28141   2.675   3.984   3.686 -0.0271 -0.3122  0.3054
 5502SOL    HW128142   2.758   3.938   3.692  0.9215  1.4000  0.3031
 5502SOL    HW228143   2.626   3.950   3.761  1.2414  1.2668  1.8647
 5503SOL     OW28144   2.268   0.143  10.652  0.1844 -0.0260  0.4569
 5503SOL    HW128145   2.283   0.165  10.744 -1.3330  1.2883  0.4001
 5503SOL    HW228146   2.351   0.169  10.613  0.4533 -1.5839 -0.0010
 5504SOL     OW28147   4.127   1.505   6.913  0.4192  0.0350  0.0995
 5504SOL    HW128148   4.085   1.553   6.985  0.2216 -0.7480  0.4989
 5504SOL    HW228149   4.210   1.553   6.904 -1.4439  2.6773 -2.9068
 5505SOL     OW28150   2.706   2.984   7.434 -0.2471  0.1634  0.2575
 5505SOL    HW128151   2.674   3.072   7.413  1.0287  0.5902  0.1258
 5505SOL    HW228152   2.632   2.933   7.400  0.5533 -1.3611  0.7956
 5506SOL     OW28153   4.570   2.741  10.023 -0.0086  0.3943  0.0653
 5506SOL    HW128154   4.612   2.813  10.070 -0.9988  2.0611 -1.5487
 5506SOL    HW228155   4.484   2.763  10.059 -1.0716 -2.4276 -0.7483
 5507SOL     OW28156   3.522   2.686   6.125  0.1464 -0.5299  0.5008
 5507SOL    HW128157   3.486   2.633   6.197  0.4907  0.9777  1.7653
 5507SOL    HW228158   3.526   2.771   6.168  0.5221  0.9351 -2.4807
 5508SOL     OW28159   1.331   1.920   7.499 -0.3026 -0.4258  0.7121
 5508SOL    HW128160   1.266   1.978   7.539  0.2837  1.2764 -0.8162
 5508SOL    HW228161   1.381   1.986   7.451 -0.3747 -1.1618 -0.3710
 5509SOL     OW28162   4.394   3.543   4.245 -0.4259  0.0324  0.1864
 5509SOL    HW128163   4.463   3.598   4.208  0.2325 -2.4020 -2.2176
 5509SOL    HW228164   4.337   3.611   4.281 -1.9619 -1.6106  0.8080
 5510SOL     OW28165   3.317   0.852   6.703 -0.2816 -0.8046  0.1174
 5510SOL    HW128166   3.255   0.923   6.685 -0.7769 -1.3082 -0.1315
 5510SOL    HW228167   3.277   0.808   6.778 -0.4728 -1.9304 -0.6513
 5511SOL     OW28168   2.167   2.316   8.383  0.0746  0.5227  0.6654
 5511SOL    HW128169   2.089   2.368   8.370 -0.7666 -1.3364 -1.6542
 5511SOL    HW228170   2.146   2.292   8.474  1.8831  1.2539  1.2951
 5512SOL     OW28171   1.651   2.060   2.136  0.2531  0.1917  0.2940
 5512SOL    HW128172   1.574   2.086   2.084 -0.1798  0.6454  1.1477
 5512SOL    HW228173   1.616   1.979   2.171  1.2755 -0.6561 -0.6496
 5513SOL     OW28174   0.572   1.201  12.110  0.1817  0.2817  0.3807
 5513SOL    HW128175   0.635   1.133  12.086 -1.1421  0.0190 -2.2772
 5513SOL    HW228176   0.637   1.268  12.134  1.6115 -2.0003  2.9641
 5514SOL     OW28177   2.100   1.655   8.824  0.0868 -0.3578  0.3087
 5514SOL    HW128178   2.190   1.661   8.854  0.4535  1.6769 -1.2264
 5514SOL    HW228179   2.077   1.579   8.878  1.2330 -2.6390 -2.3864
 5515SOL     OW28180   0.181   0.676   8.691  0.0555  0.3162  0.1942
 5515SOL    HW128181   0.195   0.584   8.715 -2.7467 -0.4516 -1.1217
 5515SOL    HW228182   0.272   0.707   8.693  0.3412 -0.4323 -1.7706
 5516SOL     OW28183   3.905   1.663  15.576  0.0970  0.1892  0.5097
 5516SOL    HW128184   3.967   1.705  15.517  1.4711 -0.3919  1.5513
 5516SOL    HW228185   3.892   1.734  15.639 -0.2296 -0.0364  0.6952
 5517SOL     OW28186   3.461   1.502   1.813 -0.7908 -0.3502 -0.4807
 5517SOL    HW128187   3.506   1.553   1.746 -0.7171 -0.4659 -0.5184
 5517SOL    HW228188   3.527   1.451   1.861 -0.9723  1.6174  1.8732
 5518SOL     OW28189   3.305   0.736   1.394 -0.4138 -0.0959 -0.7818
 5518SOL    HW128190   3.269   0.650   1.415 -0.8860  0.0177 -1.1476
 5518SOL    HW228191   3.389   0.730   1.439 -0.1178 -0.0949 -1.3313
 5519SOL     OW28192   1.503   0.774   6.671  0.0529 -0.1635  0.3423
 5519SOL    HW128193   1.475   0.845   6.728 -1.0576 -3.5165  3.9912
 5519SOL    HW228194   1.595   0.758   6.692 -0.5149 -1.7017  1.6860
 5520SOL     OW28195   4.250   0.832  10.057  0.3560 -0.1703  0.2419
 5520SOL    HW128196   4.330   0.878  10.030 -0.4236  0.9376 -0.1757
 5520SOL    HW228197   4.215   0.889  10.126 -1.1748 -0.1217 -0.5782
 5521SOL     OW28198   2.367   3.708   9.458 -0.1407 -0.4049 -0.4973
 5521SOL    HW128199   2.272   3.693   9.465  0.0411 -0.1113  2.7485
 5521SOL    HW228200   2.373   3.741   9.368  0.1713  0.2096 -0.2532
 5522SOL     OW28201   1.351   2.133   5.553 -0.2212 -0.2915 -0.0900
 5522SOL    HW128202   1.417   2.073   5.518  0.7896  1.2898 -0.8899
 5522SOL    HW228203   1.263   2.095   5.552 -0.8122  1.1549 -2.1880
 5523SOL     OW28204   0.821   1.017  16.341  0.2209  0.2508  0.4401
 5523SOL    HW128205   0.885   1.041  16.274  2.2291 -1.5104  1.7152
 5523SOL    HW228206   0.801   0.927  16.315  2.3258 -0.3466  0.8771
 5524SOL     OW28207   3.742   4.579   2.855  0.4763  0.0141 -0.4292
 5524SOL    HW128208   3.803   4.563   2.927  0.1797 -1.5969 -0.5240
 5524SOL    HW228209   3.737   4.487   2.827  1.5280 -0.4854  1.0315
 5525SOL     OW28210   3.696   4.017   5.676 -0.3882 -0.8856 -0.2778
 5525SOL    HW128211   3.735   3.931   5.659  0.6612 -0.8790  2.2354
 5525SOL    HW228212   3.667   4.006   5.766  2.0642 -0.7381  0.5189
 5526SOL     OW28213   2.110   1.732   1.640 -0.0541 -0.5477 -0.3830
 5526SOL    HW128214   2.066   1.652   1.609 -2.3402  1.5523 -2.6066
 5526SOL    HW228215   2.120   1.720   1.734 -2.8458 -0.5810 -0.0772
 5527SOL     OW28216   2.489   1.365  16.368 -0.3061 -0.0249 -0.0667
 5527SOL    HW128217   2.434   1.443  16.379 -1.1219 -0.4780 -0.9161
 5527SOL    HW228218   2.433   1.296  16.331 -1.4464  1.1839 -0.6070
 5528SOL     OW28219   3.748   1.657   9.701  0.1126  0.7725 -0.4076
 5528SOL    HW128220   3.688   1.602   9.752 -0.3653  2.4302  0.8277
 5528SOL    HW228221   3.701   1.674   9.620 -0.1622 -0.3843 -0.4820
 5529SOL     OW28222   3.310   0.394   1.893 -0.2702 -0.0787 -0.4427
 5529SOL    HW128223   3.354   0.331   1.950 -0.5398 -0.9694 -1.2212
 5529SOL    HW228224   3.258   0.443   1.957 -1.7703 -0.0184 -1.7276
 5530SOL     OW28225   3.087   3.731   8.753  0.4291 -0.2316 -0.1458
 5530SOL    HW128226   3.057   3.763   8.838  1.0267 -1.1668  0.4163
 5530SOL    HW228227   3.087   3.639   8.781 -3.9458  0.0621  0.8634
 5531SOL     OW28228   3.286   1.511   6.868 -0.6326  0.5493  0.1082
 5531SOL    HW128229   3.232   1.444   6.910  0.4078 -0.2044  0.2522
 5531SOL    HW228230   3.225   1.563   6.815 -0.1517  0.8743 -0.1212
 5532SOL     OW28231   3.730   0.142   3.454  0.2541  0.0491  0.6192
 5532SOL    HW128232   3.749   0.235   3.466  2.9669 -0.5941  1.3806
 5532SOL    HW228233   3.814   0.115   3.417  0.3612  0.1208  0.8119
 5533SOL     OW28234   2.273   1.089   1.327  0.1274 -0.7916  0.6057
 5533SOL    HW128235   2.329   1.119   1.254  1.3142 -0.5047  1.6368
 5533SOL    HW228236   2.207   1.158   1.316  1.4585  0.4513  0.2911
 5534SOL     OW28237   2.662   2.148   1.628 -0.3866  0.2109  0.8174
 5534SOL    HW128238   2.719   2.204   1.575 -0.2278  0.9967  1.8239
 5534SOL    HW228239   2.608   2.105   1.562 -0.7109  2.8274 -0.6333
 5535SOL     OW28240   0.704   1.230   6.661  0.1504 -0.3308  0.4631
 5535SOL    HW128241   0.637   1.240   6.594 -0.9838  0.1946  1.6795
 5535SOL    HW228242   0.656   1.194   6.735 -0.0252  0.7368  0.8668
 5536SOL     OW28243   3.122   4.223   3.132 -0.3926  0.6183 -0.5106
 5536SOL    HW128244   3.184   4.168   3.179  0.0406  1.6225  0.0818
 5536SOL    HW228245   3.046   4.165   3.124 -0.1373  0.3296 -0.9095
 5537SOL     OW28246   2.180   3.495   2.257 -0.5041  0.3558 -0.1638
 5537SOL    HW128247   2.177   3.545   2.339 -0.8113  0.7383 -0.4089
 5537SOL    HW228248   2.265   3.519   2.220  1.1907 -1.9336  2.1869
 5538SOL     OW28249   0.250   3.486   8.149 -1.0473  0.1277  0.2194
 5538SOL    HW128250   0.163   3.523   8.133 -0.7240  1.1029  0.6973
 5538SOL    HW228251   0.290   3.573   8.150  0.8674 -0.7589  0.0976
 5539SOL     OW28252   1.143   0.952   8.896 -0.2060 -0.1777  0.1453
 5539SOL    HW128253   1.154   0.925   8.987  0.5280 -1.2093 -0.2443
 5539SOL    HW228254   1.227   0.929   8.855 -0.2185  0.4114 -0.2167
 5540SOL     OW28255   1.360   2.029   3.466 -0.3806  0.1157 -0.4520
 5540SOL    HW128256   1.383   2.066   3.551  1.7304 -1.7431 -0.2231
 5540SOL    HW228257   1.336   2.107   3.416 -0.4255 -0.0289 -0.6551
 5541SOL     OW28258   3.949   3.231   0.104 -0.2852  0.1444  0.3614
 5541SOL    HW128259   3.869   3.252   0.151 -1.6543 -1.7958 -1.1234
 5541SOL    HW228260   3.930   3.213   0.012 -0.2259  1.5341  0.0675
 5542SOL     OW28261   4.446   2.651   8.457  0.0859 -0.0487 -0.1440
 5542SOL    HW128262   4.381   2.656   8.387  0.0060  1.3847  0.0343
 5542SOL    HW228263   4.394   2.669   8.535  1.0238 -1.4250  0.7945
 5543SOL     OW28264   3.897   2.345   8.630  0.5354 -0.6768 -0.7423
 5543SOL    HW128265   3.931   2.373   8.715  0.3023 -0.4313 -0.7311
 5543SOL    HW228266   3.879   2.421   8.576 -0.0293 -1.0204 -1.0330
 5544SOL     OW28267   1.969   0.502  13.691 -0.2365 -0.3898  0.2816
 5544SOL    HW128268   2.002   0.585  13.657 -1.1659 -0.2115 -0.1651
 5544SOL    HW228269   1.874   0.498  13.691 -0.2137 -0.7523 -0.9259
 5545SOL     OW28270   4.187   1.884   4.684 -0.1447 -0.3642 -0.2636
 5545SOL    HW128271   4.243   1.817   4.723 -0.1907 -0.6046 -0.6108
 5545SOL    HW228272   4.104   1.835   4.688 -0.0936 -0.5975 -2.2525
 5546SOL     OW28273   1.875   3.244   7.550  0.3760  0.6482 -0.3774
 5546SOL    HW128274   1.952   3.186   7.547 -0.8091 -0.9325 -0.3946
 5546SOL    HW228275   1.865   3.228   7.644  0.1641 -0.5994 -0.6128
 5547SOL     OW28276   0.889   3.389   7.032  0.2281 -0.3166 -0.6524
 5547SOL    HW128277   0.881   3.459   6.968  1.4595  1.5734  1.2429
 5547SOL    HW228278   0.840   3.324   6.982 -0.9001  1.3444 -1.6915
 5548SOL     OW28279   1.867   4.037   4.235 -0.2081  0.1330  0.0868
 5548SOL    HW128280   1.910   4.018   4.151 -3.6742 -2.0582 -1.1940
 5548SOL    HW228281   1.937   4.077   4.286  0.5862 -0.6909 -0.3423
 5549SOL     OW28282   4.076   2.519   2.501  0.1532 -0.2064  0.0026
 5549SOL    HW128283   4.126   2.439   2.485  0.3737 -0.6239  2.7124
 5549SOL    HW228284   4.070   2.563   2.416 -1.1997  3.9965  2.2370
 5550SOL     OW28285   3.192   3.856  13.304 -0.0100  0.0800  0.3193
 5550SOL    HW128286   3.143   3.915  13.246  0.3753 -0.4791 -0.5868
 5550SOL    HW228287   3.201   3.924  13.370 -1.0258  1.0011 -0.4836
 5551SOL     OW28288   2.714   0.346   5.893 -0.1212  0.4410 -0.6363
 5551SOL    HW128289   2.711   0.441   5.881 -0.6084  0.0996 -3.0861
 5551SOL    HW228290   2.782   0.334   5.959  0.8057  0.3795 -1.6098
 5552SOL     OW28291   2.814   3.825  16.672  0.2714  0.2493  0.1063
 5552SOL    HW128292   2.894   3.794  16.715  1.7366  1.8702 -1.4496
 5552SOL    HW228293   2.802   3.916  16.700  2.3313  0.3437  0.7182
 5553SOL     OW28294   0.801   2.316   1.900 -0.1372 -0.3421  0.0994
 5553SOL    HW128295   0.735   2.361   1.847  0.2196 -1.4912 -1.3373
 5553SOL    HW228296   0.797   2.383   1.967 -1.3316 -0.0595 -0.2647
 5554SOL     OW28297   2.396   4.637   4.811  0.5352 -0.0676 -0.7337
 5554SOL    HW128298   2.346   4.719   4.808 -1.3919 -1.2915 -1.9722
 5554SOL    HW228299   2.430   4.640   4.901  3.6424 -1.4213 -1.8907
 5555SOL     OW28300   1.880   2.598   7.595 -0.5144  0.4348 -0.4852
 5555SOL    HW128301   1.911   2.508   7.588 -1.3920  0.1056 -0.1106
 5555SOL    HW228302   1.849   2.594   7.686 -2.7114 -1.6797 -1.3387
 5556SOL     OW28303   1.090   2.850   5.896 -0.7624 -0.2336  0.2352
 5556SOL    HW128304   1.059   2.780   5.838  1.0739  0.5340 -1.6787
 5556SOL    HW228305   1.178   2.814   5.909 -0.5808 -0.2317 -1.0261
 5557SOL     OW28306   0.363   0.770  11.663 -0.2431 -0.3007  0.5509
 5557SOL    HW128307   0.409   0.843  11.620 -0.9404 -0.6049 -0.7260
 5557SOL    HW228308   0.284   0.767  11.609  0.9150  2.2734 -1.2955
 5558SOL     OW28309   2.921   1.716   2.538 -0.1056  0.2571 -0.0036
 5558SOL    HW128310   2.920   1.802   2.580 -0.5261  1.3344 -2.2033
 5558SOL    HW228311   2.989   1.723   2.470  2.3113  0.4767  2.4552
 5559SOL     OW28312   3.500   2.729   6.672 -0.5346 -0.1071  0.7305
 5559SOL    HW128313   3.562   2.781   6.724  0.6423  0.7757 -1.5375
 5559SOL    HW228314   3.547   2.717   6.589 -1.8781 -1.2048  0.1342
 5560SOL     OW28315   0.493   1.471   7.437 -0.0411  0.4110  0.4513
 5560SOL    HW128316   0.433   1.545   7.439 -0.4612  0.0978 -0.8248
 5560SOL    HW228317   0.578   1.516   7.436 -1.5567  3.3043 -0.3698
 5561SOL     OW28318   1.899   1.828   2.966  0.2475 -0.3083  0.0944
 5561SOL    HW128319   1.942   1.818   3.051  0.1510  0.6882  0.2663
 5561SOL    HW228320   1.815   1.784   2.976 -0.0086  0.2166  0.2552
 5562SOL     OW28321   2.264   3.461   5.480 -0.3429 -0.3163  0.0997
 5562SOL    HW128322   2.205   3.388   5.463 -3.0516  1.9277 -0.2467
 5562SOL    HW228323   2.300   3.435   5.565 -0.6933  2.8971  1.2236
 5563SOL     OW28324   0.685   2.615   2.575 -0.1261  0.2641  0.1478
 5563SOL    HW128325   0.731   2.598   2.493  0.4734  1.3008  0.2661
 5563SOL    HW228326   0.738   2.687   2.609  0.1117 -0.3382  1.0489
 5564SOL     OW28327   2.087   0.417  17.305  0.4073  0.1224 -0.5975
 5564SOL    HW128328   2.008   0.448  17.261 -0.0521  2.5202  1.9120
 5564SOL    HW228329   2.150   0.487  17.284  0.7364 -0.0115 -0.0633
 5565SOL     OW28330   3.450   3.461   3.754 -0.5860 -0.2587 -0.2710
 5565SOL    HW128331   3.499   3.538   3.784 -0.0291 -0.2545 -1.1821
 5565SOL    HW228332   3.478   3.395   3.817 -3.1339 -0.3502  0.7748
 5566SOL     OW28333   0.466   2.005   1.935  0.3006  0.4826 -0.2450
 5566SOL    HW128334   0.464   1.975   2.026 -0.4000  0.4403 -0.2745
 5566SOL    HW228335   0.381   2.050   1.932  0.6516  1.1554 -0.0005
 5567SOL     OW28336   1.226   3.316  13.369  0.4723  0.7321  0.2354
 5567SOL    HW128337   1.320   3.320  13.382  0.4027 -0.1084  0.9644
 5567SOL    HW228338   1.223   3.290  13.277  3.0257 -0.4768  0.4938
 5568SOL     OW28339   2.803   4.604   6.563  0.0209 -0.4439  0.2086
 5568SOL    HW128340   2.781   4.683   6.513  1.0780  0.8433  1.7877
 5568SOL    HW228341   2.823   4.634   6.652 -3.3725  0.4387  0.6939
 5569SOL     OW28342   4.567   2.866   7.516 -0.3933 -0.1382  0.0196
 5569SOL    HW128343   4.580   2.954   7.552  1.4990 -0.4346  0.0853
 5569SOL    HW228344   4.566   2.886   7.423  1.1344  0.8477  0.2125
 5570SOL     OW28345   4.181   3.624   1.371  0.0475 -0.3621 -0.0067
 5570SOL    HW128346   4.199   3.599   1.462  2.2357 -0.1435 -0.3735
 5570SOL    HW228347   4.092   3.654   1.391  0.5296  0.7554  0.5010
 5571SOL     OW28348   1.138   3.972   8.073  0.1305 -0.5256 -0.2755
 5571SOL    HW128349   1.060   4.014   8.109 -0.6432 -1.4910 -0.8214
 5571SOL    HW228350   1.100   3.900   8.021  0.2401 -2.2740  2.0866
 5572SOL     OW28351   2.243   1.570  16.860  0.2282 -0.1059  0.0803
 5572SOL    HW128352   2.170   1.528  16.814 -0.4202  0.1259  0.9075
 5572SOL    HW228353   2.313   1.516  16.823  1.8706  0.4377  2.3975
 5573SOL     OW28354   1.273   3.949   8.820 -0.2099 -0.1168  0.3763
 5573SOL    HW128355   1.338   3.917   8.882  1.6603  0.5457 -1.2584
 5573SOL    HW228356   1.197   3.911   8.864 -0.5873 -2.1036 -1.9726
 5574SOL     OW28357   2.089   3.733  10.104  0.3004  0.3089 -0.3359
 5574SOL    HW128358   2.028   3.718  10.177 -0.1836 -0.2990 -0.8619
 5574SOL    HW228359   2.111   3.644  10.078 -2.2730 -0.6691  0.7695
 5575SOL     OW28360   0.303   3.853   4.123  0.6503 -0.2029  0.3979
 5575SOL    HW128361   0.209   3.850   4.105  0.3042  0.4260  2.1184
 5575SOL    HW228362   0.317   3.910   4.199 -0.7139  0.6683  0.0096
 5576SOL     OW28363   4.191   2.296   6.975 -0.1050 -0.1306 -0.1334
 5576SOL    HW128364   4.132   2.276   6.902  0.1173 -1.2038 -0.0243
 5576SOL    HW228365   4.216   2.208   7.001 -1.7145 -0.0994  1.4897
 5577SOL     OW28366   4.387   1.976  11.947  0.0466 -0.2534 -0.0380
 5577SOL    HW128367   4.388   1.886  11.978  0.4956  0.9221  3.2959
 5577SOL    HW228368   4.367   1.972  11.853  1.3891 -2.4320 -0.2128
 5578SOL     OW28369   3.328   1.710   6.154 -0.1125 -0.3502 -0.5996
 5578SOL    HW128370   3.390   1.638   6.170 -0.8347 -0.3303  2.2842
 5578SOL    HW228371   3.258   1.664   6.199 -1.1378  3.4566  1.6505
 5579SOL     OW28372   1.198   0.358  14.549  0.0994  0.4506  0.8835
 5579SOL    HW128373   1.194   0.417  14.473  2.0481 -0.3637  0.1501
 5579SOL    HW228374   1.143   0.410  14.608  0.1811  2.9435 -1.1820
 5580SOL     OW28375   0.281   0.384   7.823 -0.1958 -0.3948  0.1603
 5580SOL    HW128376   0.334   0.321   7.775 -1.5422 -1.5701  0.2158
 5580SOL    HW228377   0.317   0.463   7.782  0.6534 -0.8094  0.1092
 5581SOL     OW28378   2.249   4.442   8.863  0.0388  0.7889 -0.4030
 5581SOL    HW128379   2.312   4.384   8.904 -0.3404  0.7434  0.1129
 5581SOL    HW228380   2.225   4.385   8.789 -3.3019  1.1036  0.4263
 5582SOL     OW28381   2.573   1.575   2.507 -0.3953 -0.5129 -0.1489
 5582SOL    HW128382   2.498   1.516   2.498 -0.5484 -0.8815  3.4740
 5582SOL    HW228383   2.558   1.628   2.429  1.6709 -0.0583 -0.2121
 5583SOL     OW28384   3.703   2.823   2.181  0.0711  0.0871 -0.3192
 5583SOL    HW128385   3.632   2.760   2.181 -0.8255  1.0884 -1.1499
 5583SOL    HW228386   3.691   2.867   2.096 -2.1772  2.3991  1.1835
 5584SOL     OW28387   1.656   2.884  13.234  0.6745 -0.4003  0.2445
 5584SOL    HW128388   1.604   2.818  13.281 -0.5550  0.6341  0.3270
 5584SOL    HW228389   1.602   2.916  13.162  0.4787 -2.0486 -0.3345
 5585SOL     OW28390   3.855   4.384   9.829 -0.3658  0.5267 -0.4998
 5585SOL    HW128391   3.919   4.455   9.822 -0.7226  0.9413  0.4702
 5585SOL    HW228392   3.783   4.422   9.779  0.3055 -1.8215 -3.2856
 5586SOL     OW28393   0.828   1.374  14.340 -0.0194  0.4222 -0.3739
 5586SOL    HW128394   0.874   1.383  14.423  1.3742 -1.4293 -0.9421
 5586SOL    HW228395   0.790   1.286  14.350  0.2548  0.2784 -0.6070
 5587SOL     OW28396   2.334   1.867   6.520  0.3004 -0.1204 -0.3461
 5587SOL    HW128397   2.317   1.868   6.614  0.5705 -2.6151 -0.2734
 5587SOL    HW228398   2.248   1.884   6.482 -0.3177 -1.3568  0.4834
 5588SOL     OW28399   2.900   1.439  15.573  0.5441 -0.0688  0.3745
 5588SOL    HW128400   2.994   1.430  15.557  0.5483 -2.1199  1.5452
 5588SOL    HW228401   2.917   1.506  15.638 -0.6718  1.2922 -0.7107
 5589SOL     OW28402   3.020   3.592  13.160 -0.3332 -0.2963  0.1179
 5589SOL    HW128403   2.959   3.644  13.107 -1.6676 -0.7503  1.2390
 5589SOL    HW228404   3.001   3.501  13.139 -0.8483 -0.3205  0.7102
 5590SOL     OW28405   0.155   1.603   6.028  0.8111 -0.0003  0.1984
 5590SOL    HW128406   0.132   1.645   6.111  0.7693  1.4282 -0.5387
 5590SOL    HW228407   0.166   1.675   5.966  0.2060  0.6355  0.8344
 5591SOL     OW28408   2.778   2.675  11.678 -0.4607 -0.2411  0.0869
 5591SOL    HW128409   2.730   2.740  11.626  1.0036  1.4652  0.8746
 5591SOL    HW228410   2.702   2.627  11.710 -0.4695  0.1176  0.5879
 5592SOL     OW28411   2.881   3.497   1.477 -0.2497 -1.0894  0.2758
 5592SOL    HW128412   2.835   3.569   1.435  1.2866  0.4216  1.1992
 5592SOL    HW228413   2.936   3.543   1.541 -0.7396  1.1718 -0.9331
 5593SOL     OW28414   4.671   3.561   6.387  0.4528 -0.1886 -0.3719
 5593SOL    HW128415   0.027   3.543   6.378  0.4768  0.0758 -0.6839
 5593SOL    HW228416   4.663   3.601   6.474 -0.1004 -1.7911  0.3082
 5594SOL     OW28417   3.814   3.039   1.833 -0.2360 -0.4727  0.0347
 5594SOL    HW128418   3.723   3.055   1.858  0.3321  1.5857  0.7761
 5594SOL    HW228419   3.861   3.088   1.900 -0.4629 -0.9131  0.5139
 5595SOL     OW28420   4.547   4.121   4.913 -0.0512 -0.4164  0.5425
 5595SOL    HW128421   4.577   4.157   4.830 -0.9431 -0.3122  0.2641
 5595SOL    HW228422   4.602   4.171   4.973 -0.5556 -1.3784  1.8076
 5596SOL     OW28423   4.143   1.749   1.520  1.3861  0.1822  0.6284
 5596SOL    HW128424   4.099   1.789   1.446 -0.5162  0.0887  1.7160
 5596SOL    HW228425   4.069   1.719   1.572  0.2792  0.1109 -1.0229
 5597SOL     OW28426   2.567   3.148   5.470 -0.4376 -0.0441  0.2369
 5597SOL    HW128427   2.631   3.114   5.532 -0.7973 -0.3879  0.4216
 5597SOL    HW228428   2.537   3.068   5.426  1.2056 -0.5056 -0.0647
 5598SOL     OW28429   1.282   1.808   5.944 -0.2596  0.0185  0.0343
 5598SOL    HW128430   1.367   1.773   5.971 -0.7608 -1.4573 -0.3518
 5598SOL    HW228431   1.221   1.735   5.940 -1.5791  0.9844  2.5182
 5599SOL     OW28432   0.502   0.641   5.970 -0.2873 -0.3295  0.1478
 5599SOL    HW128433   0.553   0.564   5.993  0.0354 -0.2598 -0.3134
 5599SOL    HW228434   0.561   0.700   6.017  0.5703 -0.9318 -0.1588
 5600SOL     OW28435   2.171   2.828   7.219 -0.2650 -0.0039  0.6235
 5600SOL    HW128436   2.104   2.894   7.240  1.2625  1.9094 -0.5062
 5600SOL    HW228437   2.216   2.821   7.302  1.9691 -0.1990 -0.6099
 5601SOL     OW28438   1.983   4.431   6.985 -0.2980 -0.6504 -0.6620
 5601SOL    HW128439   2.048   4.494   6.955  0.0311 -0.3087  0.7724
 5601SOL    HW228440   2.027   4.396   7.062 -0.6258  1.3416  0.4252
 5602SOL     OW28441   4.685   2.307   3.709 -0.5073  0.6207  0.1908
 5602SOL    HW128442   4.643   2.363   3.643  1.1081 -0.3399 -1.6601
 5602SOL    HW228443   4.638   2.313   3.792  2.0460 -1.1953  1.7507
 5603SOL     OW28444   3.609   0.046  17.225 -0.0356 -0.4091  0.4263
 5603SOL    HW128445   3.587   4.710  17.282 -2.7484 -0.5601 -0.8361
 5603SOL    HW228446   3.525   0.092  17.231  0.9796  1.4554  0.3592
 5604SOL     OW28447   0.247   4.481   3.217  0.0850 -0.2589  0.3955
 5604SOL    HW128448   0.196   4.496   3.297 -1.3524  0.4798 -0.6642
 5604SOL    HW228449   0.178   4.496   3.153  0.1363  0.2343  0.4496
 5605SOL     OW28450   1.891   2.554   6.113  0.0888  0.2302  0.3790
 5605SOL    HW128451   1.806   2.526   6.079  0.9554  0.2595 -1.8416
 5605SOL    HW228452   1.891   2.646   6.088 -1.0418  0.3036  0.6533
 5606SOL     OW28453   3.194   2.720   8.301 -0.0817  0.3461 -0.6552
 5606SOL    HW128454   3.233   2.635   8.320  0.1395  0.2757 -1.3999
 5606SOL    HW228455   3.135   2.706   8.226 -0.5158 -1.8746  0.0946
 5607SOL     OW28456   1.458   1.804   6.740  0.4480 -0.1722 -0.1933
 5607SOL    HW128457   1.404   1.780   6.664  0.1405  0.0224 -0.0377
 5607SOL    HW228458   1.504   1.880   6.705 -0.1957 -0.2864 -1.2851
 5608SOL     OW28459   3.209   0.698  12.202 -0.3076 -0.2084 -0.2293
 5608SOL    HW128460   3.262   0.682  12.124 -1.4393  1.5853 -1.3731
 5608SOL    HW228461   3.269   0.712  12.275 -1.0161  1.9328 -0.0678
 5609SOL     OW28462   2.408   2.906  17.620 -0.2797 -0.4451 -0.2727
 5609SOL    HW128463   2.369   2.987  17.588 -0.0491 -0.3050 -0.1952
 5609SOL    HW228464   2.336   2.845  17.639  0.0999 -0.3157  1.5112
 5610SOL     OW28465   4.635   3.879   5.059  0.0722 -0.7254  0.2727
 5610SOL    HW128466   4.687   3.905   5.135 -0.8989 -1.2645  1.1236
 5610SOL    HW228467   4.545   3.873   5.091 -0.4966  1.8526 -0.8722
 5611SOL     OW28468   3.692   0.864  10.745 -0.0397  0.1486 -0.0518
 5611SOL    HW128469   3.608   0.908  10.733  0.0250  0.4542  0.6461
 5611SOL    HW228470   3.753   0.925  10.702 -0.6253 -1.8603 -3.7726
 5612SOL     OW28471   1.749   4.028  10.212 -0.3516 -0.1707 -0.5311
 5612SOL    HW128472   1.702   4.025  10.295 -1.0193 -0.5883 -0.9192
 5612SOL    HW228473   1.841   4.014  10.235 -0.3622 -1.6301 -1.3226
 5613SOL     OW28474   1.559   0.553   7.086  0.6495 -0.0204 -0.0838
 5613SOL    HW128475   1.599   0.633   7.052 -0.5020  1.0348  1.0341
 5613SOL    HW228476   1.478   0.583   7.128  0.6160  0.3411 -0.4101
 5614SOL     OW28477   1.405   1.735  10.938 -0.0986 -0.5033 -0.0675
 5614SOL    HW128478   1.403   1.731  11.033  1.0952  2.0741  0.0771
 5614SOL    HW228479   1.312   1.735  10.917  0.2973  1.0064 -1.8517
 5615SOL     OW28480   3.268   3.826   7.727  0.7069  0.2875 -0.2293
 5615SOL    HW128481   3.346   3.773   7.709 -0.1508 -0.3357 -2.0456
 5615SOL    HW228482   3.272   3.891   7.658 -1.7490  0.6489 -0.0058
 5616SOL     OW28483   0.166   0.241   5.162 -0.2051  0.7704  0.0729
 5616SOL    HW128484   0.145   0.250   5.069  0.0932  4.6537  0.3481
 5616SOL    HW228485   0.098   0.187   5.200  1.3453 -1.4485 -0.2860
 5617SOL     OW28486   0.395   3.570   5.317  0.0615  0.5284  0.4969
 5617SOL    HW128487   0.319   3.544   5.369  0.5667 -0.3246  0.7991
 5617SOL    HW228488   0.420   3.649   5.365 -0.2359  1.1460 -0.3606
 5618SOL     OW28489   3.810   2.948   3.671  0.7243 -0.4385 -1.1528
 5618SOL    HW128490   3.843   3.031   3.640 -1.4349  0.2022 -1.7572
 5618SOL    HW228491   3.717   2.971   3.667  0.9182  0.9439  2.1854
 5619SOL     OW28492   1.379   3.820   1.780  0.5946  0.0112  0.1724
 5619SOL    HW128493   1.340   3.779   1.857 -1.5966 -2.3165 -2.1765
 5619SOL    HW228494   1.468   3.786   1.782  0.3387 -0.5680  1.7961
 5620SOL     OW28495   2.317   0.066   7.515  0.5951 -0.6665  0.2771
 5620SOL    HW128496   2.304   4.714   7.484 -1.8823 -0.0312 -0.5661
 5620SOL    HW228497   2.277   0.058   7.601  0.8831 -0.4636  0.4267
 5621SOL     OW28498   4.301   0.051   4.906  0.1317 -0.4168 -0.2324
 5621SOL    HW128499   4.243   4.721   4.940 -0.3701 -0.1069 -0.4655
 5621SOL    HW228500   4.309   0.014   4.818 -0.0481 -1.1345  0.0606
 5622SOL     OW28501   3.165   0.992  11.683 -0.6446  0.0804 -0.6935
 5622SOL    HW128502   3.082   1.035  11.661 -0.4008  1.4664  1.0367
 5622SOL    HW228503   3.150   0.973  11.776 -2.2945  1.7572 -0.5951
 5623SOL     OW28504   2.813   3.094  15.002 -0.1111  0.2644 -0.4396
 5623SOL    HW128505   2.770   3.039  14.937 -0.1089 -0.6000  0.2855
 5623SOL    HW228506   2.759   3.171  14.984 -0.1351  0.7733  1.7173
 5624SOL     OW28507   0.513   2.284   6.553 -0.5042  0.2339 -0.1259
 5624SOL    HW128508   0.534   2.364   6.600 -2.4025 -0.1316  1.3116
 5624SOL    HW228509   0.492   2.226   6.626  0.8285  0.1635  0.1926
 5625SOL     OW28510   1.130   3.571   9.238  0.0290  0.6007 -0.1704
 5625SOL    HW128511   1.082   3.639   9.191 -0.2758  1.3863  1.2519
 5625SOL    HW228512   1.211   3.616   9.262  0.5867 -0.0215 -0.8779
 5626SOL     OW28513   0.720   2.270   2.222 -0.1069 -0.5665 -1.0604
 5626SOL    HW128514   0.804   2.312   2.244 -0.3115  0.3564 -2.0407
 5626SOL    HW228515   0.685   2.343   2.171  1.8928  0.5068 -0.9215
 5627SOL     OW28516   1.804   4.636   5.528 -0.2096 -0.4570  0.4670
 5627SOL    HW128517   1.889   4.615   5.488 -1.1128 -1.4204 -0.9256
 5627SOL    HW228518   1.832   4.704   5.589  1.4478  0.0612 -0.8567
 5628SOL     OW28519   3.126   1.271   8.394 -0.9305 -0.2275 -0.3039
 5628SOL    HW128520   3.106   1.273   8.301  0.1486  0.5223 -0.5277
 5628SOL    HW228521   3.198   1.209   8.405 -1.4615 -0.7777  0.0757
 5629SOL     OW28522   3.928   2.701   7.205 -0.1028 -0.3957 -0.1181
 5629SOL    HW128523   3.885   2.716   7.121  0.9029  0.2954 -0.5019
 5629SOL    HW228524   3.992   2.635   7.177  0.4028 -0.1035  0.3494
 5630SOL     OW28525   4.266   0.559  17.553  0.3078  0.3016  0.3960
 5630SOL    HW128526   4.208   0.503  17.604 -0.2304  0.2227 -0.2989
 5630SOL    HW228527   4.239   0.533  17.465  2.1497 -2.3052  0.5964
 5631SOL     OW28528   3.427   0.180   2.017 -0.3721 -0.3373  0.0156
 5631SOL    HW128529   3.493   0.180   1.948  1.1578 -1.8503  1.4808
 5631SOL    HW228530   3.360   0.116   1.994 -0.0319 -2.0983  4.0328
 5632SOL     OW28531   1.271   1.882   5.220 -0.2263  0.1208  0.2877
 5632SOL    HW128532   1.187   1.914   5.188  0.4459  0.0079 -1.6200
 5632SOL    HW228533   1.260   1.878   5.314  0.5802 -0.6513  0.3485
 5633SOL     OW28534   0.511   2.085   4.293  0.0053 -0.3267  0.1690
 5633SOL    HW128535   0.457   2.019   4.335 -0.7265  0.4964  0.5269
 5633SOL    HW228536   0.547   2.035   4.220 -1.2135 -1.0534  0.0709
 5634SOL     OW28537   0.110   2.127   2.239 -0.1643 -0.2570  0.0162
 5634SOL    HW128538   0.097   2.221   2.223 -1.0500 -0.3880 -0.0212
 5634SOL    HW228539   0.153   2.129   2.325 -1.7840 -0.3666  0.8246
 5635SOL     OW28540   3.959   3.943   7.491 -0.2254  0.5915 -0.6500
 5635SOL    HW128541   3.905   3.951   7.413 -1.6819  1.0706  0.3980
 5635SOL    HW228542   3.939   4.029   7.529  2.1849  0.1212  1.6477
 5636SOL     OW28543   0.424   0.840   4.855  0.8193  0.4921 -0.4205
 5636SOL    HW128544   0.427   0.838   4.950 -2.1298  0.2013 -0.3374
 5636SOL    HW228545   0.353   0.902   4.840 -0.7335 -0.9532  0.9006
 5637SOL     OW28546   3.655   0.467   7.728  0.0609 -0.2857 -0.3610
 5637SOL    HW128547   3.708   0.532   7.682  0.7588 -0.2966  0.4383
 5637SOL    HW228548   3.678   0.481   7.820 -1.2259 -2.2158  0.2534
 5638SOL     OW28549   2.842   3.902   4.464 -0.3762  0.3290 -0.1644
 5638SOL    HW128550   2.842   3.940   4.377 -1.3830 -0.2272 -0.4128
 5638SOL    HW228551   2.747   3.893   4.473 -0.2256 -1.0605  0.1782
 5639SOL     OW28552   2.954   2.243   5.894 -0.2558 -0.1551 -0.0921
 5639SOL    HW128553   3.018   2.210   5.831 -1.0958  1.0964 -1.5883
 5639SOL    HW228554   2.868   2.207   5.873 -1.4989  1.8644  1.5520
 5640SOL     OW28555   4.537   1.578  11.823 -0.0481 -0.0209  0.2856
 5640SOL    HW128556   4.546   1.506  11.885  1.3188  1.2595  1.5882
 5640SOL    HW228557   4.574   1.544  11.742  0.1205  0.5842  0.1057
 5641SOL     OW28558   1.592   0.767   6.397  0.0139 -0.3031 -0.3080
 5641SOL    HW128559   1.654   0.698   6.370  3.1897  1.3752  2.6079
 5641SOL    HW228560   1.562   0.719   6.474 -0.3639 -1.0546 -0.9264
 5642SOL     OW28561   4.277   1.091   6.235 -0.6203  0.0017  0.1311
 5642SOL    HW128562   4.318   1.005   6.231  2.2407  1.3263  0.9851
 5642SOL    HW228563   4.326   1.132   6.306 -0.8143 -0.1403  0.3456
 5643SOL     OW28564   2.569   4.724  15.780 -0.2368  0.2494  0.3395
 5643SOL    HW128565   2.569   0.081  15.791 -1.4889  0.2614  0.2141
 5643SOL    HW228566   2.536   4.714  15.869 -0.2648  2.2978  0.5704
 5644SOL     OW28567   3.362   4.659  10.215  0.2561 -0.0308  0.5569
 5644SOL    HW128568   3.311   4.720  10.268  1.7072  1.3387  0.3766
 5644SOL    HW228569   3.329   4.674  10.127  3.0344 -0.6423 -0.5904
 5645SOL     OW28570   0.961   0.707  13.025 -0.3394  0.2326  0.5411
 5645SOL    HW128571   1.046   0.748  13.012  0.1906 -0.6249  1.2767
 5645SOL    HW228572   0.899   0.773  12.995  0.0679 -0.5294 -1.9806
 5646SOL     OW28573   2.341   0.585   9.881 -0.2639  0.5122 -0.1508
 5646SOL    HW128574   2.429   0.618   9.863 -0.5471  2.0473  1.3744
 5646SOL    HW228575   2.290   0.647   9.829 -0.5468 -0.9445 -1.6115
 5647SOL     OW28576   1.426   3.993  16.209  0.4573  0.0030 -0.5789
 5647SOL    HW128577   1.389   3.941  16.138 -1.4731 -0.2762  0.6312
 5647SOL    HW228578   1.519   3.983  16.187  0.8177  0.6316  0.6557
 5648SOL     OW28579   4.197   3.946   4.180  0.4042  0.0435  0.3139
 5648SOL    HW128580   4.261   4.004   4.220 -0.2974  0.2089  1.1934
 5648SOL    HW228581   4.203   3.875   4.245 -1.3352 -0.3400  0.0516
 5649SOL     OW28582   4.344   3.344   8.309 -0.4840  0.4016 -0.2345
 5649SOL    HW128583   4.393   3.324   8.229  1.6939 -0.5570  1.3250
 5649SOL    HW228584   4.403   3.348   8.385  1.0156  0.5169 -1.4093
 5650SOL     OW28585   3.317   0.088   8.313 -0.1065  0.4325  0.1111
 5650SOL    HW128586   3.368   0.007   8.303 -1.7074 -0.5909  0.3628
 5650SOL    HW228587   3.332   0.114   8.404  0.5544 -0.4223  0.2437
 5651SOL     OW28588   2.117   2.050   5.113  0.4501 -0.3753  0.7466
 5651SOL    HW128589   2.166   2.038   5.031 -0.6887  0.3757 -0.0512
 5651SOL    HW228590   2.158   1.991   5.176  0.3542 -1.9627 -0.6738
 5652SOL     OW28591   2.205   4.177   9.896  0.1048  0.1851 -0.2999
 5652SOL    HW128592   2.299   4.159   9.891  0.5015  1.8921  0.7531
 5652SOL    HW228593   2.188   4.116   9.968 -0.9795  2.2450  1.2090
 5653SOL     OW28594   4.285   0.797   8.988  0.4653  0.0712  0.0372
 5653SOL    HW128595   4.336   0.747   9.052  0.9189 -1.7793 -1.7581
 5653SOL    HW228596   4.339   0.874   8.971  1.3049 -0.4243  0.4005
 5654SOL     OW28597   3.312   3.825   8.473 -1.0987  0.2847 -0.6882
 5654SOL    HW128598   3.295   3.797   8.563 -1.5640  1.7695 -0.3104
 5654SOL    HW228599   3.324   3.740   8.429 -2.4673  0.3865 -1.2804
 5655SOL     OW28600   0.720   4.133   4.825  0.4313 -0.9330 -0.0353
 5655SOL    HW128601   0.669   4.208   4.856 -0.2153 -0.7803 -1.4590
 5655SOL    HW228602   0.806   4.156   4.860 -0.0353  0.6748  0.0315
 5656SOL     OW28603   1.080   2.077  13.743 -0.2327  0.5028  0.3546
 5656SOL    HW128604   1.126   2.068  13.660  0.9267 -0.7850  1.1347
 5656SOL    HW228605   1.121   2.010  13.797 -0.8905 -0.9616 -0.9994
 5657SOL     OW28606   0.395   0.417  10.556  0.0615 -0.2033  0.0579
 5657SOL    HW128607   0.306   0.404  10.523  0.2065  0.5448 -0.6497
 5657SOL    HW228608   0.442   0.436  10.475 -1.2027  0.2328 -0.5860
 5658SOL     OW28609   2.434   0.180   4.049 -0.4136  0.2469 -0.2309
 5658SOL    HW128610   2.437   0.177   3.954 -1.8107 -1.7290 -0.2187
 5658SOL    HW228611   2.408   0.092   4.077  0.3640  0.5007  1.2919
 5659SOL     OW28612   2.386   4.059   7.408 -0.4494  0.0485  0.1779
 5659SOL    HW128613   2.367   3.988   7.346 -0.9386 -0.6811  1.1617
 5659SOL    HW228614   2.476   4.029   7.422 -0.8244 -0.1016  2.2258
 5660SOL     OW28615   1.702   1.545   2.178 -0.2869 -0.0771 -0.4033
 5660SOL    HW128616   1.639   1.477   2.200 -0.0869 -0.2773 -0.4608
 5660SOL    HW228617   1.646   1.623   2.184 -1.0415 -0.7465  1.2613
 5661SOL     OW28618   3.663   2.389  16.590 -0.4543 -0.1408  0.5422
 5661SOL    HW128619   3.740   2.332  16.579  0.1289  0.7268  0.1895
 5661SOL    HW228620   3.701   2.476  16.589  3.0697 -1.6787  1.3009
 5662SOL     OW28621   2.395   3.366  13.021  0.3342  0.3142  0.5430
 5662SOL    HW128622   2.381   3.287  13.072 -0.8677  1.5497  2.1283
 5662SOL    HW228623   2.472   3.333  12.974 -2.0211 -2.9966 -1.0223
 5663SOL     OW28624   2.799   4.053  14.255 -0.0756  0.5890  0.6593
 5663SOL    HW128625   2.817   3.968  14.215 -0.2665  1.0876 -0.4778
 5663SOL    HW228626   2.841   4.112  14.192  1.2029 -1.3915 -0.3600
 5664SOL     OW28627   4.475   3.835   6.304  0.0567  0.7235 -0.2080
 5664SOL    HW128628   4.549   3.890   6.329 -0.4066  0.1977  2.2685
 5664SOL    HW228629   4.462   3.806   6.394 -0.9667 -1.0220 -0.9000
 5665SOL     OW28630   0.244   1.003  14.499 -0.4778 -0.1808  0.1309
 5665SOL    HW128631   0.193   0.940  14.448 -0.3609 -0.0314 -0.1782
 5665SOL    HW228632   0.178   1.071  14.513 -0.9082 -0.8637  1.3840
 5666SOL     OW28633   3.104   3.580   8.107 -0.3579  0.0028 -0.2889
 5666SOL    HW128634   3.129   3.490   8.127 -0.9675 -0.2425 -0.6367
 5666SOL    HW228635   3.040   3.590   8.176  0.1814 -2.1501  0.5313
 5667SOL     OW28636   0.434   2.292   3.523  0.1825  0.3714  0.1014
 5667SOL    HW128637   0.398   2.204   3.529  1.3280 -0.1033  0.0195
 5667SOL    HW228638   0.426   2.300   3.428 -1.6760 -0.5758  0.1806
 5668SOL     OW28639   0.263   0.563   6.185  0.1688 -0.2517 -0.3226
 5668SOL    HW128640   0.296   0.541   6.098  1.2636 -0.5641  0.1760
 5668SOL    HW228641   0.201   0.490   6.187 -1.2621  0.9319 -0.7677
 5669SOL     OW28642   3.569   2.102   3.231  0.0181 -0.4020 -0.0668
 5669SOL    HW128643   3.505   2.142   3.290  0.1269  0.3998 -0.4855
 5669SOL    HW228644   3.586   2.163   3.159 -3.6433 -1.1949 -1.5934
 5670SOL     OW28645   0.370   0.893   8.511  0.2611  0.0867 -0.2543
 5670SOL    HW128646   0.357   0.966   8.572 -4.2442 -0.5739 -0.4048
 5670SOL    HW228647   0.397   0.827   8.575 -0.2828 -0.1558 -0.2739
 5671SOL     OW28648   3.425   4.062   8.416 -0.1076 -0.0333 -0.3111
 5671SOL    HW128649   3.368   3.987   8.439 -0.0175  0.0791  0.2875
 5671SOL    HW228650   3.409   4.074   8.323 -2.1363 -2.5825 -0.3030
 5672SOL     OW28651   0.179   3.421   8.657 -0.2546  0.4886  0.0661
 5672SOL    HW128652   0.210   3.446   8.570  0.8387 -0.0191  0.3105
 5672SOL    HW228653   0.085   3.439   8.658 -0.5834 -1.2948 -0.4451
 5673SOL     OW28654   1.300   2.642   7.639  0.1338  0.1713 -0.4304
 5673SOL    HW128655   1.372   2.608   7.586 -0.2204  0.4051 -1.0627
 5673SOL    HW228656   1.300   2.735   7.616  5.1378 -0.0791 -1.5551
 5674SOL     OW28657   0.417   0.611   9.974  0.1448 -0.1033  0.0494
 5674SOL    HW128658   0.505   0.625  10.009 -0.7630  0.1099  2.2683
 5674SOL    HW228659   0.403   0.695   9.931 -0.0960  0.2267  0.7689
 5675SOL     OW28660   0.411   0.644   2.597  0.5984  0.0701  0.2035
 5675SOL    HW128661   0.366   0.570   2.558  1.0234 -0.6921  1.1738
 5675SOL    HW228662   0.342   0.711   2.595  1.4026  0.8693 -0.8621
 5676SOL     OW28663   3.912   1.829  13.557  0.2175  0.0518  0.3339
 5676SOL    HW128664   3.910   1.915  13.599  1.6859  0.4509 -0.4127
 5676SOL    HW228665   3.989   1.784  13.591  0.0963 -0.4115 -0.0051
 5677SOL     OW28666   0.668   0.878   6.692 -0.0670  0.5706  0.6796
 5677SOL    HW128667   0.710   0.892   6.777  2.0059 -2.0449  0.0946
 5677SOL    HW228668   0.743   0.869   6.632 -1.2067  1.2029 -0.8245
 5678SOL     OW28669   2.646   2.571   7.137  0.6335 -0.0171 -0.0121
 5678SOL    HW128670   2.572   2.518   7.108  0.9942 -0.7137  0.3578
 5678SOL    HW228671   2.648   2.646   7.077 -0.7101 -0.0999 -0.1741
 5679SOL     OW28672   1.146   4.489  17.586  0.7606 -0.5576  0.1440
 5679SOL    HW128673   1.172   4.579  17.569 -0.3001 -0.3028 -0.1092
 5679SOL    HW228674   1.056   4.491  17.552  1.4280 -0.2663 -1.5875
 5680SOL     OW28675   2.388   1.871   3.414  0.0131 -0.4840 -0.2987
 5680SOL    HW128676   2.364   1.795   3.467 -1.5785 -2.0378 -3.2977
 5680SOL    HW228677   2.462   1.915   3.457  1.5673 -2.4377 -0.9996
 5681SOL     OW28678   2.091   3.177   6.231 -0.0794  0.3168 -0.1170
 5681SOL    HW128679   2.023   3.242   6.214  0.9860  1.8863  1.5539
 5681SOL    HW228680   2.162   3.226   6.190  0.6965  0.5606  1.4946
 5682SOL     OW28681   2.435   2.606  15.229 -0.3044  0.4061  0.5607
 5682SOL    HW128682   2.450   2.657  15.149 -2.2991 -0.0768 -0.1330
 5682SOL    HW228683   2.345   2.628  15.255 -0.1886 -0.0847  1.3821
 5683SOL     OW28684   1.807   4.318   3.746  0.0688 -0.2492 -0.0388
 5683SOL    HW128685   1.891   4.277   3.762  0.4322  1.0207  1.2711
 5683SOL    HW228686   1.779   4.295   3.834  1.0919  1.9567  0.8464
 5684SOL     OW28687   3.552   0.600   2.762 -0.0775 -0.2340 -0.2457
 5684SOL    HW128688   3.516   0.546   2.692 -4.2610  1.4683  0.5963
 5684SOL    HW228689   3.609   0.539   2.809 -0.1385  0.2654  0.4858
 5685SOL     OW28690   1.585   4.257  11.882  0.3920  0.2629  0.0586
 5685SOL    HW128691   1.515   4.245  11.946  1.0049 -1.8567  0.3658
 5685SOL    HW228692   1.539   4.279  11.801 -0.9802 -0.7316  0.5686
 5686SOL     OW28693   4.671   1.717   5.518  0.2679  0.1005  0.3262
 5686SOL    HW128694   4.731   1.721   5.443 -0.3606  1.3188 -0.1085
 5686SOL    HW228695   4.696   1.631   5.551  2.1979  0.1533 -0.9597
 5687SOL     OW28696   4.642   1.479   6.961  0.0228 -0.1314  0.1724
 5687SOL    HW128697   4.730   1.453   6.936 -0.1815  2.1310 -2.8552
 5687SOL    HW228698   4.623   1.397   7.007  0.1647 -1.1309 -1.5533
 5688SOL     OW28699   1.800   3.824   7.433 -0.5670 -0.1311 -0.3414
 5688SOL    HW128700   1.825   3.742   7.476  0.4306 -0.1947 -1.0515
 5688SOL    HW228701   1.821   3.892   7.497 -1.1491 -0.1595 -0.1185
 5689SOL     OW28702   1.326   4.334   4.321 -0.3885  0.3386  0.8384
 5689SOL    HW128703   1.388   4.372   4.384 -0.5957  2.3156 -0.1296
 5689SOL    HW228704   1.258   4.319   4.387  1.0003  1.0359  2.4447
 5690SOL     OW28705   3.273   2.219   8.832  0.6942 -0.0794  0.2019
 5690SOL    HW128706   3.339   2.149   8.836  1.3215  0.5240  0.3042
 5690SOL    HW228707   3.247   2.206   8.924 -0.4606 -1.3203 -0.3121
 5691SOL     OW28708   3.497   4.371   6.567 -0.4774 -0.6141 -0.3224
 5691SOL    HW128709   3.495   4.316   6.488 -4.3142 -1.4681  0.3698
 5691SOL    HW228710   3.406   4.395   6.584 -0.4000 -1.3535  1.1297
 5692SOL     OW28711   3.172   4.385   5.969  0.0373  0.5365 -0.0198
 5692SOL    HW128712   3.092   4.421   5.931 -0.5882 -1.0407 -0.1998
 5692SOL    HW228713   3.225   4.464   5.978  2.1821 -0.5814 -2.7913
 5693SOL     OW28714   3.999   1.594   5.666  1.0683 -0.1737  0.0956
 5693SOL    HW128715   3.944   1.629   5.736  1.2456  1.8139 -0.7597
 5693SOL    HW228716   4.036   1.521   5.715 -0.4290 -0.2894  1.0868
 5694SOL     OW28717   1.783   3.883  14.694 -0.2139  0.3538  0.0581
 5694SOL    HW128718   1.743   3.798  14.712  0.0439  0.0539 -0.7846
 5694SOL    HW228719   1.712   3.942  14.669 -0.0546  0.9812  1.1123
 5695SOL     OW28720   0.181   0.806   2.356 -1.0273 -0.0065 -0.2184
 5695SOL    HW128721   0.210   0.717   2.337 -2.1287 -0.3856 -0.0882
 5695SOL    HW228722   0.094   0.790   2.321 -0.8806  0.0295 -0.6059
 5696SOL     OW28723   2.360   0.414   3.730  0.5742 -0.3118  0.4325
 5696SOL    HW128724   2.308   0.492   3.751  0.9489 -0.0148  0.2697
 5696SOL    HW228725   2.443   0.442   3.769  0.5963  0.7555 -0.3798
 5697SOL     OW28726   3.695   2.234   3.830  0.1377 -0.6769 -0.4349
 5697SOL    HW128727   3.668   2.149   3.797 -1.0611  0.4042 -2.2183
 5697SOL    HW228728   3.757   2.259   3.761 -0.2060 -0.0454 -0.5148
 5698SOL     OW28729   2.981   3.970   2.540  0.4267  0.2951  0.3468
 5698SOL    HW128730   2.906   3.918   2.510  0.7061 -0.1686  0.4484
 5698SOL    HW228731   2.945   4.020   2.613 -0.1212  0.4489 -0.0260
 5699SOL     OW28732   3.464   2.566   0.719  0.0585 -0.2799 -0.5162
 5699SOL    HW128733   3.377   2.577   0.680  0.2725 -0.2537 -0.9857
 5699SOL    HW228734   3.440   2.514   0.796 -1.2678 -0.0046 -0.7306
 5700SOL     OW28735   4.003   3.069   7.044 -0.2108  0.2034 -0.5652
 5700SOL    HW128736   3.956   3.137   6.996 -2.2492 -0.0688  1.0598
 5700SOL    HW228737   3.998   3.010   6.969  1.5820 -0.3746 -0.2336
 5701SOL     OW28738   0.967   2.669  15.550 -0.2192 -0.2743 -0.4234
 5701SOL    HW128739   1.040   2.716  15.511  0.7914  0.8640  2.8996
 5701SOL    HW228740   1.000   2.582  15.525  0.7413 -0.3008  0.9402
 5702SOL     OW28741   3.375   1.189   4.266  0.4560 -0.2286  0.3763
 5702SOL    HW128742   3.311   1.259   4.277  0.5679 -0.2416  1.1550
 5702SOL    HW228743   3.304   1.127   4.253 -1.4413  1.9067  0.7338
 5703SOL     OW28744   3.929   1.451  13.706  0.3689 -1.1572 -0.1216
 5703SOL    HW128745   3.987   1.518  13.669  1.2740 -1.3634  0.9269
 5703SOL    HW228746   3.866   1.446  13.634  1.2871 -1.7479 -0.8815
 5704SOL     OW28747   1.829   2.475   9.158  0.8283  0.3498  0.1875
 5704SOL    HW128748   1.851   2.539   9.227  0.5591  2.4001 -1.6299
 5704SOL    HW228749   1.805   2.400   9.212 -1.0847  0.1306 -0.9673
 5705SOL     OW28750   2.113   3.237   2.153  0.1395 -0.3178  0.1814
 5705SOL    HW128751   2.080   3.175   2.218  0.8608  0.3298  1.1625
 5705SOL    HW228752   2.138   3.315   2.202 -0.8999  0.4837 -0.5835
 5706SOL     OW28753   3.460   1.296   4.016 -0.3538 -0.1977  0.7313
 5706SOL    HW128754   3.459   1.257   4.103  1.2674 -2.6408 -0.3276
 5706SOL    HW228755   3.367   1.285   3.995 -0.3213  0.0921  0.4288
 5707SOL     OW28756   2.735   0.706   3.121  0.3636 -0.2637  0.4970
 5707SOL    HW128757   2.777   0.789   3.099  0.4549 -0.5780 -0.5006
 5707SOL    HW228758   2.663   0.741   3.174  0.7688  2.7665 -0.9713
 5708SOL     OW28759   4.361   2.146   3.722  0.0182 -0.1793 -0.0960
 5708SOL    HW128760   4.299   2.185   3.783  1.0483 -0.2099  0.9524
 5708SOL    HW228761   4.312   2.124   3.642  1.1497  2.2805 -1.4671
 5709SOL     OW28762   2.838   3.348  10.831  0.3092 -0.6027  0.2454
 5709SOL    HW128763   2.871   3.379  10.915  0.8207  0.1984 -0.2577
 5709SOL    HW228764   2.759   3.299  10.853  0.2397 -1.2686 -1.4238
 5710SOL     OW28765   0.762   1.180  13.069 -0.2789 -0.5689  0.2876
 5710SOL    HW128766   0.687   1.197  13.011  1.0627  1.7345 -0.7263
 5710SOL    HW228767   0.733   1.227  13.147 -0.8619 -1.2863  0.5145
 5711SOL     OW28768   2.194   0.611   5.673  0.3488 -0.2859 -0.4449
 5711SOL    HW128769   2.282   0.589   5.701 -0.7001 -1.5551  1.8921
 5711SOL    HW228770   2.177   0.681   5.737  0.6085  0.9243 -1.7062
 5712SOL     OW28771   4.431   1.798   5.634  0.2542  0.2303 -0.0531
 5712SOL    HW128772   4.511   1.766   5.592  0.1417 -1.0485  0.7009
 5712SOL    HW228773   4.460   1.880   5.673 -0.6072  0.7399 -0.4797
 5713SOL     OW28774   2.892   3.786   6.970 -0.0881  0.6134  0.0472
 5713SOL    HW128775   2.920   3.867   7.012 -0.8201  0.7716  0.2357
 5713SOL    HW228776   2.828   3.821   6.908 -1.1591  0.9893  1.3566
 5714SOL     OW28777   0.813   1.211   8.025  0.9435  0.3714 -0.1945
 5714SOL    HW128778   0.791   1.211   8.118 -0.8064 -1.7639 -0.5912
 5714SOL    HW228779   0.886   1.150   8.018 -0.1903 -0.9961 -0.0349
 5715SOL     OW28780   1.596   2.343   1.867  0.2547  0.3507  0.4888
 5715SOL    HW128781   1.603   2.346   1.771 -0.1710  0.6211  0.4626
 5715SOL    HW228782   1.687   2.348   1.895  1.3837 -0.2628 -2.9936
 5716SOL     OW28783   3.794   3.144   3.960  0.7301  0.1575  0.0625
 5716SOL    HW128784   3.876   3.154   4.009  0.1059  3.7035  0.3709
 5716SOL    HW228785   3.770   3.052   3.968  0.9642  0.1645  0.8734
 5717SOL     OW28786   1.083   0.119   5.801 -0.2516  0.7813  0.6192
 5717SOL    HW128787   1.039   0.041   5.767 -0.8055 -0.0767  3.3028
 5717SOL    HW228788   1.163   0.087   5.843  0.3723 -1.2096 -2.0785
 5718SOL     OW28789   2.595   3.496   4.777  0.4549 -0.1503 -0.1757
 5718SOL    HW128790   2.557   3.552   4.709 -1.3895 -0.8176  0.3116
 5718SOL    HW228791   2.591   3.410   4.735  0.1501 -0.6828  0.9597
 5719SOL     OW28792   3.740   4.307   3.090 -0.0527  0.3550  0.0468
 5719SOL    HW128793   3.656   4.339   3.058 -0.6743  2.0038  3.2562
 5719SOL    HW228794   3.801   4.380   3.102  0.3894 -0.4774  2.8202
 5720SOL     OW28795   4.058   0.706   5.195 -0.6531  0.4530  0.0232
 5720SOL    HW128796   4.093   0.626   5.233 -0.0068 -0.1619 -1.8785
 5720SOL    HW228797   4.037   0.674   5.108 -0.0328 -0.6408  0.2753
 5721SOL     OW28798   0.148   1.287   8.759  0.4728 -0.7317  0.2548
 5721SOL    HW128799   0.091   1.332   8.696  0.6922  0.3794  0.8428
 5721SOL    HW228800   0.096   1.225   8.810 -0.5698  1.1329  1.4501
 5722SOL     OW28801   2.409   4.235   5.620 -0.3135  0.5247  0.0762
 5722SOL    HW128802   2.497   4.213   5.590 -1.5031 -0.9239 -2.3886
 5722SOL    HW228803   2.415   4.188   5.704  0.3701 -0.3448 -0.4479
 5723SOL     OW28804   4.265   0.571   6.128  0.0121  0.0989  0.2685
 5723SOL    HW128805   4.189   0.621   6.102  0.4683 -0.5559 -2.2883
 5723SOL    HW228806   4.235   0.484   6.100 -1.1330  0.3559  0.7122
 5724SOL     OW28807   1.456   4.199   4.696 -0.5724  0.2123 -0.2118
 5724SOL    HW128808   1.507   4.194   4.615 -0.1848  2.5708 -0.1045
 5724SOL    HW228809   1.473   4.288   4.727  0.6958 -0.0284 -0.2008
 5725SOL     OW28810   4.128   0.463  17.346 -0.1196 -0.3319  0.2442
 5725SOL    HW128811   4.087   0.378  17.360 -0.6359  0.0555  1.0753
 5725SOL    HW228812   4.163   0.458  17.257  0.6225 -1.8650  0.6290
 5726SOL     OW28813   1.520   3.377   7.420  0.2440  0.3905  0.0306
 5726SOL    HW128814   1.541   3.286   7.441 -0.7576  0.7892  2.8255
 5726SOL    HW228815   1.530   3.421   7.505 -1.7651 -0.3602  0.6534
 5727SOL     OW28816   1.902   3.509   4.868  0.2698  0.2931 -0.1383
 5727SOL    HW128817   1.957   3.491   4.792  0.8643 -0.4653  0.4725
 5727SOL    HW228818   1.941   3.444   4.926 -0.1711 -1.3638 -1.7005
 5728SOL     OW28819   2.788   2.964   2.479  0.0130  0.0131  0.3716
 5728SOL    HW128820   2.731   2.917   2.418  1.7277 -2.6284  0.7734
 5728SOL    HW228821   2.764   2.920   2.561  1.7188 -1.1499  0.2436
 5729SOL     OW28822   3.269   2.365  15.970  0.2295 -0.9740 -0.1177
 5729SOL    HW128823   3.181   2.378  15.934  1.0294  0.2286 -1.6873
 5729SOL    HW228824   3.264   2.381  16.064 -1.2816  0.0482 -0.3697
 5730SOL     OW28825   2.039   0.474   5.511 -0.1300  0.6481  0.0818
 5730SOL    HW128826   1.970   0.536   5.487  0.6405  2.4248  2.4777
 5730SOL    HW228827   2.088   0.536   5.566  1.7012  0.8918 -1.8308
 5731SOL     OW28828   2.117   3.483  10.957 -0.9434  0.0883  0.1676
 5731SOL    HW128829   2.165   3.539  10.896 -0.1174 -1.7928 -0.9299
 5731SOL    HW228830   2.164   3.488  11.040 -2.4970 -0.4355  1.0776
 5732SOL     OW28831   4.269   1.019   5.705 -0.0386  0.2258  0.6810
 5732SOL    HW128832   4.327   1.056   5.771  0.6172 -1.6910  1.1832
 5732SOL    HW228833   4.256   0.929   5.735 -2.4432  0.9988  1.9202
 5733SOL     OW28834   3.506   3.781   0.431  0.4249 -0.2072 -0.3250
 5733SOL    HW128835   3.473   3.845   0.368 -0.1212 -0.1936 -0.0321
 5733SOL    HW228836   3.497   3.700   0.381 -0.3081  0.0945 -0.6801
 5734SOL     OW28837   2.171   1.253  15.345 -0.1504 -0.0893  0.2225
 5734SOL    HW128838   2.128   1.286  15.424  1.5981  1.8630  0.3389
 5734SOL    HW228839   2.098   1.207  15.304 -2.1712  1.9819  1.4650
 5735SOL     OW28840   1.321   0.721   4.897 -0.3058 -0.8343  0.3390
 5735SOL    HW128841   1.230   0.694   4.908 -1.2021  2.2127  0.4108
 5735SOL    HW228842   1.314   0.780   4.822 -0.6812  0.8158  1.6730
 5736SOL     OW28843   1.771   2.614   6.498  0.2164 -0.0202  0.0398
 5736SOL    HW128844   1.690   2.664   6.504  1.0293  1.2336  0.5895
 5736SOL    HW228845   1.823   2.657   6.565  0.4518 -1.0717  0.5379
 5737SOL     OW28846   2.496   0.916   4.584 -0.5257  0.1147 -0.5569
 5737SOL    HW128847   2.485   0.821   4.592  1.6194 -0.3065 -2.5173
 5737SOL    HW228848   2.502   0.937   4.677 -0.4640  1.1939 -0.8090
 5738SOL     OW28849   3.708   2.031   3.451  0.1250  0.0539 -0.3915
 5738SOL    HW128850   3.656   2.052   3.528 -1.1885  0.0973 -1.2948
 5738SOL    HW228851   3.640   2.037   3.384 -0.4702 -1.4744  0.0632
 5739SOL     OW28852   3.310   4.609   8.577 -0.5906  0.4413 -0.1951
 5739SOL    HW128853   3.394   4.564   8.583 -1.0964 -0.7609 -2.4115
 5739SOL    HW228854   3.323   4.685   8.634  3.3538  0.7246 -1.4201
 5740SOL     OW28855   4.374   2.711   1.845  1.1434  0.0470 -0.1763
 5740SOL    HW128856   4.424   2.633   1.871  1.5918  0.5985  0.6443
 5740SOL    HW228857   4.360   2.697   1.752 -0.0626 -1.8417  0.2910
 5741SOL     OW28858   4.186   0.793   8.497 -0.1798  0.0967 -0.1379
 5741SOL    HW128859   4.198   0.753   8.583  1.0681  2.4462  0.7994
 5741SOL    HW228860   4.101   0.756   8.474 -0.7327  1.6265 -0.5429
 5742SOL     OW28861   2.025   0.643   4.361 -0.1678 -0.4311 -0.1027
 5742SOL    HW128862   1.975   0.725   4.356 -0.5228 -0.5630  1.3128
 5742SOL    HW228863   2.084   0.668   4.432  0.8869 -1.1642 -0.7367
 5743SOL     OW28864   2.097   3.131  15.215  0.2348 -0.8862  0.4562
 5743SOL    HW128865   2.047   3.083  15.149  0.5640  0.4682 -0.7689
 5743SOL    HW228866   2.039   3.131  15.292  1.2793 -2.4711  1.2349
 5744SOL     OW28867   3.679   2.294   1.078  0.0604 -0.2356  0.2113
 5744SOL    HW128868   3.756   2.311   1.131 -0.2256 -0.2385  0.6282
 5744SOL    HW228869   3.676   2.200   1.097  0.0704 -0.2696  0.0503
 5745SOL     OW28870   2.659   3.335   4.149 -0.5695  0.3411 -0.0350
 5745SOL    HW128871   2.711   3.255   4.148  0.6961  1.1807 -1.5164
 5745SOL    HW228872   2.719   3.401   4.182  2.0510 -2.3475  0.5546
 5746SOL     OW28873   0.641   3.040   2.320  0.1520 -0.0410  0.2380
 5746SOL    HW128874   0.619   2.966   2.264  1.9838  0.7109 -1.4438
 5746SOL    HW228875   0.600   3.110   2.269  2.4161  1.0835 -0.0473
 5747SOL     OW28876   0.018   2.753   6.634  0.2889  0.0014  0.2444
 5747SOL    HW128877   0.057   2.731   6.550  1.3494 -2.0959  1.2890
 5747SOL    HW228878   4.734   2.845   6.618 -0.3268  0.0503  1.3245
 5748SOL     OW28879   3.273   4.565  13.466  0.5291  0.3962 -0.3556
 5748SOL    HW128880   3.345   4.616  13.429 -0.6656  0.4431 -2.6144
 5748SOL    HW228881   3.244   4.539  13.378  0.5759  1.4106 -0.6804
 5749SOL     OW28882   3.559   1.584   5.363  0.3617 -0.0037 -0.3404
 5749SOL    HW128883   3.538   1.627   5.446 -0.9593 -2.6365  0.6880
 5749SOL    HW228884   3.591   1.499   5.393 -2.1618 -1.3534 -1.4311
 5750SOL     OW28885   2.093   0.675   1.675 -0.2366  0.2926 -0.2381
 5750SOL    HW128886   2.110   0.769   1.683  0.7472  0.0263  0.8959
 5750SOL    HW228887   2.000   0.668   1.697 -0.3640  0.2377 -0.7957
 5751SOL     OW28888   1.748   4.469   4.904  0.1337  0.5472  0.4473
 5751SOL    HW128889   1.761   4.563   4.902 -0.2014  0.6575  3.1172
 5751SOL    HW228890   1.710   4.453   4.990  1.5309  1.9401  1.3234
 5752SOL     OW28891   3.634   3.733   4.861  0.1436  0.2187 -0.7557
 5752SOL    HW128892   3.724   3.726   4.891  0.2500  0.8652 -0.9288
 5752SOL    HW228893   3.621   3.827   4.868 -2.1267 -0.2099  0.9814
 5753SOL     OW28894   4.421   4.324   6.885 -0.2312 -0.1122 -0.5532
 5753SOL    HW128895   4.380   4.281   6.811 -4.9564  0.5603  1.6893
 5753SOL    HW228896   4.422   4.255   6.952  0.4988 -0.1454 -0.6019
 5754SOL     OW28897   2.911   4.365   5.530  0.5470 -0.4334  0.2426
 5754SOL    HW128898   2.876   4.414   5.604 -1.6856 -0.6495 -0.6679
 5754SOL    HW228899   2.881   4.275   5.546  0.2517 -0.4547 -0.4183
 5755SOL     OW28900   1.200   0.901  12.886  0.0574 -0.9900 -0.0976
 5755SOL    HW128901   1.115   0.940  12.870  0.1158 -1.7906 -2.3329
 5755SOL    HW228902   1.263   0.955  12.839  0.1661 -0.8066  0.2560
 5756SOL     OW28903   3.851   4.207  15.117 -0.5383 -0.8356  0.5419
 5756SOL    HW128904   3.940   4.232  15.094 -0.8960  2.2835  2.5323
 5756SOL    HW228905   3.869   4.131  15.173  2.1861 -0.4332  0.1855
 5757SOL     OW28906   1.265   2.746  10.384  0.4333 -0.4233  0.3953
 5757SOL    HW128907   1.358   2.732  10.367  0.1394 -1.5653 -0.2662
 5757SOL    HW228908   1.261   2.836  10.352 -1.0982 -0.6044  0.0681
 5758SOL     OW28909   0.417   0.528   7.357 -0.1858 -0.0742 -0.1308
 5758SOL    HW128910   0.328   0.527   7.391 -0.3687  0.7134 -0.5853
 5758SOL    HW228911   0.413   0.466   7.284  1.9863 -0.8535  0.3918
 5759SOL     OW28912   4.301   1.639   1.146  0.2786  0.3164  0.5473
 5759SOL    HW128913   4.372   1.676   1.095 -0.0838  1.0899  0.6086
 5759SOL    HW228914   4.306   1.546   1.126  2.2765  1.2168 -3.0379
 5760SOL     OW28915   2.146   3.900   1.675 -0.2279 -0.6786 -0.3887
 5760SOL    HW128916   2.099   3.820   1.699  1.8421 -3.2051 -4.8071
 5760SOL    HW228917   2.223   3.889   1.731  0.7655 -1.0397 -1.8508
 5761SOL     OW28918   3.035   0.547   1.611 -0.4182 -0.4837 -0.7835
 5761SOL    HW128919   3.106   0.484   1.604  0.2484  0.3198 -1.1321
 5761SOL    HW228920   3.050   0.587   1.697 -3.6001  0.3647 -0.5870
 5762SOL     OW28921   2.602   0.313  12.708  0.1684  0.4157  0.5473
 5762SOL    HW128922   2.628   0.405  12.711  0.9697  0.3059 -2.5199
 5762SOL    HW228923   2.507   0.313  12.722 -0.2538 -0.1229 -2.1364
 5763SOL     OW28924   3.269   3.739   5.314 -0.0485  0.1618 -0.9572
 5763SOL    HW128925   3.299   3.829   5.309 -0.4902  0.3077 -1.0495
 5763SOL    HW228926   3.173   3.746   5.317 -0.0139  0.1568  0.0086
 5764SOL     OW28927   1.856   4.470   7.913 -0.6682 -0.2664  0.3056
 5764SOL    HW128928   1.881   4.399   7.854  0.8252 -1.7422  2.7005
 5764SOL    HW228929   1.876   4.424   7.995  1.1344  0.2036  0.1326
 5765SOL     OW28930   0.576   4.356   4.884  0.0363  0.3298 -0.1250
 5765SOL    HW128931   0.493   4.404   4.888 -1.1860 -1.8612  0.5703
 5765SOL    HW228932   0.626   4.436   4.866 -0.0321 -0.0940 -2.2661
 5766SOL     OW28933   3.413   0.167   7.794 -0.8586  0.0939 -0.2087
 5766SOL    HW128934   3.491   0.218   7.774  0.1921 -0.5167  2.3061
 5766SOL    HW228935   3.404   0.185   7.888 -2.1766 -2.1327  0.0900
 5767SOL     OW28936   1.945   3.853  15.416 -0.2455  0.1031 -0.2037
 5767SOL    HW128937   1.942   3.758  15.415 -1.3879  0.1173  1.4515
 5767SOL    HW228938   2.010   3.879  15.351  1.3195 -2.5492  0.3249
 5768SOL     OW28939   1.300   3.628   0.296  0.5407  0.1510  0.0159
 5768SOL    HW128940   1.329   3.544   0.260 -0.0062  1.2730 -3.0801
 5768SOL    HW228941   1.235   3.657   0.232  0.9584  2.6945  0.7369
 5769SOL     OW28942   4.370   2.346   4.148  0.1820  0.0749  0.0299
 5769SOL    HW128943   4.330   2.260   4.165 -0.1800  0.9751  3.6848
 5769SOL    HW228944   4.300   2.385   4.095 -0.5030  0.5323  1.2664
 5770SOL     OW28945   2.757   1.829   8.369  0.5852 -0.9329  0.3273
 5770SOL    HW128946   2.811   1.756   8.397  1.5250 -0.3359  0.0527
 5770SOL    HW228947   2.768   1.891   8.440 -1.8785 -0.6283  0.4672
 5771SOL     OW28948   3.625   4.568  14.468 -0.5478 -0.0240  0.2289
 5771SOL    HW128949   3.688   4.582  14.397 -0.7219 -2.2242 -0.3757
 5771SOL    HW228950   3.575   4.492  14.437 -1.1639 -0.0660  1.3456
 5772SOL     OW28951   3.773   2.472  10.305 -0.0035 -0.1287  0.3549
 5772SOL    HW128952   3.786   2.386  10.265 -0.8781  1.1774 -2.7580
 5772SOL    HW228953   3.862   2.492  10.334  1.2173 -1.4302 -2.3898
 5773SOL     OW28954   4.251   2.674   5.398  0.0918  0.5014  0.2978
 5773SOL    HW128955   4.327   2.725   5.371  1.1452 -0.6211  1.1830
 5773SOL    HW228956   4.188   2.737   5.433  1.1669  1.0606  1.2114
 5774SOL     OW28957   2.947   4.258   4.530 -0.1470 -0.2761 -0.7755
 5774SOL    HW128958   2.960   4.344   4.571  0.7320 -1.5009  1.5070
 5774SOL    HW228959   2.871   4.231   4.580 -0.1849  0.8068 -0.2549
 5775SOL     OW28960   3.966   1.658   1.737 -0.1933  0.6235 -0.1543
 5775SOL    HW128961   4.025   1.640   1.810 -1.0954  1.6749  0.8340
 5775SOL    HW228962   3.942   1.748   1.762 -1.3102  0.0265  0.9293
 5776SOL     OW28963   4.588   3.434   0.858  0.3915  0.4689  0.0247
 5776SOL    HW128964   4.550   3.432   0.770  0.7697 -0.7674 -0.1074
 5776SOL    HW228965   4.580   3.348   0.900  2.0593  0.3435  0.0712
 5777SOL     OW28966   0.295   4.701   6.938  0.2419 -0.0700 -0.3425
 5777SOL    HW128967   0.333   4.634   6.881 -1.1431 -0.7289 -0.4803
 5777SOL    HW228968   0.276   4.644   7.013  2.0524  1.5034  1.3245
 5778SOL     OW28969   2.432   0.097   5.060  0.5025 -0.1925 -0.3811
 5778SOL    HW128970   2.336   0.099   5.063  0.5249  2.7848 -2.2034
 5778SOL    HW228971   2.465   0.060   5.142  0.8327 -0.6924 -0.7390
 5779SOL     OW28972   1.209   4.499  13.409  0.0832 -0.1513  0.3237
 5779SOL    HW128973   1.240   4.586  13.433 -0.2498  0.7005 -2.3706
 5779SOL    HW228974   1.287   4.445  13.426  0.2422  0.1013  0.3980
 5780SOL     OW28975   0.724   2.449   3.365  0.8092 -0.3132 -0.5603
 5780SOL    HW128976   0.713   2.367   3.317  0.4628 -0.2179 -0.6494
 5780SOL    HW228977   0.720   2.419   3.456 -1.6109  1.1741 -0.1536
 5781SOL     OW28978   2.690   0.596   6.585 -0.0131 -0.6453 -0.1364
 5781SOL    HW128979   2.762   0.533   6.581  0.9801  0.4484  0.7714
 5781SOL    HW228980   2.723   0.644   6.509  0.4980 -1.4353 -0.4201
 5782SOL     OW28981   0.290   3.656   7.889 -0.3007  0.1687 -0.7083
 5782SOL    HW128982   0.371   3.605   7.884  0.9586  2.3271 -2.4419
 5782SOL    HW228983   0.299   3.715   7.814 -0.3841  1.6812  0.4851
 5783SOL     OW28984   2.285   0.638   8.660 -0.0626 -0.3888 -0.1081
 5783SOL    HW128985   2.291   0.619   8.753  1.4773 -0.7121 -0.2790
 5783SOL    HW228986   2.358   0.696   8.640 -0.6467  0.6345  0.7605
 5784SOL     OW28987   1.693   0.024   9.546  0.1392  0.2193 -0.1518
 5784SOL    HW128988   1.786   0.008   9.560  0.2530  1.7644  0.7893
 5784SOL    HW228989   1.708   0.115   9.524 -2.8462  0.6414 -0.5171
 5785SOL     OW28990   3.443   4.623   2.239 -0.5498  0.2137 -0.0072
 5785SOL    HW128991   3.438   4.542   2.291 -0.2820 -0.0758 -0.4305
 5785SOL    HW228992   3.538   4.633   2.234 -0.2642 -2.8335 -1.1199
 5786SOL     OW28993   4.725   1.822   2.582  0.2599  0.5392  0.3794
 5786SOL    HW128994   4.657   1.763   2.613 -1.2434  1.0663 -1.9457
 5786SOL    HW228995   4.679   1.903   2.560  1.6148  1.8987  2.5285
 5787SOL     OW28996   3.201   0.619   2.339  0.0401 -0.1951 -0.0352
 5787SOL    HW128997   3.272   0.663   2.384  0.2016  0.3240 -0.7933
 5787SOL    HW228998   3.199   0.528   2.368  1.0468 -0.2914 -0.2880
 5788SOL     OW28999   3.658   1.113   5.332 -0.0754 -0.0309  0.2309
 5788SOL    HW129000   3.708   1.032   5.340  0.6135  0.3816  0.1197
 5788SOL    HW229001   3.669   1.123   5.238 -1.2416  1.7004  0.2723
 5789SOL     OW29002   2.818   2.228  17.548 -0.4620  0.6291  0.5954
 5789SOL    HW129003   2.882   2.293  17.519  0.7787 -1.3457 -1.0975
 5789SOL    HW229004   2.856   2.197  17.630 -0.5851 -4.1141 -1.0985
 5790SOL     OW29005   3.943   1.930  13.929  0.2021  0.0562 -0.0834
 5790SOL    HW129006   4.004   1.881  13.983  0.0180  0.1034  0.1696
 5790SOL    HW229007   3.878   1.868  13.896  1.6781 -0.7675 -1.4467
 5791SOL     OW29008   2.435   1.452   9.649  0.4121  0.0700  0.3598
 5791SOL    HW129009   2.478   1.369   9.670 -3.5939 -1.4232  2.7500
 5791SOL    HW229010   2.512   1.497   9.614 -1.5645  2.0902 -1.4047
 5792SOL     OW29011   2.540   1.288   8.327  0.2202  0.3910  0.0596
 5792SOL    HW129012   2.577   1.204   8.355 -0.6641 -0.2021 -0.5681
 5792SOL    HW229013   2.625   1.320   8.295 -0.0793  1.9137  0.7943
 5793SOL     OW29014   4.722   3.794  17.546  0.0951 -0.2438  0.6580
 5793SOL    HW129015   4.714   3.795  17.642  0.8383 -1.6072  0.7354
 5793SOL    HW229016   4.646   3.745  17.516 -0.5559  0.0180  1.8579
 5794SOL     OW29017   2.561   4.005   6.824 -0.2414 -1.1774 -0.3954
 5794SOL    HW129018   2.547   4.098   6.808  1.1792 -1.1298 -1.3980
 5794SOL    HW229019   2.492   3.978   6.885  1.4126 -2.2430  0.9961
 5795SOL     OW29020   4.713   0.336   4.623  0.3292  0.8240 -0.4585
 5795SOL    HW129021   4.668   0.376   4.549  2.6352  1.6691 -1.3939
 5795SOL    HW229022   4.650   0.349   4.694 -0.0783  0.2287 -0.7144
 5796SOL     OW29023   2.022   4.419   6.117  0.0239  0.0139  0.1688
 5796SOL    HW129024   1.955   4.357   6.088  0.6209 -1.1803  1.3680
 5796SOL    HW229025   2.079   4.410   6.041  0.2825  0.7373  0.2775
 5797SOL     OW29026   3.604   0.136   4.856  0.6283 -0.1130 -0.5157
 5797SOL    HW129027   3.561   0.055   4.828  0.4900  0.1623 -1.0994
 5797SOL    HW229028   3.669   0.104   4.918 -0.2873  2.0612  1.5705
 5798SOL     OW29029   4.178   4.354   5.922  0.1254 -0.4075  0.1615
 5798SOL    HW129030   4.120   4.315   5.987 -1.7494  1.5359 -0.3579
 5798SOL    HW229031   4.123   4.418   5.876 -0.5273 -1.1331 -0.0575
 5799SOL     OW29032   0.302   1.878  13.070  0.1371 -0.1043  0.0095
 5799SOL    HW129033   0.336   1.857  13.157  2.1273 -1.5954 -1.1181
 5799SOL    HW229034   0.302   1.786  13.045  0.8626 -0.0332 -0.2532
 5800SOL     OW29035   3.854   2.795   5.290 -0.1149 -0.5425  0.0228
 5800SOL    HW129036   3.816   2.833   5.211  0.8468  0.7533  0.1793
 5800SOL    HW229037   3.884   2.709   5.260  2.2797  0.0772  0.6123
 5801SOL     OW29038   0.084   1.528   0.046 -0.3448  0.1828 -0.1959
 5801SOL    HW129039   0.080   1.525  17.700  0.4770 -2.2459 -0.1700
 5801SOL    HW229040   0.073   1.433   0.056 -1.1570  0.2342 -0.6999
 5802SOL     OW29041   4.609   2.163  10.790 -0.1858  0.1578 -0.8941
 5802SOL    HW129042   4.569   2.210  10.717  2.0773 -0.2019 -2.3376
 5802SOL    HW229043   4.583   2.223  10.860  3.6587  1.0254 -0.2257
 5803SOL     OW29044   3.990   0.265   1.656  0.5809 -0.3903 -0.3849
 5803SOL    HW129045   4.026   0.303   1.576  2.5814 -0.8376  0.2828
 5803SOL    HW229046   3.895   0.272   1.645  0.4084  1.9226  2.3803
 5804SOL     OW29047   4.227   3.243   3.249 -0.1684 -0.0638 -0.4834
 5804SOL    HW129048   4.284   3.271   3.178 -0.3020 -0.4109 -0.7235
 5804SOL    HW229049   4.202   3.155   3.221 -2.8225  0.5793 -0.2256
 5805SOL     OW29050   1.318   0.500   8.739  0.2987 -0.3977  0.6734
 5805SOL    HW129051   1.407   0.488   8.772  0.4511 -1.8827 -0.2616
 5805SOL    HW229052   1.343   0.519   8.649 -1.7396 -1.5442 -0.1243
 5806SOL     OW29053   1.744   0.383   6.526  0.1605 -0.2446 -0.0976
 5806SOL    HW129054   1.835   0.399   6.500 -0.1059  0.1156 -0.8115
 5806SOL    HW229055   1.760   0.318   6.594 -0.0715 -1.2452 -1.0202
 5807SOL     OW29056   2.005   1.574   4.580 -0.9795 -1.0124  0.1015
 5807SOL    HW129057   1.963   1.488   4.584 -0.8897 -1.0508  0.1882
 5807SOL    HW229058   1.993   1.601   4.671  2.4559 -0.3228  0.3337
 5808SOL     OW29059   2.587   0.516   8.203  0.3709 -0.1245  0.0127
 5808SOL    HW129060   2.659   0.490   8.260  1.0409  1.0355 -0.3023
 5808SOL    HW229061   2.529   0.440   8.199  0.2262 -0.0686  0.9856
 5809SOL     OW29062   3.568   4.508   1.946 -0.7712  0.0189  0.2958
 5809SOL    HW129063   3.608   4.595   1.955  0.6814 -0.5659 -0.3836
 5809SOL    HW229064   3.624   4.475   1.875 -1.0823  1.9169 -0.8253
 5810SOL     OW29065   2.790   0.889   5.267 -0.0964  0.0870  0.2230
 5810SOL    HW129066   2.874   0.908   5.225 -1.2899 -1.3798 -2.8206
 5810SOL    HW229067   2.828   0.824   5.326  0.7211  1.2676  0.9929
 5811SOL     OW29068   4.160   2.468   2.234  0.4142  0.3017 -0.4854
 5811SOL    HW129069   4.128   2.378   2.236  1.2347  0.0457  1.1156
 5811SOL    HW229070   4.155   2.495   2.142 -1.9048 -1.9928 -1.0238
 5812SOL     OW29071   1.723   1.589   0.381  0.0108  0.5286 -0.6357
 5812SOL    HW129072   1.781   1.664   0.385  0.1100  0.4458 -0.5100
 5812SOL    HW229073   1.776   1.538   0.319  0.7440 -2.9244  2.7608
 5813SOL     OW29074   3.520   1.777  10.866  0.2733  0.1940 -0.2577
 5813SOL    HW129075   3.504   1.764  10.960  0.8383  1.0172 -0.0527
 5813SOL    HW229076   3.565   1.696  10.840 -0.0833 -0.0162 -0.2276
 5814SOL     OW29077   0.558   3.444   9.317 -0.5305  0.5104  0.2650
 5814SOL    HW129078   0.606   3.441   9.234 -0.6375 -1.5720  0.2992
 5814SOL    HW229079   0.621   3.489   9.373 -1.6879  0.8278  1.3275
 5815SOL     OW29080   2.949   0.517   9.223 -0.1922  0.1399 -0.3619
 5815SOL    HW129081   3.044   0.526   9.226 -0.2014  0.4835 -1.0189
 5815SOL    HW229082   2.926   0.455   9.292 -0.8287 -0.4363 -1.0762
 5816SOL     OW29083   1.738   0.141   8.472 -0.5834 -0.0170 -0.6983
 5816SOL    HW129084   1.814   0.126   8.415 -0.9135 -1.0005 -0.8790
 5816SOL    HW229085   1.771   0.195   8.544 -0.7452 -2.2610  1.0379
 5817SOL     OW29086   2.007   2.372   5.875  0.3121  0.0822  0.0856
 5817SOL    HW129087   1.929   2.416   5.843  1.2340  1.1600 -0.6431
 5817SOL    HW229088   2.036   2.438   5.938  1.1186  1.2661 -1.5388
 5818SOL     OW29089   4.209   4.630   1.450 -0.2319  0.1220 -0.1871
 5818SOL    HW129090   4.207   4.553   1.393 -1.0036 -1.1577  1.5526
 5818SOL    HW229091   4.199   4.701   1.387 -1.1582  1.1663  1.1476
 5819SOL     OW29092   2.307   0.214  11.266 -0.4481 -0.1326  0.1018
 5819SOL    HW129093   2.249   0.236  11.340 -2.4049  0.4975 -1.6130
 5819SOL    HW229094   2.297   0.119  11.266 -0.1175 -0.1692  0.8911
 5820SOL     OW29095   3.323   1.914   1.158 -0.0892 -0.3055  0.2354
 5820SOL    HW129096   3.403   1.877   1.122 -0.3058  0.2326 -0.8205
 5820SOL    HW229097   3.278   1.833   1.181 -0.8700 -0.2578 -1.1163
 5821SOL     OW29098   0.786   2.275   6.083 -0.6898  0.7264  0.6766
 5821SOL    HW129099   0.771   2.362   6.046 -1.3816  0.1040 -0.5318
 5821SOL    HW229100   0.830   2.301   6.163  0.3508  3.0063 -0.6611
 5822SOL     OW29101   0.840   4.575   8.551 -0.2943 -0.7358 -0.0359
 5822SOL    HW129102   0.849   4.567   8.456 -0.0095  0.3348 -0.0940
 5822SOL    HW229103   0.897   4.651   8.561 -0.2194 -0.8652  0.5095
 5823SOL     OW29104   3.178   0.851   1.179  0.1224  0.1729 -0.3214
 5823SOL    HW129105   3.199   0.789   1.248  2.4203  2.0419  0.6514
 5823SOL    HW229106   3.267   0.870   1.151  0.2372 -1.1736 -0.8633
 5824SOL     OW29107   2.752   4.403   5.742 -0.3489  0.5855  0.3247
 5824SOL    HW129108   2.682   4.428   5.681 -0.4237 -0.8758 -0.1994
 5824SOL    HW229109   2.718   4.322   5.779 -0.7765  0.4289 -0.3970
 5825SOL     OW29110   1.529   0.808   7.434  0.1500  0.0888 -0.5582
 5825SOL    HW129111   1.551   0.857   7.514  1.7254 -0.0164 -0.9122
 5825SOL    HW229112   1.616   0.775   7.411 -0.2780  1.2965 -3.8790
 5826SOL     OW29113   3.426   2.761   9.986  0.0543 -0.5274 -0.9033
 5826SOL    HW129114   3.351   2.799  10.031  0.5381  1.7827 -2.0245
 5826SOL    HW229115   3.454   2.682  10.033  0.1106 -0.7460 -1.3060
 5827SOL     OW29116   0.205   2.379  12.374  0.0705 -0.1528  0.1693
 5827SOL    HW129117   0.272   2.360  12.439 -0.0063 -0.2953  0.2085
 5827SOL    HW229118   0.132   2.324  12.404  0.0596 -0.1793  0.0955
 5828SOL     OW29119   2.395   1.807   5.214 -0.0724 -0.5420  0.2196
 5828SOL    HW129120   2.450   1.804   5.136  0.0555  1.2731  0.2363
 5828SOL    HW229121   2.425   1.882   5.266 -1.4524  0.3274 -0.2434
 5829SOL     OW29122   0.829   3.624   7.193 -0.1937  0.0439  0.0399
 5829SOL    HW129123   0.765   3.650   7.126  2.3929  1.7514 -1.7720
 5829SOL    HW229124   0.838   3.532   7.168 -1.3577  0.3894 -1.6591
 5830SOL     OW29125   0.770   2.005  10.362 -0.1739 -0.2042 -0.3249
 5830SOL    HW129126   0.841   2.006  10.426  0.5630 -1.1096 -1.1346
 5830SOL    HW229127   0.747   1.912  10.373  1.9487 -0.4923  1.6664
 5831SOL     OW29128   2.425   1.353   4.062 -0.2178  0.1595  0.5444
 5831SOL    HW129129   2.369   1.393   3.996 -0.9092 -0.1068  0.9684
 5831SOL    HW229130   2.366   1.367   4.136  0.9174 -1.1350  1.7165
 5832SOL     OW29131   3.823   3.179   5.843 -0.5426 -0.6017  0.3730
 5832SOL    HW129132   3.752   3.128   5.883  0.8791 -1.0120  2.3837
 5832SOL    HW229133   3.869   3.104   5.804  1.6789 -0.2587  2.3221
 5833SOL     OW29134   0.521   2.329   3.850  0.1199 -0.1519  0.2850
 5833SOL    HW129135   0.579   2.254   3.857 -1.4339 -1.4174 -0.5512
 5833SOL    HW229136   0.568   2.403   3.889  1.4587 -0.4299 -0.8106
 5834SOL     OW29137   4.361   3.160   7.327  0.4898 -0.0503  0.5579
 5834SOL    HW129138   4.389   3.196   7.243 -0.2715 -1.5275 -0.3180
 5834SOL    HW229139   4.307   3.087   7.299  2.9998 -0.8688 -2.1084
 5835SOL     OW29140   4.166   1.787   6.383  0.1652  0.3072 -0.2966
 5835SOL    HW129141   4.130   1.864   6.427 -0.6485 -0.9004  1.1509
 5835SOL    HW229142   4.236   1.768   6.446  1.2298 -2.3498 -2.3039
 5836SOL     OW29143   2.396   2.047   9.277  0.0996  0.2460 -0.3527
 5836SOL    HW129144   2.455   2.090   9.215  0.8943 -1.3051 -0.6785
 5836SOL    HW229145   2.405   2.112   9.346 -1.0245 -0.8543  0.8294
 5837SOL     OW29146   2.176   2.015   7.957 -0.0099  0.4483  0.1675
 5837SOL    HW129147   2.246   2.060   7.911  0.5451  0.2141  0.7800
 5837SOL    HW229148   2.239   1.984   8.021 -2.0275 -1.5465  1.1878
 5838SOL     OW29149   2.895   4.641   2.514  0.2530  0.3835 -0.4208
 5838SOL    HW129150   2.970   4.586   2.538 -0.7892  0.6545  3.4646
 5838SOL    HW229151   2.879   4.606   2.426  0.7865  0.1808 -0.4366
 5839SOL     OW29152   2.099   0.341   5.075  0.1634  0.2030  0.1214
 5839SOL    HW129153   2.035   0.344   5.004  1.4871 -0.4303 -1.1003
 5839SOL    HW229154   2.084   0.434   5.093 -2.5573 -0.3545  0.6247
 5840SOL     OW29155   4.442   3.782   8.696  0.0997 -0.1361  0.2457
 5840SOL    HW129156   4.499   3.757   8.769  2.0883  1.2866 -0.8242
 5840SOL    HW229157   4.355   3.801   8.731 -0.3584  0.0392 -0.9952
 5841SOL     OW29158   2.062   1.961   6.122  0.1261 -0.1918  0.3045
 5841SOL    HW129159   2.043   1.974   6.215  0.5994 -1.9404  0.6600
 5841SOL    HW229160   2.137   1.904   6.141  0.6170  0.7284  1.0987
 5842SOL     OW29161   0.709   0.777   6.111  0.0848  0.4406 -0.5747
 5842SOL    HW129162   0.799   0.792   6.080  0.6101 -0.0110  0.7042
 5842SOL    HW229163   0.691   0.855   6.164 -3.5557 -0.3978 -0.6447
 5843SOL     OW29164   3.362   3.696  11.729  0.1125  0.2503 -0.5886
 5843SOL    HW129165   3.298   3.631  11.758  0.7467 -0.7916 -1.5132
 5843SOL    HW229166   3.307   3.772  11.710 -0.9099 -0.3226  0.0151
 5844SOL     OW29167   4.472   0.742   5.928 -0.1051  0.5120 -0.1482
 5844SOL    HW129168   4.387   0.785   5.925 -0.5112 -0.3371 -0.5781
 5844SOL    HW229169   4.507   0.767   6.014  1.9968  0.2771 -0.9297
 5845SOL     OW29170   4.181   0.123   2.291  0.5007  0.8989  0.4104
 5845SOL    HW129171   4.260   0.071   2.273  0.3999  0.4205  1.3359
 5845SOL    HW229172   4.146   0.074   2.366 -0.1504  0.1274 -0.4020
 5846SOL     OW29173   2.039   1.377   5.597 -0.9142 -0.4258  0.1627
 5846SOL    HW129174   1.968   1.314   5.613 -0.5000 -0.6368  1.1470
 5846SOL    HW229175   2.013   1.406   5.510 -0.8908  0.8167  0.5809
 5847SOL     OW29176   0.500   3.865  15.188 -0.2783 -0.0887 -0.1657
 5847SOL    HW129177   0.489   3.915  15.107  0.0088  0.4296  0.1169
 5847SOL    HW229178   0.410   3.855  15.219 -0.2623 -0.6358 -0.3033
 5848SOL     OW29179   1.465   0.023   6.253 -0.5328 -0.3820  0.5091
 5848SOL    HW129180   1.423   0.103   6.222  1.2815  0.8018  1.0677
 5848SOL    HW229181   1.548   0.051   6.292  0.3116 -0.3936 -1.3063
 5849SOL     OW29182   0.552   2.491  10.629 -0.2214 -0.2143 -0.1849
 5849SOL    HW129183   0.480   2.538  10.586  1.1725  3.3792  1.4080
 5849SOL    HW229184   0.529   2.400  10.615 -0.1551 -0.4772  1.3924
 5850SOL     OW29185   0.751   4.618   5.647  0.7547  0.8332 -0.1037
 5850SOL    HW129186   0.671   4.662   5.674 -0.6092 -3.1801  2.3780
 5850SOL    HW229187   0.730   4.524   5.644  0.9315  0.8496 -1.9716
 5851SOL     OW29188   3.827   1.610  13.934  0.0183  0.7705  0.1784
 5851SOL    HW129189   3.796   1.619  14.024 -0.3378  4.4427 -0.3179
 5851SOL    HW229190   3.754   1.640  13.881  0.7355  0.7115 -0.8360
 5852SOL     OW29191   1.877   0.304  11.497 -0.9692  0.3057 -0.1100
 5852SOL    HW129192   1.883   0.261  11.412 -0.8634 -1.9703  1.0298
 5852SOL    HW229193   1.865   0.396  11.476 -1.7564  0.7794  2.4808
 5853SOL     OW29194   3.078   1.077  13.508 -0.4551  0.2238  1.0828
 5853SOL    HW129195   3.017   1.025  13.455  1.7847 -1.0384 -0.2170
 5853SOL    HW229196   3.158   1.068  13.457 -2.1209 -0.5131 -1.4082
 5854SOL     OW29197   2.634   2.984   2.975  0.6743  0.1598 -0.1187
 5854SOL    HW129198   2.651   2.891   2.990 -0.4222 -0.0514 -0.2133
 5854SOL    HW229199   2.564   2.975   2.911  1.0207  0.2557 -0.5137
 5855SOL     OW29200   0.250   1.526  16.989 -0.4732  0.7108  0.1764
 5855SOL    HW129201   0.313   1.598  16.987 -1.1190  1.3909  3.2555
 5855SOL    HW229202   0.287   1.479  16.914 -0.9755 -0.8700  0.9260
 5856SOL     OW29203   1.037   1.325   2.013  0.5982 -0.3134  0.1854
 5856SOL    HW129204   1.102   1.376   1.965  0.2401 -0.4872 -0.4921
 5856SOL    HW229205   1.084   1.313   2.095  0.2400  0.3440  0.4910
 5857SOL     OW29206   0.949   0.119   8.860 -0.0556 -0.6245  0.4590
 5857SOL    HW129207   1.023   0.140   8.917 -0.6858  2.0941  0.2491
 5857SOL    HW229208   0.906   0.056   8.918 -1.7225 -0.4715 -0.6230
 5858SOL     OW29209   2.487   1.795   8.431 -0.0886  0.1027 -0.1234
 5858SOL    HW129210   2.574   1.804   8.391  0.2657  0.9800  0.8487
 5858SOL    HW229211   2.451   1.743   8.359  1.2453 -0.7435 -0.1660
 5859SOL     OW29212   0.865   4.682   7.877  0.4764 -0.2040  0.0728
 5859SOL    HW129213   0.884   4.623   7.804  1.3327  0.6374 -0.3641
 5859SOL    HW229214   0.919   0.020   7.859 -1.8857  1.4202 -0.1100
 5860SOL     OW29215   4.475   1.170   0.237  0.6630  0.0429 -0.1185
 5860SOL    HW129216   4.497   1.216   0.318  0.2401 -2.4564  1.4328
 5860SOL    HW229217   4.523   1.092   0.267 -0.6992 -0.5985  0.4177
 5861SOL     OW29218   0.574   1.934   9.232 -0.3134 -0.1731  0.4038
 5861SOL    HW129219   0.656   1.893   9.258  1.4317  3.8467  1.3079
 5861SOL    HW229220   0.569   1.909   9.140 -0.5302 -0.9921  0.6437
 5862SOL     OW29221   0.710   2.750   5.574  0.2428  0.1737  0.3975
 5862SOL    HW129222   0.735   2.684   5.509  0.3457  1.0191 -0.4215
 5862SOL    HW229223   0.630   2.704   5.601 -0.1168  1.0918  0.8716
 5863SOL     OW29224   1.107   1.918   3.487  0.7381  0.0293 -0.2581
 5863SOL    HW129225   1.128   1.946   3.576  3.1885 -0.4940 -0.6635
 5863SOL    HW229226   1.182   1.946   3.433  0.0646  0.0259 -1.2060
 5864SOL     OW29227   3.515   2.831   9.122  0.5982 -0.5305  0.2165
 5864SOL    HW129228   3.549   2.763   9.179  1.6511  1.7949  2.3842
 5864SOL    HW229229   3.593   2.862   9.077  0.2601  1.4827  0.9761
 5865SOL     OW29230   0.331   2.629   3.018  0.1093 -0.0844 -0.0909
 5865SOL    HW129231   0.412   2.604   3.062 -1.3682 -3.4622  0.7056
 5865SOL    HW229232   0.260   2.613   3.080 -0.5211 -0.0349 -0.8050
 5866SOL     OW29233   1.131   3.651  15.370 -0.9065 -0.4597 -0.7398
 5866SOL    HW129234   1.143   3.664  15.464 -1.2264 -0.2156 -0.7353
 5866SOL    HW229235   1.099   3.734  15.334  0.0628  0.0791 -0.3719
 5867SOL     OW29236   0.595   3.520   5.093 -0.4690  0.3281  0.4668
 5867SOL    HW129237   0.567   3.434   5.062  0.0083  0.2941  0.1170
 5867SOL    HW229238   0.616   3.560   5.009  1.7016  2.1729  1.8822
 5868SOL     OW29239   0.518   3.911   2.239  0.1371 -0.1680 -0.4665
 5868SOL    HW129240   0.455   3.860   2.188 -0.9335 -2.1579  2.8877
 5868SOL    HW229241   0.475   3.996   2.252 -2.2967 -1.5630  0.6350
 5869SOL     OW29242   4.389   1.466   5.780  0.2175 -0.8206 -0.1304
 5869SOL    HW129243   4.387   1.552   5.738 -1.2927 -0.0846  1.4195
 5869SOL    HW229244   4.299   1.463   5.815 -0.1654 -1.2002 -1.1351
 5870SOL     OW29245   2.770   1.284   5.070  0.3076  0.2283 -0.4786
 5870SOL    HW129246   2.856   1.272   5.111 -0.2767  2.0261  1.2456
 5870SOL    HW229247   2.732   1.212   5.120 -2.1496  1.0938 -1.1346
 5871SOL     OW29248   2.229   1.112   3.421 -0.1253 -0.3673  0.4166
 5871SOL    HW129249   2.167   1.184   3.428  1.5171  1.2624 -1.6995
 5871SOL    HW229250   2.197   1.066   3.499  1.0253 -3.0245 -0.7057
 5872SOL     OW29251   2.012   4.658   0.571 -0.2321  0.0330  0.0589
 5872SOL    HW129252   1.972   0.000   0.603  0.2661  0.5393 -0.5889
 5872SOL    HW229253   2.025   4.605   0.650 -3.3988 -0.2381  0.4026
 5873SOL     OW29254   0.797   3.537   8.046 -0.4658 -0.1172  0.2277
 5873SOL    HW129255   0.778   3.614   7.994  0.6986 -1.8270 -2.7133
 5873SOL    HW229256   0.814   3.577   8.131 -0.9411  2.9763 -1.1471
 5874SOL     OW29257   2.406   3.928   6.551 -0.2042 -0.2810  0.1578
 5874SOL    HW129258   2.325   3.926   6.499  0.1620 -0.7203 -0.3995
 5874SOL    HW229259   2.371   3.936   6.640 -1.5204  1.5224 -0.5182
 5875SOL     OW29260   2.125   1.595   2.789  0.0523  0.3519 -0.4667
 5875SOL    HW129261   2.129   1.610   2.694  0.4930  0.9587 -0.3546
 5875SOL    HW229262   2.162   1.678   2.819  2.1291 -0.4846 -0.7131
 5876SOL     OW29263   2.697   1.488  12.235  0.1609 -0.1462 -0.3120
 5876SOL    HW129264   2.771   1.548  12.228 -0.0857  0.0909 -0.9138
 5876SOL    HW229265   2.716   1.423  12.167 -0.1814 -2.3648  1.6967
 5877SOL     OW29266   3.589   2.005   9.353  0.3803 -0.2376  0.1202
 5877SOL    HW129267   3.595   2.100   9.357  0.6676 -0.3049  1.1567
 5877SOL    HW229268   3.664   1.994   9.294  0.2171 -0.1104 -0.1121
 5878SOL     OW29269   3.870   0.059   5.569  0.2744 -0.1414 -0.2103
 5878SOL    HW129270   3.857   0.141   5.617 -1.1352 -1.9598  2.4860
 5878SOL    HW229271   3.794   0.013   5.603  0.6636 -0.7631 -0.1802
 5879SOL     OW29272   4.700   3.187   7.084  0.0624  0.5265 -0.1110
 5879SOL    HW129273   4.713   3.129   7.158  1.8232  2.9544  1.4841
 5879SOL    HW229274   4.677   3.123   7.016  0.9742 -1.3767  1.3996
 5880SOL     OW29275   2.080   3.060  13.096  0.1422  0.6408  0.2317
 5880SOL    HW129276   2.010   3.103  13.145 -1.2746 -0.9064 -0.4282
 5880SOL    HW229277   2.108   2.999  13.165  0.2321 -1.9566 -2.0884
 5881SOL     OW29278   4.070   4.294   1.933 -1.0155  0.2565  0.4320
 5881SOL    HW129279   4.140   4.314   1.995 -0.1809 -1.2763 -0.0182
 5881SOL    HW229280   4.102   4.320   1.847  2.3569 -3.8305  0.4267
 5882SOL     OW29281   2.191   0.953   4.699 -0.5196 -0.2352 -0.7512
 5882SOL    HW129282   2.205   1.047   4.708 -0.0490 -0.3457 -0.2997
 5882SOL    HW229283   2.108   0.950   4.745 -0.5763  1.5290 -0.7295
 5883SOL     OW29284   3.244   1.955  12.579 -0.6360  0.2708 -0.2251
 5883SOL    HW129285   3.328   1.991  12.606 -0.8897 -0.1044  1.0544
 5883SOL    HW229286   3.259   1.881  12.519  2.5868  1.7148 -1.1945
 5884SOL     OW29287   0.840   0.623  17.036  0.2998 -0.2433 -0.2058
 5884SOL    HW129288   0.913   0.562  17.046  0.8776  0.3559 -0.7802
 5884SOL    HW229289   0.842   0.674  16.955 -0.1538 -0.0777 -0.1085
 5885SOL     OW29290   3.902   1.682   9.178 -0.3922 -0.0463  1.0173
 5885SOL    HW129291   3.807   1.683   9.180 -0.4037 -0.4069  0.5861
 5885SOL    HW229292   3.914   1.618   9.107  0.0872  2.0668 -0.8091
 5886SOL     OW29293   3.385   1.852   3.371  0.3620 -0.2688  0.1916
 5886SOL    HW129294   3.402   1.824   3.281 -0.9835 -2.7328  0.7307
 5886SOL    HW229295   3.436   1.933   3.371  1.0162 -0.6843  0.7976
 5887SOL     OW29296   3.559   2.092   5.010  0.3878 -0.7051  0.0852
 5887SOL    HW129297   3.638   2.053   4.974 -1.1098 -3.8835  0.2446
 5887SOL    HW229298   3.579   2.092   5.103  0.0475 -2.0336  0.1518
 5888SOL     OW29299   2.165   0.591   4.775  0.0042 -0.1922  0.1954
 5888SOL    HW129300   2.210   0.674   4.756 -2.1976  1.2503  1.2777
 5888SOL    HW229301   2.152   0.596   4.869 -0.3927 -1.1138  0.1845
 5889SOL     OW29302   2.360   4.373   3.235  0.0570 -0.0051 -0.5664
 5889SOL    HW129303   2.298   4.300   3.240  1.5751 -1.3444 -1.3156
 5889SOL    HW229304   2.300   4.442   3.207 -0.4733 -0.2266  0.0159
 5890SOL     OW29305   0.692   4.630   0.807  0.1865 -0.1594  0.0858
 5890SOL    HW129306   0.676   4.724   0.813 -1.3844 -0.4182 -0.0337
 5890SOL    HW229307   0.637   4.606   0.882 -2.5902 -0.2900 -1.9859
 5891SOL     OW29308   1.247   0.441   3.931 -0.5395 -0.1269  0.0380
 5891SOL    HW129309   1.229   0.534   3.943 -3.8124 -0.4891 -2.1489
 5891SOL    HW229310   1.208   0.399   4.008  1.2835  0.0819  1.0809
 5892SOL     OW29311   3.679   2.053   1.197  0.7747 -1.0152 -0.1218
 5892SOL    HW129312   3.735   2.078   1.271  2.6204 -0.5486 -1.6602
 5892SOL    HW229313   3.594   2.076   1.234  0.4825 -3.9809  1.1111
 5893SOL     OW29314   4.026   1.177   5.739 -0.0045  0.0485 -0.2851
 5893SOL    HW129315   4.097   1.113   5.745  0.7505  0.8672 -0.3963
 5893SOL    HW229316   4.015   1.179   5.644  0.9976  0.4513 -0.3941
 5894SOL     OW29317   4.589   4.344   7.141 -0.0557  0.4432  0.1613
 5894SOL    HW129318   4.617   4.320   7.230 -1.0448 -0.5711  0.2002
 5894SOL    HW229319   4.517   4.281   7.142 -0.3443  0.7803  0.9956
 5895SOL     OW29320   0.128   4.222   4.951 -0.1196  0.3035 -0.4101
 5895SOL    HW129321   0.073   4.219   5.029 -1.1489 -6.2641 -1.3932
 5895SOL    HW229322   0.200   4.162   4.970 -0.5467  0.0559  0.4054
 5896SOL     OW29323   3.198   2.165   4.457  0.2674  0.2183  0.7451
 5896SOL    HW129324   3.223   2.225   4.387 -0.0908  2.0627  2.2057
 5896SOL    HW229325   3.272   2.176   4.517 -0.3358 -0.9207  1.6965
 5897SOL     OW29326   1.190   0.446   7.157 -0.5891  0.3752  0.5896
 5897SOL    HW129327   1.143   0.382   7.103 -0.2424  0.4115  0.2429
 5897SOL    HW229328   1.172   0.418   7.247 -0.4021  0.5455  0.6786
 5898SOL     OW29329   1.908   3.344   1.953 -0.1690  0.1931 -0.3170
 5898SOL    HW129330   1.904   3.382   2.041  1.5704  1.5603 -0.8386
 5898SOL    HW229331   1.936   3.254   1.972  1.5549  1.4966  3.3074
 5899SOL     OW29332   3.520   1.660   5.656 -0.4369 -0.2967 -0.3539
 5899SOL    HW129333   3.456   1.681   5.723  1.5241  1.1161  1.0672
 5899SOL    HW229334   3.599   1.641   5.706 -0.7337  0.6664  0.4854
 5900SOL     OW29335   3.819   3.176   0.633 -0.1797 -0.0591 -0.0407
 5900SOL    HW129336   3.909   3.168   0.602 -0.0706  0.7248  0.0548
 5900SOL    HW229337   3.768   3.136   0.563 -1.4040  1.3515  0.0330
 5901SOL     OW29338   0.088   1.667   6.672  0.4339 -0.1678 -0.4666
 5901SOL    HW129339   0.118   1.746   6.718 -0.5938  1.0337 -1.8487
 5901SOL    HW229340   0.148   1.650   6.600  0.2360 -1.3281 -0.3462
 5902SOL     OW29341   2.915   1.583   8.127 -0.0066 -0.4513 -0.0330
 5902SOL    HW129342   2.952   1.574   8.215  0.9001  2.1039 -0.1473
 5902SOL    HW229343   2.852   1.512   8.119  1.2322 -1.4757 -0.8223
 5903SOL     OW29344   3.374   2.815   4.852  0.3359  0.1546 -0.1592
 5903SOL    HW129345   3.323   2.893   4.875  1.1833  0.6653 -0.0467
 5903SOL    HW229346   3.419   2.791   4.932 -0.8163  0.8401  0.6957
 5904SOL     OW29347   3.118   4.076   6.857  0.3892  0.0842 -0.6102
 5904SOL    HW129348   3.061   4.100   6.784 -0.3547  1.6153  0.4857
 5904SOL    HW229349   3.192   4.136   6.863  0.6576 -0.4255  1.2284
 5905SOL     OW29350   1.719   1.054   2.518  0.9829  0.0928 -0.0865
 5905SOL    HW129351   1.691   1.105   2.594 -0.8956 -2.2250  0.7607
 5905SOL    HW229352   1.688   0.965   2.535 -0.8164  1.3180  3.0696
 5906SOL     OW29353   4.412   0.753  16.805 -0.1681 -0.4738 -0.1719
 5906SOL    HW129354   4.398   0.762  16.710 -0.0241  4.2186  0.2560
 5906SOL    HW229355   4.478   0.684  16.806 -1.1238 -1.3764 -0.0355
 5907SOL     OW29356   3.562   0.411   5.576  0.1685 -0.3735  0.4985
 5907SOL    HW129357   3.498   0.441   5.641 -0.4932  1.4015 -0.9897
 5907SOL    HW229358   3.606   0.340   5.624 -1.1815 -0.5780  1.4527
 5908SOL     OW29359   2.026   0.915   7.056 -0.3420 -0.1815  0.6014
 5908SOL    HW129360   2.027   0.920   6.960 -1.5975 -1.6516  0.5235
 5908SOL    HW229361   2.014   0.822   7.075 -0.1634 -0.8537 -2.5671
 5909SOL     OW29362   1.317   4.550  17.004  0.4580  0.0078 -0.8277
 5909SOL    HW129363   1.253   4.479  17.009  1.2507 -0.7645 -1.6608
 5909SOL    HW229364   1.392   4.509  16.962  0.3169  1.0860 -2.1227
 5910SOL     OW29365   4.687   1.977   8.100 -0.5134  0.3747  0.6778
 5910SOL    HW129366   4.627   1.960   8.028  1.0210  0.2612 -0.5603
 5910SOL    HW229367   4.627   1.998   8.172  0.2311 -0.8708  1.6636
 5911SOL     OW29368   1.075   1.963   3.772  0.4883 -0.3871 -0.0684
 5911SOL    HW129369   1.067   2.056   3.753  1.8784 -0.1470  0.5523
 5911SOL    HW229370   0.994   1.960   3.823 -0.8366 -1.1808 -2.1916
 5912SOL     OW29371   3.603   1.061   5.608 -0.3572  0.3547 -0.2370
 5912SOL    HW129372   3.654   1.052   5.527  0.9087 -0.5066  0.6544
 5912SOL    HW229373   3.666   1.094   5.672  0.5907 -0.7189 -0.6138
 5913SOL     OW29374   3.552   1.431   9.168  0.0546 -1.0143 -0.1716
 5913SOL    HW129375   3.505   1.440   9.085  0.9419 -0.6100 -0.6358
 5913SOL    HW229376   3.589   1.517   9.187 -2.2242 -0.0072 -0.2794
 5914SOL     OW29377   2.846   1.290   7.736  0.0037  0.4296 -0.3782
 5914SOL    HW129378   2.788   1.286   7.813 -0.6007  3.0125 -0.6724
 5914SOL    HW229379   2.817   1.221   7.677  0.8216 -1.5098  1.5117
 5915SOL     OW29380   2.637   3.040   4.944 -0.5277  0.1806  0.6391
 5915SOL    HW129381   2.558   3.089   4.969 -1.6392 -0.3926 -1.7163
 5915SOL    HW229382   2.654   3.011   5.034  0.6151 -2.0274 -0.2832
 5916SOL     OW29383   3.298   4.515   6.733  0.1619  0.6743 -0.1345
 5916SOL    HW129384   3.235   4.545   6.668  1.0904  1.3613 -0.7197
 5916SOL    HW229385   3.328   4.591   6.783  0.0019  0.7373 -0.1341
 5917SOL     OW29386   0.007   1.513   1.652 -0.3073  0.3282 -0.5190
 5917SOL    HW129387   0.079   1.459   1.619  0.7154  0.2544  1.8304
 5917SOL    HW229388   0.051   1.592   1.681 -1.8478 -0.3476  3.7176
 5918SOL     OW29389   0.356   3.586   4.711  0.4659  0.1601  0.0872
 5918SOL    HW129390   0.425   3.521   4.702  0.0383 -0.7371  3.4243
 5918SOL    HW229391   0.401   3.669   4.727 -1.4671  0.8738  1.7582
 5919SOL     OW29392   4.681   1.568   7.282  0.0218 -0.8127 -0.1332
 5919SOL    HW129393   0.014   1.605   7.335  0.3194 -1.1730 -0.2774
 5919SOL    HW229394   4.729   1.494   7.246  1.3166 -0.4666  0.8715
 5920SOL     OW29395   3.093   0.338   4.852 -0.0697  0.0222  0.6941
 5920SOL    HW129396   3.026   0.324   4.786  2.0666 -1.3011 -1.1802
 5920SOL    HW229397   3.042   0.336   4.933  0.2822 -0.1195  0.9161
 5921SOL     OW29398   1.607   1.235   2.675 -0.1921  0.1195  0.1539
 5921SOL    HW129399   1.600   1.330   2.688 -1.7722  0.0770 -0.3605
 5921SOL    HW229400   1.535   1.208   2.618 -0.3148  0.6472  0.0535
 5922SOL     OW29401   4.030   3.109   8.746  0.3485 -0.1159 -0.7450
 5922SOL    HW129402   4.052   3.015   8.744  0.6189 -0.0908  1.3485
 5922SOL    HW229403   4.015   3.123   8.653  1.2564  1.9838 -0.5764
 5923SOL     OW29404   1.459   3.697   4.037  0.0557  0.2475  0.2472
 5923SOL    HW129405   1.490   3.733   4.121  0.9104  3.1470 -1.3357
 5923SOL    HW229406   1.373   3.664   4.066 -0.4395  2.0193  0.8004
 5924SOL     OW29407   3.508   3.785   4.364 -0.6702  0.3880 -0.2082
 5924SOL    HW129408   3.528   3.809   4.454  0.0507  0.5844 -0.4237
 5924SOL    HW229409   3.458   3.864   4.344  0.6814  1.9905  2.8417
 5925SOL     OW29410   2.930   3.618   5.572  0.4113 -0.0338 -0.7274
 5925SOL    HW129411   2.951   3.701   5.530 -0.4879 -0.4462 -1.9868
 5925SOL    HW229412   3.012   3.610   5.622 -0.7630  0.2308  1.2302
 5926SOL     OW29413   1.592   3.573   1.510  0.0959  0.2201  0.2832
 5926SOL    HW129414   1.535   3.502   1.478  0.7322  0.3802 -1.2132
 5926SOL    HW229415   1.639   3.577   1.427 -0.6769 -0.3633 -0.1869
 5927SOL     OW29416   1.650   1.441   4.941 -0.0397  0.1341  0.0576
 5927SOL    HW129417   1.704   1.510   4.981 -3.2496  3.4402 -1.3244
 5927SOL    HW229418   1.610   1.406   5.021 -2.5184  2.1259 -0.3127
 5928SOL     OW29419   0.949   0.918   4.157  0.5177  0.3885  0.2509
 5928SOL    HW129420   0.877   0.863   4.186 -1.3960  2.4676 -0.5787
 5928SOL    HW229421   0.921   0.945   4.069  0.4900  2.1677  0.8118
 5929SOL     OW29422   1.092   1.082  11.598  0.4946 -0.7215 -0.5133
 5929SOL    HW129423   1.087   1.177  11.603 -0.5659 -0.7472 -0.9807
 5929SOL    HW229424   1.186   1.080  11.612  0.2729  2.0575  1.1887
 5930SOL     OW29425   2.025   1.617   4.870 -0.2081  0.9757  0.0571
 5930SOL    HW129426   1.953   1.640   4.929 -2.8695 -1.5091 -2.2297
 5930SOL    HW229427   2.061   1.536   4.906 -3.0179  0.7801  2.4701
 5931SOL     OW29428   3.457   2.326   9.083  0.5282  0.0968 -0.1089
 5931SOL    HW129429   3.367   2.293   9.074  0.1874  0.7796  0.7207
 5931SOL    HW229430   3.466   2.374   9.001  1.7674 -0.1827 -0.1344
 5932SOL     OW29431   1.233   3.346   2.224 -0.0849 -0.4788  0.3696
 5932SOL    HW129432   1.180   3.383   2.294 -0.9039  1.8822 -1.4593
 5932SOL    HW229433   1.289   3.296   2.283 -0.9942 -2.1762 -0.1841
 5933SOL     OW29434   3.325   0.717   6.097 -0.2124  0.4909  0.8232
 5933SOL    HW129435   3.289   0.789   6.148 -0.4169  2.4695 -2.1160
 5933SOL    HW229436   3.366   0.754   6.019 -2.0580  0.6169 -0.0927
 5934SOL     OW29437   3.090   2.332   9.929  0.3026  0.3618  0.5775
 5934SOL    HW129438   3.178   2.294   9.928  0.8473  1.5942  1.5775
 5934SOL    HW229439   3.050   2.288   9.854  1.3622  2.0984 -1.0227
 5935SOL     OW29440   4.134   2.346   3.047  0.0542 -0.5651  0.7778
 5935SOL    HW129441   4.100   2.350   2.957  0.2204  0.5861  0.7718
 5935SOL    HW229442   4.157   2.253   3.034  0.1746 -0.2924 -0.9691
 5936SOL     OW29443   2.606   2.511   0.586 -0.3070 -0.0845  0.0009
 5936SOL    HW129444   2.566   2.484   0.503 -0.6382 -2.9032  1.0652
 5936SOL    HW229445   2.530   2.559   0.618 -0.8042 -0.1048 -1.1215
 5937SOL     OW29446   3.924   2.993   0.950  0.7810  0.1928  0.7381
 5937SOL    HW129447   3.854   2.937   0.914  3.3465 -2.0200 -0.7665
 5937SOL    HW229448   3.896   3.079   0.917 -1.0595 -0.5814  0.2630
 5938SOL     OW29449   3.678   2.998   5.991 -0.3328  0.0157 -0.3355
 5938SOL    HW129450   3.639   2.991   6.078  2.3337 -3.7419  0.5388
 5938SOL    HW229451   3.731   2.919   6.000  0.5198  0.8438  1.7427
 5939SOL     OW29452   3.716   4.575   4.248 -0.9253 -0.2180  0.0978
 5939SOL    HW129453   3.709   4.563   4.343 -1.1518 -0.9229 -0.0077
 5939SOL    HW229454   3.800   4.534   4.228 -0.6029 -0.7833  2.6227
 5940SOL     OW29455   0.668   0.629   4.691 -0.3589 -0.4133  0.1067
 5940SOL    HW129456   0.712   0.688   4.752 -0.6246 -1.0148  0.8732
 5940SOL    HW229457   0.613   0.574   4.746  1.8091 -1.9762  0.6879
 5941SOL     OW29458   4.491   1.101  16.343 -0.4041 -0.4960 -1.0545
 5941SOL    HW129459   4.563   1.069  16.288  0.1403  0.0268 -0.6573
 5941SOL    HW229460   4.460   1.179  16.296  0.2035 -0.2595 -1.0594
 5942SOL     OW29461   4.388   4.579   6.601 -0.9292 -0.5890  0.4376
 5942SOL    HW129462   4.344   4.524   6.536 -0.0043 -3.3072  2.1180
 5942SOL    HW229463   4.447   4.507   6.624  0.6701 -0.1104 -2.1221
 5943SOL     OW29464   4.457   2.907  16.651  0.2613 -0.9260 -0.4115
 5943SOL    HW129465   4.402   2.862  16.715  1.6358 -1.7792  0.1701
 5943SOL    HW229466   4.407   2.989  16.659  0.9606 -0.6679  1.4174
 5944SOL     OW29467   1.447   2.527   8.123  0.0568  0.1230  0.0894
 5944SOL    HW129468   1.469   2.526   8.216 -2.1533 -0.2621  0.6027
 5944SOL    HW229469   1.353   2.546   8.122 -0.3386 -2.0830 -2.5831
 5945SOL     OW29470   4.580   3.715   8.924 -0.7108 -0.7948  0.0258
 5945SOL    HW129471   4.596   3.635   8.974  3.1537 -0.5807 -0.8527
 5945SOL    HW229472   4.668   3.751   8.913 -1.2612  0.1069 -1.3657
 5946SOL     OW29473   3.329   4.187   8.184 -0.4893 -0.5919  0.4666
 5946SOL    HW129474   3.365   4.111   8.139 -0.3092  0.8008 -1.7552
 5946SOL    HW229475   3.322   4.248   8.109  0.6906 -1.2588 -0.1839
 5947SOL     OW29476   2.415   0.393  17.004 -0.2538  0.7106  0.4790
 5947SOL    HW129477   2.373   0.312  16.976  1.3169 -0.1797  0.6748
 5947SOL    HW229478   2.508   0.374  16.986 -0.7844 -0.9932 -0.4740
 5948SOL     OW29479   1.894   2.864   5.799  0.6577  0.2170 -0.2847
 5948SOL    HW129480   1.847   2.862   5.715  1.0242  0.1559 -0.4875
 5948SOL    HW229481   1.878   2.954   5.828 -1.1168  0.2299 -1.2755
 5949SOL     OW29482   4.234   2.132   8.187 -0.4603  0.5191  0.3999
 5949SOL    HW129483   4.239   2.227   8.195  2.1418  0.4592 -0.2340
 5949SOL    HW229484   4.327   2.106   8.189 -0.7973 -0.7915 -0.5161
 5950SOL     OW29485   4.344   0.376   3.788 -0.6284  0.0462  0.2639
 5950SOL    HW129486   4.429   0.394   3.748 -0.8334 -0.9452 -0.6177
 5950SOL    HW229487   4.351   0.281   3.787  0.1482  0.1039 -0.1304
 5951SOL     OW29488   1.060   2.795   1.254 -0.2414  0.2294  0.1702
 5951SOL    HW129489   1.125   2.751   1.309 -0.3831  1.0679  1.0106
 5951SOL    HW229490   1.116   2.813   1.179  0.6236  0.3349  0.8435
 5952SOL     OW29491   0.370   0.083   5.927 -0.7461 -0.6808 -0.1686
 5952SOL    HW129492   0.403   0.030   5.999 -0.0594 -0.6486 -0.4536
 5952SOL    HW229493   0.275   0.081   5.934 -0.8500  1.1380 -1.0333
 5953SOL     OW29494   1.199   4.109   5.491  0.2754  0.7155  0.1315
 5953SOL    HW129495   1.265   4.067   5.545 -1.6539 -1.6104  0.6893
 5953SOL    HW229496   1.198   4.048   5.417  1.2948 -0.2168  0.8944
 5954SOL     OW29497   3.207   0.414   9.194  0.4837 -0.5786  0.2752
 5954SOL    HW129498   3.188   0.321   9.182 -0.9179 -0.1591 -0.8321
 5954SOL    HW229499   3.281   0.410   9.132  0.7931  2.3076  0.4579
 5955SOL     OW29500   3.810   3.850  13.130  0.2916 -0.1686  0.2343
 5955SOL    HW129501   3.718   3.830  13.113  0.3397  1.2501 -1.7719
 5955SOL    HW229502   3.810   3.946  13.131  0.4543 -0.1569 -0.7482
 5956SOL     OW29503   3.755   1.268   8.108 -0.8098 -0.5113 -0.0736
 5956SOL    HW129504   3.757   1.190   8.052 -0.9451  0.7535 -1.8542
 5956SOL    HW229505   3.811   1.235   8.179  0.3463 -0.1552 -0.8212
 5957SOL     OW29506   1.916   0.756   6.467  0.0029  0.3224  0.5538
 5957SOL    HW129507   1.901   0.843   6.503  0.5975  0.0968  1.3366
 5957SOL    HW229508   1.921   0.702   6.546 -1.8783  0.5562  0.8182
 5958SOL     OW29509   1.784   1.695   4.974  0.1111 -0.6991 -0.8060
 5958SOL    HW129510   1.740   1.756   4.915 -0.0610  2.2839  2.4237
 5958SOL    HW229511   1.785   1.748   5.054  0.3058 -0.5423 -0.9142
 5959SOL     OW29512   3.442   3.412   2.110  0.5493 -0.5936 -0.1050
 5959SOL    HW129513   3.416   3.444   2.024  0.9106  2.4543  0.9211
 5959SOL    HW229514   3.505   3.347   2.080 -0.4641 -1.6645  0.0632
 5960SOL     OW29515   2.016   3.641   4.015 -0.3872 -0.7065 -0.3965
 5960SOL    HW129516   2.075   3.569   3.991 -0.9090 -1.3601  0.3268
 5960SOL    HW229517   1.936   3.592   4.001 -0.2214 -1.5409  1.6308
 5961SOL     OW29518   3.776   2.188   0.512  0.0466  0.0629 -0.1915
 5961SOL    HW129519   3.761   2.269   0.462 -0.3439  0.3994  0.4668
 5961SOL    HW229520   3.795   2.229   0.596 -2.5143 -0.0995  0.4856
 5962SOL     OW29521   1.414   2.555   1.657 -0.1423 -0.0595  0.1451
 5962SOL    HW129522   1.323   2.539   1.683  0.0305 -1.5783 -0.1463
 5962SOL    HW229523   1.429   2.643   1.692 -0.4948  0.8188 -1.9252
 5963SOL     OW29524   2.576   3.222   6.123  0.0346  0.3330  0.4767
 5963SOL    HW129525   2.642   3.168   6.168 -0.9032 -0.3043  1.0786
 5963SOL    HW229526   2.575   3.175   6.039 -0.2485  0.8846  0.1771
 5964SOL     OW29527   4.195   3.600   5.795  0.1631 -0.4462 -0.1671
 5964SOL    HW129528   4.108   3.568   5.772  0.8125 -1.3667 -1.3962
 5964SOL    HW229529   4.193   3.693   5.817 -0.4198 -0.7117  0.8907
 5965SOL     OW29530   1.573   1.507  10.459 -0.6623  0.2733  0.1607
 5965SOL    HW129531   1.511   1.578  10.452  1.6482  2.3734  0.9094
 5965SOL    HW229532   1.652   1.530  10.409 -0.3155 -1.5094 -0.1447
 5966SOL     OW29533   1.624   3.243  10.692 -0.1858 -0.0302  0.4895
 5966SOL    HW129534   1.578   3.221  10.773 -0.0710  1.3025  0.9143
 5966SOL    HW229535   1.717   3.253  10.713  0.1097  0.8929 -1.2733
 5967SOL     OW29536   0.672   2.460  16.000 -0.5321  0.6498  0.4973
 5967SOL    HW129537   0.750   2.476  16.052  0.5003 -1.1706 -0.4675
 5967SOL    HW229538   0.621   2.406  16.060  1.5534 -0.5814  1.1861
 5968SOL     OW29539   4.154   1.303   4.815 -0.2020 -0.0899 -0.1671
 5968SOL    HW129540   4.105   1.373   4.856  1.0591  0.5575  0.2453
 5968SOL    HW229541   4.176   1.254   4.894  1.2275  0.5861 -0.1452
 5969SOL     OW29542   4.179   3.845  14.725 -1.1852 -0.4743  0.0181
 5969SOL    HW129543   4.179   3.757  14.762 -0.9912  0.6555  2.6925
 5969SOL    HW229544   4.203   3.834  14.633 -1.1578 -0.1989 -0.0078
 5970SOL     OW29545   0.151   2.688   3.887 -0.0992  0.1213  0.0640
 5970SOL    HW129546   0.143   2.753   3.816  2.0189 -0.9178 -1.1258
 5970SOL    HW229547   0.143   2.606   3.839 -0.3037 -1.5802  3.0300
 5971SOL     OW29548   4.559   1.043   6.148 -0.3137 -0.4030  0.2448
 5971SOL    HW129549   4.533   0.951   6.149  0.0381 -0.5071 -0.2035
 5971SOL    HW229550   4.653   1.032   6.135 -0.7804 -3.9721 -0.1734
 5972SOL     OW29551   3.097   1.147   2.843  0.1666 -0.8634 -1.1742
 5972SOL    HW129552   3.169   1.207   2.863 -0.9792 -0.0504  0.4429
 5972SOL    HW229553   3.131   1.065   2.807 -2.4558 -1.9707 -1.0978
 5973SOL     OW29554   2.693   1.300  15.747  0.1144 -0.2298  0.2938
 5973SOL    HW129555   2.745   1.329  15.672 -2.4617 -0.1618 -1.4525
 5973SOL    HW229556   2.606   1.326  15.717  0.1542  0.0502  0.4186
 5974SOL     OW29557   1.137   3.560   7.866  0.4109 -0.1473  0.0169
 5974SOL    HW129558   1.158   3.560   7.960  1.9512 -1.2838 -0.3169
 5974SOL    HW229559   1.228   3.556   7.834  0.5958 -1.2765  0.7033
 5975SOL     OW29560   3.743   4.168   6.414 -0.4461 -0.1364 -0.2817
 5975SOL    HW129561   3.745   4.257   6.378  3.1674 -0.3677 -0.7103
 5975SOL    HW229562   3.657   4.144   6.380 -0.7246 -1.0892  1.1012
 5976SOL     OW29563   2.244   1.068  17.385 -0.1296 -0.2081  0.1374
 5976SOL    HW129564   2.201   1.031  17.462  0.4223  0.9452  1.0023
 5976SOL    HW229565   2.171   1.118  17.348  0.6854  0.9681  0.0836
 5977SOL     OW29566   1.676   1.008   8.497  0.0547 -0.4086  0.9094
 5977SOL    HW129567   1.623   1.048   8.565  0.0517  0.8006  0.2171
 5977SOL    HW229568   1.698   1.089   8.449  3.1335 -1.6877  0.1461
 5978SOL     OW29569   4.217   1.088   2.438  0.1336 -0.5314 -0.5048
 5978SOL    HW129570   4.142   1.080   2.497  0.2420 -3.0844 -0.7235
 5978SOL    HW229571   4.235   0.994   2.433  2.3439 -0.1828  0.7845
 5979SOL     OW29572   1.260   0.991  14.223  0.4728  0.0913  0.2763
 5979SOL    HW129573   1.224   1.077  14.203  1.7827  0.4569 -0.5239
 5979SOL    HW229574   1.317   0.989  14.146  1.9731  0.4389  1.3760
 5980SOL     OW29575   3.653   4.046   2.743  0.1288 -0.2522 -0.0063
 5980SOL    HW129576   3.616   3.990   2.810  3.6135 -1.3625  0.9740
 5980SOL    HW229577   3.725   3.986   2.726  0.8794  0.2364  1.4618
 5981SOL     OW29578   1.360   3.203   0.713  0.3286 -0.2691  0.2556
 5981SOL    HW129579   1.289   3.188   0.775 -0.1865 -2.3640 -0.8249
 5981SOL    HW229580   1.323   3.210   0.625 -0.3131  2.8169  0.7825
 5982SOL     OW29581   0.522   0.760   8.306 -0.0614 -0.2902  0.3631
 5982SOL    HW129582   0.462   0.692   8.273  3.0913 -2.4767 -0.8919
 5982SOL    HW229583   0.451   0.812   8.343  1.4551  0.9024  1.6076
 5983SOL     OW29584   0.206   3.690   3.874  0.3176  0.1458 -0.6771
 5983SOL    HW129585   0.231   3.618   3.816  2.5524  0.8917 -0.6484
 5983SOL    HW229586   0.234   3.648   3.955  0.1942 -0.9007 -1.1707
 5984SOL     OW29587   3.362   2.233  13.802 -0.1653  0.8852 -0.6096
 5984SOL    HW129588   3.447   2.210  13.841  0.0402  1.0126 -0.9837
 5984SOL    HW229589   3.354   2.326  13.824 -1.1966 -0.3085  4.0913
 5985SOL     OW29590   0.687   3.794   7.927 -0.1652  0.7025  0.0182
 5985SOL    HW129591   0.677   3.727   7.859  1.1222  2.2299 -1.6658
 5985SOL    HW229592   0.689   3.878   7.883 -0.0605 -0.6672 -2.5969
 5986SOL     OW29593   3.397   1.241   9.352 -0.0206 -0.0961 -0.6084
 5986SOL    HW129594   3.466   1.190   9.396  1.4122  1.3794 -1.1462
 5986SOL    HW229595   3.425   1.236   9.261  3.1269 -1.1770  0.4015
 5987SOL     OW29596   4.434   2.667   0.332  0.7418  0.7698 -0.0104
 5987SOL    HW129597   4.385   2.722   0.393  1.5532  1.3282  0.1461
 5987SOL    HW229598   4.495   2.616   0.387 -0.7266 -0.8558  0.1264
 5988SOL     OW29599   3.005   2.508  13.534  0.1477 -0.4269 -0.1124
 5988SOL    HW129600   3.022   2.463  13.451  2.5389  0.6248 -0.1957
 5988SOL    HW229601   2.916   2.537  13.518 -0.5583 -2.0063  0.8890
 5989SOL     OW29602   1.485   1.460   4.045  0.2198  0.6059 -0.2773
 5989SOL    HW129603   1.510   1.493   3.958  0.8615 -0.2409 -0.4159
 5989SOL    HW229604   1.567   1.422   4.077 -1.3626 -2.7046 -0.0977
 5990SOL     OW29605   4.718   1.286   0.116  0.0298  0.3575 -0.3559
 5990SOL    HW129606   4.729   1.225   0.043 -2.6540 -0.1993 -0.3137
 5990SOL    HW229607   4.638   1.246   0.150 -0.2085  1.9060  0.8854
 5991SOL     OW29608   0.671   1.423   7.953 -0.0935  0.2717  0.1629
 5991SOL    HW129609   0.618   1.414   7.874 -0.2008 -0.5026  0.3275
 5991SOL    HW229610   0.706   1.336   7.971 -0.6724 -0.2389 -1.1634
 5992SOL     OW29611   2.478   4.584   9.583  0.3050  0.7210 -0.3055
 5992SOL    HW129612   2.538   4.574   9.509 -0.2320 -0.5081 -0.5693
 5992SOL    HW229613   2.400   4.617   9.540 -0.6177 -2.1710 -0.8410
 5993SOL     OW29614   4.030   1.810   5.291  0.2290  0.2640  0.3177
 5993SOL    HW129615   3.936   1.826   5.298  0.0832  1.0196 -3.4122
 5993SOL    HW229616   4.047   1.766   5.374  0.5959 -0.3285 -0.0717
 5994SOL     OW29617   0.316   3.988   5.660 -0.1468 -0.3577  0.1515
 5994SOL    HW129618   0.222   3.973   5.649  0.0557 -1.9773  0.6045
 5994SOL    HW229619   0.329   3.957   5.749 -0.3803 -1.3623 -0.1605
 5995SOL     OW29620   1.422   0.539   4.498  0.1296  0.8412  0.2598
 5995SOL    HW129621   1.451   0.626   4.527  2.1235  0.4316 -0.5589
 5995SOL    HW229622   1.334   0.536   4.537 -0.6271  1.1002 -1.4214
 5996SOL     OW29623   1.981   0.406   6.363  0.4927 -0.6531 -0.5988
 5996SOL    HW129624   1.952   0.351   6.290 -1.9585  1.2079 -1.0251
 5996SOL    HW229625   2.075   0.394   6.371  0.4966  0.0431  0.3764
 5997SOL     OW29626   0.926   1.461   6.454  0.4894 -0.4872  0.5147
 5997SOL    HW129627   0.994   1.523   6.429  0.6389 -0.2955  1.3831
 5997SOL    HW229628   0.969   1.410   6.523  0.0143 -0.8820  0.5187
 5998SOL     OW29629   3.809   3.778   4.530 -0.2887  0.3337  0.0169
 5998SOL    HW129630   3.890   3.729   4.536 -1.3144 -1.1597  1.8450
 5998SOL    HW229631   3.823   3.808   4.620 -4.2770  2.7644 -0.1628
 5999SOL     OW29632   2.607   3.765   7.786  0.6979 -0.2028  0.2050
 5999SOL    HW129633   2.670   3.698   7.815 -0.1273 -1.2991 -0.5458
 5999SOL    HW229634   2.589   3.810   7.868  0.0033 -1.5780  0.8090
 6000SOL     OW29635   1.265   1.227   5.190  0.2524  0.4293  0.0962
 6000SOL    HW129636   1.181   1.203   5.151  1.1796 -2.4854 -0.0526
 6000SOL    HW229637   1.329   1.203   5.123 -1.7138  1.1541 -2.0228
 6001SOL     OW29638   1.105   0.395   3.109 -0.5411  0.3914 -0.0652
 6001SOL    HW129639   1.053   0.349   3.043  0.8684 -0.0750 -0.8663
 6001SOL    HW229640   1.183   0.340   3.122  1.2289  2.6943 -0.8499
 6002SOL     OW29641   1.992   0.458   5.832 -0.1513  0.3254 -0.4099
 6002SOL    HW129642   2.062   0.397   5.810  0.3736  0.5691  0.5721
 6002SOL    HW229643   2.028   0.543   5.807  1.7697 -0.2439  0.4463
 6003SOL     OW29644   0.396   0.226   5.275  0.5282 -0.4539 -0.3948
 6003SOL    HW129645   0.452   0.185   5.209  0.5896  0.8261 -1.1345
 6003SOL    HW229646   0.319   0.237   5.220  0.7601 -1.2612 -0.8760
 6004SOL     OW29647   1.453   0.179   4.728 -0.6126 -0.3176 -0.3657
 6004SOL    HW129648   1.358   0.178   4.721 -0.5414  0.3320 -1.3684
 6004SOL    HW229649   1.467   0.239   4.801 -0.5434 -0.1488 -0.5194
 6005SOL     OW29650   3.181   4.470  10.841 -0.4147  0.4405 -0.0989
 6005SOL    HW129651   3.211   4.406  10.905  0.2089 -1.4226 -2.2254
 6005SOL    HW229652   3.192   4.423  10.758  0.1150 -2.4771  1.6088
 6006SOL     OW29653   3.944   1.307  17.416 -0.2530 -0.5910 -0.7376
 6006SOL    HW129654   3.973   1.355  17.494  1.5005 -3.2449  0.2473
 6006SOL    HW229655   3.986   1.221  17.415  0.1273 -0.4235  0.6491
 6007SOL     OW29656   1.910   4.050  13.428 -0.0326  0.0253 -0.0946
 6007SOL    HW129657   1.985   4.108  13.414  0.0440  0.6096  2.7859
 6007SOL    HW229658   1.834   4.105  13.449  0.3357  0.6660 -0.4179
 6008SOL     OW29659   3.766   0.681  11.725 -0.6750  0.5010 -0.1597
 6008SOL    HW129660   3.744   0.766  11.687  0.8818  0.9605 -0.0131
 6008SOL    HW229661   3.861   0.668  11.719 -0.5579  1.5589 -0.5515
 6009SOL     OW29662   3.136   0.328  15.445  0.2805  0.2295 -0.4970
 6009SOL    HW129663   3.197   0.399  15.463 -1.2193  1.8628 -1.8082
 6009SOL    HW229664   3.181   0.270  15.384 -1.5367 -1.1520 -0.5168
 6010SOL     OW29665   1.822   0.631   2.547  0.0281  0.1806 -0.0472
 6010SOL    HW129666   1.811   0.619   2.453 -0.1614 -0.2422  0.0270
 6010SOL    HW229667   1.762   0.701   2.570  0.5984  0.8795 -0.6959
 6011SOL     OW29668   2.277   0.029   9.788  0.0855  0.0308  0.1160
 6011SOL    HW129669   2.221   0.059   9.716 -2.3144  0.9615  2.3449
 6011SOL    HW229670   2.333   4.702   9.747 -1.1284 -0.9418 -0.0250
 6012SOL     OW29671   0.648   2.846   6.487 -0.7576  0.2362 -0.4494
 6012SOL    HW129672   0.665   2.752   6.494 -2.0391 -0.0665 -1.5063
 6012SOL    HW229673   0.736   2.881   6.471 -0.3002 -0.8657 -0.3228
 6013SOL     OW29674   3.248   0.433  13.663  1.0405  0.0933 -0.0235
 6013SOL    HW129675   3.160   0.466  13.679  0.1903 -2.3588  0.3798
 6013SOL    HW229676   3.292   0.516  13.645 -0.8342  1.1427  0.2731
 6014SOL     OW29677   1.542   1.364   3.726  0.4483  0.2106 -0.3433
 6014SOL    HW129678   1.477   1.333   3.663 -1.9000  0.1152  2.1270
 6014SOL    HW229679   1.532   1.458   3.735 -0.9211  0.1032 -0.9022
 6015SOL     OW29680   1.684   1.653   7.935  0.5666 -0.3444 -0.1507
 6015SOL    HW129681   1.715   1.563   7.927  1.3278 -0.0759 -0.1823
 6015SOL    HW229682   1.594   1.637   7.907 -0.0364  0.7437  1.1672
 6016SOL     OW29683   2.353   4.483  16.038 -0.3464 -0.7672 -0.0575
 6016SOL    HW129684   2.358   4.577  16.054  1.2503 -0.8746  0.0134
 6016SOL    HW229685   2.418   4.449  16.098 -1.0343 -0.9691  0.5714
 6017SOL     OW29686   1.844   0.069   6.464  0.0198 -0.1259 -0.6790
 6017SOL    HW129687   1.917   0.115   6.423 -0.7963  1.1909 -0.6404
 6017SOL    HW229688   1.789   0.061   6.387 -2.6062 -3.0807  1.5057
 6018SOL     OW29689   2.147   1.162   8.797  0.2553  0.1993 -0.6619
 6018SOL    HW129690   2.147   1.073   8.760  1.1143 -0.7623  1.6878
 6018SOL    HW229691   2.230   1.169   8.844  0.4256  2.2339 -1.2704
 6019SOL     OW29692   1.651   0.486   0.348 -0.4724 -0.1700  0.1452
 6019SOL    HW129693   1.559   0.465   0.337 -0.2411 -0.7136 -0.7632
 6019SOL    HW229694   1.654   0.569   0.300  2.4478 -0.8736 -0.8957
 6020SOL     OW29695   1.659   4.241   5.163  0.0542 -0.2837  0.2034
 6020SOL    HW129696   1.628   4.330   5.148  0.1262 -0.0183  1.6895
 6020SOL    HW229697   1.717   4.260   5.237  1.9623  0.3293 -1.4419
 6021SOL     OW29698   2.716   0.700   9.164 -0.1604  0.3504  0.5712
 6021SOL    HW129699   2.674   0.655   9.090  2.1388  0.6865 -0.9484
 6021SOL    HW229700   2.799   0.656   9.179 -1.3488 -1.4987  1.7414
 6022SOL     OW29701   3.558   4.117   3.457  0.0137  0.0591 -0.4117
 6022SOL    HW129702   3.620   4.057   3.417  0.6919 -0.0424  0.7780
 6022SOL    HW229703   3.600   4.129   3.543 -0.1404 -0.6961 -0.2328
 6023SOL     OW29704   1.391   0.414   0.304  0.1621 -0.1488  0.1116
 6023SOL    HW129705   1.342   0.468   0.242 -0.2402 -0.1432  0.4336
 6023SOL    HW229706   1.325   0.345   0.319  0.3665 -0.6958 -1.4832
 6024SOL     OW29707   3.568   3.027   3.642 -0.2154 -0.3325 -0.2381
 6024SOL    HW129708   3.478   3.040   3.669  0.2126 -1.3472  1.7131
 6024SOL    HW229709   3.590   3.116   3.615  0.1752 -0.7794 -1.4198
 6025SOL     OW29710   0.519   2.350   9.944 -0.4857  0.7402  0.1045
 6025SOL    HW129711   0.613   2.366   9.955 -0.7139  1.8819  0.3182
 6025SOL    HW229712   0.513   2.298  10.025  0.3011  0.5606  0.0547
 6026SOL     OW29713   0.727   4.183   7.031 -0.2648 -0.3368 -0.2544
 6026SOL    HW129714   0.806   4.226   7.063 -0.1866 -1.2556  0.7892
 6026SOL    HW229715   0.687   4.161   7.115  0.5848  0.5554  0.3706
 6027SOL     OW29716   2.418   1.311   3.369 -0.1788  0.1253  0.5070
 6027SOL    HW129717   2.432   1.301   3.275 -1.6159  1.9832  0.1013
 6027SOL    HW229718   2.368   1.232   3.389  2.0074 -1.5709 -0.7882
 6028SOL     OW29719   4.578   3.295   4.496  0.8227 -0.7924 -0.9781
 6028SOL    HW129720   4.501   3.332   4.453 -0.3781 -0.2839  1.5700
 6028SOL    HW229721   4.642   3.361   4.469  0.4221 -0.2866 -0.6956
 6029SOL     OW29722   4.326   2.675   3.648  0.5487 -0.0023 -0.4741
 6029SOL    HW129723   4.266   2.623   3.594 -3.7453  2.1645  2.1542
 6029SOL    HW229724   4.381   2.715   3.581 -1.5345 -1.2275 -2.9427
 6030SOL     OW29725   0.355   1.429   5.455  0.6801 -0.0378  0.5308
 6030SOL    HW129726   0.387   1.392   5.537  0.6799 -0.5988  0.2808
 6030SOL    HW229727   0.331   1.350   5.406 -0.5765 -0.3920  1.7015
 6031SOL     OW29728   1.795   3.786   3.117  0.5717  0.1373 -0.1274
 6031SOL    HW129729   1.880   3.784   3.160  0.5564  1.6031 -0.0379
 6031SOL    HW229730   1.803   3.801   3.023 -0.3858  0.0165 -0.2273
 6032SOL     OW29731   2.489   0.914  17.362 -0.2528  0.3368  1.2091
 6032SOL    HW129732   2.403   0.957  17.361 -0.7735 -0.6515  2.5809
 6032SOL    HW229733   2.542   0.959  17.428  0.3302 -1.9067  2.2959
 6033SOL     OW29734   2.421   3.584   6.243 -0.4612 -0.0544 -0.4162
 6033SOL    HW129735   2.471   3.552   6.317  0.8339 -0.8479 -1.6308
 6033SOL    HW229736   2.330   3.559   6.254 -0.4256  0.0653  0.1522
 6034SOL     OW29737   0.569   2.492   6.720  0.1875  0.2311 -0.1948
 6034SOL    HW129738   0.511   2.479   6.796 -0.8424  0.7328 -0.8947
 6034SOL    HW229739   0.656   2.513   6.753 -0.6416  1.2368  1.3923
 6035SOL     OW29740   1.885   2.650   1.009 -0.0142  0.0713  0.3955
 6035SOL    HW129741   1.847   2.654   0.921 -2.5152 -0.2232  1.4709
 6035SOL    HW229742   1.962   2.707   1.004 -0.5851  0.7849 -0.3581
 6036SOL     OW29743   1.553   2.916   6.715 -0.0122  0.3106 -0.2948
 6036SOL    HW129744   1.553   2.893   6.622 -0.2034  1.0950 -0.4903
 6036SOL    HW229745   1.545   2.832   6.761  1.1464 -0.5324 -1.6122
 6037SOL     OW29746   3.359   3.182   8.155  0.0709 -0.1709  0.0297
 6037SOL    HW129747   3.358   3.154   8.063  0.4576  1.1742 -0.3818
 6037SOL    HW229748   3.347   3.097   8.197 -0.5670  0.2769  0.7516
 6038SOL     OW29749   0.723   4.597   4.142  0.1704 -0.1640  0.3350
 6038SOL    HW129750   0.752   4.541   4.070 -2.2563 -0.9864 -0.0091
 6038SOL    HW229751   0.807   4.637   4.164  0.1345  0.1229 -0.0595
 6039SOL     OW29752   2.590   4.427  15.775  0.2850  0.4461  0.1160
 6039SOL    HW129753   2.553   4.514  15.783 -1.7826 -0.4059 -0.3275
 6039SOL    HW229754   2.637   4.418  15.859 -0.4798 -0.4168  0.4460
 6040SOL     OW29755   0.368   1.193   4.350  0.0851  0.8083  0.3544
 6040SOL    HW129756   0.402   1.110   4.383 -3.7960 -0.8166  0.2871
 6040SOL    HW229757   0.435   1.200   4.282 -1.0441  0.1873 -0.8181
 6041SOL     OW29758   3.972   2.741   7.956 -0.1875 -0.0702 -0.1237
 6041SOL    HW129759   3.990   2.739   8.050  1.2171  1.0659 -0.3718
 6041SOL    HW229760   3.967   2.647   7.942  2.2305 -0.1139 -0.7504
 6042SOL     OW29761   1.672   2.745   8.462 -0.2391 -0.0563 -0.0318
 6042SOL    HW129762   1.605   2.702   8.515  0.0665 -0.4918  0.0009
 6042SOL    HW229763   1.754   2.739   8.512 -1.3416  1.1994  1.9107
 6043SOL     OW29764   2.529   2.271   0.746 -0.1409 -0.3868  0.2426
 6043SOL    HW129765   2.443   2.274   0.705 -1.0002 -2.4823  1.9403
 6043SOL    HW229766   2.575   2.344   0.704  0.4188 -0.7623  0.2044
 6044SOL     OW29767   4.106   0.294   1.930  0.5519  0.6247 -0.0604
 6044SOL    HW129768   4.056   0.308   1.849  0.5362  5.1911  0.7393
 6044SOL    HW229769   4.049   0.229   1.971 -0.5923  2.2969  0.9837
 6045SOL     OW29770   1.841   3.347   4.614 -0.1886 -0.0227  0.0801
 6045SOL    HW129771   1.906   3.417   4.620 -1.5156  1.1901  0.4207
 6045SOL    HW229772   1.774   3.388   4.560  2.5061  0.8861 -2.5364
 6046SOL     OW29773   4.682   1.902  16.095 -0.1758  0.3469 -0.3037
 6046SOL    HW129774   4.691   1.990  16.058 -0.7662 -0.0991 -1.5204
 6046SOL    HW229775   0.035   1.872  16.088 -0.4402 -0.4342 -0.3595
 6047SOL     OW29776   2.268   2.043  10.434  1.1780 -0.0532 -0.0253
 6047SOL    HW129777   2.223   2.125  10.412  1.4614 -0.4960 -2.3429
 6047SOL    HW229778   2.354   2.073  10.463  0.6091  1.5142  0.0496
 6048SOL     OW29779   1.739   0.962   5.056 -0.4309 -1.1917 -0.0234
 6048SOL    HW129780   1.737   0.897   4.986  0.1454  0.8265 -1.9061
 6048SOL    HW229781   1.765   0.911   5.133  0.7038 -1.4309 -0.5688
 6049SOL     OW29782   3.253   0.836   6.967  0.3392 -0.2059  0.0419
 6049SOL    HW129783   3.343   0.868   6.962 -0.3241  1.7212  0.2891
 6049SOL    HW229784   3.199   0.911   6.994 -0.4566 -0.8504  0.2505
 6050SOL     OW29785   2.990   1.334   7.254 -0.2509  0.1026  0.2522
 6050SOL    HW129786   2.910   1.282   7.263  0.1082 -0.2493  1.4565
 6050SOL    HW229787   3.009   1.351   7.346 -0.5762  2.7745 -0.1663
 6051SOL     OW29788   4.403   3.453  12.653  0.1370  0.1086  0.7774
 6051SOL    HW129789   4.480   3.510  12.658  0.8478 -0.8906  1.1946
 6051SOL    HW229790   4.458   3.378  12.673  0.7319  0.4988  0.6063
 6052SOL     OW29791   2.514   3.988  15.305 -0.0859  0.6246  0.5430
 6052SOL    HW129792   2.563   3.952  15.231 -1.0965  1.5715 -0.5869
 6052SOL    HW229793   2.480   3.911  15.351  0.5588 -0.3985 -0.7045
 6053SOL     OW29794   3.347   0.600  11.194  0.6535  0.0263 -0.1250
 6053SOL    HW129795   3.349   0.504  11.189 -0.8511 -0.0651  0.9331
 6053SOL    HW229796   3.299   0.611  11.277  0.4931  0.9613 -0.3449
 6054SOL     OW29797   1.004   0.987   3.668 -0.3170  0.1505  0.1571
 6054SOL    HW129798   1.041   1.070   3.638  1.5320 -0.7482  0.0009
 6054SOL    HW229799   1.001   0.932   3.590  0.8299  0.3764 -0.0485
 6055SOL     OW29800   3.094   0.541   3.183  0.0811 -0.7626 -0.1873
 6055SOL    HW129801   3.024   0.597   3.150  1.1498  0.7739  0.1860
 6055SOL    HW229802   3.053   0.455   3.169 -0.9422 -0.7225  2.4434
 6056SOL     OW29803   3.341   0.416   6.615  0.5479 -0.1360  0.2799
 6056SOL    HW129804   3.398   0.415   6.692  0.8610 -1.7338  0.0167
 6056SOL    HW229805   3.255   0.415   6.657  0.8203  0.1837  0.8598
 6057SOL     OW29806   4.037   1.626   4.826  0.2248 -0.1968  0.1511
 6057SOL    HW129807   3.977   1.625   4.901 -0.1714 -2.7039 -0.2154
 6057SOL    HW229808   4.115   1.654   4.873 -0.2352  1.6713 -0.1876
 6058SOL     OW29809   0.088   2.839   5.321 -0.2342 -0.3522  0.2940
 6058SOL    HW129810   0.106   2.898   5.247 -2.0509 -0.9235 -0.6085
 6058SOL    HW229811   0.114   2.759   5.276 -0.3439  0.3291 -0.9979
 6059SOL     OW29812   4.429   4.239   7.977 -0.2786 -1.0216 -0.2542
 6059SOL    HW129813   4.508   4.194   7.946  0.6472  0.6609 -0.3260
 6059SOL    HW229814   4.458   4.237   8.068 -1.0641 -2.2139 -0.0222
 6060SOL     OW29815   1.062   0.985  17.730 -0.3993 -0.1965  1.0028
 6060SOL    HW129816   1.082   1.070   0.020 -1.6055 -0.5987  2.4431
 6060SOL    HW229817   1.097   0.924   0.044  2.3427 -0.0419 -0.3285
 6061SOL     OW29818   3.552   4.527   3.691 -0.0343  0.3174  0.2683
 6061SOL    HW129819   3.531   4.603   3.635 -0.3849  0.0345  0.0130
 6061SOL    HW229820   3.466   4.488   3.673  1.2252 -2.1600 -0.2915
 6062SOL     OW29821   2.036   2.958   4.808  0.5769  0.2827 -0.0158
 6062SOL    HW129822   2.057   3.050   4.788  1.8837  0.1030  0.6138
 6062SOL    HW229823   2.032   2.954   4.903  1.7727  1.0395  0.0649
 6063SOL     OW29824   1.864   3.334  15.817 -0.9040  0.9614  0.1366
 6063SOL    HW129825   1.950   3.358  15.781 -1.3314  2.1432 -0.0921
 6063SOL    HW229826   1.895   3.304  15.902  1.6970  1.7084 -0.5335
 6064SOL     OW29827   4.654   2.143  17.067 -0.0020  0.0225 -0.5288
 6064SOL    HW129828   4.618   2.207  17.129 -0.6020  0.6337 -1.5223
 6064SOL    HW229829   4.656   2.061  17.116  1.1061  0.2447 -0.2081
 6065SOL     OW29830   4.368   2.095  13.808  0.0779  0.1761 -0.0173
 6065SOL    HW129831   4.273   2.082  13.805  0.3667 -2.1462  1.0577
 6065SOL    HW229832   4.408   2.026  13.755 -1.4054  0.4082 -1.4442
 6066SOL     OW29833   4.313   1.370   1.082  0.2176  0.3394  0.5247
 6066SOL    HW129834   4.359   1.287   1.093 -0.0867  0.0152 -0.6234
 6066SOL    HW229835   4.226   1.353   1.046  0.4661  0.1311  0.0235
 6067SOL     OW29836   2.461   0.397   7.916 -0.0309 -0.0188  0.0189
 6067SOL    HW129837   2.545   0.352   7.906  0.0234 -0.2263  1.4425
 6067SOL    HW229838   2.450   0.378   8.009 -2.2054 -0.6699 -0.3639
 6068SOL     OW29839   1.897   0.627   6.709 -0.4255 -0.1851  0.3124
 6068SOL    HW129840   1.888   0.549   6.763  2.3000  0.7502  2.1217
 6068SOL    HW229841   1.894   0.695   6.777  0.5596 -0.6258  0.7958
 6069SOL     OW29842   2.147   3.902   8.617 -0.2322  0.3726  0.8965
 6069SOL    HW129843   2.052   3.896   8.611 -0.3748  2.3831  1.1426
 6069SOL    HW229844   2.176   3.984   8.577  1.3106  0.2669  1.7951
 6070SOL     OW29845   4.705   1.298   2.496 -0.2866 -0.2210  0.4451
 6070SOL    HW129846   4.709   1.313   2.402 -2.7434 -0.8850  0.2509
 6070SOL    HW229847   4.610   1.288   2.503 -0.2308 -1.0699 -0.0208
 6071SOL     OW29848   0.641   0.644   7.199 -0.1875 -0.4752 -0.8926
 6071SOL    HW129849   0.571   0.644   7.134 -0.5134  0.7918 -0.5264
 6071SOL    HW229850   0.611   0.580   7.265 -0.8516 -0.8732 -1.5864
 6072SOL     OW29851   2.211   1.608   3.595 -0.4631 -0.0751  0.2568
 6072SOL    HW129852   2.217   1.693   3.639  1.1757  0.8796 -1.8154
 6072SOL    HW229853   2.304   1.608   3.572 -1.3390  0.9608 -3.2309
 6073SOL     OW29854   4.265   3.535   7.379  0.2573 -0.2742  0.1658
 6073SOL    HW129855   4.248   3.628   7.364  1.2600 -0.7098 -3.5869
 6073SOL    HW229856   4.332   3.531   7.311 -0.2200  0.0160 -0.3269
 6074SOL     OW29857   1.916   2.210  11.787 -0.1781 -0.0291 -0.6202
 6074SOL    HW129858   1.851   2.159  11.834  0.9470  0.0039  0.9563
 6074SOL    HW229859   1.913   2.290  11.841 -0.6472  0.6363 -1.6198
 6075SOL     OW29860   3.693   0.818  11.177  0.0924 -0.4508 -0.3100
 6075SOL    HW129861   3.732   0.808  11.263  0.5391  2.0674 -0.2204
 6075SOL    HW229862   3.674   0.910  11.192 -0.7282 -0.7516  0.5040
 6076SOL     OW29863   3.346   2.613  15.871  0.5941 -0.0881  0.1447
 6076SOL    HW129864   3.258   2.627  15.905 -0.7957 -1.3547 -2.8654
 6076SOL    HW229865   3.355   2.525  15.907 -0.8624 -0.2634  0.1076
 6077SOL     OW29866   4.045   3.637  13.092 -0.4521  0.2920  0.2227
 6077SOL    HW129867   3.988   3.619  13.018  0.1605  1.8714 -0.6189
 6077SOL    HW229868   4.093   3.709  13.052  0.1313 -1.9512 -3.1081
 6078SOL     OW29869   1.225   0.625  17.199 -0.0602 -0.6547  0.0521
 6078SOL    HW129870   1.320   0.632  17.201 -0.1082  0.1774 -0.8234
 6078SOL    HW229871   1.200   0.703  17.149  0.5635 -0.1998  0.4463
 6079SOL     OW29872   4.324   1.481   4.305 -0.1508  0.0536  0.2566
 6079SOL    HW129873   4.230   1.468   4.321  0.2624 -2.4237  0.7279
 6079SOL    HW229874   4.329   1.568   4.265  2.8613 -0.4931 -0.5038
 6080SOL     OW29875   3.304   3.951  15.321 -0.9959 -0.4630  0.6488
 6080SOL    HW129876   3.276   3.889  15.255 -3.8690  0.1174  1.3128
 6080SOL    HW229877   3.384   3.906  15.348 -0.2297  0.8815  0.6527
 6081SOL     OW29878   2.638   4.418   4.659 -0.0668 -0.5038  0.4311
 6081SOL    HW129879   2.730   4.442   4.658  0.2342 -1.7065 -0.3199
 6081SOL    HW229880   2.600   4.498   4.621 -0.5279 -0.4482  1.0098
 6082SOL     OW29881   1.919   2.323   5.223  0.5437  0.6030  0.1156
 6082SOL    HW129882   1.989   2.386   5.203  0.6481  0.2699 -0.5992
 6082SOL    HW229883   1.894   2.316   5.131 -0.2212  0.6772  0.3227
 6083SOL     OW29884   4.382   0.259   7.705 -0.3783 -0.3004 -0.4416
 6083SOL    HW129885   4.422   0.185   7.752 -0.4592  1.2292  2.0607
 6083SOL    HW229886   4.399   0.327   7.770  0.0330  0.4436 -1.3457
 6084SOL     OW29887   2.314   3.707  11.872 -0.3323  0.0387  1.1306
 6084SOL    HW129888   2.250   3.767  11.910 -0.8538  0.7403 -0.9056
 6084SOL    HW229889   2.315   3.644  11.945 -1.7395 -0.2351  0.9061
 6085SOL     OW29890   0.370   4.079   2.942  0.2575 -0.5649  0.4450
 6085SOL    HW129891   0.297   4.099   3.001 -0.0368  0.4368 -0.2683
 6085SOL    HW229892   0.426   4.143   2.985 -0.8913  0.3945  0.5081
 6086SOL     OW29893   3.161   0.036  16.401  0.3903 -0.2199 -0.0740
 6086SOL    HW129894   3.192   4.712  16.468 -2.8714  0.7803  2.3403
 6086SOL    HW229895   3.237   0.044  16.343  1.1586 -0.1018  0.9300
 6087SOL     OW29896   1.836   3.793   0.061 -0.1703 -0.0145  0.1086
 6087SOL    HW129897   1.754   3.829   0.093  0.3580  2.2799 -1.1603
 6087SOL    HW229898   1.819   3.778  17.718 -3.3498  0.7468  0.5723
 6088SOL     OW29899   0.814   0.838  17.540  0.1143  0.1787 -0.6778
 6088SOL    HW129900   0.828   0.920  17.493  2.5228 -0.6230 -1.3482
 6088SOL    HW229901   0.884   0.783  17.504  1.4828 -0.1528  2.5184
 6089SOL     OW29902   1.460   3.665   6.998  0.0679  0.1360  0.0151
 6089SOL    HW129903   1.438   3.679   7.090  0.1317 -0.1420  0.0752
 6089SOL    HW229904   1.448   3.573   6.975 -0.4526 -0.1861  1.5928
 6090SOL     OW29905   4.675   0.693   4.727  0.6047 -0.4262 -0.0684
 6090SOL    HW129906   4.634   0.717   4.811 -1.0494  0.0236 -1.0015
 6090SOL    HW229907   0.031   0.696   4.744  0.9741 -1.0802 -2.0337
 6091SOL     OW29908   0.286   1.670   7.533  0.3131 -0.0694  0.6386
 6091SOL    HW129909   0.206   1.720   7.514 -0.7233 -2.4254 -1.1313
 6091SOL    HW229910   0.347   1.733   7.495  1.5668 -0.7533  1.5425
 6092SOL     OW29911   2.839   0.414   3.570 -0.3452  0.1742 -0.1683
 6092SOL    HW129912   2.774   0.344   3.577  0.4313 -0.4984  0.2714
 6092SOL    HW229913   2.813   0.448   3.484 -2.9765  1.1353  1.0005
 6093SOL     OW29914   4.147   2.041   0.099 -0.3782  0.5515 -0.1113
 6093SOL    HW129915   4.145   2.137   0.104  1.4328  0.6517 -1.0476
 6093SOL    HW229916   4.148   2.017   0.191 -1.5067 -0.2865 -0.3135
 6094SOL     OW29917   0.933   4.227   8.446  0.3046 -0.0324  0.5730
 6094SOL    HW129918   0.846   4.187   8.453  0.4173 -0.5386 -0.8828
 6094SOL    HW229919   0.917   4.275   8.364 -0.2334  2.3732  2.0793
 6095SOL     OW29920   0.474   2.789  13.461  0.2149  0.9220 -0.4683
 6095SOL    HW129921   0.564   2.777  13.490 -0.5674 -2.5053  0.4920
 6095SOL    HW229922   0.422   2.709  13.473  1.7150 -0.1626 -1.2256
 6096SOL     OW29923   1.297   1.640   7.166 -0.3699  0.0050 -0.0167
 6096SOL    HW129924   1.344   1.664   7.246 -0.3707 -2.0424  0.5998
 6096SOL    HW229925   1.240   1.580   7.214 -0.1399  0.1687  0.4614
 6097SOL     OW29926   3.878   2.938  17.590 -0.0261  0.2245 -0.6405
 6097SOL    HW129927   3.946   3.000  17.564 -1.2119  2.2109  1.0066
 6097SOL    HW229928   3.904   2.858  17.544  0.5641 -0.6459  1.2199
 6098SOL     OW29929   3.668   3.539  12.562 -0.2077 -0.4244  0.5118
 6098SOL    HW129930   3.718   3.522  12.482 -0.4004 -0.6801  0.4448
 6098SOL    HW229931   3.632   3.626  12.543  2.8987  0.7048 -0.3415
 6099SOL     OW29932   2.078   0.719  17.411  0.0906 -0.0756 -0.2526
 6099SOL    HW129933   2.131   0.653  17.457  2.3894  1.0805 -1.2428
 6099SOL    HW229934   2.103   0.800  17.455 -1.8125 -0.0455  0.7595
 6100SOL     OW29935   4.087   2.492   7.112  0.8289 -0.2756 -0.5117
 6100SOL    HW129936   4.116   2.412   7.068  0.7125  1.1146 -3.1110
 6100SOL    HW229937   4.147   2.485   7.186 -0.6814  0.7081  0.8053
 6101SOL     OW29938   4.203   4.683   6.811 -0.0125 -0.1300 -0.1180
 6101SOL    HW129939   4.204   0.039   6.797  1.6345 -0.3753 -1.5442
 6101SOL    HW229940   4.241   4.649   6.730 -1.4904 -1.0747 -0.4138
 6102SOL     OW29941   3.963   2.037  12.910  0.3455  0.2817 -0.6138
 6102SOL    HW129942   4.036   2.019  12.969 -0.9359 -2.5513  0.1171
 6102SOL    HW229943   3.911   2.095  12.965 -0.0384  2.1424 -2.9154
 6103SOL     OW29944   2.590   0.959   5.667 -0.0875 -0.2091 -0.1262
 6103SOL    HW129945   2.606   0.871   5.631 -1.3852  0.4873 -2.4168
 6103SOL    HW229946   2.660   1.011   5.627  1.4294 -1.3762  0.9936
 6104SOL     OW29947   2.183   0.421   4.339 -0.1149 -0.0565 -0.4232
 6104SOL    HW129948   2.244   0.433   4.266 -0.2907 -2.7734 -1.0193
 6104SOL    HW229949   2.124   0.496   4.334 -0.5686 -0.0829  4.4044
 6105SOL     OW29950   2.699   4.305  12.579 -0.5916 -0.0171 -0.5168
 6105SOL    HW129951   2.710   4.236  12.513  1.4297  0.8123 -1.0556
 6105SOL    HW229952   2.744   4.379  12.539 -2.2445  1.6899  0.7737
 6106SOL     OW29953   1.002   4.709   3.809 -0.1031  0.7834 -0.1969
 6106SOL    HW129954   0.985   4.642   3.742  0.9740 -0.7172  1.0334
 6106SOL    HW229955   1.013   4.653   3.886 -0.0956 -1.1472 -1.5862
 6107SOL     OW29956   2.278   2.012   0.654  0.2485  0.2640 -0.0573
 6107SOL    HW129957   2.361   1.981   0.688  0.5129  0.8723 -0.1424
 6107SOL    HW229958   2.293   2.096   0.611  1.6832 -0.2934 -0.6156
 6108SOL     OW29959   2.858   2.492   0.483  0.2431  0.5858  0.7347
 6108SOL    HW129960   2.911   2.422   0.521  0.6729  0.3482 -0.3081
 6108SOL    HW229961   2.777   2.486   0.534  0.2113  1.7615  0.8122
 6109SOL     OW29962   1.756   0.428   4.732  0.0581  0.2505  0.0677
 6109SOL    HW129963   1.758   0.428   4.828 -2.1419 -2.0201  0.0931
 6109SOL    HW229964   1.714   0.346   4.706  0.9012 -0.8268  2.0770
 6110SOL     OW29965   4.387   1.261  12.908  0.5072 -0.6194  1.0391
 6110SOL    HW129966   4.321   1.279  12.841  0.5738 -0.6367  0.9689
 6110SOL    HW229967   4.422   1.176  12.880 -0.0698 -0.0371 -1.3909
 6111SOL     OW29968   0.364   2.389   6.365 -0.1620 -0.0282 -0.1533
 6111SOL    HW129969   0.414   2.344   6.433 -0.9247 -1.9779 -0.8739
 6111SOL    HW229970   0.280   2.383   6.409  0.3041  0.3432  0.7737
 6112SOL     OW29971   4.533   2.492   5.244  0.2205  0.0558  0.0744
 6112SOL    HW129972   4.445   2.458   5.230 -0.0615  0.0881  1.7385
 6112SOL    HW229973   4.567   2.415   5.290 -1.6736 -0.9635 -0.2141
 6113SOL     OW29974   1.710   2.984   8.133 -0.3012 -0.8087  0.3831
 6113SOL    HW129975   1.763   2.911   8.165  1.1305  0.5581  1.1224
 6113SOL    HW229976   1.629   2.974   8.184 -1.1631 -0.9892 -1.0355
 6114SOL     OW29977   4.387   3.984   1.366 -0.6358 -0.3563  0.5154
 6114SOL    HW129978   4.446   3.912   1.341 -0.6558  0.2719 -1.4110
 6114SOL    HW229979   4.424   4.061   1.322 -3.0305  0.2251 -0.4998
 6115SOL     OW29980   3.043   0.063   6.185  0.3865  0.2115  0.1248
 6115SOL    HW129981   3.109   4.735   6.163  1.6260  1.1796  0.9047
 6115SOL    HW229982   3.070   0.135   6.127  0.8789  1.4268  1.8544
 6116SOL     OW29983   2.386   0.715   7.575  0.4060  1.1464 -0.6635
 6116SOL    HW129984   2.316   0.738   7.514  0.2886 -0.9920 -1.3494
 6116SOL    HW229985   2.381   0.795   7.627 -0.0916  0.7361 -0.0703
 6117SOL     OW29986   2.559   0.985   1.576  0.4297  0.7301 -0.1766
 6117SOL    HW129987   2.574   1.015   1.486  0.9416 -2.8826 -1.3027
 6117SOL    HW229988   2.592   0.896   1.565  0.7400  0.9961 -1.3767
 6118SOL     OW29989   0.963   0.099  10.773  0.3556  0.1387 -0.3689
 6118SOL    HW129990   1.020   0.068  10.843  0.6213  2.3508  0.3625
 6118SOL    HW229991   0.927   0.016  10.741 -0.7604 -0.1659  1.6463
 6119SOL     OW29992   2.512   2.847  10.731 -0.2705 -0.1219  1.0126
 6119SOL    HW129993   2.539   2.938  10.720  3.7321 -1.5794 -0.9402
 6119SOL    HW229994   2.458   2.847  10.810 -0.8746 -1.1416  0.6070
 6120SOL     OW29995   0.793   2.896  10.511  0.6502 -0.0848  0.3169
 6120SOL    HW129996   0.875   2.847  10.503  0.6812 -0.0806  0.6456
 6120SOL    HW229997   0.761   2.846  10.586 -1.4951 -0.4256 -0.8165
 6121SOL     OW29998   0.150   1.946   5.027  0.2062 -0.0090 -0.2374
 6121SOL    HW129999   0.100   1.973   4.949  2.8168  2.6145 -0.9775
 6121SOL    HW230000   0.167   1.853   5.012 -0.0469 -0.1180  0.1680
 6122SOL     OW30001   0.773   4.073   1.562  0.1963  0.0234  0.0641
 6122SOL    HW130002   0.792   4.100   1.652  0.7259  1.6243 -0.5346
 6122SOL    HW230003   0.694   4.125   1.546 -1.1421 -2.2182 -0.6791
 6123SOL     OW30004   1.855   4.217   2.527 -0.4375 -0.3172 -0.4102
 6123SOL    HW130005   1.894   4.201   2.612  1.3890 -1.7913 -1.5230
 6123SOL    HW230006   1.904   4.295   2.499 -1.6362  0.9246  0.9966
 6124SOL     OW30007   2.741   3.678   1.328  0.4392 -0.2649 -0.6507
 6124SOL    HW130008   2.801   3.750   1.311  0.2253  0.1190  0.2446
 6124SOL    HW230009   2.673   3.696   1.263  0.7134  1.2837 -0.5127
 6125SOL     OW30010   0.932   3.149   5.691  0.1472  0.0986  0.5665
 6125SOL    HW130011   0.984   3.107   5.760  1.4771  2.8407  1.2173
 6125SOL    HW230012   0.937   3.243   5.705 -0.1273  0.1012  0.6412
 6126SOL     OW30013   4.317   1.689  11.930 -0.0131 -0.5100  0.2815
 6126SOL    HW130014   4.269   1.670  11.850  0.5836  0.5396 -0.3225
 6126SOL    HW230015   4.406   1.667  11.903  0.4450 -0.7900  2.0284
 6127SOL     OW30016   4.071   4.482   9.357  0.2267  0.1057 -0.9714
 6127SOL    HW130017   4.082   4.415   9.289  3.0158  0.5547 -0.9396
 6127SOL    HW230018   4.064   4.564   9.308  0.6482 -0.6797 -2.3337
 6128SOL     OW30019   4.012   2.149   1.612 -0.0231 -0.1008  0.3144
 6128SOL    HW130020   4.066   2.227   1.629 -1.2885  0.6261  1.0462
 6128SOL    HW230021   4.053   2.130   1.528 -0.1013  2.0930 -0.2290
 6129SOL     OW30022   2.662   2.968   6.580  0.4060  0.6985  0.3240
 6129SOL    HW130023   2.707   2.890   6.546  0.3504  1.0049 -0.4605
 6129SOL    HW230024   2.737   3.024   6.599  0.5862  0.2651  0.8768
 6130SOL     OW30025   3.831   2.839   6.110  0.0021  0.7662  0.4762
 6130SOL    HW130026   3.835   2.758   6.161 -3.7888  0.4687  0.3124
 6130SOL    HW230027   3.923   2.854   6.089 -0.3625 -0.6371 -2.1241
 6131SOL     OW30028   2.110   1.388   7.071 -0.0001 -0.2142 -0.0792
 6131SOL    HW130029   2.194   1.409   7.112  0.5725 -2.1488 -0.2346
 6131SOL    HW230030   2.134   1.304   7.031  0.0673  0.3525 -1.2428
 6132SOL     OW30031   1.572   3.150   3.874 -0.4108 -0.5340  0.3243
 6132SOL    HW130032   1.604   3.186   3.792 -2.6013 -0.9018 -0.6980
 6132SOL    HW230033   1.578   3.223   3.935 -0.1544 -0.0114 -0.3297
 6133SOL     OW30034   1.472   4.188  11.652 -0.0537  0.2383 -0.5424
 6133SOL    HW130035   1.390   4.169  11.698 -0.8465 -1.9412 -2.8681
 6133SOL    HW230036   1.526   4.110  11.664  1.4704  1.1623 -1.4658
 6134SOL     OW30037   0.833   0.346   2.591 -0.0068 -0.4577 -0.3544
 6134SOL    HW130038   0.822   0.362   2.498 -1.6557  0.0095 -0.0807
 6134SOL    HW230039   0.787   0.426   2.616 -1.7326 -0.6034 -3.0560
 6135SOL     OW30040   4.676   3.289  12.440 -0.1693 -0.2568 -0.3700
 6135SOL    HW130041   4.630   3.206  12.452 -0.1868 -0.2477 -0.3753
 6135SOL    HW230042   4.655   3.333  12.523 -0.6722 -0.7920 -0.2141
 6136SOL     OW30043   4.008   4.031   9.791 -0.4182  0.3049 -0.2945
 6136SOL    HW130044   4.060   3.975   9.849  0.2719  0.9221 -0.3082
 6136SOL    HW230045   4.079   4.085   9.755  0.2233 -1.0759 -1.1312
 6137SOL     OW30046   2.390   0.170   6.458  0.6228  0.1302 -0.2007
 6137SOL    HW130047   2.463   0.231   6.469  2.0285 -1.5177 -0.2418
 6137SOL    HW230048   2.438   0.087   6.452 -3.0732 -2.0120 -0.1375
 6138SOL     OW30049   0.464   2.936   5.679 -0.0769  0.2131  0.1574
 6138SOL    HW130050   0.409   3.010   5.658 -0.4180 -0.5459 -1.5973
 6138SOL    HW230051   0.473   2.902   5.590 -1.7822 -1.4303  0.6123
 6139SOL     OW30052   2.519   3.603   4.551 -0.2710 -0.0389 -0.2248
 6139SOL    HW130053   2.574   3.599   4.473  0.5818  0.6532  0.3288
 6139SOL    HW230054   2.477   3.689   4.541 -0.8191 -0.3040 -0.1753
 6140SOL     OW30055   0.836   3.903   9.827  0.2670  0.0000 -0.3686
 6140SOL    HW130056   0.926   3.880   9.806  0.9286  0.5782  1.8433
 6140SOL    HW230057   0.794   3.817   9.832 -1.6178  0.9170 -0.5046
 6141SOL     OW30058   1.210   3.758  10.492  0.4255 -0.5234 -0.8384
 6141SOL    HW130059   1.176   3.785  10.407  0.1747  0.3687 -0.4648
 6141SOL    HW230060   1.146   3.694  10.523  1.6448 -2.0714 -1.5220
 6142SOL     OW30061   0.320   4.482   6.751 -0.4054  0.2388  0.0757
 6142SOL    HW130062   0.248   4.459   6.692  1.0671 -1.8430 -0.9116
 6142SOL    HW230063   0.394   4.469   6.692 -1.9035 -0.9283 -1.5471
 6143SOL     OW30064   0.931   1.023   9.485  0.6725  0.2641 -0.2757
 6143SOL    HW130065   0.903   0.950   9.540 -0.3525  1.2021  0.4428
 6143SOL    HW230066   0.856   1.026   9.425  1.1546 -1.6614 -0.9716
 6144SOL     OW30067   3.826   2.782   4.697 -0.3325  0.3284 -0.3864
 6144SOL    HW130068   3.812   2.762   4.789 -0.7491 -1.8218 -0.9269
 6144SOL    HW230069   3.845   2.874   4.716 -0.1659  0.8205 -2.8953
 6145SOL     OW30070   0.703   3.627  12.383  0.3515  0.5174 -0.2952
 6145SOL    HW130071   0.784   3.591  12.346 -1.1090 -2.5119 -0.5466
 6145SOL    HW230072   0.721   3.606  12.474 -1.3529 -1.9207 -0.5243
 6146SOL     OW30073   4.197   3.785   4.389  0.0852 -0.0664 -0.3141
 6146SOL    HW130074   4.201   3.843   4.464  1.6229 -0.5066 -0.0664
 6146SOL    HW230075   4.152   3.711   4.432 -0.2978 -0.7280 -1.8498
 6147SOL     OW30076   3.001   3.837   7.793 -0.1868  0.2447  0.3183
 6147SOL    HW130077   3.094   3.853   7.782 -0.5505  1.0888 -1.5181
 6147SOL    HW230078   2.966   3.832   7.704  3.4117 -0.6713 -1.0155
 6148SOL     OW30079   2.386   1.810   4.691  0.1652  0.0746 -0.2458
 6148SOL    HW130080   2.295   1.829   4.714  0.2008  0.7870 -0.7317
 6148SOL    HW230081   2.370   1.763   4.610  0.9445 -0.9747  0.2015
 6149SOL     OW30082   3.654   1.970   3.748 -1.0014 -0.5267 -0.1960
 6149SOL    HW130083   3.559   1.971   3.757 -0.8780  3.3665  0.7824
 6149SOL    HW230084   3.681   1.887   3.787 -2.3537  0.0634  1.9908
 6150SOL     OW30085   0.430   2.292  17.542 -0.0547  0.1979 -0.5568
 6150SOL    HW130086   0.441   2.363  17.606 -1.5707 -0.7697  0.7922
 6150SOL    HW230087   0.515   2.298  17.500 -0.2285  0.3209 -0.8922
 6151SOL     OW30088   1.581   1.990  17.540  0.6593  0.0115 -0.6547
 6151SOL    HW130089   1.677   1.992  17.545  0.5940  1.5705 -0.1102
 6151SOL    HW230090   1.567   2.084  17.550 -3.1875 -0.3845 -2.5924
 6152SOL     OW30091   0.793   2.635   6.199 -0.0162  0.0886 -0.0295
 6152SOL    HW130092   0.747   2.600   6.123 -1.9962 -1.0845  1.6825
 6152SOL    HW230093   0.755   2.723   6.210  1.9870  1.1903 -1.8634
 6153SOL     OW30094   3.215   1.779   9.056 -0.4023 -0.0193 -0.1682
 6153SOL    HW130095   3.297   1.817   9.089 -0.5852 -1.1032  1.5687
 6153SOL    HW230096   3.221   1.795   8.962 -0.6505  1.9068  0.1458
 6154SOL     OW30097   0.851   1.558   3.834 -0.4077 -0.2796 -0.4957
 6154SOL    HW130098   0.926   1.584   3.780 -0.6956  0.4893 -0.5222
 6154SOL    HW230099   0.848   1.465   3.811  2.1502 -1.1438  2.5145
 6155SOL     OW30100   0.277   4.071   7.385  0.0610  0.6931 -0.3722
 6155SOL    HW130101   0.225   4.047   7.462  0.4741  2.7846  0.5437
 6155SOL    HW230102   0.279   4.163   7.411 -3.0755 -0.1913  3.0583
 6156SOL     OW30103   0.892   1.459   9.984 -0.1802  0.2207  0.4470
 6156SOL    HW130104   0.845   1.453   9.901 -2.6798  0.3265  1.8690
 6156SOL    HW230105   0.915   1.551   9.992 -0.6746  0.3908 -0.1153
 6157SOL     OW30106   2.509   4.149  15.959  0.1501 -0.0870  0.2142
 6157SOL    HW130107   2.501   4.056  15.982 -0.2337 -0.1166 -0.0233
 6157SOL    HW230108   2.598   4.157  15.926  1.7785 -0.0735  4.6548
 6158SOL     OW30109   3.477   2.048   0.857  0.0789 -0.4250 -0.6198
 6158SOL    HW130110   3.451   1.956   0.861  0.2239 -0.4174  0.4191
 6158SOL    HW230111   3.456   2.069   0.947 -0.7932  0.8604 -1.1322
 6159SOL     OW30112   3.791   1.049   3.142 -0.0072 -0.4559  0.4192
 6159SOL    HW130113   3.783   0.963   3.184 -1.2371 -0.2399  0.6203
 6159SOL    HW230114   3.720   1.096   3.185 -0.8822 -0.4308 -1.0439
 6160SOL     OW30115   0.333   4.288  17.724 -0.0492  0.2547 -0.4085
 6160SOL    HW130116   0.410   4.337  17.698  1.0585 -0.4666  1.5056
 6160SOL    HW230117   0.293   4.360   0.023  2.5466  0.9735  0.6426
 6161SOL     OW30118   2.141   1.845   4.760 -0.0649  0.3653  0.1351
 6161SOL    HW130119   2.110   1.766   4.804  0.6998  0.0641  0.1331
 6161SOL    HW230120   2.057   1.889   4.742  0.6886  1.9359  0.4539
 6162SOL     OW30121   3.671   2.673   4.483  0.1442  0.5522  0.0679
 6162SOL    HW130122   3.749   2.677   4.428 -0.4271  0.6193 -0.7288
 6162SOL    HW230123   3.694   2.729   4.557 -2.1013  2.9531 -1.0777
 6163SOL     OW30124   4.329   3.782  13.317 -0.0385  0.2779  0.1148
 6163SOL    HW130125   4.249   3.746  13.357 -1.2457 -0.0897 -2.6309
 6163SOL    HW230126   4.284   3.807  13.236  2.0050 -2.8748 -1.9918
 6164SOL     OW30127   2.525   3.920  17.185 -0.0092  0.6272  0.0322
 6164SOL    HW130128   2.548   3.838  17.140 -1.3822 -0.4460  1.2823
 6164SOL    HW230129   2.597   3.933  17.247  0.2814 -0.2814 -0.1138
 6165SOL     OW30130   3.605   3.326   2.431  0.0087  0.1576 -0.9268
 6165SOL    HW130131   3.548   3.397   2.460 -2.1159 -1.1343 -1.9269
 6165SOL    HW230132   3.553   3.277   2.367 -0.3446  0.0282 -0.5436
 6166SOL     OW30133   4.260   0.520  11.674 -0.5333 -0.4652 -0.5947
 6166SOL    HW130134   4.341   0.472  11.657  0.2116  1.1530 -1.6664
 6166SOL    HW230135   4.239   0.487  11.761 -0.6681 -1.7781 -1.1295
 6167SOL     OW30136   2.035   2.968   6.956  0.6347 -0.3929  0.4772
 6167SOL    HW130137   2.006   2.877   6.947  2.5345 -0.9870  0.2027
 6167SOL    HW230138   2.129   2.964   6.936  0.9707  0.1695  1.9728
 6168SOL     OW30139   2.389   0.407   9.166  0.4997  0.3008  0.1821
 6168SOL    HW130140   2.335   0.342   9.121  1.3496  0.9464 -1.7809
 6168SOL    HW230141   2.331   0.414   9.242  0.0959 -1.1986  0.0163
 6169SOL     OW30142   3.615   3.786  17.630  0.1208  0.2077  0.1311
 6169SOL    HW130143   3.627   3.691  17.634 -2.3709 -0.1410 -0.8204
 6169SOL    HW230144   3.659   3.809  17.712  2.0868 -0.5720 -0.6994
 6170SOL     OW30145   0.183   2.672   8.273  0.4990  0.2658 -0.0048
 6170SOL    HW130146   0.268   2.717   8.264  0.9174 -0.8820 -1.5943
 6170SOL    HW230147   0.204   2.589   8.316 -1.9293 -0.5760 -0.4865
 6171SOL     OW30148   4.025   3.044   6.286 -0.3473  0.3733  0.5421
 6171SOL    HW130149   4.082   2.969   6.302  0.4965  1.1232  1.0783
 6171SOL    HW230150   4.041   3.063   6.193  0.5542 -2.3369  0.1606
 6172SOL     OW30151   4.243   0.368   0.808  0.1426 -0.3494 -0.0344
 6172SOL    HW130152   4.230   0.278   0.780  0.0452  0.1456 -1.5548
 6172SOL    HW230153   4.263   0.409   0.724 -1.0030 -1.8934 -1.0598
 6173SOL     OW30154   3.127   1.262   6.532  0.6363  0.1299  0.0291
 6173SOL    HW130155   3.133   1.296   6.442  0.9929  0.5517  0.2118
 6173SOL    HW230156   3.205   1.282   6.583  0.1918 -0.3280  0.8860
 6174SOL     OW30157   1.431   4.310  16.887  0.3104 -0.0669 -0.2173
 6174SOL    HW130158   1.444   4.216  16.875  0.7929 -0.1992  1.3673
 6174SOL    HW230159   1.498   4.343  16.827  1.2367  0.6235  1.1883
 6175SOL     OW30160   2.165   2.107  11.777 -0.3755 -0.6081  0.2972
 6175SOL    HW130161   2.084   2.158  11.767  0.4325  1.0092  2.0943
 6175SOL    HW230162   2.207   2.137  11.858 -0.2132 -0.3547  0.1197
 6176SOL     OW30163   3.220   3.699   4.611  0.2762  0.6354  0.7456
 6176SOL    HW130164   3.243   3.688   4.519 -1.6020  1.9628  0.1235
 6176SOL    HW230165   3.127   3.680   4.606  1.1268 -2.8830 -1.2737
 6177SOL     OW30166   4.500   1.229   8.012 -0.1870  0.4457  0.4650
 6177SOL    HW130167   4.576   1.174   8.032  0.3877  0.5584 -1.4468
 6177SOL    HW230168   4.511   1.238   7.918 -2.0880 -1.7161  0.0103
 6178SOL     OW30169   4.683   2.030   7.698 -0.0609  0.5893  0.2346
 6178SOL    HW130170   4.620   2.008   7.767  2.8523 -2.8139  1.8384
 6178SOL    HW230171   4.628   2.021   7.620 -0.2494 -1.8950  0.6439
 6179SOL     OW30172   2.192   3.239   5.916 -1.0324  0.7311 -0.3556
 6179SOL    HW130173   2.248   3.272   5.986 -1.7267 -1.0958  1.0605
 6179SOL    HW230174   2.233   3.275   5.837  0.8465  0.9207  0.6975
 6180SOL     OW30175   0.745   3.018   5.532  0.7326 -0.1307 -0.7684
 6180SOL    HW130176   0.816   3.044   5.591 -1.2036 -0.5981  1.7594
 6180SOL    HW230177   0.733   2.929   5.563 -0.2761  0.5605  0.8377
 6181SOL     OW30178   0.245   4.487  10.136 -0.1661 -0.0321 -0.2883
 6181SOL    HW130179   0.262   4.420  10.202  0.4365 -0.6262 -1.0311
 6181SOL    HW230180   0.160   4.512  10.170  0.3204  0.1680  0.7733
 6182SOL     OW30181   0.123   1.357   7.259  0.2687  0.4733  0.1870
 6182SOL    HW130182   0.116   1.301   7.336  1.0574 -0.6310 -0.5423
 6182SOL    HW230183   0.203   1.332   7.215  1.1182 -1.7773  3.0265
 6183SOL     OW30184   1.956   4.734   9.020  0.2133  0.2331  0.0264
 6183SOL    HW130185   1.929   4.732   8.928  2.7470  1.2123 -0.7585
 6183SOL    HW230186   1.935   0.080   9.060  0.1882  0.5871 -0.7299
 6184SOL     OW30187   2.021   2.053   4.529  0.0897 -0.0071  0.7772
 6184SOL    HW130188   1.981   2.034   4.614  0.1630  0.0423  0.8234
 6184SOL    HW230189   1.951   2.074   4.467  3.3456 -2.2446 -3.6758
 6185SOL     OW30190   3.733   4.408   7.136 -0.3814  0.3573 -0.1867
 6185SOL    HW130191   3.817   4.376   7.166 -0.0098  2.2326  0.7749
 6185SOL    HW230192   3.760   4.493   7.100  4.3645 -1.0818  0.0216
 6186SOL     OW30193   4.190   2.774   0.418 -0.1612 -0.0383 -0.4283
 6186SOL    HW130194   4.104   2.817   0.418 -0.0908  0.1020 -0.2772
 6186SOL    HW230195   4.200   2.786   0.513 -3.6662 -0.3866 -0.0110
 6187SOL     OW30196   1.364   4.698  12.006 -0.0020 -0.0064 -0.4658
 6187SOL    HW130197   1.432   4.662  11.949 -0.4427 -0.9431 -0.3935
 6187SOL    HW230198   1.401   0.048  12.014 -1.5651  0.6046  0.1144
 6188SOL     OW30199   2.307   4.085   2.118  0.1238 -0.0334 -0.2804
 6188SOL    HW130200   2.274   4.011   2.168  1.2619 -0.9880 -0.9335
 6188SOL    HW230201   2.225   4.131   2.101 -1.3962 -1.3074  3.4819
 6189SOL     OW30202   4.711   1.375   0.685  0.1020 -0.1079  0.2836
 6189SOL    HW130203   4.710   1.304   0.748 -0.0983  1.0857  1.6227
 6189SOL    HW230204   4.706   1.454   0.739  0.7363 -0.6368  1.1072
 6190SOL     OW30205   2.325   2.479   6.576 -0.3884  0.4834 -0.3577
 6190SOL    HW130206   2.375   2.548   6.619  0.2138 -0.4003  0.3599
 6190SOL    HW230207   2.401   2.434   6.539 -0.2061 -0.7036  1.4306
 6191SOL     OW30208   2.280   3.287   5.075 -0.2736  0.1765 -0.5003
 6191SOL    HW130209   2.285   3.209   5.020 -1.1352  1.2310 -2.0947
 6191SOL    HW230210   2.364   3.331   5.067 -0.8342  1.2875 -0.3154
 6192SOL     OW30211   0.474   1.453   8.458 -0.1162  0.1463 -0.6070
 6192SOL    HW130212   0.460   1.392   8.386 -1.1147  0.9630 -1.1083
 6192SOL    HW230213   0.396   1.441   8.513 -1.7969  0.9897 -2.8140
 6193SOL     OW30214   0.048   2.676   6.355 -0.6571 -0.0668  0.1407
 6193SOL    HW130215   0.082   2.683   6.266  0.9790 -1.1564  0.6791
 6193SOL    HW230216   4.695   2.702   6.341  0.0045  2.0496 -0.2271
 6194SOL     OW30217   2.272   3.734  16.952  0.6556 -0.2154  0.0617
 6194SOL    HW130218   2.284   3.794  16.878  1.3221 -2.8385 -1.9228
 6194SOL    HW230219   2.341   3.669  16.949 -0.8257 -1.7586 -0.5763
 6195SOL     OW30220   4.435   1.866  16.582  0.2185  0.2791 -0.7677
 6195SOL    HW130221   4.520   1.831  16.608  0.2274 -0.4817 -1.8012
 6195SOL    HW230222   4.450   1.896  16.492 -1.2474 -0.2436 -1.1856
 6196SOL     OW30223   1.957   1.961  15.953 -0.3337 -0.3417  0.2818
 6196SOL    HW130224   1.976   1.989  16.042 -0.3081 -0.0839  0.1934
 6196SOL    HW230225   1.945   2.036  15.894 -0.6246 -0.2981  0.3991
 6197SOL     OW30226   3.981   2.849   2.219 -0.7619  0.2985 -0.1612
 6197SOL    HW130227   4.036   2.816   2.149 -1.1700 -0.0232 -0.3271
 6197SOL    HW230228   3.895   2.818   2.191 -1.5705  0.0786  2.4709
 6198SOL     OW30229   1.526   2.015   4.935  0.2497  0.0652 -0.8810
 6198SOL    HW130230   1.433   1.998   4.946  0.2309  1.2328  0.6822
 6198SOL    HW230231   1.524   2.034   4.841 -1.4671 -0.2805 -0.9172
 6199SOL     OW30232   3.810   1.493   2.115 -0.0559  0.1895 -0.4517
 6199SOL    HW130233   3.840   1.584   2.120  0.0452  0.1520 -0.3705
 6199SOL    HW230234   3.804   1.473   2.209 -3.4252 -0.0908 -0.7288
 6200SOL     OW30235   0.820   0.237   7.812 -0.1804  0.0383  0.1095
 6200SOL    HW130236   0.788   0.324   7.835  0.2314 -0.5440  2.8683
 6200SOL    HW230237   0.820   0.207   7.903  1.5518 -0.8117 -0.1721
 6201SOL     OW30238   0.682   0.936   7.198 -0.3542 -0.1836  0.3789
 6201SOL    HW130239   0.714   0.847   7.180  1.6340  0.1020  2.3814
 6201SOL    HW230240   0.710   0.946   7.289 -1.3271  1.0105  0.5367
 6202SOL     OW30241   2.811   2.534   4.155  0.4019  0.2675 -0.3898
 6202SOL    HW130242   2.807   2.592   4.231  1.6786  0.3469 -0.3848
 6202SOL    HW230243   2.892   2.493   4.183 -0.1893 -2.3104 -2.4827
 6203SOL     OW30244   3.580   2.853   5.053 -0.0063  0.3940 -0.0442
 6203SOL    HW130245   3.638   2.918   5.093  0.5085 -0.2308  0.2154
 6203SOL    HW230246   3.534   2.813   5.127  1.0176  0.3606  0.5784
 6204SOL     OW30247   4.408   3.869   3.025 -0.3228  0.0037  0.6206
 6204SOL    HW130248   4.460   3.893   3.101 -1.0908 -2.0730  1.8081
 6204SOL    HW230249   4.474   3.899   2.962  1.0296  1.2036  2.6306
 6205SOL     OW30250   2.448   4.198   4.158 -0.1024  0.4840  0.1933
 6205SOL    HW130251   2.482   4.115   4.192  0.3712  0.6911  0.2241
 6205SOL    HW230252   2.393   4.230   4.229 -0.2793 -1.5452  0.9551
 6206SOL     OW30253   0.274   1.275   5.046  0.0880 -0.2894  0.0502
 6206SOL    HW130254   0.210   1.213   5.011 -2.2896  1.0199  2.0336
 6206SOL    HW230255   0.324   1.306   4.971  0.6132 -0.0092  0.5120
 6207SOL     OW30256   4.225   3.293   3.683  0.1378 -0.5547  0.0508
 6207SOL    HW130257   4.312   3.299   3.643  0.0194 -2.6370 -0.5018
 6207SOL    HW230258   4.195   3.206   3.655  1.1745 -1.4358  1.7209
 6208SOL     OW30259   2.107   2.506   9.082 -0.0509 -0.8468  0.0222
 6208SOL    HW130260   2.126   2.473   8.993 -0.5208 -1.3389  0.1037
 6208SOL    HW230261   2.012   2.496   9.081 -0.2537  1.0065  3.7644
 6209SOL     OW30262   1.839   1.913  14.773  0.1440 -0.0454 -0.1444
 6209SOL    HW130263   1.883   1.862  14.705  0.7184  1.1655 -0.6701
 6209SOL    HW230264   1.788   1.979  14.727  0.1980 -0.2531 -0.5004
 6210SOL     OW30265   4.254   3.732   8.099  0.4050 -0.6721  0.1338
 6210SOL    HW130266   4.206   3.758   8.021 -0.5310 -1.4343  0.4514
 6210SOL    HW230267   4.336   3.690   8.074  0.3459 -0.2506 -0.7652
 6211SOL     OW30268   1.002   0.892  10.479  0.2556  0.1907 -0.2129
 6211SOL    HW130269   0.944   0.957  10.440  1.7024  1.3116 -0.5027
 6211SOL    HW230270   1.086   0.935  10.465  0.4122 -1.0329 -3.0376
 6212SOL     OW30271   0.588   0.675   1.441  0.1723 -0.1973  0.3220
 6212SOL    HW130272   0.602   0.612   1.370 -1.6613 -0.4083  0.1583
 6212SOL    HW230273   0.633   0.757   1.419  0.1669  0.5165  2.8965
 6213SOL     OW30274   2.795   2.186   8.613  0.3622  0.1144 -0.4143
 6213SOL    HW130275   2.839   2.195   8.528  1.6848  3.5857  0.6107
 6213SOL    HW230276   2.853   2.232   8.674  0.5726  0.7703 -1.1160
 6214SOL     OW30277   2.870   2.103   7.959 -0.0017  0.3413 -0.0140
 6214SOL    HW130278   2.842   2.050   8.034  0.6047  0.0619  0.0129
 6214SOL    HW230279   2.901   2.036   7.897 -0.5587  1.1517 -1.1676
 6215SOL     OW30280   3.976   4.704  17.036 -0.9253  0.0022  0.6499
 6215SOL    HW130281   3.989   4.719  16.943  0.4470  0.2468  0.8807
 6215SOL    HW230282   4.008   4.620  17.070 -0.0566  0.4776  1.0176
 6216SOL     OW30283   3.671   4.657   7.450  0.3474 -0.0783 -0.1797
 6216SOL    HW130284   3.612   4.728   7.475  1.7481  0.3628  1.8348
 6216SOL    HW230285   3.696   4.689   7.363  1.6968 -0.9507 -0.1185
 6217SOL     OW30286   2.125   3.394  13.461 -0.1709  0.5031  0.7955
 6217SOL    HW130287   2.056   3.393  13.527  0.1480  1.6289  1.1473
 6217SOL    HW230288   2.134   3.488  13.474  2.3572  0.4899 -0.6905
 6218SOL     OW30289   3.222   3.017   0.973 -0.2176 -0.0179 -0.4115
 6218SOL    HW130290   3.167   2.946   0.940 -0.1020 -0.9441  1.3887
 6218SOL    HW230291   3.295   2.976   1.018 -1.0612 -0.8259  0.2272
 6219SOL     OW30292   2.674   2.087  10.083 -0.3001 -0.6533  0.2698
 6219SOL    HW130293   2.740   2.017  10.090  0.3988  0.1636  1.8278
 6219SOL    HW230294   2.593   2.036  10.085  0.0839 -1.2883 -0.3380
 6220SOL     OW30295   2.308   4.182   4.891  0.5722 -0.0200  0.0418
 6220SOL    HW130296   2.269   4.270   4.893 -1.1887 -0.7803 -0.3056
 6220SOL    HW230297   2.234   4.124   4.909  2.0140 -1.6513  0.5935
 6221SOL     OW30298   4.690   2.513   7.269  0.3550  0.3856 -0.1105
 6221SOL    HW130299   0.012   2.445   7.303  1.8697  1.3663 -0.8369
 6221SOL    HW230300   4.668   2.474   7.185 -2.4371  0.8568  0.4090
 6222SOL     OW30301   4.079   2.448   8.847 -0.3080 -0.3639  0.0525
 6222SOL    HW130302   4.000   2.464   8.899  0.1676  1.7711  0.1206
 6222SOL    HW230303   4.102   2.536   8.818 -0.8109 -0.1117  0.4119
 6223SOL     OW30304   3.982   0.689   8.371 -0.8117 -0.0392 -0.3257
 6223SOL    HW130305   4.004   0.596   8.378  0.7495  0.1325 -3.0355
 6223SOL    HW230306   3.887   0.706   8.373 -0.7139  0.4818 -0.1810
 6224SOL     OW30307   2.141   2.803   9.368 -0.6123 -0.2732  0.4532
 6224SOL    HW130308   2.148   2.837   9.458 -2.2891  0.2700  0.3843
 6224SOL    HW230309   2.051   2.771   9.362 -0.8938  0.5934  0.1187
 6225SOL     OW30310   0.029   3.898   9.175 -0.0133 -0.1216 -0.3150
 6225SOL    HW130311   0.005   3.914   9.084 -1.0758 -3.1752 -0.5759
 6225SOL    HW230312   4.685   3.934   9.209 -1.3939 -2.0375 -1.5843
 6226SOL     OW30313   4.404   1.624   6.899  0.4829 -0.0313 -0.2551
 6226SOL    HW130314   4.474   1.560   6.887  0.9483  0.5740 -0.7773
 6226SOL    HW230315   4.416   1.641   6.992  2.4340 -2.6337 -0.0288
 6227SOL     OW30316   1.739   2.881   9.363 -0.2517 -0.5056 -0.0131
 6227SOL    HW130317   1.686   2.923   9.431 -3.0775 -0.8743 -1.9752
 6227SOL    HW230318   1.727   2.932   9.283 -0.6613  0.9208  0.9530
 6228SOL     OW30319   1.532   4.529   3.173 -0.2419 -0.0054  0.3734
 6228SOL    HW130320   1.622   4.501   3.160 -0.9165 -1.3074 -1.4444
 6228SOL    HW230321   1.486   4.445   3.181  0.1559 -0.4332 -1.9921
 6229SOL     OW30322   0.081   0.819   8.423  0.6135  0.2845  0.1228
 6229SOL    HW130323   0.030   0.739   8.407  2.3303 -0.8028  0.0644
 6229SOL    HW230324   0.171   0.786   8.420  1.0309  1.3817  0.7319
 6230SOL     OW30325   0.024   0.068   3.730 -0.1315 -0.0828 -0.5296
 6230SOL    HW130326   4.679   0.115   3.736 -1.0281 -1.8220  0.6994
 6230SOL    HW230327   0.084   0.132   3.692  0.8447 -0.3018  0.6239
 6231SOL     OW30328   4.537   2.586   5.541 -0.0291 -0.1916  0.0028
 6231SOL    HW130329   4.526   2.502   5.496 -0.0312  0.9037 -2.0745
 6231SOL    HW230330   4.515   2.647   5.470  1.1966  1.2311  0.8608
 6232SOL     OW30331   1.239   2.837   8.980  0.1582 -0.3760  0.4009
 6232SOL    HW130332   1.232   2.762   8.921 -0.7766  1.6757 -2.1121
 6232SOL    HW230333   1.314   2.812   9.033  0.6098  0.0146 -0.0497
 6233SOL     OW30334   4.395   2.101  17.658 -0.0725  0.4547 -0.3495
 6233SOL    HW130335   4.401   2.196  17.662 -2.3551  0.5697  0.2563
 6233SOL    HW230336   4.318   2.090  17.713  1.1439 -1.2071  1.0456
 6234SOL     OW30337   0.193   0.756   6.885  0.7325  0.1398  0.4112
 6234SOL    HW130338   0.146   0.799   6.813  1.0192 -2.2450 -1.2128
 6234SOL    HW230339   0.124   0.709   6.932 -0.9121 -0.1663 -2.2740
 6235SOL     OW30340   2.898   4.674  11.822 -0.0283  0.5708  0.5392
 6235SOL    HW130341   2.977   4.700  11.869  0.4297  1.5321 -0.7427
 6235SOL    HW230342   2.879   4.589  11.861 -1.4738 -0.5501 -2.6508
 6236SOL     OW30343   3.422   4.620  10.834  0.1660  0.3928  0.4655
 6236SOL    HW130344   3.352   4.684  10.846 -0.4979 -0.5174  1.4308
 6236SOL    HW230345   3.378   4.535  10.846  2.7464 -0.6394  2.5450
 6237SOL     OW30346   0.233   1.962   7.720  0.2865 -0.3662  0.2627
 6237SOL    HW130347   0.141   1.991   7.719  0.3381 -0.1505  2.0998
 6237SOL    HW230348   0.286   2.029   7.763  1.7697 -1.3027 -0.1446
 6238SOL     OW30349   3.980   4.211  14.214  0.1000 -0.3231  0.4694
 6238SOL    HW130350   3.917   4.179  14.278  2.6480 -3.1970  1.5606
 6238SOL    HW230351   3.940   4.170  14.137  1.1839  1.4491 -1.0393
 6239SOL     OW30352   1.710   2.397   7.381  0.3168 -0.6031  0.3558
 6239SOL    HW130353   1.774   2.393   7.310 -0.9105  0.2711 -0.7876
 6239SOL    HW230354   1.758   2.382   7.462  0.4285  0.8139  0.5359
 6240SOL     OW30355   1.779   1.888   5.485  0.3130 -0.0334 -0.2697
 6240SOL    HW130356   1.826   1.877   5.568 -0.6357 -0.3845  0.2107
 6240SOL    HW230357   1.826   1.960   5.442 -1.4383  0.5260 -1.2338
 6241SOL     OW30358   3.897   1.855   4.686 -0.4063  0.9546  0.4757
 6241SOL    HW130359   3.908   1.766   4.719  0.4285  0.5331 -0.9264
 6241SOL    HW230360   3.845   1.854   4.605  0.2346 -1.6815  0.0952
 6242SOL     OW30361   4.017   0.700   9.614 -0.3188 -0.1278  0.8582
 6242SOL    HW130362   4.103   0.720   9.652 -0.2307 -0.0266  0.6106
 6242SOL    HW230363   4.028   0.687   9.520 -0.7187  0.9389  0.6609
 6243SOL     OW30364   0.558   3.317   2.443 -0.0399  0.6132  1.0141
 6243SOL    HW130365   0.499   3.380   2.485 -0.3153  0.1824  1.2804
 6243SOL    HW230366   0.524   3.316   2.353  0.9799  0.5716  0.6368
 6244SOL     OW30367   3.469   1.474  10.923  0.8842 -0.2754 -0.0726
 6244SOL    HW130368   3.504   1.451  10.837  0.0468 -1.1433 -0.1830
 6244SOL    HW230369   3.531   1.438  10.986 -0.0723 -0.7538  0.6014
 6245SOL     OW30370   1.349   0.973   5.352  0.1633 -0.1756  0.4022
 6245SOL    HW130371   1.335   1.040   5.286 -0.8571  0.1872  0.9892
 6245SOL    HW230372   1.325   0.897   5.300  0.8044  0.1073 -0.3114
 6246SOL     OW30373   4.223   0.206   6.775  0.5220  0.4653 -0.0384
 6246SOL    HW130374   4.292   0.253   6.823  0.2969  3.5466 -2.7168
 6246SOL    HW230375   4.155   0.252   6.824 -0.1938 -0.7864  0.1262
 6247SOL     OW30376   4.319   3.724   7.632 -0.5720 -0.1448  0.1754
 6247SOL    HW130377   4.259   3.738   7.559  0.2220 -1.7878 -0.7870
 6247SOL    HW230378   4.260   3.707   7.705 -0.9705  0.0787 -0.0933
 6248SOL     OW30379   1.883   0.214   0.023 -0.3154 -0.6308  0.0416
 6248SOL    HW130380   1.901   0.257  17.689  1.2774 -0.4859  0.4625
 6248SOL    HW230381   1.967   0.171   0.041  0.7464  1.4211 -0.0112
 6249SOL     OW30382   3.082   3.433   2.291 -0.2395  0.4678 -0.3164
 6249SOL    HW130383   3.037   3.503   2.340  1.6221  0.3639  1.5637
 6249SOL    HW230384   3.165   3.476   2.270 -0.7978  1.5484 -0.3444
 6250SOL     OW30385   1.867   3.011   6.577 -0.1699 -0.7833 -0.1677
 6250SOL    HW130386   1.885   2.936   6.634  0.0143 -1.2040 -0.7838
 6250SOL    HW230387   1.818   3.063   6.641  1.9972  0.3296  0.5849
 6251SOL     OW30388   3.827   1.329   2.341  0.0358 -0.6649  0.0130
 6251SOL    HW130389   3.913   1.306   2.374 -0.3817 -2.6205 -0.3030
 6251SOL    HW230390   3.771   1.290   2.408  0.6639 -0.7557  0.4843
 6252SOL     OW30391   2.895   1.698  11.229 -0.1272 -0.0400  0.2452
 6252SOL    HW130392   2.973   1.749  11.250  0.0066  0.4963 -1.6013
 6252SOL    HW230393   2.889   1.634  11.300 -0.8562 -1.1552 -0.8111
 6253SOL     OW30394   3.315   1.960  11.053 -0.7391 -0.3283  0.1576
 6253SOL    HW130395   3.221   1.943  11.063 -0.9680 -0.2503 -1.7658
 6253SOL    HW230396   3.352   1.884  11.098 -0.2135 -1.1054 -1.5503
 6254SOL     OW30397   1.736   1.231   3.862  0.1210 -0.1187 -0.1363
 6254SOL    HW130398   1.683   1.178   3.922 -1.0855  0.7784 -0.4040
 6254SOL    HW230399   1.672   1.277   3.807 -0.3499 -1.8029 -0.9866
 6255SOL     OW30400   3.044   0.982   6.768 -0.4516 -0.2101  0.3284
 6255SOL    HW130401   3.007   0.894   6.763 -1.5077  0.2658 -0.1266
 6255SOL    HW230402   2.973   1.021   6.819  0.1280  0.7347  0.4199
 6256SOL     OW30403   0.700   3.290   8.093  0.1732 -0.3285  0.2013
 6256SOL    HW130404   0.620   3.311   8.142  1.0650 -0.6981  1.8128
 6256SOL    HW230405   0.746   3.373   8.106  0.6246 -0.6911  0.8467
 6257SOL     OW30406   3.677   3.299   2.813 -0.3908 -0.5219 -0.4211
 6257SOL    HW130407   3.712   3.377   2.857 -0.2107 -0.3096 -0.9424
 6257SOL    HW230408   3.639   3.346   2.739  1.6084  0.6947 -0.6800
 6258SOL     OW30409   3.561   1.230   0.510  1.0246  0.5232  0.0141
 6258SOL    HW130410   3.468   1.231   0.532  0.8517  3.0084 -0.8649
 6258SOL    HW230411   3.574   1.138   0.484  0.4199  0.3623  0.2588
 6259SOL     OW30412   3.051   2.694   1.488  0.3262 -0.1181 -0.0464
 6259SOL    HW130413   3.049   2.599   1.494 -0.3792 -0.0299  1.0544
 6259SOL    HW230414   3.072   2.706   1.395  1.7184  1.2348  0.4428
 6260SOL     OW30415   4.205   0.707   7.808 -0.3469  0.1302 -0.4714
 6260SOL    HW130416   4.294   0.683   7.834  0.2714  2.6664 -0.2278
 6260SOL    HW230417   4.216   0.800   7.828  0.3294  0.1829 -1.0714
 6261SOL     OW30418   2.288   2.935   4.351 -0.0140 -0.2838 -0.0311
 6261SOL    HW130419   2.218   2.871   4.364 -1.4751  1.3071 -0.0745
 6261SOL    HW230420   2.346   2.897   4.417  0.8747  0.2592 -0.4918
 6262SOL     OW30421   1.039   2.847  14.111 -0.3443 -0.0901 -0.2612
 6262SOL    HW130422   0.988   2.867  14.033 -0.4749 -2.4613 -0.8027
 6262SOL    HW230423   1.094   2.774  14.084 -0.9795 -0.4241 -0.6576
 6263SOL     OW30424   2.779   2.815   4.895 -0.0219 -0.0944 -0.1970
 6263SOL    HW130425   2.735   2.900   4.905 -0.0747 -0.3554  1.7857
 6263SOL    HW230426   2.826   2.804   4.977  0.0696  1.5592 -0.0260
 6264SOL     OW30427   4.053   1.054  17.453 -0.1650 -0.6973 -0.1827
 6264SOL    HW130428   4.064   1.044  17.548 -0.9971 -0.8782 -0.1033
 6264SOL    HW230429   4.120   1.004  17.406  0.6718  0.2651 -0.0064
 6265SOL     OW30430   0.445   4.619   3.068 -0.0035  0.1124 -0.1752
 6265SOL    HW130431   0.387   4.572   3.128 -0.8776  0.3149 -0.8598
 6265SOL    HW230432   0.425   4.577   2.984  2.2881 -0.9361 -0.1841
 6266SOL     OW30433   2.130   4.199   5.592  0.5504  0.4986  0.2114
 6266SOL    HW130434   2.163   4.279   5.551  0.9757 -0.0158 -0.4615
 6266SOL    HW230435   2.208   4.170   5.640 -0.5073 -2.9953 -0.1315
 6267SOL     OW30436   1.930   1.738   9.493 -0.0789 -0.5208  0.2386
 6267SOL    HW130437   1.913   1.822   9.450 -1.9687 -1.5426 -1.0117
 6267SOL    HW230438   2.005   1.706   9.444  1.1637  0.1164  1.7116
 6268SOL     OW30439   0.807   0.681   3.806  0.3105 -0.4550 -0.1842
 6268SOL    HW130440   0.726   0.637   3.783 -0.4068 -0.3756  2.2077
 6268SOL    HW230441   0.869   0.648   3.741  0.2092  0.9531 -0.9897
 6269SOL     OW30442   3.077   3.772   0.330  0.3067 -0.7283 -0.2390
 6269SOL    HW130443   3.103   3.722   0.253  2.1253  1.3767 -0.9778
 6269SOL    HW230444   3.121   3.722   0.399  0.3628  0.0506  0.2845
 6270SOL     OW30445   2.884   2.756   4.631 -0.4918  0.0050 -0.3969
 6270SOL    HW130446   2.976   2.749   4.659 -0.1127  0.3021 -1.5642
 6270SOL    HW230447   2.845   2.785   4.714  2.0439  1.6847  0.2099
 6271SOL     OW30448   2.252   2.121   3.350  0.1560 -0.5287  0.2441
 6271SOL    HW130449   2.294   2.036   3.359 -0.6974 -1.2622 -2.4854
 6271SOL    HW230450   2.225   2.147   3.438 -0.1868  1.2227 -0.3645
 6272SOL     OW30451   3.583   3.773   5.174  1.0048  0.5673 -0.6134
 6272SOL    HW130452   3.533   3.843   5.133 -0.4582 -0.2276 -0.2048
 6272SOL    HW230453   3.590   3.695   5.119  0.8516 -0.9911  1.5379
 6273SOL     OW30454   3.155   2.678  16.543 -0.0184 -0.4757  0.1290
 6273SOL    HW130455   3.123   2.647  16.458  0.4079 -1.4394  0.3184
 6273SOL    HW230456   3.148   2.772  16.526  1.3733 -0.2864  0.5869
 6274SOL     OW30457   0.533   3.088   1.532 -0.0879  0.3846  0.7168
 6274SOL    HW130458   0.581   3.141   1.468  0.3421  0.4844  1.1247
 6274SOL    HW230459   0.602   3.038   1.575 -0.7600 -1.3500 -0.2393
 6275SOL     OW30460   1.230   4.045   6.349  0.2318 -0.2182 -0.6610
 6275SOL    HW130461   1.209   3.969   6.294 -0.2863  0.2472 -1.1002
 6275SOL    HW230462   1.151   4.043   6.402 -0.7839 -0.6277 -2.1976
 6276SOL     OW30463   4.494   1.902   3.894 -0.4726 -0.6053 -0.0170
 6276SOL    HW130464   4.434   1.831   3.869 -0.3140 -0.7765  0.0862
 6276SOL    HW230465   4.464   1.975   3.841 -0.1212 -0.2279  0.3065
 6277SOL     OW30466   0.568   2.655   2.317 -0.2915  0.5065 -0.0842
 6277SOL    HW130467   0.575   2.679   2.410 -1.7195 -0.3556  0.2322
 6277SOL    HW230468   0.657   2.630   2.293 -0.6570  0.1305 -1.0150
 6278SOL     OW30469   2.939   4.459   2.076  0.7982  0.5696 -0.3724
 6278SOL    HW130470   2.923   4.553   2.091  0.1396  0.6041 -1.2850
 6278SOL    HW230471   3.020   4.472   2.027 -2.2941  1.9733 -5.1285
 6279SOL     OW30472   3.734   3.874   4.260  0.7288  0.1363 -0.4447
 6279SOL    HW130473   3.783   3.852   4.339  1.6547  1.9456 -0.4982
 6279SOL    HW230474   3.650   3.840   4.290  0.8725  1.2451  1.1748
 6280SOL     OW30475   2.741   3.724   8.522 -0.5446  0.9772 -0.4303
 6280SOL    HW130476   2.836   3.714   8.520 -0.5544  0.8441 -0.2850
 6280SOL    HW230477   2.718   3.719   8.615 -1.3167  0.1464 -0.6653
 6281SOL     OW30478   2.805   1.067   3.314 -0.1514 -0.4206  0.0359
 6281SOL    HW130479   2.772   1.156   3.304  0.6799 -0.4918 -3.2157
 6281SOL    HW230480   2.718   1.032   3.334 -1.6617  2.0437 -2.1623
 6282SOL     OW30481   4.720   2.934  13.326  0.2710 -0.6746 -0.3294
 6282SOL    HW130482   4.660   3.001  13.292  1.8907  2.2656  2.5411
 6282SOL    HW230483   4.683   2.850  13.299  1.4211 -1.1705 -0.3649
 6283SOL     OW30484   2.060   0.876  12.370 -0.1132 -0.2077  0.5368
 6283SOL    HW130485   2.023   0.792  12.398  0.9430 -1.3170 -1.4181
 6283SOL    HW230486   2.137   0.848  12.321  0.7242 -0.1638  1.8349
 6284SOL     OW30487   0.178   4.035   2.712 -0.3455 -0.2629 -0.4470
 6284SOL    HW130488   0.147   4.118   2.676 -0.8317  0.2708  1.1863
 6284SOL    HW230489   0.243   4.069   2.773 -0.7118 -2.7969  1.3381
 6285SOL     OW30490   3.210   2.162   3.643 -0.3332 -0.2072 -0.7625
 6285SOL    HW130491   3.239   2.223   3.711 -0.2946 -0.7559 -0.2858
 6285SOL    HW230492   3.155   2.109   3.701  1.8763 -0.9265  0.6794
 6286SOL     OW30493   2.149   2.137   5.797 -0.1562  0.6076 -0.0300
 6286SOL    HW130494   2.183   2.177   5.716  0.2076 -0.8660 -0.6118
 6286SOL    HW230495   2.114   2.213   5.843  1.6807  1.0304  0.6698
 6287SOL     OW30496   4.351   3.743   6.566 -0.0880 -0.3100 -1.0194
 6287SOL    HW130497   4.295   3.666   6.580 -1.7522  0.6990 -2.1575
 6287SOL    HW230498   4.287   3.808   6.595  0.2840 -1.2192  1.8763
 6288SOL     OW30499   0.987   0.581   1.787 -0.0018 -0.7924  0.2281
 6288SOL    HW130500   0.960   0.594   1.878  0.5701 -0.7840  0.3972
 6288SOL    HW230501   0.900   0.588   1.747  0.6682  1.4525 -0.8404
 6289SOL     OW30502   1.503   0.490   3.873 -0.1841  0.1887  0.6532
 6289SOL    HW130503   1.473   0.557   3.935  1.2629  3.5547 -2.2196
 6289SOL    HW230504   1.428   0.432   3.881 -0.4380  0.5808  1.1142
 6290SOL     OW30505   3.234   4.267   5.221 -0.0750  0.1346 -0.1312
 6290SOL    HW130506   3.142   4.245   5.227  0.1928 -1.3319 -1.4647
 6290SOL    HW230507   3.277   4.191   5.260  1.1359  0.3797 -0.9879
 6291SOL     OW30508   4.269   4.166   7.406  0.7125 -0.0772 -0.2514
 6291SOL    HW130509   4.298   4.222   7.478 -1.4946  0.8026 -0.0649
 6291SOL    HW230510   4.175   4.180   7.403  0.5826 -1.6478 -3.6839
 6292SOL     OW30511   1.588   3.987   3.122  0.1657  0.3536 -0.1922
 6292SOL    HW130512   1.640   3.907   3.112 -0.3090 -0.1258  1.2571
 6292SOL    HW230513   1.499   3.955   3.109  0.1442  0.1268  0.5324
 6293SOL     OW30514   2.420   2.344   4.973  0.1398 -0.2747 -0.0989
 6293SOL    HW130515   2.435   2.264   5.024 -0.3819 -1.1370 -1.3068
 6293SOL    HW230516   2.434   2.412   5.040 -2.1872  0.6475 -0.5361
 6294SOL     OW30517   0.279   1.250   6.946 -0.1795 -0.0757 -0.0642
 6294SOL    HW130518   0.236   1.336   6.942 -2.2224 -1.0188  1.4647
 6294SOL    HW230519   0.207   1.189   6.962 -0.2964  0.4240  1.3404
 6295SOL     OW30520   1.524   4.464   4.739 -0.1281  0.3951  0.3205
 6295SOL    HW130521   1.483   4.523   4.802 -0.5573 -0.8104  1.1483
 6295SOL    HW230522   1.609   4.474   4.781 -0.5856  1.4997  0.9795
 6296SOL     OW30523   0.689   1.922   6.919  0.4238 -0.0537 -0.4883
 6296SOL    HW130524   0.777   1.960   6.924  0.2917  0.2405 -0.3705
 6296SOL    HW230525   0.700   1.827   6.917  2.9466  0.2757 -2.6391
 6297SOL     OW30526   1.095   3.766   2.853  0.1819 -0.5163  0.5915
 6297SOL    HW130527   1.074   3.713   2.930 -1.1541  1.0971  1.3568
 6297SOL    HW230528   1.008   3.804   2.841 -0.5500 -2.4439 -0.0939
 6298SOL     OW30529   4.663   1.944   8.842 -0.0291 -0.0917  0.6749
 6298SOL    HW130530   4.634   2.010   8.905 -0.1755  1.0702 -0.6145
 6298SOL    HW230531   4.592   1.880   8.843 -2.8753  3.0662 -0.4016
 6299SOL     OW30532   0.782   3.038  13.491  0.5832 -0.0296 -0.6985
 6299SOL    HW130533   0.808   3.105  13.427  2.7212  1.7911  2.0328
 6299SOL    HW230534   0.863   2.993  13.515  0.2623  0.5289  1.4216
 6300SOL     OW30535   1.686   0.590   3.504  0.5690  0.6522 -0.4291
 6300SOL    HW130536   1.765   0.642   3.489 -0.2096  1.3469 -2.1702
 6300SOL    HW230537   1.668   0.579   3.597  0.4340 -0.8272 -0.6267
 6301SOL     OW30538   3.809   3.859  14.412  0.5133  0.1595  0.2390
 6301SOL    HW130539   3.765   3.792  14.360 -1.9854  2.4338 -0.5205
 6301SOL    HW230540   3.861   3.800  14.468  1.2295  1.7213  1.2243
 6302SOL     OW30541   0.421   3.061   8.359  0.2050 -0.2698  0.1816
 6302SOL    HW130542   0.475   3.127   8.402 -0.4813  0.2306  0.2793
 6302SOL    HW230543   0.467   3.033   8.280  2.4169 -1.4146  1.8667
 6303SOL     OW30544   4.515   2.992   1.479  0.2367  0.6977  0.1186
 6303SOL    HW130545   4.578   3.051   1.520  0.5697 -0.1381  0.8407
 6303SOL    HW230546   4.438   3.048   1.472 -1.3819 -1.5877 -0.3361
 6304SOL     OW30547   0.604   2.699   7.003 -0.0891  0.0172 -0.1701
 6304SOL    HW130548   0.519   2.687   6.960  0.4634 -3.2409 -0.3712
 6304SOL    HW230549   0.582   2.675   7.093  2.0805  0.6523  0.5244
 6305SOL     OW30550   3.058   3.454   6.941  0.4387 -0.1576 -0.4946
 6305SOL    HW130551   3.103   3.538   6.949  0.1273 -0.0028 -0.3955
 6305SOL    HW230552   3.033   3.440   7.032 -3.7401  1.3144 -1.4264
 6306SOL     OW30553   3.580   0.387   7.120  0.1246  0.4615 -0.1422
 6306SOL    HW130554   3.523   0.445   7.170  0.6805  1.4731 -0.6997
 6306SOL    HW230555   3.656   0.446   7.117  1.1931 -0.8569  0.5686
 6307SOL     OW30556   3.531   4.165   5.472 -0.7564  0.2694  0.3128
 6307SOL    HW130557   3.580   4.126   5.543 -1.4538 -0.7770  0.2230
 6307SOL    HW230558   3.499   4.244   5.516  1.3429  0.3220  1.7147
 6308SOL     OW30559   1.869   3.286   2.395  0.5420  0.2809 -0.4464
 6308SOL    HW130560   1.923   3.208   2.400 -0.4787 -0.2256  2.3687
 6308SOL    HW230561   1.904   3.335   2.469  0.2034 -1.1100  0.6159
 6309SOL     OW30562   2.056   0.822   9.565 -0.1309 -0.0755 -0.0333
 6309SOL    HW130563   1.983   0.831   9.626  0.8653  1.9673  0.8474
 6309SOL    HW230564   2.121   0.773   9.616 -0.9375 -0.5382  0.5549
 6310SOL     OW30565   3.755   3.794   6.551  0.2338  0.2904  0.0188
 6310SOL    HW130566   3.779   3.776   6.460  1.0880  1.1850  0.0699
 6310SOL    HW230567   3.664   3.821   6.535 -0.4120 -1.1776  1.1964
 6311SOL     OW30568   2.343   3.040   7.634  0.7918  0.5625 -0.1065
 6311SOL    HW130569   2.348   2.958   7.585  1.4897  1.7250 -1.9926
 6311SOL    HW230570   2.414   3.095   7.600  0.3320  0.9225 -0.4878
 6312SOL     OW30571   4.512   0.981   9.066  0.5162 -0.1974  0.5312
 6312SOL    HW130572   4.511   1.069   9.103  1.9048  0.2746 -0.5773
 6312SOL    HW230573   4.535   0.932   9.145 -0.2775 -1.9184 -0.3058
 6313SOL     OW30574   3.247   2.883   0.603 -0.1659  0.3525 -0.4190
 6313SOL    HW130575   3.163   2.846   0.577  0.9310 -0.0460 -3.3183
 6313SOL    HW230576   3.239   2.878   0.699 -0.3978 -1.4906 -0.5281
 6314SOL     OW30577   3.857   3.764   5.290 -0.4624 -0.3904  0.1516
 6314SOL    HW130578   3.817   3.683   5.322  0.3652 -1.4668 -1.5392
 6314SOL    HW230579   3.809   3.777   5.208 -1.1006  0.1232  0.6051
 6315SOL     OW30580   0.762   4.498  10.371  0.0285 -0.1772  0.0804
 6315SOL    HW130581   0.737   4.533  10.286 -0.8279  0.7876  0.7373
 6315SOL    HW230582   0.702   4.539  10.432 -1.3688  0.7626 -1.9205
 6316SOL     OW30583   1.020   3.875   1.997 -0.2602  0.1432 -0.4104
 6316SOL    HW130584   1.045   3.896   1.907  0.2175  0.1758 -0.2715
 6316SOL    HW230585   0.987   3.786   1.996 -1.6955  0.6780 -1.1573
 6317SOL     OW30586   4.447   3.817   4.842  0.0715  0.1207  0.7264
 6317SOL    HW130587   4.504   3.853   4.775 -0.6704 -0.7210 -0.3641
 6317SOL    HW230588   4.502   3.823   4.920  0.3242  0.2542  0.5356
 6318SOL     OW30589   0.226   3.089   9.831  0.2688 -0.5300 -0.1049
 6318SOL    HW130590   0.186   3.028   9.769 -0.2229  0.7617 -1.0427
 6318SOL    HW230591   0.293   3.130   9.776 -0.8841  0.7885 -0.5152
 6319SOL     OW30592   1.369   3.489  10.593 -0.1727 -0.1179 -0.1957
 6319SOL    HW130593   1.390   3.525  10.679  2.2334  1.1118 -1.3049
 6319SOL    HW230594   1.285   3.534  10.584  0.1879  0.2414 -1.6650
 6320SOL     OW30595   1.164   1.677   7.525  0.2295 -0.5323 -0.5188
 6320SOL    HW130596   1.212   1.743   7.476 -1.3168 -1.0881 -2.7782
 6320SOL    HW230597   1.230   1.663   7.593 -1.4001  0.0594  1.1652
 6321SOL     OW30598   3.556   3.371   6.253 -0.1830  0.2456  0.3477
 6321SOL    HW130599   3.589   3.385   6.341  1.7989 -1.3384 -0.1296
 6321SOL    HW230600   3.610   3.295   6.230  2.2918  1.5431  1.8535
 6322SOL     OW30601   3.073   2.192   4.998  0.6103  0.0157 -0.0956
 6322SOL    HW130602   3.108   2.258   4.938 -1.3433  0.0068 -1.2522
 6322SOL    HW230603   3.121   2.115   4.966 -1.0665 -0.7317 -0.7701
 6323SOL     OW30604   0.713   0.954   3.562 -0.2211 -0.2012  0.7692
 6323SOL    HW130605   0.654   1.028   3.578  1.3259  1.1671  0.2289
 6323SOL    HW230606   0.705   0.903   3.642  0.1145  0.4496  1.2223
 6324SOL     OW30607   3.490   2.871  14.708 -0.2343 -0.0142  0.5549
 6324SOL    HW130608   3.559   2.857  14.642 -1.0131  0.2020 -0.2976
 6324SOL    HW230609   3.533   2.951  14.739 -1.0383  1.0858 -1.1781
 6325SOL     OW30610   3.808   3.033   2.353  0.1303 -0.2117 -0.1368
 6325SOL    HW130611   3.735   2.976   2.330 -1.1014  0.4474  2.2011
 6325SOL    HW230612   3.875   2.966   2.362 -1.2080 -1.2379  2.0312
 6326SOL     OW30613   3.459   0.858   1.195  0.0070 -0.5026 -0.5358
 6326SOL    HW130614   3.519   0.924   1.228 -2.0103  1.9289 -1.7366
 6326SOL    HW230615   3.439   0.819   1.280  2.8420 -0.0428  0.3337
 6327SOL     OW30616   1.562   1.698   5.975  0.0164  0.5740  0.1590
 6327SOL    HW130617   1.614   1.751   5.914  2.1121 -1.4537  0.1987
 6327SOL    HW230618   1.628   1.701   6.045  0.6920 -0.0006 -0.4527
 6328SOL     OW30619   4.359   4.432   3.406 -0.0108  0.1366  0.2417
 6328SOL    HW130620   4.296   4.439   3.478 -0.4991 -1.7243  0.0032
 6328SOL    HW230621   4.343   4.519   3.369  0.3591  0.2197  0.2737
 6329SOL     OW30622   2.199   1.427   9.223 -0.2838  0.0182 -0.0322
 6329SOL    HW130623   2.105   1.423   9.241 -0.7857 -2.2510 -3.0015
 6329SOL    HW230624   2.215   1.520   9.208  0.9818 -0.3984 -1.2895
 6330SOL     OW30625   0.428   1.492   2.960 -0.1250  0.1383  0.3013
 6330SOL    HW130626   0.420   1.405   2.922  0.4591  0.8331 -1.3908
 6330SOL    HW230627   0.446   1.541   2.880  4.0537 -1.5092  0.2460
 6331SOL     OW30628   1.260   3.822   5.685  0.3156  0.4613 -0.4353
 6331SOL    HW130629   1.181   3.778   5.653  1.3863 -2.0947  0.4743
 6331SOL    HW230630   1.320   3.748   5.685  0.9094  0.9488  0.4043
 6332SOL     OW30631   3.620   3.109   7.349 -0.0200 -0.0602 -0.0134
 6332SOL    HW130632   3.623   3.018   7.320  0.7640  0.3347 -1.1804
 6332SOL    HW230633   3.711   3.133   7.331 -0.8681  1.2276 -2.5688
 6333SOL     OW30634   1.101   2.797   5.542  0.5511  0.1733  0.2360
 6333SOL    HW130635   1.033   2.787   5.610 -0.6763 -2.1234 -1.3239
 6333SOL    HW230636   1.097   2.892   5.527  2.5460 -0.2288 -2.7654
 6334SOL     OW30637   4.634   0.638   8.560 -0.3156 -0.3432  0.1152
 6334SOL    HW130638   4.616   0.720   8.607 -1.1312  0.3074 -1.3483
 6334SOL    HW230639   4.720   0.614   8.596  0.0484 -0.1918 -0.6393
 6335SOL     OW30640   1.107   3.804   3.602  0.0388  0.2437 -0.0713
 6335SOL    HW130641   1.040   3.873   3.602  0.0518  0.2562  0.3853
 6335SOL    HW230642   1.103   3.778   3.694 -0.0949  0.0452 -0.1336
 6336SOL     OW30643   0.399   0.114  13.635  0.1584  0.3811  0.0313
 6336SOL    HW130644   0.483   0.101  13.680 -0.7639 -0.3539  1.5589
 6336SOL    HW230645   0.370   0.024  13.623  1.3532  0.0275 -0.2011
 6337SOL     OW30646   0.709   0.881   2.538  0.2400 -0.3248  0.3241
 6337SOL    HW130647   0.783   0.911   2.485 -1.4841  0.9333 -1.3697
 6337SOL    HW230648   0.656   0.839   2.470  2.3745 -1.6094 -0.5525
 6338SOL     OW30649   4.443   4.568   7.046  0.1778 -0.3377  0.3470
 6338SOL    HW130650   4.490   4.512   7.107  0.5827 -1.0287 -0.5949
 6338SOL    HW230651   4.437   4.510   6.970  2.3326 -2.0460  1.4909
 6339SOL     OW30652   1.489   1.255   7.666 -0.2242  0.0016 -0.1404
 6339SOL    HW130653   1.415   1.315   7.662 -0.3828 -0.1341  0.6822
 6339SOL    HW230654   1.483   1.204   7.747  2.2483 -1.2738 -0.7772
 6340SOL     OW30655   1.787   1.581   8.722  0.2742 -0.1361  0.0247
 6340SOL    HW130656   1.766   1.599   8.813  1.5710  0.7181  0.1619
 6340SOL    HW230657   1.703   1.569   8.678  0.8902  0.4657 -1.3094
 6341SOL     OW30658   1.767   4.248   9.624  0.6078  0.4218  0.0963
 6341SOL    HW130659   1.748   4.253   9.718 -3.4292 -0.4265 -0.6707
 6341SOL    HW230660   1.861   4.233   9.621  0.9463  2.4890  0.5177
 6342SOL     OW30661   2.251   2.572  11.602 -0.1978 -0.6532  0.3884
 6342SOL    HW130662   2.178   2.511  11.613 -1.5621  0.5598 -1.8003
 6342SOL    HW230663   2.262   2.601  11.693 -0.9713 -0.3514  0.3860
 6343SOL     OW30664   0.124   0.142   9.468  0.0606  0.1827 -0.1739
 6343SOL    HW130665   0.135   0.150   9.563 -1.0584 -0.9328  0.0561
 6343SOL    HW230666   0.030   0.134   9.453  0.1840 -0.8588 -0.4161
 6344SOL     OW30667   0.767   3.827   2.551 -0.0951  0.4354 -0.0795
 6344SOL    HW130668   0.761   3.911   2.505  0.3387 -0.7723 -2.3747
 6344SOL    HW230669   0.857   3.798   2.534  0.2389  0.8835  0.8996
 6345SOL     OW30670   0.830   1.574   4.561  0.1229  0.6498  0.1758
 6345SOL    HW130671   0.865   1.528   4.485  0.3408  0.6684  0.2644
 6345SOL    HW230672   0.802   1.492   4.602  2.3993  0.9222  2.2415
 6346SOL     OW30673   4.012   3.932   5.022 -0.4622  0.1636 -0.6168
 6346SOL    HW130674   4.094   3.972   5.053 -1.2146  1.2293 -0.0117
 6346SOL    HW230675   3.952   3.970   5.086 -0.5649  0.6359 -0.9914
 6347SOL     OW30676   2.714   2.149   5.800 -0.1309  0.5426 -0.1587
 6347SOL    HW130677   2.718   2.087   5.728  0.5593  2.0079 -1.3776
 6347SOL    HW230678   2.707   2.228   5.747 -1.6191  0.9976  0.7198
 6348SOL     OW30679   4.096   3.145   1.638 -0.5468  0.0932 -0.1167
 6348SOL    HW130680   4.018   3.106   1.677  1.1619 -2.3042  0.8528
 6348SOL    HW230681   4.150   3.143   1.717 -0.1742 -1.7846 -0.4151
 6349SOL     OW30682   1.760   1.829  11.457 -0.6204 -0.3189  0.1252
 6349SOL    HW130683   1.683   1.778  11.480 -0.8187 -0.0425  0.0733
 6349SOL    HW230684   1.828   1.798  11.518 -0.0842  0.5065 -0.0545
 6350SOL     OW30685   0.545   3.504  12.171 -0.0219 -0.3210  0.4012
 6350SOL    HW130686   0.603   3.538  12.239  0.9806  1.2865 -1.2393
 6350SOL    HW230687   0.504   3.423  12.201  0.4571 -1.0154 -0.8144
 6351SOL     OW30688   1.394   1.651   8.932  0.1385 -0.1976  0.0782
 6351SOL    HW130689   1.459   1.618   8.994  0.2250 -1.7937 -0.8807
 6351SOL    HW230690   1.351   1.572   8.900 -2.2286  0.2902  2.0410
 6352SOL     OW30691   4.412   2.868   5.676 -0.0511 -0.1045  0.2470
 6352SOL    HW130692   4.401   2.895   5.585 -2.0553  2.6312  1.3025
 6352SOL    HW230693   4.450   2.780   5.672 -0.6793 -0.4865  2.4557
 6353SOL     OW30694   4.136   3.074   2.878  0.2074 -0.1424  0.1510
 6353SOL    HW130695   4.187   3.070   2.796 -0.6439  0.8991 -0.4264
 6353SOL    HW230696   4.054   3.112   2.845  0.8627  2.1836  1.2400
 6354SOL     OW30697   0.250   2.166  10.873  0.0161  0.2890  0.1522
 6354SOL    HW130698   0.167   2.122  10.889  0.0381  0.1022 -0.2513
 6354SOL    HW230699   0.255   2.136  10.783 -1.2166 -1.7634  0.7708
 6355SOL     OW30700   2.613   4.542   3.726  0.7147 -0.6511 -0.1660
 6355SOL    HW130701   2.579   4.532   3.637  0.8072 -0.4016 -0.2263
 6355SOL    HW230702   2.645   4.454   3.748  0.5516 -0.1523  2.0587
 6356SOL     OW30703   2.937   0.747   7.017 -0.2213 -0.4553  0.4838
 6356SOL    HW130704   2.995   0.820   7.040  0.4910 -0.8692 -0.0212
 6356SOL    HW230705   2.968   0.736   6.927  0.6927 -1.1617  0.8843
 6357SOL     OW30706   3.116   4.353   2.665 -0.3493  0.0255  0.1896
 6357SOL    HW130707   3.119   4.264   2.700 -1.6312  0.8637  2.4323
 6357SOL    HW230708   3.116   4.397   2.750  0.0367  3.0028 -1.3633
 6358SOL     OW30709   3.827   3.934   8.783  0.2079 -0.2378  0.2773
 6358SOL    HW130710   3.783   3.928   8.699  0.9149  1.4389 -0.2305
 6358SOL    HW230711   3.770   3.997   8.828 -0.9470  0.1123 -1.6787
 6359SOL     OW30712   3.259   2.959   8.403 -0.1473  0.0969 -0.1273
 6359SOL    HW130713   3.320   2.924   8.468  0.2676  1.0867  0.0100
 6359SOL    HW230714   3.241   2.882   8.349  1.9202 -2.5394  2.9454
 6360SOL     OW30715   1.912   3.260  16.096  0.4865 -0.0223  0.2112
 6360SOL    HW130716   1.841   3.199  16.116 -1.5044  1.9182 -0.9259
 6360SOL    HW230717   1.876   3.339  16.136  0.6889 -0.4457  1.2401
 6361SOL     OW30718   2.381   1.569   1.873  0.4675 -0.8547 -0.1884
 6361SOL    HW130719   2.359   1.490   1.824  0.1959 -0.3859 -0.8235
 6361SOL    HW230720   2.423   1.531   1.950  0.1070 -2.2415 -0.6809
 6362SOL     OW30721   0.087   1.502  14.543 -0.4035 -0.2432  0.1351
 6362SOL    HW130722   0.080   1.593  14.516  2.2611 -0.7626 -2.3678
 6362SOL    HW230723   4.737   1.482  14.574 -2.1183  3.5865 -2.4118
 6363SOL     OW30724   0.163   1.221  14.736  0.0372 -0.0358  0.4088
 6363SOL    HW130725   0.095   1.195  14.674  0.0550  0.6445  0.1076
 6363SOL    HW230726   0.124   1.200  14.821 -1.1049 -2.1055 -0.6202
 6364SOL     OW30727   1.160   0.375   7.559  0.1982 -0.2323  0.0024
 6364SOL    HW130728   1.172   0.326   7.478 -0.4042  2.1978 -1.5597
 6364SOL    HW230729   1.219   0.319   7.610 -0.2470  0.3560  1.1664
 6365SOL     OW30730   2.871   1.903   1.440 -0.0863 -0.3747  0.5205
 6365SOL    HW130731   2.925   1.895   1.361 -0.6468 -0.9484  0.1937
 6365SOL    HW230732   2.931   1.872   1.509  0.4278 -2.1017 -0.7063
 6366SOL     OW30733   3.418   4.134   2.409 -0.4995 -0.2735  0.3644
 6366SOL    HW130734   3.501   4.086   2.417 -1.2102 -1.3755  1.3201
 6366SOL    HW230735   3.355   4.089   2.466 -0.6543 -2.1593 -1.2781
 6367SOL     OW30736   0.698   2.802   9.515 -0.5392  0.6183  0.5015
 6367SOL    HW130737   0.655   2.740   9.573  2.5465 -1.8743  0.0744
 6367SOL    HW230738   0.623   2.861   9.509 -1.2178 -0.4993 -1.8929
 6368SOL     OW30739   1.897   1.014   9.225  0.3254 -0.4045  0.0896
 6368SOL    HW130740   1.933   1.067   9.154  0.5931  0.8614  1.1655
 6368SOL    HW230741   1.946   1.046   9.301  0.3830 -2.9134  1.1268
 6369SOL     OW30742   1.308   4.418  11.947 -0.4369  0.4620 -0.1139
 6369SOL    HW130743   1.311   4.349  12.013 -0.6023 -0.9939 -1.6358
 6369SOL    HW230744   1.312   4.497  12.002  1.2579 -1.1397  2.0832
 6370SOL     OW30745   0.128   0.640   4.367 -0.1793  0.8243 -0.5378
 6370SOL    HW130746   0.151   0.599   4.283  1.4091  1.3363 -0.3544
 6370SOL    HW230747   0.064   0.573   4.391 -0.1854  1.3717  0.9850
 6371SOL     OW30748   3.065   3.331   6.242  0.7525 -0.0844 -0.6475
 6371SOL    HW130749   3.077   3.347   6.148  1.4271  0.1759 -0.5159
 6371SOL    HW230750   2.971   3.326   6.257  0.8052  0.2393 -0.2145
 6372SOL     OW30751   0.039   1.144   5.679  0.4032  0.3065 -0.1956
 6372SOL    HW130752   4.709   1.080   5.699 -1.2411  1.2930 -2.6175
 6372SOL    HW230753   0.021   1.198   5.755 -1.1525  1.0227 -1.0670
 6373SOL     OW30754   3.974   1.628   0.611  0.5836 -0.1592  0.4548
 6373SOL    HW130755   3.911   1.685   0.568  0.0894 -0.8225  0.3096
 6373SOL    HW230756   4.043   1.691   0.631 -0.9724  1.5251  0.4715
 6374SOL     OW30757   2.838   3.027   8.297  0.3607  0.2578 -0.1694
 6374SOL    HW130758   2.843   3.011   8.391  1.0526 -0.4896 -0.3305
 6374SOL    HW230759   2.870   3.117   8.295 -0.7492  0.6663  0.7509
 6375SOL     OW30760   3.443   3.344  12.188 -0.4665 -0.3854  0.1655
 6375SOL    HW130761   3.535   3.368  12.203 -0.9485  1.6345 -0.1476
 6375SOL    HW230762   3.395   3.407  12.242 -0.2117  0.4682 -0.6034
 6376SOL     OW30763   0.224   0.872  10.870  0.4109  0.3279 -1.0322
 6376SOL    HW130764   0.263   0.865  10.957 -2.5106  1.1537  0.3270
 6376SOL    HW230765   0.298   0.908  10.821 -0.7101  0.8629 -2.3459
 6377SOL     OW30766   4.558   0.991  16.663 -0.6435 -0.5746 -0.6450
 6377SOL    HW130767   4.466   0.994  16.637 -0.2135 -1.6326 -2.2662
 6377SOL    HW230768   4.578   1.083  16.679 -0.1635 -0.5441 -1.4583
 6378SOL     OW30769   4.307   2.490   1.668  1.2164 -0.4009 -0.4283
 6378SOL    HW130770   4.329   2.565   1.613 -0.2829  1.1052  1.0607
 6378SOL    HW230771   4.346   2.423   1.611 -0.2847 -1.4452 -0.2322
 6379SOL     OW30772   4.119   2.160   1.905  0.2022  0.7465 -0.6508
 6379SOL    HW130773   4.143   2.068   1.920 -2.1401  0.1944 -0.2836
 6379SOL    HW230774   4.025   2.148   1.908  0.5036 -1.0334  1.0937
 6380SOL     OW30775   2.851   3.890   5.539  0.2457 -0.0071 -0.3700
 6380SOL    HW130776   2.921   3.893   5.473 -0.3919  0.9502 -1.0060
 6380SOL    HW230777   2.803   3.970   5.514  0.8700  1.1046  2.0052
 6381SOL     OW30778   1.099   0.991   4.988 -0.5542  0.4517  0.5130
 6381SOL    HW130779   1.055   0.954   4.912  0.5106 -0.4675  0.3429
 6381SOL    HW230780   1.161   1.049   4.945 -0.7813 -0.1942 -0.6738
 6382SOL     OW30781   3.662   1.140  13.503 -0.0487 -0.2489 -0.1643
 6382SOL    HW130782   3.604   1.215  13.492 -0.8633 -0.5276  2.4830
 6382SOL    HW230783   3.746   1.181  13.481 -0.0837 -0.9640 -1.6497
 6383SOL     OW30784   1.902   0.361  17.508 -0.1576  0.6462  0.3608
 6383SOL    HW130785   1.967   0.342  17.441 -0.4794  0.5121  0.0887
 6383SOL    HW230786   1.946   0.443  17.533  0.1076  0.7788 -0.5557
 6384SOL     OW30787   2.014   3.558   8.389  0.2280  0.1913  0.2997
 6384SOL    HW130788   1.999   3.486   8.327 -1.4178 -0.0321  0.9562
 6384SOL    HW230789   2.073   3.521   8.455  0.6866 -4.1582 -2.5256
 6385SOL     OW30790   3.822   4.569   9.475 -0.3850  0.9203 -0.2978
 6385SOL    HW130791   3.787   4.484   9.503  0.1499  1.1334  0.9946
 6385SOL    HW230792   3.913   4.545   9.456 -1.0424  0.8866 -3.4428
 6386SOL     OW30793   1.597   2.919  12.911  0.0961 -0.9831 -0.7270
 6386SOL    HW130794   1.603   2.836  12.864  0.6398 -1.4163  0.1017
 6386SOL    HW230795   1.618   2.993  12.854 -0.2128 -1.6050 -1.6395
 6387SOL     OW30796   3.994   3.804  15.101 -0.5503  0.4860  0.4719
 6387SOL    HW130797   3.926   3.866  15.072 -0.2226  1.0055  0.8116
 6387SOL    HW230798   4.051   3.867  15.146  1.1473 -1.1567  0.5859
 6388SOL     OW30799   2.652   1.010  17.153 -0.7009  0.5666  0.8328
 6388SOL    HW130800   2.613   1.097  17.162 -1.4688  0.3196 -0.1990
 6388SOL    HW230801   2.596   0.963  17.215 -0.9072  1.9121  1.6725
 6389SOL     OW30802   0.465   1.003   8.929 -0.2890  0.2215 -0.4154
 6389SOL    HW130803   0.544   1.021   8.878  0.6178  0.7107  1.1736
 6389SOL    HW230804   0.452   1.091   8.965 -1.9262  0.8118 -2.4706
 6390SOL     OW30805   2.513   2.000   4.421 -0.0753  0.3698  0.1324
 6390SOL    HW130806   2.516   1.905   4.420 -0.6976  0.3545 -0.1827
 6390SOL    HW230807   2.494   2.018   4.329 -2.4828  0.9405  0.7544
 6391SOL     OW30808   3.039   4.315   7.150  0.0939 -0.0239 -0.6480
 6391SOL    HW130809   3.133   4.301   7.151  0.2389  0.9498 -0.2192
 6391SOL    HW230810   3.028   4.322   7.245 -1.7579  0.8992 -0.9140
 6392SOL     OW30811   2.457   1.828   6.141  0.0735  0.2562  0.3757
 6392SOL    HW130812   2.428   1.750   6.092  2.9170 -0.8764  0.5082
 6392SOL    HW230813   2.496   1.876   6.068 -1.5862 -1.8056 -1.8967
 6393SOL     OW30814   4.431   3.422   5.772 -0.1537 -0.7234 -0.1907
 6393SOL    HW130815   4.510   3.442   5.723 -0.5108  0.8038 -0.1286
 6393SOL    HW230816   4.416   3.481   5.845  0.5057  1.6362 -1.9723
 6394SOL     OW30817   2.055   2.866   8.302 -0.1865 -0.0434  0.4833
 6394SOL    HW130818   2.018   2.949   8.332  1.8803  1.3380 -0.7349
 6394SOL    HW230819   2.126   2.853   8.365  0.5664 -3.2579 -1.0014
 6395SOL     OW30820   3.878   2.293   4.737 -0.4067 -0.1789  0.0185
 6395SOL    HW130821   3.956   2.243   4.763 -0.4274 -1.8933 -3.3252
 6395SOL    HW230822   3.921   2.374   4.710 -0.7974  0.5261  1.5131
 6396SOL     OW30823   3.661   0.142   3.743 -0.4983 -0.0937 -0.3738
 6396SOL    HW130824   3.644   0.230   3.708  1.3310 -0.9845 -3.5392
 6396SOL    HW230825   3.576   0.098   3.744 -0.0474 -1.0211 -3.6733
 6397SOL     OW30826   3.344   3.531   5.527  0.1568 -0.5552 -0.7755
 6397SOL    HW130827   3.345   3.619   5.489  0.6515  1.0080  2.9307
 6397SOL    HW230828   3.268   3.536   5.585  0.3481 -1.3367 -0.4687
 6398SOL     OW30829   2.545   2.521  11.687  0.1458  0.1194  0.1545
 6398SOL    HW130830   2.453   2.543  11.674 -0.4933 -2.7396 -0.0786
 6398SOL    HW230831   2.564   2.457  11.619 -0.8958 -1.2912  1.1790
 6399SOL     OW30832   2.060   2.912  14.413  0.0648 -0.3182 -0.4677
 6399SOL    HW130833   2.046   2.818  14.421 -2.1313  0.1697  1.3131
 6399SOL    HW230834   2.155   2.906  14.412 -0.1666 -3.3097 -2.3608
 6400SOL     OW30835   4.572   0.947   2.492  0.3160  0.3251 -0.7179
 6400SOL    HW130836   4.545   0.861   2.460  0.5078  0.7978 -2.1362
 6400SOL    HW230837   4.664   0.930   2.511 -0.5567 -0.9794  2.4447
 6401SOL     OW30838   2.363   0.627   6.495 -0.3190 -0.0910  0.7434
 6401SOL    HW130839   2.338   0.539   6.467 -0.1859  0.0846  0.0738
 6401SOL    HW230840   2.293   0.672   6.448  0.7681  1.8031  0.9435
 6402SOL     OW30841   1.221   0.544  11.916 -0.2783  0.2531  0.7408
 6402SOL    HW130842   1.298   0.488  11.905 -0.2576  0.5757 -0.6899
 6402SOL    HW230843   1.153   0.492  11.873  0.5787 -0.1730 -0.0968
 6403SOL     OW30844   1.183   1.442   8.129 -0.0015  0.2413  0.5035
 6403SOL    HW130845   1.186   1.355   8.167  1.3389  0.4991  1.0119
 6403SOL    HW230846   1.111   1.473   8.183 -0.9466  0.0925 -0.6800
 6404SOL     OW30847   4.152   0.751   0.656 -0.1072 -0.3331  0.1629
 6404SOL    HW130848   4.204   0.719   0.582 -2.7705 -0.6648 -1.5288
 6404SOL    HW230849   4.075   0.695   0.651 -1.2688  1.0663  2.3129
 6405SOL     OW30850   2.745   1.165   0.781 -0.2385 -0.3877 -0.3605
 6405SOL    HW130851   2.823   1.220   0.778 -1.0277  0.7272 -0.4717
 6405SOL    HW230852   2.735   1.161   0.876 -0.9184 -0.2728 -0.4256
 6406SOL     OW30853   2.256   4.110   2.415  0.0375 -0.2464  0.2085
 6406SOL    HW130854   2.238   4.024   2.376 -1.0558 -0.8936  2.1430
 6406SOL    HW230855   2.293   4.097   2.502  0.7573 -0.9294 -0.2004
 6407SOL     OW30856   0.675   1.763  17.052  0.8144 -0.3912  0.7267
 6407SOL    HW130857   0.758   1.781  17.096  0.6016 -0.3033  1.0936
 6407SOL    HW230858   0.634   1.849  17.052  1.1075 -0.2558 -1.4193
 6408SOL     OW30859   1.289   3.870   7.053  0.8230  0.0326 -0.3552
 6408SOL    HW130860   1.239   3.924   6.991  3.7215 -0.8123 -3.3928
 6408SOL    HW230861   1.338   3.809   6.999  2.0617  1.0415 -0.3691
 6409SOL     OW30862   3.607   2.712   3.059  0.0680 -0.2791 -0.2164
 6409SOL    HW130863   3.534   2.673   3.012  0.6262  0.4768 -1.7388
 6409SOL    HW230864   3.575   2.800   3.079 -1.6295 -0.5764 -1.6038
 6410SOL     OW30865   1.704   1.432   7.711 -0.4476 -0.3747  0.1393
 6410SOL    HW130866   1.619   1.389   7.710  0.0672 -1.3129 -2.8175
 6410SOL    HW230867   1.753   1.387   7.779  0.2610  0.7461  0.3642
 6411SOL     OW30868   3.522   2.280   7.883  0.1561 -0.5960  0.4224
 6411SOL    HW130869   3.484   2.194   7.866 -1.9109  0.3267  0.3860
 6411SOL    HW230870   3.522   2.308   7.791 -0.8022  3.7100  1.7285
 6412SOL     OW30871   1.197   1.517   5.178  0.1270  0.0617  0.0785
 6412SOL    HW130872   1.237   1.439   5.217 -0.0161  0.5693  1.2272
 6412SOL    HW230873   1.117   1.529   5.229  0.6216 -0.6641  1.0283
 6413SOL     OW30874   1.916   3.982   9.964 -0.3222 -0.1114 -0.6708
 6413SOL    HW130875   1.885   4.046  10.028 -0.1599 -0.7071  0.0070
 6413SOL    HW230876   1.967   3.924  10.021  1.1516 -0.4161 -2.3003
 6414SOL     OW30877   0.791   1.220   7.287  0.3153 -0.0396  0.0767
 6414SOL    HW130878   0.744   1.235   7.370 -0.0525 -0.1914 -0.1014
 6414SOL    HW230879   0.855   1.155   7.314 -0.7324 -0.9929  0.2980
 6415SOL     OW30880   1.709   3.939   9.760 -0.4837 -0.1602 -0.7120
 6415SOL    HW130881   1.775   3.932   9.829  0.5071 -1.1062 -1.7441
 6415SOL    HW230882   1.653   4.005   9.801  0.1178 -0.7635  1.0992
 6416SOL     OW30883   4.342   4.642   2.185  0.1162 -0.2933  0.7233
 6416SOL    HW130884   4.288   4.563   2.192 -2.8958  1.6640 -0.0653
 6416SOL    HW230885   4.392   4.612   2.109  0.5286 -0.7176  1.1686
 6417SOL     OW30886   0.098   1.227   4.828 -0.2683 -0.4212 -0.1978
 6417SOL    HW130887   0.018   1.253   4.873  0.4116  0.5335  0.4892
 6417SOL    HW230888   0.138   1.313   4.810  0.0414 -0.6299 -0.4998
 6418SOL     OW30889   4.450   2.786  17.034 -0.1273  0.5209 -0.2541
 6418SOL    HW130890   4.511   2.841  16.986  1.0883  0.6022  1.4129
 6418SOL    HW230891   4.400   2.752  16.959  0.3266  0.8210 -0.6909
 6419SOL     OW30892   1.725   3.679   4.491  0.4379  0.1151 -0.2350
 6419SOL    HW130893   1.671   3.626   4.549  1.4481 -0.5846  0.0809
 6419SOL    HW230894   1.745   3.752   4.550 -1.3165 -0.2577  0.8110
 6420SOL     OW30895   2.839   4.737   8.218 -0.0832  0.0632 -0.1034
 6420SOL    HW130896   2.811   0.083   8.182 -1.0993 -0.8050 -1.3534
 6420SOL    HW230897   2.927   4.731   8.183 -0.0375 -1.4408  0.2519
 6421SOL     OW30898   4.620   0.254   0.548 -0.3384  0.1195  0.5288
 6421SOL    HW130899   4.604   0.284   0.637 -0.1925  0.5359  0.4172
 6421SOL    HW230900   4.532   0.232   0.516 -0.1167 -0.7889  0.5472
 6422SOL     OW30901   0.449   2.786   8.193  0.0547  0.0578 -0.4793
 6422SOL    HW130902   0.437   2.697   8.161 -0.3638 -1.3103  3.4630
 6422SOL    HW230903   0.510   2.823   8.129 -1.7359  0.8612 -1.7269
 6423SOL     OW30904   4.529   4.334   3.230  0.4150  0.3897 -0.7450
 6423SOL    HW130905   4.467   4.352   3.302 -1.7173  0.4219 -2.5804
 6423SOL    HW230906   4.503   4.411   3.180  0.9709  0.5434 -0.7917
 6424SOL     OW30907   3.048   1.535   2.085 -0.3976  0.7906  0.1074
 6424SOL    HW130908   3.139   1.505   2.084 -1.7106 -3.2163  0.8137
 6424SOL    HW230909   3.028   1.526   2.178  1.3399  1.6209  0.5478
 6425SOL     OW30910   4.669   3.561  10.568  0.1276  0.0893  0.0613
 6425SOL    HW130911   4.625   3.482  10.537  0.4370 -0.4163  0.9169
 6425SOL    HW230912   4.593   3.613  10.596  1.5690  1.1810  1.9147
 6426SOL     OW30913   1.199   4.100   2.632  0.2618  0.1029 -0.4832
 6426SOL    HW130914   1.247   4.096   2.549  0.2636  0.6133 -0.5073
 6426SOL    HW230915   1.112   4.133   2.611 -0.1660  0.2851  1.6095
 6427SOL     OW30916   1.443   3.605  10.836 -0.1894  0.5746 -0.0743
 6427SOL    HW130917   1.440   3.556  10.919 -1.2932 -0.0675 -0.4851
 6427SOL    HW230918   1.457   3.696  10.860 -1.9606  0.6973  0.5146
 6428SOL     OW30919   0.976   0.822   3.190  0.3546 -0.0267 -0.2907
 6428SOL    HW130920   1.002   0.813   3.282  3.1370  0.4125 -1.0418
 6428SOL    HW230921   0.887   0.856   3.198  0.4855 -0.0519  1.3495
 6429SOL     OW30922   0.099   2.660   1.946  0.3152 -0.0541 -0.4426
 6429SOL    HW130923   0.151   2.694   1.874 -0.4045 -0.6553 -1.2470
 6429SOL    HW230924   0.098   2.569   1.918 -0.0783 -0.6805  1.6270
 6430SOL     OW30925   4.006   0.248   4.830 -0.4263  0.1567  0.5370
 6430SOL    HW130926   3.962   0.212   4.908 -1.1965 -1.0692 -0.4632
 6430SOL    HW230927   3.984   0.181   4.765  1.9413  0.6940 -0.7763
 6431SOL     OW30928   0.961   1.859  13.530  0.1253  0.1473 -0.4813
 6431SOL    HW130929   0.983   1.842  13.621 -1.4471 -2.1929 -0.5245
 6431SOL    HW230930   1.033   1.911  13.495  0.5753 -0.5755 -0.6361
 6432SOL     OW30931   3.257   1.521  11.808 -0.1221  0.0426 -0.4850
 6432SOL    HW130932   3.244   1.599  11.862  0.4550  1.7025 -2.7429
 6432SOL    HW230933   3.353   1.518  11.814 -0.0986  0.2123 -0.7740
 6433SOL     OW30934   3.029   1.978   1.217  0.1569  0.2027  0.4904
 6433SOL    HW130935   3.056   2.069   1.224  0.3093  0.3444 -1.9030
 6433SOL    HW230936   3.086   1.957   1.142 -0.7029 -0.0833 -0.0853
 6434SOL     OW30937   0.118   2.881   2.360  0.7010 -0.1835 -0.3838
 6434SOL    HW130938   0.046   2.873   2.423  2.1890  2.7645  1.7188
 6434SOL    HW230939   0.085   2.934   2.287  1.7849  1.9773  0.6784
 6435SOL     OW30940   2.794   0.216   6.470 -0.3425  0.1600  0.2812
 6435SOL    HW130941   2.753   0.222   6.556  1.3075  1.1881  0.9902
 6435SOL    HW230942   2.854   0.290   6.477 -2.6356  1.8191  2.3566
 6436SOL     OW30943   2.371   3.440   7.590  0.4167  0.4126  0.4208
 6436SOL    HW130944   2.313   3.449   7.514  1.1494 -1.2202 -0.3436
 6436SOL    HW230945   2.354   3.520   7.639 -1.2814  0.4823 -0.2855
 6437SOL     OW30946   4.018   0.142   3.402 -0.0816  0.2142  0.1181
 6437SOL    HW130947   4.024   0.234   3.376 -2.0122  0.0651 -0.8187
 6437SOL    HW230948   4.044   0.150   3.494  0.5859 -0.6134 -0.0014
 6438SOL     OW30949   2.732   2.305   3.742 -0.3480 -0.0175 -0.1000
 6438SOL    HW130950   2.688   2.284   3.660  1.2830 -0.1936 -0.9451
 6438SOL    HW230951   2.753   2.398   3.734 -1.5270  0.3561  1.2387
 6439SOL     OW30952   2.448   2.570  13.036  0.3476 -0.4638 -0.0306
 6439SOL    HW130953   2.383   2.550  12.969  2.7208 -0.9870 -2.2111
 6439SOL    HW230954   2.432   2.663  13.045  2.5217 -0.0675 -0.1617
 6440SOL     OW30955   3.542   0.356   3.654 -0.9114  0.2896  0.3889
 6440SOL    HW130956   3.472   0.303   3.692 -1.1079  1.1583  1.2330
 6440SOL    HW230957   3.494   0.385   3.576  0.5461 -0.2995 -0.7351
 6441SOL     OW30958   0.561   1.869   5.405 -0.3060 -0.6145  0.4337
 6441SOL    HW130959   0.634   1.812   5.429 -0.6416 -1.2072  0.0456
 6441SOL    HW230960   0.602   1.953   5.424  0.7873 -0.8334 -0.9374
 6442SOL     OW30961   0.166   2.985   8.324  0.0023  0.6796  0.1008
 6442SOL    HW130962   0.248   3.026   8.351  0.9028 -0.2533 -1.1491
 6442SOL    HW230963   0.163   2.918   8.392  0.9162  2.3949  1.8263
 6443SOL     OW30964   2.163   1.887   4.371  0.2098 -0.0828  0.0406
 6443SOL    HW130965   2.159   1.956   4.304 -2.8277 -0.7288 -0.4143
 6443SOL    HW230966   2.146   1.944   4.446 -1.4266 -0.6135  0.0583
 6444SOL     OW30967   2.239   0.495   1.567  0.1151 -0.0484 -0.0793
 6444SOL    HW130968   2.324   0.538   1.554 -0.6448  1.2216 -0.8913
 6444SOL    HW230969   2.201   0.557   1.629  2.2921  0.1112  1.0902
 6445SOL     OW30970   3.308   4.267   6.865  0.0143  0.2629  0.0742
 6445SOL    HW130971   3.368   4.304   6.929 -2.2744 -0.4110  2.6363
 6445SOL    HW230972   3.289   4.344   6.811 -1.0348  0.2847  0.4749
 6446SOL     OW30973   0.097   2.947   6.935  0.1009 -0.4089 -0.1273
 6446SOL    HW130974   0.155   2.936   7.011  0.9826 -0.6868 -0.8367
 6446SOL    HW230975   0.164   2.980   6.876 -0.5513  2.0293  0.4965
 6447SOL     OW30976   4.531   0.416   9.295  0.4668  0.3457  0.2122
 6447SOL    HW130977   4.558   0.336   9.341 -0.0595  0.5692  0.9101
 6447SOL    HW230978   4.531   0.480   9.366 -0.4775  1.6280 -0.9419
 6448SOL     OW30979   4.199   2.658   4.567 -0.2830 -0.4070 -0.7240
 6448SOL    HW130980   4.240   2.720   4.506  0.3246 -1.3443 -1.2571
 6448SOL    HW230981   4.209   2.702   4.652  2.2669  1.0762 -1.8173
 6449SOL     OW30982   1.665   1.664  10.892  0.3951  0.2037 -0.0837
 6449SOL    HW130983   1.674   1.625  10.978 -3.8618 -1.7093 -0.5098
 6449SOL    HW230984   1.572   1.684  10.902 -0.1433 -1.4350 -1.8593
 6450SOL     OW30985   0.868   1.742   7.114  0.1176 -0.5280  0.2038
 6450SOL    HW130986   0.904   1.661   7.150 -0.8368 -0.5651  1.0535
 6450SOL    HW230987   0.869   1.795   7.194 -1.0604  0.3859 -0.3947
 6451SOL     OW30988   3.956   4.631   2.287 -0.1789 -0.3908  0.3531
 6451SOL    HW130989   3.899   4.561   2.255  0.2494 -0.0587 -1.1426
 6451SOL    HW230990   3.995   4.650   2.201 -2.0244  0.6456 -0.2425
 6452SOL     OW30991   4.521   3.457   4.802  0.1047 -0.4841  0.8200
 6452SOL    HW130992   4.496   3.372   4.839  1.2007  0.7441  4.4232
 6452SOL    HW230993   4.452   3.458   4.735 -0.2921  1.3872  1.2544
 6453SOL     OW30994   2.206   4.397   2.287 -0.7034  0.1520 -0.1923
 6453SOL    HW130995   2.186   4.304   2.281  1.0032 -0.3217  1.3301
 6453SOL    HW230996   2.127   4.437   2.323  0.2058  0.8402  1.0167
 6454SOL     OW30997   0.402   2.888   2.239  0.1397 -0.3085 -0.4668
 6454SOL    HW130998   0.450   2.840   2.307  1.0237  1.4203  0.1557
 6454SOL    HW230999   0.311   2.873   2.264  0.6466 -1.2630  0.7710
 6455SOL     OW31000   2.347   1.180  12.955 -0.3412 -0.5058  0.1246
 6455SOL    HW131001   2.436   1.166  12.986 -0.2047 -1.1109 -0.5363
 6455SOL    HW231002   2.324   1.258  13.006  1.2325  0.0221  0.0393
 6456SOL     OW31003   0.152   4.323   4.669 -0.3196 -0.1167  0.3432
 6456SOL    HW131004   0.138   4.401   4.723 -1.3370 -0.5184  0.6557
 6456SOL    HW231005   0.178   4.259   4.735  0.2916 -1.5344 -1.2596
 6457SOL     OW31006   4.355   4.013   8.167 -0.1702  0.2059  1.0626
 6457SOL    HW131007   4.265   3.980   8.156 -0.3548  1.2484 -0.4841
 6457SOL    HW231008   4.345   4.082   8.232 -1.9110  0.7336  0.2530
 6458SOL     OW31009   1.787   0.324  16.138 -0.2216 -0.1456 -0.1846
 6458SOL    HW131010   1.863   0.298  16.086 -0.7884  1.4458 -1.7932
 6458SOL    HW231011   1.809   0.279  16.220  0.3896 -0.2008 -0.3770
 6459SOL     OW31012   2.993   0.845  15.893  0.4812 -0.0229 -0.3365
 6459SOL    HW131013   2.988   0.934  15.859  1.0501  0.3001  0.4262
 6459SOL    HW231014   3.054   0.807  15.831 -0.1113  0.7060 -1.3551
 6460SOL     OW31015   0.930   3.004   8.294  0.2777  0.0820  0.1230
 6460SOL    HW131016   0.871   2.978   8.365  2.0502 -1.6322  0.9797
 6460SOL    HW231017   0.986   3.075   8.324 -2.5242  1.8594  1.0673
 6461SOL     OW31018   3.337   2.619  12.147  0.1606 -0.5939 -0.1706
 6461SOL    HW131019   3.383   2.562  12.085  2.0544  2.2982 -1.4008
 6461SOL    HW231020   3.263   2.648  12.094  1.0662  2.0878  0.0412
 6462SOL     OW31021   1.066   2.622   1.636 -0.3313  0.1720  0.7550
 6462SOL    HW131022   1.094   2.614   1.545  1.6993  1.3311  1.2646
 6462SOL    HW231023   1.063   2.717   1.651  0.2925  0.2545  0.3452
 6463SOL     OW31024   3.163   0.576   8.449 -0.2938 -0.3175 -0.0603
 6463SOL    HW131025   3.206   0.539   8.372  2.9244  1.3826  0.9313
 6463SOL    HW231026   3.238   0.569   8.508  0.0575 -1.6292 -0.6778
 6464SOL     OW31027   4.052   2.227   4.079  1.0849 -0.6803  0.3371
 6464SOL    HW131028   4.064   2.182   3.996 -2.2745 -0.0766 -0.4858
 6464SOL    HW231029   4.135   2.191   4.109  1.4346  1.6035  2.0956
 6465SOL     OW31030   0.054   2.048   6.577 -1.0925 -0.3857 -0.7165
 6465SOL    HW131031   0.137   2.082   6.545 -0.8495 -2.6232 -2.5024
 6465SOL    HW231032   0.024   2.124   6.626  0.8464 -0.6652  0.8798
 6466SOL     OW31033   4.100   3.896   5.316 -0.5393  0.3276 -0.0768
 6466SOL    HW131034   4.032   3.831   5.303  0.7903 -0.3897 -3.5796
 6466SOL    HW231035   4.120   3.862   5.403 -0.8594 -1.2326 -0.6242
 6467SOL     OW31036   0.316   1.031   3.551  0.0497 -0.2056  0.1819
 6467SOL    HW131037   0.397   1.073   3.520 -0.7116  0.8581 -0.3543
 6467SOL    HW231038   0.263   1.092   3.602  0.0668  0.5300 -0.6791
 6468SOL     OW31039   0.786   0.886   1.426  0.1314 -0.1531  0.3220
 6468SOL    HW131040   0.848   0.813   1.417  0.9893  0.8145 -1.6718
 6468SOL    HW231041   0.839   0.966   1.420  0.2978 -0.1360  2.0328
 6469SOL     OW31042   1.968   1.474   2.466 -0.0044 -0.0752 -0.3948
 6469SOL    HW131043   1.921   1.430   2.537  0.5461 -0.1359 -0.0635
 6469SOL    HW231044   2.001   1.399   2.417 -1.2116 -0.2640 -0.9025
 6470SOL     OW31045   1.829   3.455   0.329  0.1744  0.1750  0.1923
 6470SOL    HW131046   1.793   3.433   0.414  1.9922 -0.7120  0.7267
 6470SOL    HW231047   1.891   3.385   0.308 -0.6335 -0.5908  0.3886
 6471SOL     OW31048   3.979   0.811   1.973 -0.2745  0.6180  0.4730
 6471SOL    HW131049   3.895   0.791   1.933 -0.5954 -0.4225  1.6435
 6471SOL    HW231050   4.010   0.726   2.006 -2.0284 -1.1493 -2.3871
 6472SOL     OW31051   1.677   3.550   9.141 -0.2290  0.5004  0.4472
 6472SOL    HW131052   1.594   3.506   9.159  0.1998 -1.0917 -1.4415
 6472SOL    HW231053   1.706   3.588   9.225  0.6290 -1.2064  0.9147
 6473SOL     OW31054   3.321   2.967  15.521  0.5621 -0.2925  0.6385
 6473SOL    HW131055   3.282   2.942  15.437  0.4535 -1.7150  1.1070
 6473SOL    HW231056   3.302   2.890  15.575 -0.5762  0.3031  1.0767
 6474SOL     OW31057   1.878   0.951   2.903 -0.1462  0.1847 -0.2191
 6474SOL    HW131058   1.971   0.933   2.891 -0.3988 -1.1339 -0.1091
 6474SOL    HW231059   1.842   0.863   2.898 -0.9558  0.5415 -0.7679
 6475SOL     OW31060   0.368   0.996  13.805 -0.3993 -0.4866  0.2123
 6475SOL    HW131061   0.305   0.939  13.762  0.5698 -0.0248 -1.8141
 6475SOL    HW231062   0.425   0.936  13.854 -1.0109 -1.6914 -0.5583
 6476SOL     OW31063   0.739   1.320   3.362  0.2009 -0.2271 -0.1444
 6476SOL    HW131064   0.700   1.395   3.407  0.0551 -0.2522 -0.2271
 6476SOL    HW231065   0.711   1.330   3.271 -0.3485 -0.2089  0.0243
 6477SOL     OW31066   2.786   2.660   4.400 -0.5654 -0.3464 -0.8036
 6477SOL    HW131067   2.692   2.664   4.417  0.0480  0.2314  2.4987
 6477SOL    HW231068   2.824   2.702   4.478 -0.1591  0.0775 -1.2282
 6478SOL     OW31069   1.308   0.948  14.800  0.0564 -0.5369  0.4198
 6478SOL    HW131070   1.283   0.869  14.752  1.0440 -0.4234 -0.2875
 6478SOL    HW231071   1.348   0.906  14.877 -0.0431 -0.6294  0.4213
 6479SOL     OW31072   4.684   4.489  12.789  0.4695  0.1723 -0.6938
 6479SOL    HW131073   4.722   4.402  12.784  0.3879  0.0438  0.9520
 6479SOL    HW231074   0.023   4.536  12.755 -0.0431  1.3506 -0.2468
 6480SOL     OW31075   4.592   0.205   9.460 -0.3350 -0.2921  0.6121
 6480SOL    HW131076   4.558   0.117   9.476  0.8620 -0.6758  1.0918
 6480SOL    HW231077   4.533   0.247   9.523 -2.6298 -1.4215 -0.7932
 6481SOL     OW31078   1.528   4.203   7.992  0.1977  0.2112  0.1487
 6481SOL    HW131079   1.503   4.130   8.048  1.0631 -0.5237 -0.4275
 6481SOL    HW231080   1.461   4.200   7.924  0.4077 -3.2677  0.1056
 6482SOL     OW31081   2.722   0.415  16.928 -0.2023  0.3487  0.0316
 6482SOL    HW131082   2.766   0.460  17.001  1.2914 -3.3441  1.3893
 6482SOL    HW231083   2.735   0.479  16.857 -2.5349  0.0455 -0.6395
 6483SOL     OW31084   1.368   2.479   5.196  0.3194  0.3891 -0.0062
 6483SOL    HW131085   1.406   2.459   5.281  0.1886 -1.4778 -0.3907
 6483SOL    HW231086   1.448   2.467   5.144 -0.4149 -0.6358 -0.9043
 6484SOL     OW31087   3.292   2.317   5.396 -1.0042  0.1603  0.5113
 6484SOL    HW131088   3.344   2.266   5.458 -2.2451  1.1304  2.3266
 6484SOL    HW231089   3.355   2.333   5.325  1.9275 -1.4662  2.7170
 6485SOL     OW31090   2.760   4.017   8.198 -0.2013  0.2407 -0.4142
 6485SOL    HW131091   2.801   3.963   8.131  3.8057  1.1227  1.3201
 6485SOL    HW231092   2.839   4.051   8.241 -0.9768  0.4719  0.8367
 6486SOL     OW31093   1.354   3.681  16.586 -0.0724 -0.1952 -0.4705
 6486SOL    HW131094   1.277   3.637  16.620 -0.8489  1.8205  0.3783
 6486SOL    HW231095   1.364   3.755  16.645 -0.8947  0.0682 -0.6711
 6487SOL     OW31096   1.753   3.980  11.934 -0.1935 -0.2062 -0.3071
 6487SOL    HW131097   1.708   3.930  12.003  1.6843 -2.2216 -0.5453
 6487SOL    HW231098   1.684   3.975  11.869 -0.3716  0.7893 -0.2025
 6488SOL     OW31099   3.268   0.843   1.802  0.2626  0.3752 -0.1187
 6488SOL    HW131100   3.228   0.767   1.844  0.4880  0.4412  0.2153
 6488SOL    HW231101   3.321   0.885   1.870 -0.0020  0.1466  0.2259
 6489SOL     OW31102   1.150   1.707  10.914  0.1668  0.5486 -0.4322
 6489SOL    HW131103   1.150   1.658  10.996 -1.6006  0.5823 -0.3971
 6489SOL    HW231104   1.096   1.785  10.930 -0.7268 -0.2683  0.5466
 6490SOL     OW31105   4.614   1.093   4.237  0.1457 -0.4667  0.1621
 6490SOL    HW131106   4.611   0.999   4.252  1.0569 -0.1561  2.2672
 6490SOL    HW231107   4.701   1.093   4.198 -0.5177  0.1436 -1.3321
 6491SOL     OW31108   3.448   2.889   5.295 -0.5835 -0.2771 -0.0975
 6491SOL    HW131109   3.408   2.976   5.301 -1.1413 -0.5161 -0.3910
 6491SOL    HW231110   3.511   2.886   5.367 -1.0800  3.0133  0.4601
 6492SOL     OW31111   2.418   4.139  11.728 -0.4269 -0.0047 -0.6487
 6492SOL    HW131112   2.492   4.163  11.673 -0.4466  0.2733 -0.5554
 6492SOL    HW231113   2.421   4.203  11.800 -1.1915  0.6241 -1.1845
 6493SOL     OW31114   0.862   2.496  16.175  0.6936  0.5943 -1.1514
 6493SOL    HW131115   0.872   2.481  16.269  0.5886 -2.1313 -1.5696
 6493SOL    HW231116   0.954   2.500  16.151  1.6902 -1.6234  2.2112
 6494SOL     OW31117   0.727   0.900  10.901  0.7548 -0.1002 -0.2309
 6494SOL    HW131118   0.797   0.957  10.871  0.4808 -0.8332 -2.2713
 6494SOL    HW231119   0.767   0.857  10.978  0.0988 -1.2509 -0.5287
 6495SOL     OW31120   2.744   4.111  10.749 -0.1791 -0.4588 -0.3256
 6495SOL    HW131121   2.653   4.113  10.778 -0.5342  0.0071 -1.4612
 6495SOL    HW231122   2.737   4.058  10.669 -0.1192 -0.6131 -0.2282
 6496SOL     OW31123   2.289   1.369  17.228  0.4158 -0.0050 -0.2828
 6496SOL    HW131124   2.235   1.307  17.278  0.8851 -0.1643  0.0228
 6496SOL    HW231125   2.274   1.335  17.140  1.1682  3.2185 -1.6574
 6497SOL     OW31126   3.957   4.281   8.244  0.4072  0.5024  0.0665
 6497SOL    HW131127   4.016   4.315   8.310  1.3056  2.2279 -1.6355
 6497SOL    HW231128   3.939   4.194   8.279 -0.0357 -0.2997 -2.1153
 6498SOL     OW31129   1.658   0.827   5.789  0.4283 -0.6164 -0.6045
 6498SOL    HW131130   1.746   0.862   5.808  0.2942  0.3534 -1.7762
 6498SOL    HW231131   1.611   0.867   5.862 -3.1052  1.2406 -3.9339
 6499SOL     OW31132   3.439   0.231   1.488 -0.1799  0.1849 -0.9514
 6499SOL    HW131133   3.405   0.311   1.449 -0.1490  1.8793  2.5549
 6499SOL    HW231134   3.362   0.175   1.498  0.0635 -0.3832 -2.1892
 6500SOL     OW31135   4.398   4.585   1.737  0.4885  0.3684 -0.0516
 6500SOL    HW131136   4.461   4.655   1.751 -0.6207  1.5435 -0.9647
 6500SOL    HW231137   4.337   4.640   1.689  0.6555  0.3949 -0.2327
 6501SOL     OW31138   1.924   2.744   0.574 -0.4774 -0.3642  0.2511
 6501SOL    HW131139   1.971   2.826   0.583  3.2252 -2.4551 -0.1846
 6501SOL    HW231140   1.845   2.766   0.624  0.5478  0.3137  1.5687
 6502SOL     OW31141   4.050   0.251   6.997  0.1085  0.8465 -0.3056
 6502SOL    HW131142   4.046   0.244   7.092  0.7438 -0.5035 -0.3755
 6502SOL    HW231143   3.970   0.296   6.972 -0.1832  0.7025  0.3732
 6503SOL     OW31144   4.081   4.617   4.984 -0.1141 -0.2323  0.1414
 6503SOL    HW131145   4.049   4.537   5.027 -1.1487  1.5414  2.6775
 6503SOL    HW231146   4.051   4.690   5.038 -3.4012 -0.3976 -1.4417
 6504SOL     OW31147   3.054   4.333   1.453 -0.0271  0.1518 -0.0562
 6504SOL    HW131148   2.983   4.332   1.517 -0.7622 -1.1821 -0.8809
 6504SOL    HW231149   3.006   4.289   1.382  0.8366  1.4743 -1.4638
 6505SOL     OW31150   0.946   0.555   0.514 -0.4110 -0.1860  0.0201
 6505SOL    HW131151   1.019   0.576   0.571  0.8734 -2.0693 -0.9370
 6505SOL    HW231152   0.901   0.637   0.494  0.3281  0.2170  0.0201
 6506SOL     OW31153   3.617   3.958   6.985  0.1503  0.2858  0.0302
 6506SOL    HW131154   3.592   3.870   6.954 -0.8845  0.1260  1.3353
 6506SOL    HW231155   3.637   4.006   6.904  0.9302 -0.2604 -0.1046
 6507SOL     OW31156   0.654   2.092   4.688  0.0362 -0.0322 -1.1082
 6507SOL    HW131157   0.743   2.076   4.718 -0.8755 -1.5493  0.8300
 6507SOL    HW231158   0.609   2.013   4.718  1.3105  0.3280  1.7555
 6508SOL     OW31159   1.267   1.957   8.368  0.0804 -0.2746  0.3371
 6508SOL    HW131160   1.298   2.046   8.352 -2.1506  0.7962  2.0018
 6508SOL    HW231161   1.333   1.916   8.423  0.5175 -1.9407 -1.3976
 6509SOL     OW31162   4.494   4.300   0.178 -0.7872  0.4790 -0.2920
 6509SOL    HW131163   4.584   4.328   0.195 -0.8268  0.4438 -0.0338
 6509SOL    HW231164   4.486   4.229   0.242  0.3279 -0.0128 -0.7054
 6510SOL     OW31165   2.825   0.173   9.095  0.1333  0.1878  0.0741
 6510SOL    HW131166   2.791   0.247   9.146 -0.6250  0.0349 -0.2081
 6510SOL    HW231167   2.874   0.126   9.163  0.7760  0.5314 -0.1585
 6511SOL     OW31168   3.928   1.060   7.030 -0.1571  0.2910 -0.4038
 6511SOL    HW131169   4.014   1.021   7.012 -0.5492 -0.7242 -0.0866
 6511SOL    HW231170   3.886   1.072   6.945 -0.1654 -0.4064 -0.4970
 6512SOL     OW31171   3.279   0.065   6.835  0.4370 -0.5208  0.0168
 6512SOL    HW131172   3.293   0.158   6.855  2.9189 -1.0632  0.8248
 6512SOL    HW231173   3.202   0.051   6.889  0.2046 -0.0499 -0.1892
 6513SOL     OW31174   2.782   3.408   6.234 -0.4041 -0.1188 -0.1367
 6513SOL    HW131175   2.731   3.485   6.260 -2.5337 -0.3641 -3.4391
 6513SOL    HW231176   2.719   3.360   6.180 -1.1267 -0.6038  1.1457
 6514SOL     OW31177   1.335   0.799   3.470  0.1222  0.2437 -0.3703
 6514SOL    HW131178   1.318   0.743   3.545  0.4749 -0.9928 -1.2128
 6514SOL    HW231179   1.375   0.874   3.514 -1.3776  0.6661  0.2832
 6515SOL     OW31180   0.320   2.312   8.169 -0.5629 -0.3907 -0.3781
 6515SOL    HW131181   0.240   2.272   8.134 -0.1102 -0.0235 -1.8516
 6515SOL    HW231182   0.367   2.232   8.193 -2.3608  0.1190  4.8487
 6516SOL     OW31183   2.571   3.850   8.054  0.0715 -0.9087 -0.2061
 6516SOL    HW131184   2.665   3.836   8.042  0.2122  0.0091 -0.1931
 6516SOL    HW231185   2.573   3.914   8.125 -0.7341 -0.2689 -0.7420
 6517SOL     OW31186   2.517   2.984   6.795  0.0221  0.2713 -0.3894
 6517SOL    HW131187   2.474   3.068   6.780  1.9073  1.7302  2.2825
 6517SOL    HW231188   2.575   2.982   6.718 -0.2684  1.8176 -0.6578
 6518SOL     OW31189   3.953   3.939   1.135  0.3100 -0.2888 -0.4697
 6518SOL    HW131190   3.927   4.031   1.137  2.6742  0.3837 -0.2588
 6518SOL    HW231191   3.875   3.898   1.099  0.6807 -0.2797 -1.3005
 6519SOL     OW31192   2.177   2.672   0.448 -0.7494  0.0489 -0.7615
 6519SOL    HW131193   2.086   2.651   0.430 -0.0120  0.9011 -5.5640
 6519SOL    HW231194   2.180   2.768   0.444 -0.4445  0.0289 -1.0334
 6520SOL     OW31195   0.798   3.872   3.858 -0.2110 -0.0564  0.0910
 6520SOL    HW131196   0.832   3.883   3.770  1.4483  0.6148  0.8016
 6520SOL    HW231197   0.744   3.794   3.852 -0.1245 -0.1577  0.6211
 6521SOL     OW31198   4.397   2.060   7.172 -0.0848  0.0330  0.5646
 6521SOL    HW131199   4.445   2.014   7.241  1.0223  0.1498 -0.1328
 6521SOL    HW231200   4.465   2.102   7.120 -0.0016 -2.5829 -1.4009
 6522SOL     OW31201   3.742   4.506   5.574  0.2548 -0.6437 -0.0832
 6522SOL    HW131202   3.712   4.442   5.639 -0.3204 -0.2864  0.0030
 6522SOL    HW231203   3.670   4.569   5.565  1.9138  1.1965 -0.3124
 6523SOL     OW31204   4.252   0.356   4.270  0.1320 -0.1272  0.0734
 6523SOL    HW131205   4.230   0.449   4.265 -2.3221 -0.5681  2.9676
 6523SOL    HW231206   4.249   0.341   4.364 -1.1589 -0.7051 -0.0559
 6524SOL     OW31207   1.256   0.922   8.026  0.6605  0.0342 -0.3432
 6524SOL    HW131208   1.267   0.827   8.020  1.9151  0.2065 -0.9065
 6524SOL    HW231209   1.163   0.914   8.006  0.1353  0.2508  2.1112
 6525SOL     OW31210   0.636   3.706   2.990  0.3683 -0.4068  0.0978
 6525SOL    HW131211   0.564   3.742   2.938  1.2742  0.2296 -0.7083
 6525SOL    HW231212   0.668   3.789   3.025 -2.6680  1.8290 -2.4605
 6526SOL     OW31213   2.963   3.117  12.792 -0.3170  0.2228 -0.3804
 6526SOL    HW131214   2.908   3.057  12.842 -0.0934  0.4443  0.1339
 6526SOL    HW231215   3.049   3.107  12.833 -0.7365  0.4500  0.5521
 6527SOL     OW31216   2.021   1.449   3.024 -0.1521  0.2984  0.1916
 6527SOL    HW131217   2.097   1.448   3.082  0.2611 -0.5142 -0.3617
 6527SOL    HW231218   2.040   1.519   2.962 -2.2002 -0.3592 -1.1460
 6528SOL     OW31219   1.810   2.935  13.820 -0.4409 -0.4362  0.0031
 6528SOL    HW131220   1.867   2.871  13.863 -1.0142 -1.0414 -0.1320
 6528SOL    HW231221   1.748   2.950  13.891 -0.8751 -1.2575 -0.2004
 6529SOL     OW31222   1.039   2.241   3.619 -0.3476  0.2417  0.1479
 6529SOL    HW131223   1.096   2.316   3.600  0.1569  0.1190  1.2020
 6529SOL    HW231224   0.976   2.289   3.673 -1.6093  0.9782 -1.9796
 6530SOL     OW31225   0.859   1.097   8.780 -0.2150 -0.3544 -0.5657
 6530SOL    HW131226   0.852   1.096   8.875  1.9335  0.2165 -0.4015
 6530SOL    HW231227   0.953   1.087   8.767 -0.2587  0.9020 -1.8333
 6531SOL     OW31228   3.010   1.029   5.120 -0.4220 -0.1456  0.2540
 6531SOL    HW131229   3.063   1.042   5.041 -0.2811  0.1383  0.3968
 6531SOL    HW231230   3.009   1.119   5.153  1.2246 -0.1514  0.3354
 6532SOL     OW31231   1.297   2.259   3.302  0.4570 -0.0686 -0.3974
 6532SOL    HW131232   1.267   2.346   3.329  1.2348 -0.1003  0.5936
 6532SOL    HW231233   1.314   2.289   3.213  1.6483  1.8153  0.4514
 6533SOL     OW31234   3.861   2.745   4.293  0.4308  0.0927  0.0242
 6533SOL    HW131235   3.820   2.711   4.214  0.0629 -1.2163  0.7662
 6533SOL    HW231236   3.944   2.778   4.259 -0.1225  1.6846  0.2086
 6534SOL     OW31237   1.201   2.062   5.882 -0.0489  0.0168 -0.7751
 6534SOL    HW131238   1.110   2.034   5.880 -0.2729  0.7549 -0.9524
 6534SOL    HW231239   1.245   1.977   5.884  3.5631  1.9174  0.8505
 6535SOL     OW31240   3.846   3.251   9.381  0.0633 -0.3567  0.2547
 6535SOL    HW131241   3.800   3.167   9.376 -1.6013  0.5589 -0.0064
 6535SOL    HW231242   3.909   3.235   9.452 -1.8122 -0.0836  1.9902
 6536SOL     OW31243   0.627   1.353  12.449 -0.0923 -0.1822 -0.3438
 6536SOL    HW131244   0.679   1.278  12.476 -2.0595 -1.2064  0.5499
 6536SOL    HW231245   0.591   1.335  12.362  0.7836  0.9873 -0.9580
 6537SOL     OW31246   4.100   3.671   9.851 -0.6121 -0.3508 -0.5260
 6537SOL    HW131247   4.123   3.746   9.906 -0.1076 -1.2165  0.4376
 6537SOL    HW231248   4.106   3.609   9.923 -3.2190  2.0938  1.7935
 6538SOL     OW31249   3.395   0.142   6.598 -0.1071 -0.3093  0.1483
 6538SOL    HW131250   3.353   0.227   6.586 -1.4430 -1.1450 -1.0334
 6538SOL    HW231251   3.342   0.100   6.666  2.1972 -1.0845  1.4588
 6539SOL     OW31252   1.298   3.258  13.107 -0.0783 -0.6344 -0.3206
 6539SOL    HW131253   1.376   3.303  13.073  1.0367 -0.4781  2.3775
 6539SOL    HW231254   1.313   3.167  13.081  0.2582 -0.6591 -0.0488
 6540SOL     OW31255   0.810   1.812   4.405 -0.1045  0.2530 -0.6766
 6540SOL    HW131256   0.799   1.749   4.476  5.1012  1.1450  0.9428
 6540SOL    HW231257   0.813   1.896   4.452  1.9592  0.5621 -1.3777
 6541SOL     OW31258   1.228   2.936   4.350  0.4170  0.2895  0.1091
 6541SOL    HW131259   1.210   2.913   4.441 -1.7712 -2.3422 -1.0181
 6541SOL    HW231260   1.293   3.006   4.362  0.2095  0.3839  0.6657
 6542SOL     OW31261   2.098   2.655   5.009  0.1854 -0.1519 -0.3360
 6542SOL    HW131262   2.132   2.741   5.033  0.6826  0.3198 -2.6753
 6542SOL    HW231263   2.170   2.614   4.961  0.3921 -1.4603  1.0879
 6543SOL     OW31264   0.085   2.281   9.040  0.5289  0.0784 -0.3945
 6543SOL    HW131265   0.165   2.303   9.087  0.8668 -1.7097 -0.1221
 6543SOL    HW231266   0.082   2.352   8.975  0.0724  0.6465  0.2519
 6544SOL     OW31267   0.523   3.603   2.147  0.6271 -0.3999  0.3926
 6544SOL    HW131268   0.439   3.647   2.158  0.6914 -0.0760 -0.4017
 6544SOL    HW231269   0.512   3.528   2.090  0.8240  1.9099 -2.6998
 6545SOL     OW31270   1.475   2.004   3.113  0.5035 -0.0229  0.2277
 6545SOL    HW131271   1.407   2.050   3.163  0.6543  0.0257  0.3888
 6545SOL    HW231272   1.480   2.060   3.035 -3.0959 -0.6165 -0.4308
 6546SOL     OW31273   1.439   2.775   9.171 -0.1772  0.0411  0.0051
 6546SOL    HW131274   1.524   2.814   9.153 -1.4116  1.7148 -2.1760
 6546SOL    HW231275   1.466   2.690   9.206 -1.9484 -0.3585  0.4289
 6547SOL     OW31276   3.311   0.029   8.801 -0.4445  0.2010  0.9977
 6547SOL    HW131277   3.396   0.074   8.797 -0.5578  0.4162  1.0092
 6547SOL    HW231278   3.249   0.101   8.809 -2.1334 -0.8672 -2.5235
 6548SOL     OW31279   2.218   1.962   7.059 -0.3981 -0.2989 -0.2341
 6548SOL    HW131280   2.275   1.945   7.133 -1.2058 -1.6728  0.0776
 6548SOL    HW231281   2.189   1.873   7.036  0.3717 -0.4279 -0.6931
 6549SOL     OW31282   3.337   4.356   3.614 -0.1718 -0.3005 -0.1863
 6549SOL    HW131283   3.326   4.265   3.641 -1.6031 -0.5765 -1.7152
 6549SOL    HW231284   3.251   4.394   3.635  0.7329  1.7769 -0.2616
 6550SOL     OW31285   2.117   0.933   3.591  0.0908  0.0516  0.0892
 6550SOL    HW131286   2.047   0.970   3.645  0.5546 -0.0244  0.7442
 6550SOL    HW231287   2.178   0.921   3.664 -0.0107 -2.0804 -0.1827
 6551SOL     OW31288   3.051   2.147   6.605 -0.0044 -0.5323  0.2221
 6551SOL    HW131289   3.015   2.136   6.693  4.1160 -0.2495  1.9307
 6551SOL    HW231290   3.114   2.216   6.628 -0.4512  0.5887 -1.9276
 6552SOL     OW31291   2.276   1.187   4.458  0.1094 -0.6867 -0.1023
 6552SOL    HW131292   2.227   1.183   4.540  0.5931 -0.0480  0.2072
 6552SOL    HW231293   2.363   1.202   4.494 -0.5112  1.2370  0.5768
 6553SOL     OW31294   0.176   3.434   7.146  0.0009 -0.4194  0.2521
 6553SOL    HW131295   0.268   3.460   7.142 -0.4239  0.9599 -0.5141
 6553SOL    HW231296   0.172   3.379   7.068 -1.6323 -0.0096  0.0435
 6554SOL     OW31297   1.739   4.129   2.962 -0.1451  0.6255  0.0965
 6554SOL    HW131298   1.705   4.065   3.025 -1.1909 -0.1904 -1.3045
 6554SOL    HW231299   1.651   4.164   2.943  0.1513  1.0439 -0.5038
 6555SOL     OW31300   3.470   3.759   3.372  0.4126  0.4284  0.1172
 6555SOL    HW131301   3.406   3.820   3.409  2.0513  1.2872  1.5306
 6555SOL    HW231302   3.538   3.821   3.347  1.1060 -0.8208 -1.1716
 6556SOL     OW31303   2.245   4.082   3.921 -0.1471 -0.3310 -0.1509
 6556SOL    HW131304   2.276   4.092   3.831 -2.1206  0.7983 -0.7034
 6556SOL    HW231305   2.283   4.161   3.960 -0.0982 -0.7610  0.6708
 6557SOL     OW31306   4.211   2.845   9.741 -0.1213  0.3440  0.3389
 6557SOL    HW131307   4.143   2.844   9.673 -0.1067  0.1221  0.3258
 6557SOL    HW231308   4.281   2.801   9.693  1.2528  1.3481  1.4356
 6558SOL     OW31309   1.135   3.021   6.107  0.4953  0.2908 -0.2633
 6558SOL    HW131310   1.130   2.974   6.024 -1.6453  0.2534 -0.1287
 6558SOL    HW231311   1.225   3.004   6.133  0.2273  1.1466  1.2321
 6559SOL     OW31312   2.661   1.005   2.604 -0.0756 -0.4591  0.2803
 6559SOL    HW131313   2.635   0.998   2.512  1.4612  0.4099 -0.2272
 6559SOL    HW231314   2.737   1.062   2.594  1.1163 -1.0698  6.1077
 6560SOL     OW31315   2.584   4.460  16.198  0.1256 -0.5919 -0.2491
 6560SOL    HW131316   2.616   4.534  16.249  1.4118  0.0465 -1.9982
 6560SOL    HW231317   2.647   4.451  16.126  1.0433  1.3087  0.3388
 6561SOL     OW31318   1.925   4.662   3.216 -0.2027 -0.2888 -0.2194
 6561SOL    HW131319   1.930   4.616   3.300 -0.2934 -2.0093 -1.1582
 6561SOL    HW231320   1.883   0.004   3.249 -1.3835  0.7592 -4.3736
 6562SOL     OW31321   1.209   0.179  12.670 -0.2452 -0.9375  0.1892
 6562SOL    HW131322   1.252   0.190  12.755 -2.5369  1.0095  1.0811
 6562SOL    HW231323   1.130   0.130  12.693 -1.7219  0.8930 -0.9319
 6563SOL     OW31324   4.436   3.403   0.620 -0.6630  0.2367 -0.1250
 6563SOL    HW131325   4.475   3.373   0.539  0.2943 -1.6755  1.0437
 6563SOL    HW231326   4.372   3.464   0.584 -2.3857 -1.1177  0.6224
 6564SOL     OW31327   3.309   1.252   2.954  0.0471 -0.2888 -0.1628
 6564SOL    HW131328   3.318   1.342   2.922 -2.5097  0.3859  1.0283
 6564SOL    HW231329   3.377   1.211   2.901  0.6531 -1.3355  1.4096
 6565SOL     OW31330   3.978   4.069   2.929  0.0533  0.7251  0.1676
 6565SOL    HW131331   4.072   4.078   2.944  0.5514  1.4436 -3.5353
 6565SOL    HW231332   3.943   4.133   2.992 -0.0427  0.2925  0.5546
 6566SOL     OW31333   2.153   0.866   5.332 -0.1563 -0.1150 -0.2603
 6566SOL    HW131334   2.143   0.938   5.270 -2.5168  0.4485  0.7606
 6566SOL    HW231335   2.098   0.903   5.401 -0.5782 -0.5944 -0.3405
 6567SOL     OW31336   3.362   2.615   7.621  0.4941  0.1592 -0.0962
 6567SOL    HW131337   3.294   2.548   7.628  0.0897  0.6190  0.3352
 6567SOL    HW231338   3.404   2.584   7.540 -1.0465 -2.0858 -0.0209
 6568SOL     OW31339   0.375   0.115   7.746 -0.1560  0.0723 -0.0061
 6568SOL    HW131340   0.437   0.076   7.685  0.7570  2.1745 -0.4119
 6568SOL    HW231341   0.342   0.038   7.792  1.6418  0.6985  2.3386
 6569SOL     OW31342   1.132   2.539   1.898  0.0556  0.4782 -0.2961
 6569SOL    HW131343   1.137   2.622   1.945 -0.4471 -0.1082  0.7974
 6569SOL    HW231344   1.110   2.564   1.808 -2.1613  2.1738  0.7102
 6570SOL     OW31345   3.363   0.878  11.509  0.0930  0.6231  0.4836
 6570SOL    HW131346   3.287   0.908  11.560  1.4057 -0.4174  3.0542
 6570SOL    HW231347   3.328   0.797  11.471  3.2299 -0.0543 -0.9383
 6571SOL     OW31348   0.524   4.280   6.125 -0.4586 -0.2386  0.1826
 6571SOL    HW131349   0.572   4.290   6.042 -0.4791 -0.0061  0.2004
 6571SOL    HW231350   0.597   4.278   6.187 -0.3690  0.3820  0.1001
 6572SOL     OW31351   0.051   4.012   3.002 -0.1685  0.5927  0.4248
 6572SOL    HW131352   0.115   4.072   3.041  2.9428 -0.8461 -2.4796
 6572SOL    HW231353   0.080   3.929   3.039 -0.1799 -0.1911 -1.3270
 6573SOL     OW31354   4.275   4.703   5.697  0.0821  0.4736  0.3029
 6573SOL    HW131355   4.267   0.050   5.740 -1.1859  0.4692  0.0616
 6573SOL    HW231356   4.189   4.694   5.657  0.7083  1.0069 -1.1558
 6574SOL     OW31357   3.459   1.925   4.448  0.4510  0.0593  0.1590
 6574SOL    HW131358   3.438   1.994   4.511 -0.2096  0.3278 -0.3592
 6574SOL    HW231359   3.481   1.979   4.372  1.2349 -2.6463 -1.5647
 6575SOL     OW31360   2.925   3.411   3.321  0.3073 -0.3576 -0.5432
 6575SOL    HW131361   2.987   3.339   3.311 -0.6590 -1.1843 -0.5722
 6575SOL    HW231362   2.938   3.463   3.241  1.2243  0.6130  0.2359
 6576SOL     OW31363   2.415   0.846   3.822 -0.3539  0.7412  0.0837
 6576SOL    HW131364   2.434   0.925   3.771  0.3268  0.3865 -0.2125
 6576SOL    HW231365   2.454   0.866   3.907 -0.7392  0.8410  0.2375
 6577SOL     OW31366   2.292   2.586   3.290 -0.0522 -0.2123 -0.0779
 6577SOL    HW131367   2.205   2.597   3.252  0.4700  1.1658 -0.8810
 6577SOL    HW231368   2.351   2.646   3.244 -0.2332 -0.2671 -0.3807
 6578SOL     OW31369   4.721   1.010   3.488  0.7447 -0.6044 -0.5378
 6578SOL    HW131370   4.652   0.946   3.469 -0.1293  0.1687  0.0780
 6578SOL    HW231371   0.016   0.978   3.572 -0.1949  2.0040  0.8107
 6579SOL     OW31372   3.464   3.494   3.479 -0.2357  0.0052 -0.1084
 6579SOL    HW131373   3.471   3.587   3.456  2.5729 -0.3606 -0.7244
 6579SOL    HW231374   3.480   3.495   3.574 -2.2798  0.0491  0.2217
 6580SOL     OW31375   2.036   3.589   3.452  0.0497  0.4162  0.9732
 6580SOL    HW131376   2.039   3.625   3.363 -2.0543 -1.4328  0.1790
 6580SOL    HW231377   1.949   3.610   3.485 -0.0620  0.5175  0.6155
 6581SOL     OW31378   2.179   4.461   2.936  0.1988  1.1106 -0.0827
 6581SOL    HW131379   2.130   4.509   2.869  1.6719 -0.2445 -2.1531
 6581SOL    HW231380   2.195   4.523   3.006 -2.2545  2.2469 -0.5401
 6582SOL     OW31381   1.980   1.821   6.637  0.0362 -0.4955  0.0891
 6582SOL    HW131382   2.034   1.762   6.690  0.7596  0.4850  0.4554
 6582SOL    HW231383   2.015   1.898   6.682  0.2783 -1.6549  1.9097
 6583SOL     OW31384   3.972   2.479  17.106  0.0043  0.1349 -0.0349
 6583SOL    HW131385   3.970   2.575  17.107  1.2021  0.1072  4.5416
 6583SOL    HW231386   4.064   2.461  17.085 -0.2099 -2.3687  1.2143
 6584SOL     OW31387   1.402   2.212   3.989 -0.2333  0.0748  0.3109
 6584SOL    HW131388   1.372   2.152   4.056  0.9045 -1.5334 -0.6181
 6584SOL    HW231389   1.483   2.249   4.024  1.0570 -3.6956  1.2859
 6585SOL     OW31390   2.785   1.781   6.272 -0.4611  0.2930  0.2040
 6585SOL    HW131391   2.870   1.801   6.312 -0.8707  0.5939  0.9261
 6585SOL    HW231392   2.770   1.867   6.233 -0.9180  0.9377  1.7934
 6586SOL     OW31393   2.718   4.637   5.988  0.2621  0.2559 -0.4251
 6586SOL    HW131394   2.688   4.711   5.936  0.2541  1.6235  1.5169
 6586SOL    HW231395   2.659   4.631   6.063  0.5441  0.1897 -0.2083
 6587SOL     OW31396   0.403   3.734   5.090  0.3404  0.3097 -0.2097
 6587SOL    HW131397   0.336   3.674   5.060 -0.0165  0.7835 -0.3490
 6587SOL    HW231398   0.452   3.667   5.139 -0.4091 -0.3958 -0.4276
 6588SOL     OW31399   2.577   0.820   0.811 -0.1294  0.4316  0.3542
 6588SOL    HW131400   2.654   0.837   0.755 -0.8849  0.9273 -0.5427
 6588SOL    HW231401   2.593   0.729   0.833  2.1467  0.3238 -1.6940
 6589SOL     OW31402   2.500   1.021   3.645  0.2497  0.1793  0.0659
 6589SOL    HW131403   2.455   1.100   3.676 -0.1886 -1.0341  2.4909
 6589SOL    HW231404   2.490   1.025   3.549  0.6902 -0.2827  0.0042
 6590SOL     OW31405   1.078   1.774   5.024  0.4418  0.2850  0.2056
 6590SOL    HW131406   1.127   1.709   5.073  0.9798  0.0366 -0.6709
 6590SOL    HW231407   0.995   1.789   5.069 -0.6998  1.1508 -2.1623
 6591SOL     OW31408   3.162   3.925   5.795  0.3399 -0.3206  0.2167
 6591SOL    HW131409   3.208   3.986   5.737 -1.4628  1.7196  0.9318
 6591SOL    HW231410   3.182   3.951   5.885 -2.4386 -1.8458  1.2622
 6592SOL     OW31411   4.185   4.318   5.050  0.1088  0.2569 -0.0535
 6592SOL    HW131412   4.170   4.266   5.129  1.3041 -0.6625 -0.4204
 6592SOL    HW231413   4.234   4.259   4.992  0.1264  1.0629 -0.8524
 6593SOL     OW31414   2.157   2.252   3.619 -0.2490  0.1213  0.2398
 6593SOL    HW131415   2.096   2.300   3.675 -0.9091 -0.0526 -0.3340
 6593SOL    HW231416   2.127   2.163   3.636  1.4857 -0.5972 -0.5182
 6594SOL     OW31417   0.367   1.901   4.431 -0.5727 -0.2118  0.3788
 6594SOL    HW131418   0.325   1.816   4.440  1.0488 -1.0707 -0.0199
 6594SOL    HW231419   0.297   1.956   4.397 -0.9917 -0.0857  1.4782
 6595SOL     OW31420   4.386   4.266   6.269  0.2390 -0.4505 -0.4176
 6595SOL    HW131421   4.319   4.205   6.302 -1.7175  2.7997  1.5823
 6595SOL    HW231422   4.393   4.226   6.182  1.1055 -3.3839  1.0157
 6596SOL     OW31423   4.535   2.505   1.915  0.1006  0.2611  0.0900
 6596SOL    HW131424   4.628   2.480   1.921  0.4204  1.0115 -1.8474
 6596SOL    HW231425   4.499   2.419   1.895  1.2701 -0.4002  0.7759
 6597SOL     OW31426   0.122   2.969   7.638  0.0080  0.3782  0.5043
 6597SOL    HW131427   0.141   2.970   7.732 -2.0841  0.9380  0.9232
 6597SOL    HW231428   0.128   2.877   7.612 -1.2932 -0.1534  2.0167
 6598SOL     OW31429   0.464   0.319   3.129  0.1937 -0.1907  0.2493
 6598SOL    HW131430   0.466   0.227   3.155  1.1823 -0.0499  0.6310
 6598SOL    HW231431   0.444   0.356   3.215  0.3935  1.2884 -0.3428
 6599SOL     OW31432   0.501   1.011  14.582 -0.0857 -0.2867  0.5048
 6599SOL    HW131433   0.475   1.057  14.662  0.1865 -1.8782  1.4914
 6599SOL    HW231434   0.410   1.000  14.556 -0.0175 -0.6177  0.4054
 6600SOL     OW31435   3.328   1.941  10.783  0.1343  0.0435 -0.4047
 6600SOL    HW131436   3.291   1.928  10.870 -1.6318 -0.9970 -1.3066
 6600SOL    HW231437   3.395   1.874  10.793  1.2945  1.3351  0.3564
 6601SOL     OW31438   4.010   2.834   1.884 -0.3149 -0.3053  0.0222
 6601SOL    HW131439   4.023   2.789   1.800  2.6849 -0.8312  0.7801
 6601SOL    HW231440   3.953   2.908   1.863  0.1389  1.1792  4.0237
 6602SOL     OW31441   3.262   0.007   5.158 -0.0868 -0.6890  0.2124
 6602SOL    HW131442   3.244   4.677   5.223 -1.4306 -0.0190  0.5436
 6602SOL    HW231443   3.182   0.056   5.174  0.2222  0.1608 -0.8089
 6603SOL     OW31444   1.628   0.327   2.247  0.3895  0.0693 -0.3895
 6603SOL    HW131445   1.585   0.393   2.301  1.2580  1.9255 -1.9932
 6603SOL    HW231446   1.716   0.365   2.244 -0.9011  3.0884  0.7931
 6604SOL     OW31447   2.752   1.493  17.073 -0.3095 -0.0251  0.4163
 6604SOL    HW131448   2.662   1.460  17.074 -0.8536  1.4612  2.5912
 6604SOL    HW231449   2.740   1.570  17.129 -1.3009  0.6799 -0.7647
 6605SOL     OW31450   2.117   2.728   5.889  0.6665 -0.0282 -0.1609
 6605SOL    HW131451   2.036   2.767   5.853 -0.2271 -2.2035 -0.4821
 6605SOL    HW231452   2.126   2.789   5.963  0.3739  0.3820 -0.4599
 6606SOL     OW31453   2.081   0.744   5.889 -0.2255  0.0580 -0.1678
 6606SOL    HW131454   2.092   0.838   5.901 -4.2888  0.4042  0.9171
 6606SOL    HW231455   1.994   0.739   5.928 -0.5947 -2.0040 -1.2161
 6607SOL     OW31456   0.930   0.065   6.400  0.2551 -0.2769 -0.0190
 6607SOL    HW131457   0.901   0.149   6.364  0.0278 -0.5371 -0.4550
 6607SOL    HW231458   0.940   0.014   6.319 -2.6238  0.2893 -0.7283
 6608SOL     OW31459   3.669   3.908   3.008  0.3544  0.8239  0.1528
 6608SOL    HW131460   3.762   3.902   2.988 -0.0202 -0.3226 -1.2413
 6608SOL    HW231461   3.673   3.933   3.101  0.7502  1.3624 -0.0133
 6609SOL     OW31462   1.389   4.406   6.462 -0.3726 -0.4156  0.3723
 6609SOL    HW131463   1.369   4.499   6.471 -1.1047 -0.3057 -2.4001
 6609SOL    HW231464   1.462   4.386   6.520 -0.7112  0.2899  1.0305
 6610SOL     OW31465   0.528   1.097  12.540  0.0912 -0.8255 -0.3550
 6610SOL    HW131466   0.613   1.061  12.565  0.3185  1.4149  2.1080
 6610SOL    HW231467   0.485   1.014  12.518 -0.8967  0.0137 -1.5990
 6611SOL     OW31468   0.328   1.726   0.791  0.1067  0.3052 -0.1086
 6611SOL    HW131469   0.358   1.665   0.724 -1.0258  1.2075 -1.4218
 6611SOL    HW231470   0.410   1.732   0.841  1.8207 -0.1807 -2.8575
 6612SOL     OW31471   3.400   1.509   9.438 -0.3227  0.3882  0.0624
 6612SOL    HW131472   3.353   1.455   9.374 -0.0686  0.3644 -0.1059
 6612SOL    HW231473   3.484   1.463   9.428  0.1012  0.6612  2.3818
 6613SOL     OW31474   1.715   1.871   6.143 -0.0992 -0.3944  0.0537
 6613SOL    HW131475   1.790   1.822   6.177 -3.2138 -3.6107  2.2701
 6613SOL    HW231476   1.750   1.947   6.096  1.0733  0.0921  1.7286
 6614SOL     OW31477   2.170   1.705   7.195 -0.0698 -0.3044  0.4203
 6614SOL    HW131478   2.097   1.659   7.236 -0.3592  0.1314  0.3901
 6614SOL    HW231479   2.241   1.641   7.196  1.9796  1.9460 -1.4943
 6615SOL     OW31480   2.192   3.870   2.294 -0.0409  0.2994 -0.1960
 6615SOL    HW131481   2.242   3.789   2.298  0.4109  0.6091  0.4639
 6615SOL    HW231482   2.119   3.848   2.352 -0.1728  0.9717 -0.1063
 6616SOL     OW31483   2.494   1.837   1.930 -0.2063  0.5009 -0.0261
 6616SOL    HW131484   2.448   1.761   1.894 -1.1682  0.8830  0.4019
 6616SOL    HW231485   2.553   1.862   1.859 -0.9653 -1.2446 -1.2916
 6617SOL     OW31486   4.285   1.151  14.769  0.1831  0.1539  0.3157
 6617SOL    HW131487   4.300   1.245  14.785 -1.8340  0.7271 -1.0927
 6617SOL    HW231488   4.319   1.116  14.852 -2.1475  0.0980  1.2566
 6618SOL     OW31489   3.942   1.811   8.596  0.1131 -0.7463  0.0281
 6618SOL    HW131490   3.982   1.830   8.681 -1.2766  1.8391  0.0807
 6618SOL    HW231491   4.011   1.795   8.532  2.4591  2.5830  1.7709
 6619SOL     OW31492   3.010   0.597   7.749  0.1109 -0.1756 -0.2628
 6619SOL    HW131493   3.050   0.682   7.770 -0.2807 -0.0717  0.0622
 6619SOL    HW231494   2.929   0.594   7.799  0.7086 -0.2638  0.7045
 6620SOL     OW31495   2.303   0.537   3.298  0.0133  0.4666  0.9573
 6620SOL    HW131496   2.216   0.563   3.329 -0.4556  0.1585 -0.0853
 6620SOL    HW231497   2.352   0.617   3.319  0.0020  0.6148  0.4192
 6621SOL     OW31498   4.340   0.880   4.446 -0.1025 -0.3439  0.8677
 6621SOL    HW131499   4.321   0.921   4.362 -0.4744 -0.9281  0.6750
 6621SOL    HW231500   4.262   0.826   4.452  1.3871 -2.3506  2.0376
 6622SOL     OW31501   0.477   2.572   5.608 -0.0874 -0.1707  0.0705
 6622SOL    HW131502   0.473   2.566   5.513 -0.4768  0.8480  0.0309
 6622SOL    HW231503   0.422   2.499   5.638  2.4046 -1.4190  1.6383
 6623SOL     OW31504   2.612   3.139   3.595 -0.3839 -0.5432  0.3268
 6623SOL    HW131505   2.611   3.201   3.522  0.3563 -0.3033  0.5192
 6623SOL    HW231506   2.638   3.198   3.666 -0.3299  2.6460 -2.3524
 6624SOL     OW31507   1.790   3.060   7.102  0.3982  0.2826  0.3515
 6624SOL    HW131508   1.823   3.014   7.179 -0.7625  0.2762  0.8422
 6624SOL    HW231509   1.870   3.054   7.049  1.1784  1.3093  1.4123
 6625SOL     OW31510   3.135   0.288   1.671  0.5817 -0.3503 -0.3842
 6625SOL    HW131511   3.191   0.312   1.745  0.2340 -0.8316  0.0365
 6625SOL    HW231512   3.094   0.215   1.718  0.8801  0.3620  0.9880
 6626SOL     OW31513   1.291   1.185  11.807  0.5287 -0.5536 -0.1478
 6626SOL    HW131514   1.298   1.257  11.870  1.9349 -2.1457  1.5155
 6626SOL    HW231515   1.362   1.124  11.827  0.1877 -0.4783  1.3330
 6627SOL     OW31516   4.616   3.073   8.509 -0.9945  0.3668  0.2346
 6627SOL    HW131517   4.576   3.039   8.429  0.6575 -0.8873 -0.0627
 6627SOL    HW231518   4.697   3.021   8.511 -0.4751  1.1601 -0.1828
 6628SOL     OW31519   2.293   3.251  13.312  0.0315 -0.1070  0.4760
 6628SOL    HW131520   2.369   3.299  13.346 -0.1830  2.3655 -2.4393
 6628SOL    HW231521   2.223   3.303  13.351 -0.3457  1.0913 -1.7426
 6629SOL     OW31522   2.037   1.863   9.765  0.2968 -0.2439 -0.1027
 6629SOL    HW131523   2.011   1.792   9.706  2.1530 -2.7714  2.1108
 6629SOL    HW231524   2.085   1.913   9.698  1.4668  0.2431  1.1003
 6630SOL     OW31525   0.756   3.007  10.893 -0.1014 -0.0743 -0.2875
 6630SOL    HW131526   0.774   2.918  10.922  0.4572  0.4547  1.0329
 6630SOL    HW231527   0.682   3.020  10.952 -1.3975  0.8031 -2.1241
 6631SOL     OW31528   4.519   4.026   9.262 -0.8556 -0.0658 -0.3742
 6631SOL    HW131529   4.464   4.002   9.336 -0.1986 -1.2593 -0.2766
 6631SOL    HW231530   4.464   3.998   9.189 -0.4818 -1.2740 -0.1870
 6632SOL     OW31531   0.327   4.471   4.961 -0.2165  0.3141  0.1558
 6632SOL    HW131532   0.252   4.422   4.994  0.3020  0.4506  1.5341
 6632SOL    HW231533   0.293   4.559   4.974  0.6982  0.7372 -0.2875
 6633SOL     OW31534   4.011   3.829   0.864 -0.0625  0.0327 -0.4927
 6633SOL    HW131535   3.922   3.864   0.863 -0.5871 -1.3704 -2.2244
 6633SOL    HW231536   4.048   3.862   0.946 -0.5722  0.9377 -0.6244
 6634SOL     OW31537   1.630   4.127   4.473 -0.4422  0.0060  0.6000
 6634SOL    HW131538   1.683   4.184   4.418 -1.2560 -0.8514 -1.0646
 6634SOL    HW231539   1.703   4.104   4.531 -0.4813  1.1908  1.1296
 6635SOL     OW31540   2.305   1.926  16.069  0.2377  0.0488 -0.0580
 6635SOL    HW131541   2.228   1.955  16.118 -1.0723 -0.7762 -1.6514
 6635SOL    HW231542   2.371   1.996  16.075  1.2215 -0.7135 -1.9328
 6636SOL     OW31543   4.572   1.681  15.955 -0.3383 -0.1799  0.0397
 6636SOL    HW131544   4.610   1.757  16.000 -0.7444 -0.5789  1.0476
 6636SOL    HW231545   4.569   1.709  15.863  1.5733  1.5114  0.4745
 6637SOL     OW31546   2.471   0.973   0.538 -1.0765  0.4530  0.1863
 6637SOL    HW131547   2.489   0.879   0.535 -1.2743  0.3759  1.3321
 6637SOL    HW231548   2.375   0.973   0.532 -1.1076 -1.4425  0.4835
 6638SOL     OW31549   2.792   0.819   7.923 -0.5909  0.0078 -0.4722
 6638SOL    HW131550   2.702   0.841   7.899 -0.7927  1.4506  1.6256
 6638SOL    HW231551   2.828   0.785   7.841  0.2162 -0.5882  0.1267
 6639SOL     OW31552   3.325   0.791   0.155 -0.6704 -0.3738 -0.3397
 6639SOL    HW131553   3.364   0.738   0.224 -0.3485  0.0299 -0.2155
 6639SOL    HW231554   3.343   0.738   0.077  0.2485  2.1442 -1.8318
 6640SOL     OW31555   3.442   1.742  11.576 -0.6922  0.5605  0.5038
 6640SOL    HW131556   3.357   1.786  11.573  0.0357  1.7514 -2.5370
 6640SOL    HW231557   3.476   1.800  11.644  0.4473  1.1623 -0.5830
 6641SOL     OW31558   2.552   4.519   7.448  0.4053  0.4707 -0.1554
 6641SOL    HW131559   2.502   4.484   7.521 -1.7933  2.0425 -0.8809
 6641SOL    HW231560   2.503   4.477   7.376 -0.8339  1.7108 -0.0346
 6642SOL     OW31561   3.986   1.912  11.637  0.2311 -0.1138  0.1802
 6642SOL    HW131562   4.065   1.888  11.687  1.0502 -0.2967 -1.1964
 6642SOL    HW231563   4.007   1.986  11.579  2.2120 -1.1334 -0.4396
 6643SOL     OW31564   3.628   1.767   2.045 -0.2891 -0.2138  0.1756
 6643SOL    HW131565   3.559   1.832   2.054 -1.5094 -1.4360 -0.3851
 6643SOL    HW231566   3.608   1.754   1.953  2.0122 -2.0580 -0.0672
 6644SOL     OW31567   0.204   0.498   0.782  0.8403 -0.0404  0.4003
 6644SOL    HW131568   0.279   0.462   0.733  0.6599 -1.8303  1.4286
 6644SOL    HW231569   0.242   0.524   0.865 -0.2634  0.1229  0.8528
 6645SOL     OW31570   1.312   4.678   3.826 -0.1680 -0.0981 -0.1198
 6645SOL    HW131571   1.284   4.594   3.862  0.6876  0.0070  0.7758
 6645SOL    HW231572   1.228   4.725   3.821  0.0138  0.0967 -1.1916
 6646SOL     OW31573   4.200   3.707   4.794  0.1472  0.1129  0.0606
 6646SOL    HW131574   4.282   3.746   4.823 -0.6374  0.1913  2.1713
 6646SOL    HW231575   4.170   3.773   4.731  0.6228 -0.8566 -1.1863
 6647SOL     OW31576   3.684   2.743   1.069  0.1828 -0.3514  0.0030
 6647SOL    HW131577   3.679   2.666   1.125 -0.9765  0.7528  1.4370
 6647SOL    HW231578   3.669   2.795   1.148  0.4587  0.5017 -0.4972
 6648SOL     OW31579   4.396   3.316   5.315 -0.0665 -0.4295 -0.1002
 6648SOL    HW131580   4.306   3.295   5.341 -0.6076  1.2837 -0.5997
 6648SOL    HW231581   4.391   3.337   5.222 -1.5791 -0.7719 -0.1073
 6649SOL     OW31582   4.318   0.162  16.336 -0.5184 -0.2661 -0.9571
 6649SOL    HW131583   4.303   0.098  16.266 -0.0185 -1.8534  0.4055
 6649SOL    HW231584   4.353   0.242  16.296 -0.7683 -0.7173 -2.0913
 6650SOL     OW31585   1.568   4.015   7.376 -0.8877  0.5025  0.7961
 6650SOL    HW131586   1.658   4.024   7.407 -0.3107  0.3742 -0.8007
 6650SOL    HW231587   1.531   3.967   7.450 -0.7347 -1.8588 -0.6589
 6651SOL     OW31588   3.525   4.348   5.223  0.1357  0.1123  0.0977
 6651SOL    HW131589   3.438   4.381   5.203  0.0386 -0.8323 -1.0374
 6651SOL    HW231590   3.527   4.313   5.312  0.6195  0.3048  0.1633
 6652SOL     OW31591   1.063   4.209   3.392  0.1903 -0.5345 -0.0746
 6652SOL    HW131592   0.994   4.223   3.457 -0.6725  1.4417 -1.4382
 6652SOL    HW231593   1.144   4.200   3.444  0.4725  0.7387 -0.2944
 6653SOL     OW31594   1.793   4.025   3.334 -0.2332 -0.5313  0.0421
 6653SOL    HW131595   1.732   3.989   3.271 -0.8592  1.9625 -0.7673
 6653SOL    HW231596   1.777   3.969   3.410 -0.6612 -1.1319 -0.4950
 6654SOL     OW31597   2.184   1.191   2.590 -0.2534 -0.3304 -0.1825
 6654SOL    HW131598   2.112   1.188   2.527 -0.1465  0.3920 -0.3365
 6654SOL    HW231599   2.220   1.102   2.587 -0.0343 -0.1592 -3.5179
 6655SOL     OW31600   0.056   0.977   2.080  0.1201 -0.3332 -0.9244
 6655SOL    HW131601   0.024   1.068   2.075  0.3635 -0.2996 -1.9269
 6655SOL    HW231602   0.139   0.996   2.037 -0.0457  2.9875  0.2192
 6656SOL     OW31603   2.027   2.401   2.090  0.2014  0.3781  0.1802
 6656SOL    HW131604   1.973   2.333   2.049 -1.3930  0.6523  1.8232
 6656SOL    HW231605   2.096   2.419   2.027 -0.2501 -0.9219 -0.7036
 6657SOL     OW31606   2.757   4.189   1.754 -0.7718  0.5295 -0.1765
 6657SOL    HW131607   2.805   4.206   1.835  0.6145 -0.2486 -0.8373
 6657SOL    HW231608   2.671   4.164   1.787  0.7291 -1.0308  2.5183
 6658SOL     OW31609   3.916   2.309  17.682  0.4909  0.2048 -0.3379
 6658SOL    HW131610   3.924   2.235  17.622  0.5782  2.5816 -3.2629
 6658SOL    HW231611   3.828   2.333  17.653  0.4271 -0.9254 -1.0756
 6659SOL     OW31612   1.949   2.286   3.403  0.3577  0.1252 -0.4148
 6659SOL    HW131613   1.974   2.206   3.357  2.0660 -0.0236  0.7984
 6659SOL    HW231614   2.028   2.338   3.395  0.3732  0.1672  0.0174
 6660SOL     OW31615   2.474   1.913  10.123 -0.1269  0.2224  0.7216
 6660SOL    HW131616   2.420   1.858  10.066  1.0844  0.2113 -0.4003
 6660SOL    HW231617   2.477   1.845  10.192 -0.9058  1.0407  1.5605
 6661SOL     OW31618   0.491   0.549   3.286 -0.0116 -0.7200 -0.5981
 6661SOL    HW131619   0.545   0.625   3.305 -1.1553  0.0651 -0.5061
 6661SOL    HW231620   0.407   0.596   3.285 -0.8444 -2.0956  1.9605
 6662SOL     OW31621   3.951   0.958   6.760  0.0900 -0.1765 -0.6718
 6662SOL    HW131622   3.899   1.037   6.742 -0.6978 -0.0458  2.1707
 6662SOL    HW231623   3.906   0.903   6.695 -0.7139 -0.9959  0.5769
 6663SOL     OW31624   4.615   4.256  17.650  0.4699 -0.1289  0.4787
 6663SOL    HW131625   4.556   4.202  17.703 -0.2981  0.9050  0.6921
 6663SOL    HW231626   4.654   4.289  17.731 -0.1849 -2.5188  1.7722
 6664SOL     OW31627   3.959   4.483   4.387  0.1259 -0.0616  0.0052
 6664SOL    HW131628   3.993   4.570   4.365  1.2491 -0.3651  0.5523
 6664SOL    HW231629   4.034   4.429   4.363  1.0530  1.7912 -1.3187
 6665SOL     OW31630   1.702   2.206   5.019  0.8329  0.4298  0.3977
 6665SOL    HW131631   1.637   2.140   4.994  1.4374  0.1032 -0.3165
 6665SOL    HW231632   1.678   2.272   4.954  0.2371 -1.3573 -1.2081
 6666SOL     OW31633   3.477   0.749  11.017 -0.8521 -0.0180 -0.0703
 6666SOL    HW131634   3.549   0.763  11.078 -0.4172 -0.5144 -0.4730
 6666SOL    HW231635   3.414   0.695  11.065  0.6547 -0.3040  1.5934
 6667SOL     OW31636   4.226   0.657   3.687  0.0790 -0.0664 -0.0196
 6667SOL    HW131637   4.288   0.596   3.728  0.8118  0.5914 -0.1385
 6667SOL    HW231638   4.277   0.737   3.699  1.6740 -0.7522 -2.1380
 6668SOL     OW31639   0.488   2.032  12.842 -0.1806 -0.2186  0.6731
 6668SOL    HW131640   0.509   2.032  12.748 -1.4150 -2.0974  0.3812
 6668SOL    HW231641   0.422   1.962  12.835  0.2632 -0.5418 -0.2377
 6669SOL     OW31642   3.820   0.700   0.232 -0.3458  0.4443  0.5086
 6669SOL    HW131643   3.887   0.759   0.265 -0.6104  1.3461 -0.5534
 6669SOL    HW231644   3.852   0.684   0.143 -1.7835 -1.4075  0.3041
 6670SOL     OW31645   3.794   0.886  15.711 -0.2409 -0.2522  0.2557
 6670SOL    HW131646   3.791   0.793  15.688 -1.0239 -0.0912 -0.2731
 6670SOL    HW231647   3.862   0.887  15.779 -0.0256 -1.2613  0.0488
 6671SOL     OW31648   3.138   2.704   4.761  0.3546 -1.0298  0.3914
 6671SOL    HW131649   3.214   2.718   4.818 -1.6603  3.2538  2.0487
 6671SOL    HW231650   3.089   2.639   4.812 -0.6013  0.2616  1.0938
 6672SOL     OW31651   2.296   2.739   2.869  0.6134 -0.2177 -0.0445
 6672SOL    HW131652   2.306   2.644   2.881  0.2231 -0.1587  0.7714
 6672SOL    HW231653   2.248   2.739   2.787 -0.7204 -0.1141  0.7310
 6673SOL     OW31654   0.208   3.268   7.966 -0.0796  0.2044 -0.0991
 6673SOL    HW131655   0.149   3.335   7.932 -0.0688 -0.2302 -0.9884
 6673SOL    HW231656   0.263   3.317   8.027 -2.0277  0.5752  1.3522
 6674SOL     OW31657   3.067   2.503   3.724  0.2222  0.4936  0.1556
 6674SOL    HW131658   3.015   2.557   3.783 -0.1143  0.7926 -0.4100
 6674SOL    HW231659   3.014   2.514   3.645  1.0680 -0.3715 -0.5282
 6675SOL     OW31660   2.539   0.440   4.456 -0.2410 -0.5096 -0.4329
 6675SOL    HW131661   2.586   0.512   4.414 -1.5006  1.7855  2.1319
 6675SOL    HW231662   2.597   0.402   4.522  0.5278 -0.9194 -1.3430
 6676SOL     OW31663   2.161   3.818   4.178  0.8259  0.1017  0.9209
 6676SOL    HW131664   2.203   3.736   4.202 -0.5572  0.3219  4.0255
 6676SOL    HW231665   2.099   3.785   4.114  2.6572 -2.1848  0.3319
 6677SOL     OW31666   2.581   2.239   3.528  0.4273  0.0228  0.0053
 6677SOL    HW131667   2.619   2.241   3.441 -0.8762 -0.6565 -0.5843
 6677SOL    HW231668   2.501   2.289   3.513  0.6917  0.1066 -1.0942
 6678SOL     OW31669   3.730   1.917   0.936 -0.4820  0.3065  0.3667
 6678SOL    HW131670   3.726   1.949   1.026 -1.3662  0.9047  0.1184
 6678SOL    HW231671   3.677   1.985   0.895 -4.7717 -2.6085  1.0198
 6679SOL     OW31672   4.715   1.117   8.887 -0.0841 -0.4801 -0.1563
 6679SOL    HW131673   4.636   1.117   8.940 -0.1921  1.4988 -0.2962
 6679SOL    HW231674   4.693   1.039   8.835 -0.2596 -1.1569  0.9505
 6680SOL     OW31675   1.085   2.776   3.205  0.1577  0.5084 -0.0232
 6680SOL    HW131676   1.012   2.727   3.243  1.0221  0.2846  1.3402
 6680SOL    HW231677   1.146   2.797   3.276  1.1570 -0.5305 -0.5653
 6681SOL     OW31678   2.518   0.080  13.741 -0.2315 -0.9498 -0.2709
 6681SOL    HW131679   2.533   0.172  13.763 -1.6929 -0.5463 -0.9826
 6681SOL    HW231680   2.558   0.073  13.654  1.6521  2.2399  0.3319
 6682SOL     OW31681   4.127   4.693  14.024 -0.1924  0.5440 -0.0411
 6682SOL    HW131682   4.060   4.632  13.995 -0.1703  1.2267 -1.4982
 6682SOL    HW231683   4.117   4.675  14.118 -0.1511 -1.4386 -0.4227
 6683SOL     OW31684   4.088   1.839   1.240  0.3440 -0.4604  0.0470
 6683SOL    HW131685   4.123   1.785   1.169 -0.0526  1.7812 -1.8407
 6683SOL    HW231686   4.004   1.870   1.206  0.8129  1.6194  0.7995
 6684SOL     OW31687   3.115   1.049   7.049 -0.6270  0.6596  0.0658
 6684SOL    HW131688   3.173   1.125   7.041 -1.3925  1.3566  1.0894
 6684SOL    HW231689   3.041   1.084   7.000 -1.1293  1.8464  1.6761
 6685SOL     OW31690   4.299   1.244   8.830  0.3541  0.1384  0.0340
 6685SOL    HW131691   4.379   1.262   8.879 -0.2239  1.7482  0.3875
 6685SOL    HW231692   4.239   1.243   8.905  1.3083 -1.4315  0.7832
 6686SOL     OW31693   2.915   4.468   4.706  0.6296 -0.0225  0.2570
 6686SOL    HW131694   2.954   4.454   4.792  1.9380  1.2435 -0.1377
 6686SOL    HW231695   2.916   4.563   4.694 -0.5792 -0.0959 -0.4120
 6687SOL     OW31696   4.650   4.433   8.356 -0.6197  0.4193  0.3083
 6687SOL    HW131697   4.655   4.480   8.439  1.8847 -0.2840  0.5670
 6687SOL    HW231698   4.717   4.371   8.385 -0.9870 -0.4362 -0.6971
 6688SOL     OW31699   3.372   4.170   4.593  0.2370 -0.2250 -0.7778
 6688SOL    HW131700   3.342   4.257   4.568  1.2354  0.5774  0.8477
 6688SOL    HW231701   3.292   4.132   4.630  0.9863 -1.5880 -0.5751
 6689SOL     OW31702   2.360   1.096  16.233 -0.2031  0.5010 -0.0735
 6689SOL    HW131703   2.426   1.084  16.165  0.1230  1.7352  0.0220
 6689SOL    HW231704   2.278   1.058  16.202  1.5466 -2.4072 -1.1592
 6690SOL     OW31705   4.332   3.622  11.013 -0.5042 -0.0915 -0.5560
 6690SOL    HW131706   4.392   3.600  11.083  0.1728  1.7640 -0.5679
 6690SOL    HW231707   4.257   3.671  11.046 -0.4139  0.4423 -1.1369
 6691SOL     OW31708   1.023   0.362  15.543  0.1654 -0.6532  0.2271
 6691SOL    HW131709   1.081   0.292  15.516  1.2009 -0.4895  2.0137
 6691SOL    HW231710   1.048   0.375  15.634 -1.0007 -2.0206  0.7363
 6692SOL     OW31711   0.861   3.327   3.785 -0.1953  0.0879 -0.0096
 6692SOL    HW131712   0.848   3.271   3.709 -2.4222 -1.2625  1.3652
 6692SOL    HW231713   0.906   3.402   3.745  1.3448 -0.9002 -0.1127
 6693SOL     OW31714   2.181   0.319  17.535 -0.0657 -0.0500  0.6547
 6693SOL    HW131715   2.230   0.237  17.527 -1.7498 -0.9280 -0.6318
 6693SOL    HW231716   2.166   0.342  17.444  0.3092 -0.8191  0.3957
 6694SOL     OW31717   0.610   0.901   0.196  0.1000  0.1313 -1.0136
 6694SOL    HW131718   0.695   0.936   0.168 -0.1477  0.6020 -1.1771
 6694SOL    HW231719   0.563   0.907   0.114 -1.3693  2.7583  0.0007
 6695SOL     OW31720   1.953   4.688   8.333  1.0605 -0.5287  0.1811
 6695SOL    HW131721   2.010   4.613   8.318 -1.3034 -1.9907 -1.3464
 6695SOL    HW231722   2.012   0.020   8.303 -0.0271  0.3718  0.1494
 6696SOL     OW31723   3.045   2.569  16.323 -0.0947 -0.1863  0.2946
 6696SOL    HW131724   2.972   2.508  16.322  1.2767 -1.7887 -0.7794
 6696SOL    HW231725   3.117   2.518  16.286  1.1576  3.3856 -2.2016
 6697SOL     OW31726   1.048   0.978   2.974 -0.2046 -0.8157 -0.0337
 6697SOL    HW131727   1.058   0.929   3.055  2.1995 -1.1285 -0.4980
 6697SOL    HW231728   0.992   1.047   3.008  1.4433  1.0581 -1.1124
 6698SOL     OW31729   4.438   1.397   6.669  0.1501 -0.9168 -0.1630
 6698SOL    HW131730   4.495   1.468   6.639  0.0456 -0.5339  0.5257
 6698SOL    HW231731   4.506   1.331   6.664  0.6411 -0.3731 -0.7010
 6699SOL     OW31732   3.936   2.257   3.583 -0.6820  0.2695 -0.1709
 6699SOL    HW131733   3.864   2.276   3.523 -0.5345  1.9237  0.1712
 6699SOL    HW231734   3.982   2.190   3.534  0.0381  0.0972  0.7396
 6700SOL     OW31735   0.945   1.994  15.310 -0.3810 -0.1994 -0.2811
 6700SOL    HW131736   0.854   1.971  15.330 -1.1595  1.7585 -1.5858
 6700SOL    HW231737   0.988   1.909  15.322 -0.8703 -0.5794 -1.3113
 6701SOL     OW31738   3.065   2.069   5.461  0.8437  0.0508  0.3706
 6701SOL    HW131739   3.131   2.132   5.430  1.3798 -0.5741  0.2544
 6701SOL    HW231740   3.035   2.051   5.372 -1.6320 -0.8643  1.3892
 6702SOL     OW31741   2.340   0.149  12.495 -0.5508 -0.5442 -0.5793
 6702SOL    HW131742   2.305   0.224  12.446 -0.2903  0.1881  0.3504
 6702SOL    HW231743   2.318   0.175  12.585 -1.4743 -2.3097 -0.3091
 6703SOL     OW31744   3.197   3.371   3.526  0.1114  0.4772  0.0265
 6703SOL    HW131745   3.288   3.400   3.531 -0.0440  0.4751  2.7035
 6703SOL    HW231746   3.195   3.335   3.437  1.0571 -2.6298  1.2434
 6704SOL     OW31747   4.603   2.440  12.926 -0.1017  0.4588 -0.4742
 6704SOL    HW131748   4.639   2.528  12.916 -0.0528  0.2466 -2.1723
 6704SOL    HW231749   4.685   2.403  12.959  0.2316  1.7599  0.1482
 6705SOL     OW31750   3.450   3.086   2.187 -0.1987  0.0528  0.3867
 6705SOL    HW131751   3.374   3.028   2.181  1.0659 -1.2943 -2.7173
 6705SOL    HW231752   3.502   3.072   2.108 -0.1862 -3.4914  1.0332
 6706SOL     OW31753   1.730   1.898   8.607 -0.1763 -0.7227 -0.4885
 6706SOL    HW131754   1.782   1.966   8.564  2.3363 -2.1740  0.2319
 6706SOL    HW231755   1.783   1.819   8.597 -1.2339 -1.7250  1.9942
 6707SOL     OW31756   0.551   0.842  14.012 -0.3259  0.2664  0.1056
 6707SOL    HW131757   0.534   0.751  13.987  0.6335  0.0164  0.3875
 6707SOL    HW231758   0.485   0.846  14.082  1.9960  0.2147  2.2973
 6708SOL     OW31759   0.289   1.664   5.591 -0.0643  0.1281  0.1857
 6708SOL    HW131760   0.204   1.652   5.631 -0.9974  0.3465 -1.7309
 6708SOL    HW231761   0.312   1.581   5.550 -2.5307 -0.3317 -0.2244
 6709SOL     OW31762   0.975   2.627   3.809 -0.1528  0.1310 -0.4996
 6709SOL    HW131763   1.060   2.632   3.767 -0.4943 -1.8289 -1.4475
 6709SOL    HW231764   0.977   2.696   3.875 -0.6020  0.7358 -1.1141
 6710SOL     OW31765   0.703   2.362   3.627  0.5697 -0.5958  0.6332
 6710SOL    HW131766   0.702   2.436   3.688  0.7286  0.4648 -0.6483
 6710SOL    HW231767   0.609   2.347   3.616  0.1554  1.1644  1.7945
 6711SOL     OW31768   4.637   4.328   1.683  0.4916  0.2764  0.4907
 6711SOL    HW131769   4.568   4.307   1.621  0.4922 -2.7092  1.4994
 6711SOL    HW231770   4.572   4.381   1.730 -1.5005 -2.0711  0.3505
 6712SOL     OW31771   0.066   0.161   2.416 -0.3277 -0.2833  0.6414
 6712SOL    HW131772   0.033   0.101   2.350  0.4389 -1.1852  1.0783
 6712SOL    HW231773   4.738   0.168   2.485  0.4090 -0.8347  1.3986
 6713SOL     OW31774   0.441   0.111   2.758 -0.2870  0.0090 -0.7223
 6713SOL    HW131775   0.534   0.133   2.753  0.0742 -1.5239 -0.6148
 6713SOL    HW231776   0.441   0.019   2.784 -1.7240  0.4056  0.6594
 6714SOL     OW31777   0.909   1.077   3.402 -0.3880 -1.3722 -0.2315
 6714SOL    HW131778   0.855   1.030   3.465 -0.9633 -0.0418  0.2637
 6714SOL    HW231779   0.860   1.158   3.390  1.4370 -0.0651  1.3355
 6715SOL     OW31780   1.957   0.933   1.933  0.3119  0.2142  0.0395
 6715SOL    HW131781   2.045   0.896   1.937  0.0513 -0.3829  0.1669
 6715SOL    HW231782   1.955   0.961   1.841 -2.8024  0.6179  0.2328
 6716SOL     OW31783   2.819   2.689   8.675  0.3066 -0.1233 -0.1821
 6716SOL    HW131784   2.915   2.693   8.681  0.5032 -2.6386 -1.6057
 6716SOL    HW231785   2.817   2.610   8.621  1.2513 -0.2492 -0.0350
 6717SOL     OW31786   2.881   3.120   2.976  0.3328  0.1880 -0.5134
 6717SOL    HW131787   2.791   3.117   2.944  0.4692  2.6969 -1.0772
 6717SOL    HW231788   2.888   3.060   3.051 -0.4598  0.6608 -0.0642
 6718SOL     OW31789   4.559   1.986   3.453 -0.1622  0.4112  0.2752
 6718SOL    HW131790   4.499   1.946   3.516  0.8647  0.5463  1.3326
 6718SOL    HW231791   4.631   2.022   3.504 -0.4076 -0.1756  1.0277
 6719SOL     OW31792   0.921   0.622   7.246 -0.3730 -0.2453 -0.0362
 6719SOL    HW131793   0.932   0.565   7.322 -1.0341 -0.4547 -0.0988
 6719SOL    HW231794   0.828   0.611   7.227 -0.0692 -1.9364 -0.4967
 6720SOL     OW31795   1.707   2.291   2.338  0.5902  0.0402 -0.3235
 6720SOL    HW131796   1.693   2.227   2.269 -2.4428 -0.7603  1.0231
 6720SOL    HW231797   1.696   2.233   2.414  1.7855  0.5071  0.2158
 6721SOL     OW31798   3.823   3.623   1.107 -0.1939  0.4011 -0.3759
 6721SOL    HW131799   3.757   3.692   1.104  0.5494  1.2140  1.9465
 6721SOL    HW231800   3.865   3.648   1.189 -0.8033 -2.2969  0.7479
 6722SOL     OW31801   2.634   2.732   3.001 -0.2442 -0.3018  0.1998
 6722SOL    HW131802   2.654   2.683   3.080  4.9211 -1.1655 -1.5902
 6722SOL    HW231803   2.672   2.676   2.933 -2.6709 -4.6575  2.4283
 6723SOL     OW31804   0.633   0.055   5.832 -0.1298  0.0076  0.3096
 6723SOL    HW131805   0.647   0.149   5.831 -2.7729  0.3995  0.6202
 6723SOL    HW231806   0.566   0.034   5.897 -0.7740 -0.8070 -0.6041
 6724SOL     OW31807   1.641   2.934   2.087 -0.0566  0.2492  0.6796
 6724SOL    HW131808   1.727   2.892   2.081  0.2668  1.0072  0.0952
 6724SOL    HW231809   1.633   2.994   2.014  1.5746  1.2088  1.3003
 6725SOL     OW31810   4.140   3.908   6.677 -0.1522  0.0844  0.2245
 6725SOL    HW131811   4.068   3.918   6.614  2.4346 -0.5030 -2.8388
 6725SOL    HW231812   4.081   3.905   6.752  0.9431  0.0817  1.0829
 6726SOL     OW31813   4.635   4.045   8.016 -0.1035 -0.3802  0.1649
 6726SOL    HW131814   4.567   3.997   8.063 -0.4643  0.2212  0.2568
 6726SOL    HW231815   4.704   3.979   8.017  0.0865 -0.1425  1.9873
 6727SOL     OW31816   2.990   2.553   9.618  0.0025 -0.5155 -0.3309
 6727SOL    HW131817   3.062   2.613   9.641  0.7554 -0.9581 -1.5139
 6727SOL    HW231818   2.922   2.556   9.685  1.3618 -0.7085  1.0670
 6728SOL     OW31819   2.626   1.532   4.146  0.3764 -0.1285  0.7518
 6728SOL    HW131820   2.619   1.476   4.224 -2.5407  1.5790  1.7334
 6728SOL    HW231821   2.541   1.512   4.106  1.1944 -0.4886 -0.7757
 6729SOL     OW31822   1.933   2.291   2.623 -0.0990 -0.0626  0.0599
 6729SOL    HW131823   1.909   2.274   2.714 -0.1556 -3.9308 -0.6927
 6729SOL    HW231824   1.868   2.237   2.578 -0.3204  0.0931  0.1927
 6730SOL     OW31825   0.402   2.447   6.929 -0.1636  0.4167  0.5833
 6730SOL    HW131826   0.403   2.413   7.018  2.0247 -2.1594 -0.4306
 6730SOL    HW231827   0.317   2.414   6.899 -0.6820 -0.1580  2.6738
 6731SOL     OW31828   3.600   3.522   9.175  0.4394  0.8937  0.7231
 6731SOL    HW131829   3.691   3.493   9.172 -1.7500 -6.1102  0.0105
 6731SOL    HW231830   3.557   3.455   9.229 -3.9298  2.3590 -0.9129
 6732SOL     OW31831   3.069   1.739   3.594 -0.3573  0.7564  0.2315
 6732SOL    HW131832   3.013   1.780   3.661 -2.4076 -3.5853  1.1987
 6732SOL    HW231833   3.133   1.703   3.655 -0.6573  1.9750  1.2579
 6733SOL     OW31834   1.600   3.839   5.678 -0.0549  0.2113 -0.3213
 6733SOL    HW131835   1.550   3.920   5.691 -0.2034  0.0127  0.3895
 6733SOL    HW231836   1.637   3.827   5.766 -0.3843 -0.7432 -0.3166
 6734SOL     OW31837   3.120   0.161   2.726 -0.3214 -0.2412  0.4170
 6734SOL    HW131838   3.108   0.081   2.778 -2.0540 -0.6798 -0.6654
 6734SOL    HW231839   3.033   0.199   2.736 -0.4202 -1.3810  4.0988
 6735SOL     OW31840   1.974   3.789   8.265 -0.2898 -0.7944  0.0464
 6735SOL    HW131841   1.973   3.716   8.326 -0.3855 -1.0551 -0.2641
 6735SOL    HW231842   2.051   3.768   8.211 -0.1917  0.7303 -0.3986
 6736SOL     OW31843   1.764   0.556   8.878 -0.5110  0.1566  0.1169
 6736SOL    HW131844   1.790   0.485   8.935  2.6540  0.3873 -1.0591
 6736SOL    HW231845   1.724   0.605   8.950  1.2555  0.0383  1.1636
 6737SOL     OW31846   0.976   3.146   2.869 -0.6790  0.1031 -0.2904
 6737SOL    HW131847   1.045   3.205   2.899  0.7353 -1.7023  0.0489
 6737SOL    HW231848   1.008   3.057   2.887 -0.0931  0.2494 -0.5844
 6738SOL     OW31849   0.243   0.697   6.445  0.0619 -0.3639  0.4183
 6738SOL    HW131850   0.269   0.649   6.366  0.3143 -1.2240  1.0242
 6738SOL    HW231851   0.172   0.647   6.485  0.0152 -1.4441 -1.0330
 6739SOL     OW31852   4.285   1.313  11.793 -0.1870  0.0118 -0.3445
 6739SOL    HW131853   4.242   1.329  11.877  1.5310  1.5463  0.2619
 6739SOL    HW231854   4.375   1.299  11.823 -0.5193 -1.2080  0.0552
 6740SOL     OW31855   3.847   2.333  15.844  0.3939 -0.3628 -0.1487
 6740SOL    HW131856   3.922   2.286  15.881  1.6251  0.4193 -1.6616
 6740SOL    HW231857   3.892   2.407  15.803 -0.0772 -0.9084 -1.6414
 6741SOL     OW31858   3.540   3.994   7.382  0.0713 -0.2256 -0.3113
 6741SOL    HW131859   3.612   4.026   7.329  0.6903  0.3142  0.8504
 6741SOL    HW231860   3.479   4.067   7.373 -0.6404 -0.3284  3.3566
 6742SOL     OW31861   4.048   3.708   3.659 -0.7011 -0.1939  0.5254
 6742SOL    HW131862   3.961   3.747   3.665 -1.1036 -0.4448 -3.7510
 6742SOL    HW231863   4.029   3.632   3.604 -0.6222  0.3594 -0.2843
 6743SOL     OW31864   2.532   4.683  12.437  0.2029  0.2953  0.5066
 6743SOL    HW131865   2.465   0.013  12.440 -0.6432 -0.6329  2.6266
 6743SOL    HW231866   2.517   4.638  12.519 -1.0743  3.1577  1.8446
 6744SOL     OW31867   2.891   1.538  11.462 -0.6498  0.0460  0.6853
 6744SOL    HW131868   2.846   1.502  11.538 -2.5569 -0.9443 -0.9197
 6744SOL    HW231869   2.977   1.557  11.499  0.0219  0.0772 -0.9046
 6745SOL     OW31870   3.397   1.543   2.773 -0.4052  0.2542  0.1354
 6745SOL    HW131871   3.340   1.592   2.831  2.9243  1.9771  1.9758
 6745SOL    HW231872   3.336   1.529   2.701  1.4793 -0.6134 -1.3143
 6746SOL     OW31873   3.170   4.605   8.977 -0.0414  0.0152  0.4590
 6746SOL    HW131874   3.239   4.644   8.924 -0.5991 -0.4495 -0.5970
 6746SOL    HW231875   3.104   4.582   8.912 -0.6156  1.8745  0.3800
 6747SOL     OW31876   2.234   1.714   9.077  0.3728  0.3949 -0.0580
 6747SOL    HW131877   2.214   1.755   9.161 -1.0160 -0.1935 -0.0920
 6747SOL    HW231878   2.324   1.741   9.062  0.5556 -0.0370  0.2679
 6748SOL     OW31879   0.548   0.970  15.719 -0.3815 -0.1528 -0.0772
 6748SOL    HW131880   0.468   1.015  15.745 -0.6246 -1.6454  1.7611
 6748SOL    HW231881   0.521   0.878  15.714 -0.9584 -0.1201  2.3535
 6749SOL     OW31882   1.156   4.469   3.971  0.0955 -0.2091 -0.2375
 6749SOL    HW131883   1.171   4.550   4.020 -1.3192 -0.1603  0.1163
 6749SOL    HW231884   1.089   4.439   4.033 -0.9711  0.0491 -1.2566
 6750SOL     OW31885   0.227   0.632  14.064  0.6988 -0.4275  0.3722
 6750SOL    HW131886   0.294   0.564  14.053 -0.7311 -1.8727  0.5557
 6750SOL    HW231887   0.189   0.649  13.977  0.0654 -0.8690  0.5579
 6751SOL     OW31888   3.793   1.445   1.837  0.0675  0.6467  0.0197
 6751SOL    HW131889   3.836   1.518   1.792 -2.1033  0.6585 -2.0468
 6751SOL    HW231890   3.818   1.444   1.929  0.4852 -1.0367 -0.1142
 6752SOL     OW31891   0.517   2.740   5.854 -0.1375 -0.0011  0.5735
 6752SOL    HW131892   0.489   2.669   5.796  3.2236 -1.6356  0.9049
 6752SOL    HW231893   0.489   2.814   5.800  1.1417  0.0265 -0.0598
 6753SOL     OW31894   3.297   4.613   3.313  0.0142 -0.1443  0.7399
 6753SOL    HW131895   3.253   4.654   3.239  0.6890 -0.9215 -0.0877
 6753SOL    HW231896   3.356   4.685   3.337  0.3409  0.2809 -1.2960
 6754SOL     OW31897   1.466   1.310  12.718  0.6038  0.3061 -0.0389
 6754SOL    HW131898   1.539   1.351  12.763  1.5627 -1.5411  0.0729
 6754SOL    HW231899   1.481   1.327  12.625  2.4640  1.2485  0.4372
 6755SOL     OW31900   0.559   3.605   3.605 -0.0533  0.4305 -0.5062
 6755SOL    HW131901   0.481   3.562   3.638  0.7178  0.8321  1.8713
 6755SOL    HW231902   0.608   3.635   3.682 -0.7948  0.8212 -0.1908
 6756SOL     OW31903   3.368   2.283   3.153  0.3808 -0.0561 -0.1017
 6756SOL    HW131904   3.392   2.352   3.214 -1.9778 -1.2117  2.0940
 6756SOL    HW231905   3.279   2.260   3.180  0.3980 -1.0863 -0.9009
 6757SOL     OW31906   1.250   0.919   4.388 -0.1612 -0.2371  0.2993
 6757SOL    HW131907   1.184   0.865   4.344 -0.0371 -2.7215  3.1405
 6757SOL    HW231908   1.213   1.008   4.387  0.4333 -0.0071 -0.8623
 6758SOL     OW31909   1.870   1.456   3.510  0.1686  0.1718 -0.0233
 6758SOL    HW131910   1.788   1.422   3.545 -1.8048 -0.5807 -5.3740
 6758SOL    HW231911   1.853   1.433   3.419  3.1812  1.1683 -0.8392
 6759SOL     OW31912   2.388   2.176   4.593  0.4288  0.8520 -0.0682
 6759SOL    HW131913   2.468   2.151   4.640  0.2316 -0.0227 -0.2003
 6759SOL    HW231914   2.407   2.118   4.520 -0.1019  2.0361 -1.1334
 6760SOL     OW31915   2.493   0.611   5.345 -1.0621 -0.2265 -0.1026
 6760SOL    HW131916   2.400   0.594   5.333 -0.2807 -4.6070  0.2033
 6760SOL    HW231917   2.522   0.632   5.256  0.9265 -0.4246  0.4910
 6761SOL     OW31918   0.590   1.324   2.325  0.5971 -0.1266  0.2779
 6761SOL    HW131919   0.634   1.331   2.240 -0.4992  1.0796 -0.1903
 6761SOL    HW231920   0.500   1.331   2.296  0.1578 -1.8913  1.2186
 6762SOL     OW31921   2.147   0.367   0.493 -0.1163 -0.0923 -0.1493
 6762SOL    HW131922   2.059   0.331   0.495 -0.3090  0.2979 -1.8438
 6762SOL    HW231923   2.188   0.314   0.425  2.7748  1.9413 -0.0365
 6763SOL     OW31924   4.665   3.150   7.550  0.2777  0.1376  0.1921
 6763SOL    HW131925   4.704   3.064   7.535 -0.9190 -0.7059  2.0544
 6763SOL    HW231926   4.713   3.209   7.492  0.7442 -0.5114 -0.0789
 6764SOL     OW31927   1.887   1.471   1.646 -0.1504 -0.3890  0.2744
 6764SOL    HW131928   1.931   1.402   1.695 -0.0681 -0.5863 -0.0781
 6764SOL    HW231929   1.815   1.488   1.707 -1.8723 -2.5807 -1.1514
 6765SOL     OW31930   2.902   2.542   5.917  0.4718 -0.0827  0.5515
 6765SOL    HW131931   2.931   2.458   5.882  0.6206  1.0376 -2.0522
 6765SOL    HW231932   2.898   2.510   6.007  1.3410  0.1355  0.6725
 6766SOL     OW31933   1.809   2.108   3.882  0.5622 -0.7196 -0.0775
 6766SOL    HW131934   1.768   2.022   3.885  1.0509 -0.9214  0.8913
 6766SOL    HW231935   1.759   2.146   3.810 -0.7103 -0.6533  0.8578
 6767SOL     OW31936   0.442   1.108   5.235  0.5650 -0.8244 -0.0824
 6767SOL    HW131937   0.389   1.161   5.175  1.0864 -0.4004 -0.1687
 6767SOL    HW231938   0.390   1.028   5.236  0.3430 -0.6741  1.0464
 6768SOL     OW31939   3.785   1.955   5.044 -0.3835  0.1428  0.6000
 6768SOL    HW131940   3.776   1.920   5.132  2.0293 -0.3206  0.6538
 6768SOL    HW231941   3.791   1.872   4.997  1.9767 -0.3694  1.8279
 6769SOL     OW31942   4.349   3.319   9.263  0.1725  0.2265 -0.0341
 6769SOL    HW131943   4.386   3.316   9.174  2.6433  0.2693  0.9990
 6769SOL    HW231944   4.327   3.412   9.260 -0.3803  0.0334 -1.9556
 6770SOL     OW31945   4.280   0.309  14.086 -0.4546 -0.2022 -0.0529
 6770SOL    HW131946   4.246   0.221  14.104  2.8265 -1.2662  0.8983
 6770SOL    HW231947   4.319   0.296  14.000  2.4768  3.0334  0.8230
 6771SOL     OW31948   1.652   1.090   1.088  0.0108 -0.3431  0.5326
 6771SOL    HW131949   1.627   1.048   1.170 -0.3361  0.5734  0.8960
 6771SOL    HW231950   1.717   1.030   1.052 -0.3939  0.4625 -1.5445
 6772SOL     OW31951   2.216   3.665   5.324 -0.7399  0.4780 -0.0024
 6772SOL    HW131952   2.151   3.642   5.259 -0.0664  0.6945 -0.7557
 6772SOL    HW231953   2.235   3.577   5.357 -1.5402  0.0353 -0.7332
 6773SOL     OW31954   0.155   1.460   0.475  0.9699  0.5682 -0.0245
 6773SOL    HW131955   0.083   1.507   0.433  1.4051  0.4875 -0.8678
 6773SOL    HW231956   0.120   1.429   0.558 -0.8089 -4.1507 -2.5211
 6774SOL     OW31957   1.888   0.138   5.072  0.5441 -0.2174 -0.0682
 6774SOL    HW131958   1.916   0.146   5.163  0.3284 -1.5298  0.1107
 6774SOL    HW231959   1.930   0.055   5.049  1.2972 -0.1818  1.1918
 6775SOL     OW31960   4.476   3.326   7.491  0.4257 -0.2232  0.0919
 6775SOL    HW131961   4.405   3.291   7.438 -0.3009 -1.5272  1.9414
 6775SOL    HW231962   4.535   3.252   7.502  1.2433  0.6755  1.8663
 6776SOL     OW31963   1.523   3.991   6.497 -0.1623  0.5188  0.0105
 6776SOL    HW131964   1.515   3.991   6.592  1.3919  2.4195  0.1328
 6776SOL    HW231965   1.430   4.000   6.475 -0.5936  0.5448  1.8170
 6777SOL     OW31966   3.587   0.065   6.441  0.3861 -0.3036  0.4295
 6777SOL    HW131967   3.629   0.017   6.512  0.4914 -2.0119 -0.7780
 6777SOL    HW231968   3.513   0.101   6.490  0.1098  1.4440 -1.2541
 6778SOL     OW31969   4.475   1.122   2.700  0.1053 -0.4547 -0.9193
 6778SOL    HW131970   4.558   1.119   2.747 -0.2685  0.2189 -0.2229
 6778SOL    HW231971   4.487   1.061   2.627 -2.0555 -1.2410 -0.6378
 6779SOL     OW31972   2.653   0.069   3.616  0.2666  0.0019 -0.3900
 6779SOL    HW131973   2.629   4.725   3.659  1.1658 -0.1056 -0.0890
 6779SOL    HW231974   2.599   0.066   3.537 -1.4262 -1.2178  0.8101
 6780SOL     OW31975   0.731   0.994  10.559  0.1148 -0.5736  0.1850
 6780SOL    HW131976   0.771   1.006  10.473  1.9761  1.5025  1.3397
 6780SOL    HW231977   0.804   1.011  10.619 -0.4987 -0.8108  0.9949
 6781SOL     OW31978   2.153   3.446   1.841  0.3593  0.4320 -0.1034
 6781SOL    HW131979   2.227   3.386   1.852 -0.2162  0.5342  4.1587
 6781SOL    HW231980   2.096   3.428   1.915  2.9693  0.2565  1.8722
 6782SOL     OW31981   1.188   4.555   4.762 -0.4559 -0.2157 -0.5842
 6782SOL    HW131982   1.181   4.620   4.693 -0.7979 -0.0171 -0.3658
 6782SOL    HW231983   1.270   4.584   4.802 -0.9406  2.4956 -1.5562
 6783SOL     OW31984   4.513   4.165  14.368 -0.4681  0.0562 -0.1330
 6783SOL    HW131985   4.453   4.111  14.318 -0.4081 -1.4851  1.4760
 6783SOL    HW231986   4.538   4.116  14.446 -0.7412 -0.7774 -0.5742
 6784SOL     OW31987   0.932   4.668  16.984 -0.1171 -0.4002  0.0746
 6784SOL    HW131988   0.926   0.019  17.017 -1.0149  0.2041 -1.7541
 6784SOL    HW231989   0.950   4.684  16.892 -0.9306  3.1008  0.5223
 6785SOL     OW31990   4.631   1.965   2.319  0.0964  0.6358  0.2722
 6785SOL    HW131991   4.638   2.030   2.389  1.5176 -0.0244  0.7268
 6785SOL    HW231992   4.673   2.009   2.245 -1.6707  4.9459  1.8075
 6786SOL     OW31993   0.968   0.063   8.607 -0.1635  0.3121  0.1570
 6786SOL    HW131994   0.943   0.081   8.697 -1.6011  1.4249 -0.4726
 6786SOL    HW231995   1.062   0.048   8.618 -0.4774 -0.6319  1.4930
 6787SOL     OW31996   4.085   3.350   7.289 -0.4732  0.3587  0.5300
 6787SOL    HW131997   4.168   3.389   7.316 -1.6676  3.0434  0.3401
 6787SOL    HW231998   4.025   3.412   7.330 -2.1657 -0.6035 -0.4904
 6788SOL     OW31999   1.059   3.908   1.429  0.2427 -1.0257  0.0351
 6788SOL    HW132000   0.993   3.838   1.420  0.6162 -1.4549  0.6129
 6788SOL    HW232001   1.124   3.866   1.486  0.3989  0.2338  0.7898
 6789SOL     OW32002   2.768   4.219   7.019 -0.1320 -0.0329  0.5982
 6789SOL    HW132003   2.763   4.268   7.101  1.1751 -0.0863  0.7114
 6789SOL    HW232004   2.762   4.292   6.957  3.8006 -0.6422 -0.5226
 6790SOL     OW32005   0.665   1.002   4.668  0.2484  0.2232  0.1521
 6790SOL    HW132006   0.604   1.065   4.706  0.4554 -0.7222  2.0408
 6790SOL    HW232007   0.607   0.973   4.597 -2.5601  1.4642  1.9233
 6791SOL     OW32008   4.628   1.183   1.339  0.5745  0.0762  0.2968
 6791SOL    HW132009   4.650   1.124   1.268 -1.3381  0.3419 -0.5150
 6791SOL    HW232010   4.591   1.253   1.285 -0.8718 -0.6127  0.3959
 6792SOL     OW32011   3.601   1.590   7.500  0.0431  0.3008 -0.0203
 6792SOL    HW132012   3.696   1.602   7.497  0.3530 -2.8438 -2.0751
 6792SOL    HW232013   3.586   1.596   7.594  0.1316 -2.7886  0.1669
 6793SOL     OW32014   3.983   1.360   2.913  0.2898  0.2854  0.5168
 6793SOL    HW132015   3.923   1.292   2.881  0.3099  1.4894 -2.1018
 6793SOL    HW232016   4.069   1.318   2.912  0.2062  0.0802  2.8661
 6794SOL     OW32017   0.506   1.152   3.392 -0.7206 -0.7079 -0.1512
 6794SOL    HW132018   0.468   1.230   3.353  1.4342  1.3623  1.9131
 6794SOL    HW232019   0.594   1.143   3.355  0.4010 -1.5762  2.7350
 6795SOL     OW32020   2.986   4.660   9.225  0.1330 -0.4841 -0.8346
 6795SOL    HW132021   2.920   4.606   9.182  0.2946 -1.1722 -0.2165
 6795SOL    HW232022   3.053   4.652   9.158 -0.9006 -2.0167 -1.7034
 6796SOL     OW32023   0.910   0.989   0.323 -0.3302  0.3065  0.3848
 6796SOL    HW132024   0.910   1.040   0.243 -1.0552 -0.3625 -0.0426
 6796SOL    HW232025   0.984   1.035   0.362 -0.4629  0.6182  0.2658
 6797SOL     OW32026   0.890   1.201   5.714 -0.1215  0.3380  0.3790
 6797SOL    HW132027   0.847   1.115   5.715  0.9414 -0.2320 -2.5969
 6797SOL    HW232028   0.968   1.187   5.661 -0.8319 -0.6873 -0.4085
 6798SOL     OW32029   3.044   2.914   5.371  1.3746 -0.2611 -0.0492
 6798SOL    HW132030   2.967   2.965   5.345  0.2124 -0.9896  1.9926
 6798SOL    HW232031   3.005   2.861   5.440 -1.9188  2.0879 -0.1012
 6799SOL     OW32032   2.620   1.020   2.324 -0.2581  0.4645  0.3728
 6799SOL    HW132033   2.535   1.053   2.295 -0.2696  0.3133  0.2376
 6799SOL    HW232034   2.679   1.044   2.254  0.0389 -1.6753 -0.1137
 6800SOL     OW32035   2.395   4.299   3.730  0.7211  0.3689 -0.3416
 6800SOL    HW132036   2.488   4.322   3.737 -0.1675  3.6362  0.6416
 6800SOL    HW232037   2.398   4.210   3.694  0.4329  0.2199 -0.0002
 6801SOL     OW32038   0.882   4.249   3.587 -0.2310  0.1578 -0.2582
 6801SOL    HW132039   0.907   4.208   3.670 -0.9822 -0.5335 -0.3751
 6801SOL    HW232040   0.797   4.206   3.577 -0.2009 -0.0042  0.1608
 6802SOL     OW32041   2.623   1.923  15.192  0.7687  0.0282 -0.4938
 6802SOL    HW132042   2.677   1.845  15.178 -2.0341 -1.8198 -1.0342
 6802SOL    HW232043   2.556   1.878  15.243 -0.5389  0.7408 -1.6089
 6803SOL     OW32044   4.543   1.729  17.518  0.0949  0.7134  0.1433
 6803SOL    HW132045   4.627   1.691  17.545  0.5995  1.4052 -0.4484
 6803SOL    HW232046   4.510   1.651  17.474  1.1980  0.8638 -0.9502
 6804SOL     OW32047   4.590   1.253   3.799  0.4791 -0.4654 -1.1377
 6804SOL    HW132048   4.597   1.347   3.781 -1.1289 -0.4861 -1.8228
 6804SOL    HW232049   4.521   1.225   3.740 -0.8022  0.2608  0.0361
 6805SOL     OW32050   3.611   1.958  11.926  0.2468  0.4544 -0.3138
 6805SOL    HW132051   3.675   1.905  11.973  0.1366  0.4949 -0.1160
 6805SOL    HW232052   3.542   1.965  11.993 -1.3377 -1.4826 -1.7461
 6806SOL     OW32053   3.720   2.542   1.289  0.4361  0.2777 -0.5190
 6806SOL    HW132054   3.677   2.457   1.292 -1.4776  1.3070  1.5202
 6806SOL    HW232055   3.680   2.576   1.369  1.1911  0.1984 -0.1122
 6807SOL     OW32056   0.592   1.144   7.797 -0.0509 -0.3106 -0.2855
 6807SOL    HW132057   0.643   1.216   7.759  2.8369 -0.8407  2.6642
 6807SOL    HW232058   0.504   1.163   7.762 -0.5173 -0.4592  0.8213
 6808SOL     OW32059   1.246   4.383   8.103  0.4885  0.9533 -0.7564
 6808SOL    HW132060   1.336   4.409   8.122 -0.1170  1.9571  0.7665
 6808SOL    HW232061   1.221   4.350   8.190 -1.3912  1.0032 -1.2750
 6809SOL     OW32062   1.950   2.196  14.571  0.2702  0.0760  0.5532
 6809SOL    HW132063   1.873   2.177  14.624 -0.2771  0.2031 -0.1970
 6809SOL    HW232064   1.936   2.144  14.492 -0.1833 -0.6447  1.1085
 6810SOL     OW32065   3.768   3.115   5.481 -0.9742 -0.0625  0.7112
 6810SOL    HW132066   3.725   3.030   5.473 -0.2094 -0.4675  0.9964
 6810SOL    HW232067   3.735   3.158   5.402  3.5616  2.1942  0.0296
 6811SOL     OW32068   3.832   4.562   8.677  0.4134  0.3492  0.0418
 6811SOL    HW132069   3.865   4.636   8.627 -0.0217  2.6141  3.0670
 6811SOL    HW232070   3.751   4.538   8.633  0.3291  0.9878 -0.1498
 6812SOL     OW32071   4.451   0.762  12.881 -0.0853 -0.4161 -0.0503
 6812SOL    HW132072   4.445   0.702  12.806 -0.7463 -1.9502  1.2400
 6812SOL    HW232073   4.465   0.710  12.959  1.1112 -2.5171 -1.6601
 6813SOL     OW32074   2.002   1.364   7.910  0.0081 -0.5651  0.2474
 6813SOL    HW132075   1.911   1.357   7.938  0.2230  1.4408  1.4279
 6813SOL    HW232076   2.016   1.274   7.879 -2.4774 -0.8512 -0.0769
 6814SOL     OW32077   0.256   1.447  13.917  0.3110 -0.0533 -0.4183
 6814SOL    HW132078   0.219   1.359  13.919  1.5897 -0.5707  1.6313
 6814SOL    HW232079   0.343   1.414  13.893  0.3597  1.1109 -1.8490
 6815SOL     OW32080   4.160   3.110   2.193 -0.1230  0.3044 -0.1072
 6815SOL    HW132081   4.156   3.068   2.279  1.2561 -1.0865 -0.7092
 6815SOL    HW232082   4.195   3.039   2.138 -2.9085 -0.7264 -0.5102
 6816SOL     OW32083   2.925   4.058   2.238  0.0052  0.5178 -0.0002
 6816SOL    HW132084   2.849   4.088   2.189  0.3532  0.0324 -0.8337
 6816SOL    HW232085   2.952   4.140   2.280 -0.5983  0.7248 -0.0174
 6817SOL     OW32086   0.038   0.007   8.435 -0.4987 -0.5873 -0.0060
 6817SOL    HW132087   0.096   4.729   8.510  2.9398 -1.4564 -2.8454
 6817SOL    HW232088   0.014   0.099   8.450  0.6696 -0.4607  1.1036
 6818SOL     OW32089   3.985   0.471  13.643 -0.3655  0.3438 -0.0790
 6818SOL    HW132090   4.023   0.409  13.705 -0.0342  1.3321  0.7110
 6818SOL    HW232091   3.893   0.480  13.670 -0.0024  2.2557  0.5349
 6819SOL     OW32092   3.816   2.758   8.200 -0.2706  0.4653  0.1859
 6819SOL    HW132093   3.764   2.835   8.178 -2.7160 -1.3949 -0.5827
 6819SOL    HW232094   3.754   2.685   8.192 -0.7833  1.0372 -1.0214
 6820SOL     OW32095   1.211   1.635   0.427 -0.2613 -0.5746 -0.3420
 6820SOL    HW132096   1.272   1.561   0.433  0.0021 -0.3255  0.0774
 6820SOL    HW232097   1.201   1.664   0.518  0.1455 -1.9743  0.1567
 6821SOL     OW32098   0.825   2.154   7.835 -0.2476 -0.1771 -0.2174
 6821SOL    HW132099   0.910   2.138   7.876 -0.4310 -1.0493 -0.1698
 6821SOL    HW232100   0.846   2.214   7.764 -2.9956  0.8410 -0.1697
 6822SOL     OW32101   2.170   3.564   7.411  0.2603  0.4378 -0.0130
 6822SOL    HW132102   2.190   3.605   7.327  2.1404 -2.8989 -1.1398
 6822SOL    HW232103   2.082   3.531   7.393 -0.3428  2.6077 -1.1500
 6823SOL     OW32104   1.159   2.491   3.281 -0.0533 -0.2142  0.1489
 6823SOL    HW132105   1.103   2.486   3.203  0.2050  0.5642 -0.0934
 6823SOL    HW232106   1.186   2.582   3.268 -0.8732  0.3623  2.5367
 6824SOL     OW32107   3.867   4.391   8.900  0.1281 -0.7543 -0.2603
 6824SOL    HW132108   3.845   4.446   8.826 -3.7472  0.0058  1.4342
 6824SOL    HW232109   3.846   4.448   8.974 -1.0248 -0.5229 -0.7599
 6825SOL     OW32110   0.921   0.877   7.692 -0.1819 -0.4955 -0.0820
 6825SOL    HW132111   0.947   0.790   7.661  1.3385 -1.1232  2.9337
 6825SOL    HW232112   0.842   0.843   7.734 -0.5955  1.6347  0.8648
 6826SOL     OW32113   1.285   0.019   3.401  0.5683 -0.4154 -0.4466
 6826SOL    HW132114   1.365   0.043   3.447  1.5569 -1.1655 -1.7584
 6826SOL    HW232115   1.286   4.662   3.404  0.4407 -0.3568  1.2902
 6827SOL     OW32116   0.014   4.557   3.034 -0.0367  0.2445 -0.6299
 6827SOL    HW132117   4.723   4.617   3.102 -1.4530  0.2173 -1.2116
 6827SOL    HW232118   4.666   4.526   3.007 -0.4174  0.4497  0.3678
 6828SOL     OW32119   1.019   2.224   6.887 -0.5046 -0.1670 -0.1175
 6828SOL    HW132120   1.014   2.201   6.794  0.6917 -0.5910 -0.0708
 6828SOL    HW232121   0.988   2.145   6.931 -1.1001  0.6050  0.8641
 6829SOL     OW32122   0.841   3.386  10.301  0.0467  0.7223  0.4861
 6829SOL    HW132123   0.751   3.369  10.331 -0.7346  0.7817 -1.8465
 6829SOL    HW232124   0.886   3.343  10.374  0.0223 -1.3471 -0.7359
 6830SOL     OW32125   3.921   0.578   4.148  0.1295 -0.1137  0.2212
 6830SOL    HW132126   3.848   0.571   4.086 -0.9687  0.7541  1.4374
 6830SOL    HW232127   3.963   0.494   4.130 -0.7523 -0.4108 -0.4610
 6831SOL     OW32128   1.484   2.792   1.772 -0.2231  0.3072  0.3977
 6831SOL    HW132129   1.440   2.782   1.857 -2.4384  1.1378 -0.6346
 6831SOL    HW232130   1.463   2.885   1.766  0.9443  0.4871 -0.8649
 6832SOL     OW32131   1.171   0.226   9.014  0.3247  0.2804  0.2373
 6832SOL    HW132132   1.263   0.221   9.039  0.5259  0.0869 -0.5466
 6832SOL    HW232133   1.156   0.320   9.021  0.6477  0.1542  2.4993
 6833SOL     OW32134   2.370   1.882   4.103  0.1701  0.8157 -0.8105
 6833SOL    HW132135   2.454   1.911   4.067  2.5978 -1.3242  3.1619
 6833SOL    HW232136   2.396   1.824   4.175  0.4988  0.9507 -0.8168
 6834SOL     OW32137   4.552   0.527   2.964  0.3890 -0.2597  0.0933
 6834SOL    HW132138   4.639   0.515   2.928 -0.4870  0.3083 -2.2250
 6834SOL    HW232139   4.524   0.439   2.989 -1.5117  0.5820  0.9701
 6835SOL     OW32140   3.554   1.139   2.868 -0.2940  0.1293  0.0008
 6835SOL    HW132141   3.564   1.212   2.929 -1.9841 -1.2057  1.9221
 6835SOL    HW232142   3.601   1.071   2.916  1.5661  0.4132 -1.3998
 6836SOL     OW32143   1.845   4.197  11.765 -0.0614  0.3306  0.6965
 6836SOL    HW132144   1.902   4.141  11.818 -1.0697  2.2159  3.7601
 6836SOL    HW232145   1.761   4.174  11.806 -0.3774  0.0574 -0.0940
 6837SOL     OW32146   4.118   4.139   1.319 -0.3054 -0.1006 -0.2647
 6837SOL    HW132147   4.094   4.230   1.301 -1.6299 -0.3917  0.0314
 6837SOL    HW232148   4.179   4.117   1.249  0.6507 -1.1719  0.9201
 6838SOL     OW32149   1.114   0.295   2.727 -0.9689 -0.5471 -0.4890
 6838SOL    HW132150   1.104   0.244   2.807  1.4047 -1.0863 -0.5093
 6838SOL    HW232151   1.021   0.292   2.707 -1.1805  3.1309 -0.1233
 6839SOL     OW32152   3.597   3.647   1.746 -0.3899 -0.3879 -0.1282
 6839SOL    HW132153   3.502   3.650   1.735 -0.2279 -1.9522 -1.9841
 6839SOL    HW232154   3.625   3.732   1.779 -1.5518  0.6860 -1.9693
 6840SOL     OW32155   1.616   2.274   9.287 -0.0940 -0.1913  0.6981
 6840SOL    HW132156   1.661   2.199   9.248  0.0923  1.1937 -1.7585
 6840SOL    HW232157   1.563   2.232   9.354  1.5183 -1.6776  1.0589
 6841SOL     OW32158   3.839   1.636   7.738  0.5799  0.5170 -0.4334
 6841SOL    HW132159   3.908   1.702   7.727 -0.0234  1.5152  1.7471
 6841SOL    HW232160   3.807   1.666   7.823  0.9154  0.9348 -0.4498
 6842SOL     OW32161   4.033   2.922   5.426 -0.4247 -0.7034 -0.1511
 6842SOL    HW132162   3.962   2.871   5.389 -2.4071  0.8670  1.5225
 6842SOL    HW232163   4.034   2.992   5.362  1.8724  0.0065  0.6559
 6843SOL     OW32164   1.820   3.429   6.405 -0.3928  0.3798 -0.4372
 6843SOL    HW132165   1.781   3.346   6.431  0.7452 -0.4868 -1.4929
 6843SOL    HW232166   1.810   3.414   6.311  0.0146  0.7361 -0.5381
 6844SOL     OW32167   4.188   0.002  12.919  0.4537  0.6356  0.0132
 6844SOL    HW132168   4.238   4.681  12.976 -0.6668  0.6389  1.0142
 6844SOL    HW232169   4.221   0.002  12.830 -2.2943  1.4023 -1.0134
 6845SOL     OW32170   2.924   2.221   9.027  0.4245  0.6575 -0.5263
 6845SOL    HW132171   2.876   2.287   8.977  1.4725  3.4061  2.0934
 6845SOL    HW232172   2.870   2.142   9.021  0.8742  0.1504  1.9647
 6846SOL     OW32173   3.488   2.581  10.189 -0.0026  0.0879  0.7398
 6846SOL    HW132174   3.568   2.538  10.220  1.9668  1.5436 -2.3676
 6846SOL    HW232175   3.443   2.592  10.273  0.8133 -1.9766  1.4506
 6847SOL     OW32176   0.416   1.142  14.784  0.1665 -0.4991 -0.4261
 6847SOL    HW132177   0.333   1.189  14.773 -0.2165 -1.5725 -2.0911
 6847SOL    HW232178   0.470   1.209  14.826 -1.8023  0.5933  0.3349
 6848SOL     OW32179   4.521   0.065   1.817  0.0447  0.1700  0.3625
 6848SOL    HW132180   4.452   0.110   1.865  1.5938  2.8987  0.0228
 6848SOL    HW232181   4.587   0.102   1.876 -0.4341  1.5512  0.0309
 6849SOL     OW32182   4.608   0.890  14.175  0.3451 -0.6974 -0.1947
 6849SOL    HW132183   4.620   0.874  14.081 -0.6994 -0.5426 -0.3600
 6849SOL    HW232184   4.553   0.816  14.201 -1.3970  0.6001 -0.1822
 6850SOL     OW32185   2.908   2.579   7.177  0.3405 -0.9882  0.1845
 6850SOL    HW132186   2.929   2.670   7.157 -0.5566 -0.3559  2.0624
 6850SOL    HW232187   2.815   2.583   7.156  0.1001 -1.4026  1.1534
 6851SOL     OW32188   4.063   0.820   2.281 -0.4797 -0.0816 -0.0410
 6851SOL    HW132189   3.984   0.867   2.305  0.4859 -0.7676  4.4135
 6851SOL    HW232190   4.075   0.752   2.348  1.7612  1.9883  1.6356
 6852SOL     OW32191   1.976   1.774   3.226  1.1890 -0.1100  0.1962
 6852SOL    HW132192   2.059   1.734   3.250  0.1696  0.8840  5.4462
 6852SOL    HW232193   1.913   1.726   3.280  3.0127 -1.8537  0.7634
 6853SOL     OW32194   2.088   2.523   6.666 -0.0391 -0.3299  0.4638
 6853SOL    HW132195   2.061   2.432   6.653 -1.1309  0.2939 -1.5778
 6853SOL    HW232196   2.178   2.521   6.633 -0.1827  2.1945 -0.0770
 6854SOL     OW32197   4.409   0.887   2.892  0.0720 -0.0503 -0.3979
 6854SOL    HW132198   4.346   0.929   2.951  0.9650  0.6807  0.0497
 6854SOL    HW232199   4.439   0.956   2.832  3.0872  2.0230  3.4494
 6855SOL     OW32200   3.955   0.133   8.197  0.4804  0.1752  0.2105
 6855SOL    HW132201   4.045   0.166   8.202  0.6418 -0.2511  0.1445
 6855SOL    HW232202   3.970   0.042   8.223 -1.2533 -0.0144  0.5220
 6856SOL     OW32203   4.095   0.435   2.906 -0.1813 -0.1764  0.4329
 6856SOL    HW132204   4.082   0.356   2.854 -2.7952  0.4419  0.1609
 6856SOL    HW232205   4.177   0.470   2.872 -1.9108  3.0093 -0.4881
 6857SOL     OW32206   1.275   3.882   7.783  0.1437  0.4438  0.6292
 6857SOL    HW132207   1.277   3.976   7.801  2.1427  0.9171 -1.9515
 6857SOL    HW232208   1.336   3.857   7.852  0.6841 -1.9815 -0.7216
 6858SOL     OW32209   2.839   3.824   9.335  0.5165 -0.3075  0.5504
 6858SOL    HW132210   2.828   3.808   9.429 -1.0075  0.7547  0.5490
 6858SOL    HW232211   2.820   3.737   9.300 -0.1332 -0.4677  1.2979
 6859SOL     OW32212   0.135   3.878   8.302  0.3565 -0.3349  0.2373
 6859SOL    HW132213   0.071   3.861   8.233  0.0037  1.6661  0.0772
 6859SOL    HW232214   0.120   3.973   8.296 -1.6288 -0.8112 -2.4308
 6860SOL     OW32215   4.521   3.987   5.542  0.7933 -0.2047  0.2286
 6860SOL    HW132216   4.561   4.028   5.619  1.9292 -0.4238 -0.2314
 6860SOL    HW232217   4.509   4.052   5.472  0.0956 -1.0847 -0.4598
 6861SOL     OW32218   2.365   3.264   8.401  0.1010  0.1957 -0.0649
 6861SOL    HW132219   2.450   3.285   8.363  0.0711  1.1269  0.3768
 6861SOL    HW232220   2.325   3.244   8.316  0.2563 -0.1070 -0.0644
 6862SOL     OW32221   3.774   4.734  13.473 -0.1453  0.1909  0.1418
 6862SOL    HW132222   3.704   4.678  13.507  0.3656 -1.0264 -0.8208
 6862SOL    HW232223   3.729   0.079  13.488  3.2234  1.8862  0.9183
 6863SOL     OW32224   3.277   2.707  15.634  0.0512 -0.0006 -0.3859
 6863SOL    HW132225   3.293   2.675  15.723 -0.6574  2.1550  0.5176
 6863SOL    HW232226   3.181   2.712  15.628  0.1097  3.0389  1.1847
 6864SOL     OW32227   1.739   0.518   5.224 -0.6349  0.2203  0.1354
 6864SOL    HW132228   1.746   0.611   5.202 -0.4384  0.4424  1.1727
 6864SOL    HW232229   1.699   0.516   5.310  0.2881 -2.4720  0.5071
 6865SOL     OW32230   0.730   3.162   5.307 -0.9729 -0.2209 -0.1619
 6865SOL    HW132231   0.733   3.095   5.239  0.2901 -2.6527  2.3118
 6865SOL    HW232232   0.728   3.107   5.385  1.4866 -1.2801 -0.8429
 6866SOL     OW32233   3.470   2.045   6.130  0.5321  0.0301 -0.2127
 6866SOL    HW132234   3.539   2.007   6.184  1.2486 -0.1799 -1.2858
 6866SOL    HW232235   3.516   2.114   6.083  0.5886 -0.6199 -1.1059
 6867SOL     OW32236   3.043   1.368   6.274  0.0224 -0.6455 -0.2229
 6867SOL    HW132237   2.962   1.403   6.311  1.2900  1.4242  0.6204
 6867SOL    HW232238   3.011   1.278   6.267 -1.5824 -0.0035 -1.1678
 6868SOL     OW32239   4.110   0.527   0.181  0.6057 -0.6184 -0.3004
 6868SOL    HW132240   4.093   0.611   0.138 -0.2941 -1.0778 -0.8281
 6868SOL    HW232241   4.163   0.488   0.111 -0.2130  0.3167 -1.4446
 6869SOL     OW32242   1.866   0.433  12.841 -0.2721 -0.0936  0.5568
 6869SOL    HW132243   1.798   0.496  12.866  0.3851  0.4868  0.8684
 6869SOL    HW232244   1.944   0.467  12.886 -0.4687  1.5790 -0.3482
 6870SOL     OW32245   2.642   3.634   2.726 -0.4192  0.2282 -0.1244
 6870SOL    HW132246   2.629   3.565   2.791 -0.6847  0.6299  0.2497
 6870SOL    HW232247   2.738   3.634   2.731 -0.3842 -0.6392 -0.7890
 6871SOL     OW32248   3.126   2.689   0.451  0.2461  0.0671  0.6095
 6871SOL    HW132249   3.040   2.653   0.431 -0.5580  2.6072 -0.3596
 6871SOL    HW232250   3.182   2.610   0.454 -0.1473 -0.1841  1.3077
 6872SOL     OW32251   0.193   4.466   2.179 -0.1522  0.0979  0.1076
 6872SOL    HW132252   0.159   4.508   2.100 -0.1468  0.5248  0.3353
 6872SOL    HW232253   0.197   4.374   2.151 -1.0215  0.0059  0.2936
 6873SOL     OW32254   2.277   3.790   3.717 -0.7221 -0.2417  0.5867
 6873SOL    HW132255   2.337   3.797   3.791  0.1496  0.7550 -0.2167
 6873SOL    HW232256   2.327   3.733   3.658 -1.9518 -0.6411 -0.0692
 6874SOL     OW32257   1.358   1.877   3.836  0.2002  0.0286 -0.0694
 6874SOL    HW132258   1.265   1.881   3.812 -0.5041 -3.0367  2.2050
 6874SOL    HW232259   1.355   1.842   3.925  2.0466  1.0795  0.3982
 6875SOL     OW32260   1.109   3.837  16.318 -0.1791 -0.3231 -0.1606
 6875SOL    HW132261   1.149   3.751  16.305 -0.2927 -0.6258  1.5691
 6875SOL    HW232262   1.021   3.813  16.346 -0.5769 -0.3679 -1.4274
 6876SOL     OW32263   0.586   1.651  12.194  0.1954 -0.0585  0.0087
 6876SOL    HW132264   0.527   1.576  12.194 -0.5807  0.5508  0.5567
 6876SOL    HW232265   0.657   1.622  12.137  0.1425  1.2046 -0.6890
 6877SOL     OW32266   0.456   1.493  17.310  0.4011 -0.0357 -0.0983
 6877SOL    HW132267   0.528   1.503  17.373  0.2124 -1.4599  0.3544
 6877SOL    HW232268   0.493   1.428  17.250  0.5210 -0.0117 -0.0514
 6878SOL     OW32269   2.567   2.758  10.090 -0.2397  0.2865  0.2151
 6878SOL    HW132270   2.510   2.685  10.066  0.0049  0.2278 -0.1838
 6878SOL    HW232271   2.548   2.762  10.184  2.2709 -0.2906  0.7396
 6879SOL     OW32272   4.132   3.250  12.565 -0.2506  0.2856 -0.5189
 6879SOL    HW132273   4.175   3.316  12.511 -0.2566 -0.6375 -1.6641
 6879SOL    HW232274   4.072   3.308  12.610 -2.0022 -0.7413 -1.5168
 6880SOL     OW32275   2.416   3.315  16.937 -0.4377  0.5568  0.0733
 6880SOL    HW132276   2.481   3.299  16.869  1.0234  0.0072  1.6218
 6880SOL    HW232277   2.405   3.228  16.975  0.5678  0.5777  0.4009
 6881SOL     OW32278   4.209   0.485  11.110 -0.0185  0.8303  0.4489
 6881SOL    HW132279   4.172   0.548  11.048  1.5680  2.3909  1.0796
 6881SOL    HW232280   4.274   0.548  11.141 -1.5930  1.7502  1.9157
 6882SOL     OW32281   3.377   0.581   5.360  0.0622  0.3567  0.2687
 6882SOL    HW132282   3.446   0.603   5.296 -0.1228 -0.9834 -0.3870
 6882SOL    HW232283   3.433   0.556   5.433 -1.5712  0.4504  1.5338
 6883SOL     OW32284   1.239   2.415   3.565 -0.5127 -0.0174 -0.0507
 6883SOL    HW132285   1.302   2.477   3.601  0.7241 -0.2360 -1.8368
 6883SOL    HW232286   1.213   2.456   3.483  0.0629  0.5219  0.0361
 6884SOL     OW32287   4.479   4.163   9.602  0.3356 -0.3958  0.4637
 6884SOL    HW132288   4.562   4.117   9.611  0.7178  0.2959  0.4936
 6884SOL    HW232289   4.433   4.107   9.541 -0.3628  2.3714 -1.5633
 6885SOL     OW32290   4.644   2.485   1.443  0.0585 -0.2439  0.7368
 6885SOL    HW132291   4.600   2.510   1.361 -0.0502 -2.1552  0.2057
 6885SOL    HW232292   4.572   2.434   1.481 -3.4747  3.8875 -0.3897
 6886SOL     OW32293   0.251   3.674   2.249  0.5130  0.1574  1.1908
 6886SOL    HW132294   0.177   3.723   2.283 -0.4518 -0.6760  0.3026
 6886SOL    HW232295   0.208   3.589   2.237  2.9121 -1.2400  2.3652
 6887SOL     OW32296   1.989   4.240   7.855  0.1035  0.0704 -0.1070
 6887SOL    HW132297   2.039   4.183   7.796  0.6627 -0.1092  0.5487
 6887SOL    HW232298   1.948   4.163   7.895 -1.0513  0.8664  0.2390
 6888SOL     OW32299   2.907   3.855   3.680  0.2027  0.1988 -0.7375
 6888SOL    HW132300   2.950   3.932   3.719  0.1925  0.6789 -1.6712
 6888SOL    HW232301   2.970   3.837   3.610  0.1050 -0.3191 -0.6876
 6889SOL     OW32302   4.376   0.145  17.511 -0.4191  0.5514 -0.4106
 6889SOL    HW132303   4.308   0.112  17.452 -1.3337  0.1663  0.8458
 6889SOL    HW232304   4.380   0.076  17.578  2.7691  0.2993 -0.8484
 6890SOL     OW32305   4.683   3.526  15.992 -0.0241  0.0634  0.6597
 6890SOL    HW132306   0.031   3.484  15.995 -1.2748 -2.5346 -0.1757
 6890SOL    HW232307   4.711   3.614  16.018  2.8022 -0.2760 -1.1896
 6891SOL     OW32308   3.489   4.677   5.658 -0.6363  0.3027  0.7196
 6891SOL    HW132309   3.519   0.027   5.683  1.9494 -0.7682  1.4608
 6891SOL    HW232310   3.505   4.672   5.564  2.1013  0.0965  1.1750
 6892SOL     OW32311   0.650   2.931   7.245 -0.1391 -0.2737 -0.4726
 6892SOL    HW132312   0.699   2.849   7.250  0.1393 -0.0714  0.0689
 6892SOL    HW232313   0.591   2.915   7.319  0.0695  2.2031  0.2159
 6893SOL     OW32314   3.916   3.907  16.781 -0.4216  0.6212 -0.3496
 6893SOL    HW132315   3.897   3.993  16.741 -0.0929  1.2617  0.8729
 6893SOL    HW232316   3.913   3.926  16.875  1.1117 -0.8586 -0.0120
 6894SOL     OW32317   1.673   0.642  12.020 -0.5784 -0.5485 -0.0735
 6894SOL    HW132318   1.745   0.658  11.960 -1.8693  1.6664 -1.0318
 6894SOL    HW232319   1.680   0.719  12.077  0.5749  0.2808 -1.3553
 6895SOL     OW32320   3.299   0.477  14.767  0.1528  0.2157  0.0261
 6895SOL    HW132321   3.274   0.440  14.851  0.0821 -0.3537 -0.2477
 6895SOL    HW232322   3.382   0.433  14.746 -0.3293 -0.6273 -0.1027
 6896SOL     OW32323   1.201   2.395  13.089 -0.1580  0.0707 -0.4725
 6896SOL    HW132324   1.157   2.324  13.042  3.0044 -1.9153 -0.4289
 6896SOL    HW232325   1.191   2.474  13.034 -2.0774 -0.2032 -0.5189
 6897SOL     OW32326   2.978   2.101   9.419  0.3406  0.4374  0.3060
 6897SOL    HW132327   2.898   2.152   9.407  1.2475  1.2096 -2.3353
 6897SOL    HW232328   3.039   2.171   9.442  1.9377 -1.2992  1.3865
 6898SOL     OW32329   2.486   0.559   4.865  0.3704  0.1237 -0.4824
 6898SOL    HW132330   2.423   0.630   4.875 -2.7759 -2.5977 -1.1621
 6898SOL    HW232331   2.441   0.493   4.917 -0.7434  0.5686 -0.8992
 6899SOL     OW32332   1.853   3.323   8.599 -0.7445 -0.3221 -0.1795
 6899SOL    HW132333   1.820   3.263   8.533  0.3137  1.2135 -2.1003
 6899SOL    HW232334   1.930   3.272   8.625 -1.4482 -2.1822 -1.7944
 6900SOL     OW32335   3.711   1.839  11.707  0.1257 -0.7047 -0.3018
 6900SOL    HW132336   3.696   1.874  11.795  0.1903 -0.3080 -0.4486
 6900SOL    HW232337   3.778   1.903  11.682  2.5733 -3.2153 -0.1131
 6901SOL     OW32338   3.376   3.977   7.112 -0.2937  0.4557  0.1129
 6901SOL    HW132339   3.428   3.965   7.032 -1.1820  2.0549 -0.7030
 6901SOL    HW232340   3.424   3.921   7.173  0.5167  1.2562  0.2082
 6902SOL     OW32341   1.085   3.534   9.550 -0.0207  0.3097 -0.0857
 6902SOL    HW132342   1.106   3.588   9.474 -1.4125  1.1138  0.0915
 6902SOL    HW232343   1.172   3.500   9.573 -0.2223  1.6478  2.5831
 6903SOL     OW32344   3.871   4.443   7.912  0.9121 -0.0738  0.2174
 6903SOL    HW132345   3.842   4.529   7.940  1.3275  0.5886 -1.3539
 6903SOL    HW232346   3.801   4.387   7.945  0.7412 -0.0932 -0.1716
 6904SOL     OW32347   1.984   3.694   0.260 -0.5024 -0.0898  0.3503
 6904SOL    HW132348   1.927   3.620   0.283  0.2068 -0.8857 -0.4443
 6904SOL    HW232349   1.933   3.736   0.192 -0.0348 -0.6420 -0.3367
 6905SOL     OW32350   1.990   1.523   6.211  0.1074 -0.3686 -0.5423
 6905SOL    HW132351   2.007   1.594   6.273  0.1742 -4.1594  3.7804
 6905SOL    HW232352   1.933   1.560   6.142  1.3424  0.0758 -1.3208
 6906SOL     OW32353   2.912   3.291   7.436 -0.0804 -0.2042 -0.4168
 6906SOL    HW132354   2.980   3.297   7.369  0.1139 -0.2950 -0.2255
 6906SOL    HW232355   2.938   3.210   7.480 -0.3333  0.6212  1.2362
 6907SOL     OW32356   2.408   3.156  14.830 -0.9145  0.0414  0.3960
 6907SOL    HW132357   2.352   3.228  14.802 -1.2872 -0.4350 -0.0865
 6907SOL    HW232358   2.487   3.207  14.848 -1.1607 -0.6752  3.5088
 6908SOL     OW32359   0.244   4.110  15.046  0.6977 -0.6866 -0.1763
 6908SOL    HW132360   0.283   4.030  15.012  3.1653 -0.3395  1.8192
 6908SOL    HW232361   0.323   4.156  15.075 -0.3877  1.5209 -0.7321
 6909SOL     OW32362   0.801   0.373   3.244 -0.3270 -0.0721  0.4318
 6909SOL    HW132363   0.729   0.392   3.304 -0.7470 -0.4407  0.0496
 6909SOL    HW232364   0.763   0.375   3.156 -1.0714 -0.0503  0.7500
 6910SOL     OW32365   3.295   3.382   4.925 -0.2569  0.0127  0.3788
 6910SOL    HW132366   3.230   3.413   4.988 -0.3996  1.4344 -0.4617
 6910SOL    HW232367   3.335   3.463   4.893 -1.4610 -0.6030 -2.6279
 6911SOL     OW32368   2.545   1.234  11.313 -0.0716  0.3424 -0.4352
 6911SOL    HW132369   2.570   1.145  11.291  2.4585  0.9682 -0.0562
 6911SOL    HW232370   2.473   1.256  11.253  0.7033  2.2932 -0.6463
 6912SOL     OW32371   1.813   2.617   2.694 -0.3548  0.0412 -0.2380
 6912SOL    HW132372   1.740   2.609   2.632  1.1182 -2.0290 -1.6980
 6912SOL    HW232373   1.873   2.551   2.658  0.9059  0.8500  0.3745
 6913SOL     OW32374   1.441   0.014   2.866 -0.4211 -0.2902  1.3546
 6913SOL    HW132375   1.512   4.712   2.916 -0.1127 -1.4484  0.0060
 6913SOL    HW232376   1.483   0.094   2.834 -2.2509 -0.4654 -1.4884
 6914SOL     OW32377   2.757   4.050   8.639 -0.2144  0.0651  0.6955
 6914SOL    HW132378   2.701   4.024   8.566  4.1219  1.2213 -3.0415
 6914SOL    HW232379   2.751   4.146   8.633  0.5727  0.1444  1.1338
 6915SOL     OW32380   3.291   0.677   9.274 -0.0128 -0.1288 -0.6509
 6915SOL    HW132381   3.368   0.639   9.232  1.6826  1.9613  0.5527
 6915SOL    HW232382   3.231   0.603   9.269  1.8157 -1.6811  0.4158
 6916SOL     OW32383   3.024   4.417   4.199 -0.6653  0.6714  0.4842
 6916SOL    HW132384   3.072   4.361   4.260 -1.9398  1.9817  2.6971
 6916SOL    HW232385   2.991   4.487   4.256 -1.1164 -0.5110  1.6685
 6917SOL     OW32386   4.695   4.217  12.511 -0.0067  0.4317 -0.0734
 6917SOL    HW132387   4.688   4.238  12.604  0.9276  0.3624  0.0118
 6917SOL    HW232388   0.049   4.191  12.505  0.3332  1.7905 -0.9452
 6918SOL     OW32389   1.165   0.700   0.634  0.1727  0.1193  0.2418
 6918SOL    HW132390   1.254   0.666   0.631  1.1906  2.9770 -2.1156
 6918SOL    HW232391   1.167   0.746   0.549  0.9860 -0.6707 -0.1640
 6919SOL     OW32392   0.909   2.016  10.115  0.1328 -0.0083  0.2914
 6919SOL    HW132393   0.979   2.076  10.143 -0.8830  1.6065 -0.6215
 6919SOL    HW232394   0.859   2.005  10.195 -1.5227  4.3787 -0.1269
 6920SOL     OW32395   0.887   2.053   5.921  0.2835  0.0165  0.0919
 6920SOL    HW132396   0.929   1.986   5.975 -0.1454 -1.7844 -1.8019
 6920SOL    HW232397   0.842   2.110   5.983  0.3212  0.1314  0.0121
 6921SOL     OW32398   0.083   1.504  12.322  0.1474 -0.5395 -0.4540
 6921SOL    HW132399   0.164   1.452  12.326 -0.4848 -1.4483  0.2993
 6921SOL    HW232400   0.009   1.448  12.342  0.0831 -0.8080 -1.4228
 6922SOL     OW32401   1.309   3.419   6.192 -0.4934 -0.4832  0.0136
 6922SOL    HW132402   1.311   3.333   6.149  1.3166  0.1083 -1.0904
 6922SOL    HW232403   1.303   3.387   6.282 -3.6083  1.0754  0.3455
 6923SOL     OW32404   0.321   1.021  15.034 -0.1822  0.4447 -0.0028
 6923SOL    HW132405   0.230   1.007  15.009  0.0783  0.2824 -0.8826
 6923SOL    HW232406   0.355   1.072  14.961 -0.4124 -0.1640 -0.5388
 6924SOL     OW32407   1.708   3.391  13.678  0.3822  0.2978 -0.2653
 6924SOL    HW132408   1.698   3.355  13.766 -0.0569  0.8971 -0.0706
 6924SOL    HW232409   1.702   3.309  13.629  3.5266 -0.4451  0.6215
 6925SOL     OW32410   4.705   4.374   1.949  0.1979  0.1111  0.2193
 6925SOL    HW132411   0.050   4.342   1.984 -0.1438 -1.1908 -0.1270
 6925SOL    HW232412   4.711   4.349   1.857 -4.2336 -0.1570 -0.0157
 6926SOL     OW32413   1.120   3.718   3.874  0.3489  0.4145 -0.0601
 6926SOL    HW132414   1.126   3.812   3.889 -0.6460  0.2186  1.5399
 6926SOL    HW232415   1.118   3.682   3.963 -3.4361  1.9696  0.4617
 6927SOL     OW32416   0.154   3.338   4.391  0.4508  0.1701  0.3711
 6927SOL    HW132417   0.124   3.357   4.479  0.5086 -0.3913  0.5104
 6927SOL    HW232418   0.127   3.247   4.385  3.0489 -0.7056  2.1078
 6928SOL     OW32419   3.734   1.817   4.471  0.1771 -0.0816  0.1168
 6928SOL    HW132420   3.650   1.862   4.479 -0.4148 -0.8408 -1.7412
 6928SOL    HW232421   3.774   1.875   4.407 -0.4568 -0.0368 -0.2384
 6929SOL     OW32422   3.812   0.431  12.527  0.0051  0.3790  0.1994
 6929SOL    HW132423   3.882   0.464  12.471 -2.1700 -1.4001 -3.5050
 6929SOL    HW232424   3.864   0.408  12.605 -0.0502 -1.0171 -0.1637
 6930SOL     OW32425   3.278   1.154   1.314 -0.3206  1.1551 -0.3973
 6930SOL    HW132426   3.300   1.216   1.384 -0.7795 -1.6622  2.2232
 6930SOL    HW232427   3.199   1.113   1.348  0.8980 -2.1585 -1.5783
 6931SOL     OW32428   2.993   2.919  14.202 -0.0576  0.1042  0.1574
 6931SOL    HW132429   3.060   2.973  14.160 -1.1659  1.7529  0.5085
 6931SOL    HW232430   2.988   2.845  14.142  0.1144  0.0572  0.2003
 6932SOL     OW32431   2.829   2.849  16.939  0.0985  0.0543  0.3466
 6932SOL    HW132432   2.847   2.825  16.848  0.5202  2.2407 -0.1439
 6932SOL    HW232433   2.853   2.764  16.975  1.9772  1.3475  2.0764
 6933SOL     OW32434   2.051   2.747   2.251 -0.3650  0.6582 -0.0953
 6933SOL    HW132435   1.992   2.689   2.301 -1.9349  1.0875 -1.4569
 6933SOL    HW232436   2.117   2.683   2.227 -1.1066  0.1277 -0.7308
 6934SOL     OW32437   3.903   3.149   2.725  0.0986 -0.9789 -0.2570
 6934SOL    HW132438   3.822   3.185   2.763 -0.0264  0.4984 -1.8999
 6934SOL    HW232439   3.899   3.187   2.637  2.8354  2.3401  1.0692
 6935SOL     OW32440   0.468   4.511   0.960 -0.5864  0.0224  0.4773
 6935SOL    HW132441   0.387   4.464   0.977 -0.2996 -1.0755 -1.1678
 6935SOL    HW232442   0.528   4.478   1.027 -0.4968 -1.7005 -0.4530
 6936SOL     OW32443   0.429   3.822   2.861  0.0599 -0.1384  0.2042
 6936SOL    HW132444   0.410   3.913   2.884  0.3965 -0.2524  0.9300
 6936SOL    HW232445   0.446   3.833   2.768  1.5407 -0.9367  0.3763
 6937SOL     OW32446   0.132   1.081  16.861  0.3488 -0.3532 -0.4465
 6937SOL    HW132447   0.120   1.120  16.774  1.8448  1.3357  0.1239
 6937SOL    HW232448   0.114   1.155  16.918  0.4566 -1.2832  0.7926
 6938SOL     OW32449   0.879   2.502   6.659  0.2909 -0.1693  0.3150
 6938SOL    HW132450   0.827   2.538   6.588  1.2864  3.6917  1.5503
 6938SOL    HW232451   0.966   2.506   6.620  0.4049  2.4271  0.8169
 6939SOL     OW32452   4.445   3.909  11.906 -0.0054 -0.5286 -0.0282
 6939SOL    HW132453   4.425   3.834  11.851 -0.6768  1.5143 -2.5955
 6939SOL    HW232454   4.530   3.881  11.939 -0.6009 -0.6070  1.4212
 6940SOL     OW32455   1.338   2.223   8.445  0.3860  0.1102  0.1175
 6940SOL    HW132456   1.282   2.246   8.371  1.2138  0.7995 -0.3035
 6940SOL    HW232457   1.285   2.226   8.525 -0.1953  1.8211 -0.3307
 6941SOL     OW32458   1.761   0.977   6.553 -0.1894 -0.0172 -0.3420
 6941SOL    HW132459   1.696   0.908   6.548 -1.5129  1.3107 -1.2761
 6941SOL    HW232460   1.750   0.995   6.646 -1.0851 -0.3629 -0.3799
 6942SOL     OW32461   2.050   4.078  14.702  0.3390 -0.7831  0.0042
 6942SOL    HW132462   2.142   4.102  14.690  0.3141 -0.7736 -0.1560
 6942SOL    HW232463   2.048   3.983  14.688  0.7667 -0.5373 -1.6289
 6943SOL     OW32464   0.968   4.662  14.181  0.2052  0.0705  0.0004
 6943SOL    HW132465   1.032   4.671  14.252  0.3057  0.7192 -0.1719
 6943SOL    HW232466   0.973   4.566  14.177 -1.8497 -0.0242  0.0537
 6944SOL     OW32467   3.628   0.129   1.849  0.3503 -0.1645 -0.2003
 6944SOL    HW132468   3.610   0.148   1.757  1.5757 -1.2988 -0.6783
 6944SOL    HW232469   3.683   0.051   1.840 -1.2731 -1.3477  0.2897
 6945SOL     OW32470   0.153   1.706  16.219  0.0520  0.0921  0.4025
 6945SOL    HW132471   0.233   1.676  16.263  1.2679  1.1027 -1.0887
 6945SOL    HW232472   0.088   1.650  16.261  1.3060 -2.2432 -0.7739
 6946SOL     OW32473   1.607   4.322   6.605  0.1489 -0.5351 -0.2889
 6946SOL    HW132474   1.611   4.228   6.621  1.3300 -0.5822 -0.8556
 6946SOL    HW232475   1.657   4.359   6.677 -0.0467  0.8412 -0.8427
 6947SOL     OW32476   0.835   2.489   6.945  0.1830  0.2730 -0.6843
 6947SOL    HW132477   0.876   2.484   6.858 -0.4173  4.4163 -1.2279
 6947SOL    HW232478   0.794   2.576   6.942  0.1922  0.4056  3.1390
 6948SOL     OW32479   0.941   1.526   5.253 -0.1838 -0.0029  0.3026
 6948SOL    HW132480   0.884   1.586   5.205  0.9038  0.9840  0.2322
 6948SOL    HW232481   0.910   1.441   5.221 -0.6761  0.3758 -0.2379
 6949SOL     OW32482   2.565   0.944   3.032  0.0900 -0.2503 -0.8634
 6949SOL    HW132483   2.586   0.888   2.957  2.9416 -0.8256  0.3494
 6949SOL    HW232484   2.470   0.933   3.028  0.3266 -3.5517  1.7795
 6950SOL     OW32485   3.821   3.717   8.397 -0.5197 -0.2097  0.2129
 6950SOL    HW132486   3.773   3.733   8.316 -0.0706 -1.3715 -0.2770
 6950SOL    HW232487   3.777   3.775   8.459 -1.8363 -0.8701 -0.0939
 6951SOL     OW32488   3.788   2.102   1.452 -0.1463 -0.2400  0.2143
 6951SOL    HW132489   3.855   2.114   1.520  0.1378  0.5224 -0.2011
 6951SOL    HW232490   3.743   2.038   1.507  0.9047 -1.4090 -0.2795
 6952SOL     OW32491   4.078   2.190   3.808  0.3682  0.2430 -0.2453
 6952SOL    HW132492   4.103   2.280   3.826 -2.2175  0.7231  0.9388
 6952SOL    HW232493   4.011   2.208   3.741 -0.2795 -1.0072  0.0581
 6953SOL     OW32494   1.021   2.911   9.523  0.1542 -0.1510 -0.5252
 6953SOL    HW132495   0.978   2.981   9.473  0.0183 -0.5677 -0.9963
 6953SOL    HW232496   0.939   2.866   9.544  1.2933 -1.9811  0.0272
 6954SOL     OW32497   4.668   1.112   2.864  0.1518  0.0588  0.3923
 6954SOL    HW132498   4.693   1.077   2.950 -1.4476 -0.5476  0.6230
 6954SOL    HW232499   4.723   1.190   2.872 -2.1437  1.7490 -0.3961
 6955SOL     OW32500   2.462   1.111   7.978 -0.4338  0.3350 -0.5075
 6955SOL    HW132501   2.419   1.179   7.927 -1.9314 -2.1340 -2.4510
 6955SOL    HW232502   2.400   1.094   8.049 -1.6848  0.0110 -1.6920
 6956SOL     OW32503   4.572   2.898   3.863  0.0776  0.2147  0.2683
 6956SOL    HW132504   4.642   2.848   3.822  0.7488 -0.5734  2.3541
 6956SOL    HW232505   4.522   2.948   3.798 -1.8975 -0.1437  1.5026
 6957SOL     OW32506   1.634   3.530   7.629 -0.1397 -0.3152 -0.2428
 6957SOL    HW132507   1.646   3.618   7.664 -1.9207 -1.3684  2.9993
 6957SOL    HW232508   1.726   3.513   7.610  0.1060  0.3326  0.3749
 6958SOL     OW32509   1.100   1.420   4.023  0.2646  0.0024  0.4374
 6958SOL    HW132510   1.096   1.512   4.048  2.1314  0.5382 -1.2368
 6958SOL    HW232511   1.066   1.390   4.107  1.2632 -0.8504  0.5390
 6959SOL     OW32512   4.538   2.952   9.151  0.2776 -0.5079  0.0562
 6959SOL    HW132513   4.592   3.022   9.189 -1.4469  1.0314 -0.3557
 6959SOL    HW232514   4.510   2.990   9.067 -2.9036  0.8013  1.7322
 6960SOL     OW32515   2.296   1.050   8.175 -0.0697 -0.2806 -0.3807
 6960SOL    HW132516   2.212   1.097   8.172 -0.2068 -0.6329 -1.9999
 6960SOL    HW232517   2.311   1.031   8.267 -3.7490 -1.6772 -0.0755
 6961SOL     OW32518   1.831   2.065  12.696  0.2965  0.3045 -0.1952
 6961SOL    HW132519   1.767   2.038  12.630  0.0643 -1.8918  0.9500
 6961SOL    HW232520   1.827   2.161  12.687  0.7338  0.2206 -1.2227
 6962SOL     OW32521   2.631   0.005  16.339  0.2052 -0.5545  0.0774
 6962SOL    HW132522   2.596   0.094  16.335 -0.4029 -0.9704 -3.1768
 6962SOL    HW232523   2.719   0.011  16.303  0.0028 -0.9558 -0.4807
 6963SOL     OW32524   1.906   2.330   7.569 -0.3313 -0.3926  0.5708
 6963SOL    HW132525   1.994   2.312   7.604 -0.3256 -0.3658  0.5697
 6963SOL    HW232526   1.905   2.264   7.499  0.3160  1.1272 -0.8764
 6964SOL     OW32527   2.777   1.618   3.278 -0.1619  0.6698 -0.0259
 6964SOL    HW132528   2.737   1.672   3.210 -0.8055  1.8502  1.2770
 6964SOL    HW232529   2.868   1.632   3.253  0.4428 -0.4079  1.5314
 6965SOL     OW32530   0.895   3.833  10.629 -0.5980  0.8357  0.4933
 6965SOL    HW132531   0.969   3.885  10.598 -0.8232  0.7025 -0.2761
 6965SOL    HW232532   0.845   3.902  10.673 -1.1436  0.6936  0.1015
 6966SOL     OW32533   4.367   1.571   7.878  0.4792 -0.0648  0.1481
 6966SOL    HW132534   4.384   1.532   7.964  0.3832 -2.2494 -0.8293
 6966SOL    HW232535   4.301   1.514   7.838 -0.2442 -0.0055  1.2605
 6967SOL     OW32536   0.685   3.248   6.859  0.2331 -0.1444 -0.2742
 6967SOL    HW132537   0.592   3.239   6.881  0.7941 -1.6428  1.4638
 6967SOL    HW232538   0.693   3.168   6.808  1.3144 -0.9402  1.1722
 6968SOL     OW32539   1.363   4.043   5.992  0.3441  0.2900 -0.0502
 6968SOL    HW132540   1.397   3.995   6.068  0.5047 -0.4286 -0.5861
 6968SOL    HW232541   1.388   4.129   6.026  0.1162  0.6075 -0.6945
 6969SOL     OW32542   2.072   1.599  17.109 -0.2384 -0.1610 -0.6387
 6969SOL    HW132543   2.167   1.591  17.102 -0.4869 -2.4703 -1.7555
 6969SOL    HW232544   2.044   1.508  17.120  0.3089 -0.0261  1.7677
 6970SOL     OW32545   2.207   0.090   4.908 -0.2339  0.4745 -0.3388
 6970SOL    HW132546   2.127   0.041   4.927 -0.5205  1.0721 -0.0218
 6970SOL    HW232547   2.176   0.145   4.837 -0.4281  2.0510  0.9704
 6971SOL     OW32548   0.231   4.447   8.481  0.6488  0.3618  0.9843
 6971SOL    HW132549   0.269   4.445   8.568 -2.8194 -3.1315  2.4768
 6971SOL    HW232550   0.160   4.385   8.499 -0.4697  1.3729  0.0988
 6972SOL     OW32551   0.571   0.839  17.630  0.2361 -0.0539  0.0936
 6972SOL    HW132552   0.660   0.823  17.598  0.2457  0.9628 -0.3859
 6972SOL    HW232553   0.551   0.927  17.598 -0.6929 -0.9845 -1.8575
 6973SOL     OW32554   0.906   2.072   4.737 -0.1119 -0.0356 -0.2301
 6973SOL    HW132555   0.954   2.108   4.663  1.9819  2.5277  2.3920
 6973SOL    HW232556   0.948   2.112   4.813  1.5391  0.0870 -1.2178
 6974SOL     OW32557   3.090   3.187   9.835 -0.0449  0.2996 -0.1062
 6974SOL    HW132558   3.122   3.197   9.745  1.5665 -0.4152  0.3882
 6974SOL    HW232559   3.063   3.095   9.830 -1.2565  0.6954 -0.8064
 6975SOL     OW32560   0.641   2.445  17.391 -0.2324  0.0051  0.2126
 6975SOL    HW132561   0.615   2.449  17.299 -2.2505  1.0858  0.8159
 6975SOL    HW232562   0.596   2.521  17.428 -1.3277  0.6871 -2.4995
 6976SOL     OW32563   1.209   3.251   5.780 -0.2175 -0.0719  0.5560
 6976SOL    HW132564   1.183   3.301   5.703 -0.2359 -0.0334  0.5870
 6976SOL    HW232565   1.195   3.313   5.852 -0.0068  1.1050 -0.4219
 6977SOL     OW32566   1.729   1.956   8.207 -0.3682 -0.2535 -0.4765
 6977SOL    HW132567   1.768   1.995   8.129 -0.0799 -0.0046 -0.2037
 6977SOL    HW232568   1.799   1.935   8.269  2.1842 -0.8694 -3.5881
 6978SOL     OW32569   2.755   4.405  16.000 -0.0447  0.2444 -0.0083
 6978SOL    HW132570   2.777   4.313  16.015 -2.2481 -0.5705 -1.6949
 6978SOL    HW232571   2.819   4.444  16.060  1.6065 -2.4863  0.0422
 6979SOL     OW32572   2.188   0.368   8.083 -0.2510  0.6258 -0.6657
 6979SOL    HW132573   2.137   0.305   8.031  0.3688  0.7692 -1.4342
 6979SOL    HW232574   2.185   0.453   8.040  2.3198  0.2090 -1.6379
 6980SOL     OW32575   1.892   2.152   6.065  0.4491  0.0253  0.0454
 6980SOL    HW132576   1.901   2.164   5.970  2.1233 -1.3318  0.0436
 6980SOL    HW232577   1.952   2.079   6.078  1.9851  1.7896  2.7813
 6981SOL     OW32578   0.597   3.242   8.459  0.3210 -0.6707 -0.4034
 6981SOL    HW132579   0.661   3.227   8.530 -0.8543  1.8014  1.1823
 6981SOL    HW232580   0.615   3.329   8.422 -2.7573  0.8925  1.7476
 6982SOL     OW32581   0.525   4.657   3.827  0.0081  0.6039  0.3681
 6982SOL    HW132582   0.430   4.654   3.812 -0.0528 -1.0838  1.0692
 6982SOL    HW232583   0.557   4.569   3.807 -0.9517 -0.0018  1.4718
 6983SOL     OW32584   4.630   2.304   5.389  0.0472 -0.5033 -0.7016
 6983SOL    HW132585   4.600   2.213   5.397  2.0179 -1.2178 -1.5281
 6983SOL    HW232586   4.705   2.295   5.448 -0.5986 -2.2522 -0.1442
 6984SOL     OW32587   1.184   2.912   7.940  0.0612  0.5522  0.0734
 6984SOL    HW132588   1.230   2.829   7.928 -2.1932 -0.6952  0.1159
 6984SOL    HW232589   1.241   2.974   7.894 -0.8626  1.9254  0.8025
 6985SOL     OW32590   0.917   3.796   3.378  0.0972  0.5418  0.4642
 6985SOL    HW132591   1.007   3.813   3.406  0.8076  0.0479 -1.4751
 6985SOL    HW232592   0.922   3.805   3.282 -1.2618  1.7320  0.5201
 6986SOL     OW32593   2.759   2.373   0.239 -0.1849 -0.1274 -0.2237
 6986SOL    HW132594   2.761   2.448   0.180  2.4797 -0.7820 -0.9673
 6986SOL    HW232595   2.799   2.413   0.316 -0.3362  1.4380 -0.9463
 6987SOL     OW32596   0.225   0.445  16.562  0.5000  0.5340  0.5295
 6987SOL    HW132597   0.157   0.484  16.616 -1.8676 -1.7632 -0.8217
 6987SOL    HW232598   0.165   0.429  16.489  2.5372  2.1626 -1.5103
 6988SOL     OW32599   0.217   4.393   1.243 -0.7614  0.9502  0.3316
 6988SOL    HW132600   0.247   4.483   1.231  1.4154  0.2229  0.3526
 6988SOL    HW232601   0.229   4.357   1.155 -0.7545  0.0260  0.7216
 6989SOL     OW32602   4.098   2.417   0.760 -0.0009 -0.0771 -0.0467
 6989SOL    HW132603   4.114   2.462   0.677 -0.2311 -0.6526 -0.3984
 6989SOL    HW232604   4.098   2.483   0.830  2.4809  0.5512 -0.6139
 6990SOL     OW32605   2.493   1.928   0.781  0.3205 -0.1606  0.1868
 6990SOL    HW132606   2.465   1.908   0.870 -2.3670  1.4230 -0.3140
 6990SOL    HW232607   2.557   1.860   0.759 -0.4511 -1.0679  0.7476
 6991SOL     OW32608   0.443   1.900   3.443 -0.2230 -0.2898  0.7322
 6991SOL    HW132609   0.421   1.937   3.357 -0.3702  3.6700  2.4828
 6991SOL    HW232610   0.366   1.925   3.494  1.1521 -0.3393  2.8297
 6992SOL     OW32611   4.329   0.960   3.619 -0.6311 -0.3393  0.3042
 6992SOL    HW132612   4.299   1.031   3.562 -1.2026  0.3136  1.4067
 6992SOL    HW232613   4.263   0.970   3.687 -0.7232 -0.9801  0.2995
 6993SOL     OW32614   2.701   2.252   2.060 -0.4434  0.3504  0.2049
 6993SOL    HW132615   2.743   2.186   2.004 -0.1055  0.2944  0.5235
 6993SOL    HW232616   2.613   2.215   2.060 -0.4486  0.3565 -0.2482
 6994SOL     OW32617   4.708   3.071   2.713 -0.7867 -0.5342  0.2436
 6994SOL    HW132618   4.700   2.994   2.656  1.1455 -0.5944  0.0474
 6994SOL    HW232619   4.732   3.024   2.794 -2.6409 -0.3151  0.9128
 6995SOL     OW32620   1.544   2.762   2.414 -0.3465 -0.1066  0.3548
 6995SOL    HW132621   1.592   2.845   2.419 -0.4888  0.0569 -0.8903
 6995SOL    HW232622   1.509   2.761   2.503 -2.5514  1.9328 -0.4862
 6996SOL     OW32623   0.929   3.179   2.125 -0.1903  0.5590 -0.2323
 6996SOL    HW132624   0.931   3.196   2.219 -1.9830 -2.0093  0.2660
 6996SOL    HW232625   1.012   3.133   2.113 -0.3015 -0.5070  3.0797
 6997SOL     OW32626   1.251   3.238  14.582  0.3998  0.0798  0.8141
 6997SOL    HW132627   1.269   3.206  14.494  0.9079  1.1644  0.5232
 6997SOL    HW232628   1.258   3.153  14.624 -1.0581  0.3842  1.6700
 6998SOL     OW32629   0.040   1.363   2.015 -0.0420 -0.2993  0.1622
 6998SOL    HW132630   0.085   1.433   1.967 -2.7801  2.2114  1.2211
 6998SOL    HW232631   0.007   1.318   1.937  1.7489  2.5277 -2.2236
 6999SOL     OW32632   1.015   3.698   6.071  0.9519  0.6305  0.0543
 6999SOL    HW132633   0.929   3.659   6.091  0.1067  1.1814 -2.5457
 6999SOL    HW232634   1.018   3.708   5.976 -0.2302  1.4897  0.1103
 7000SOL     OW32635   4.038   0.991   7.669  0.0833  0.2514 -0.2438
 7000SOL    HW132636   3.983   1.036   7.733 -0.4882 -1.0978  0.2092
 7000SOL    HW232637   4.128   0.996   7.701  0.3007  1.2093 -0.9984
 7001SOL     OW32638   4.329   3.226  13.156 -0.4520  0.0417 -0.2750
 7001SOL    HW132639   4.297   3.137  13.172  0.8684 -0.7677 -2.1171
 7001SOL    HW232640   4.259   3.275  13.114  0.3375  0.1567 -1.4615
 7002SOL     OW32641   0.211   0.236   3.637  0.5074  0.8717 -0.1748
 7002SOL    HW132642   0.258   0.309   3.595  3.7474  0.7084  3.1155
 7002SOL    HW232643   0.284   0.174   3.646  0.6635  0.9064 -1.2647
 7003SOL     OW32644   0.714   1.653   7.392 -0.3737  0.4546  0.4520
 7003SOL    HW132645   0.773   1.596   7.343  1.3007  1.2052  1.5904
 7003SOL    HW232646   0.779   1.676   7.459  0.2292 -3.1080  1.1072
 7004SOL     OW32647   2.270   1.103   9.389 -0.1531 -0.2317  0.0771
 7004SOL    HW132648   2.335   1.173   9.389  0.0512 -0.4366 -2.4971
 7004SOL    HW232649   2.186   1.140   9.417 -1.1518 -0.3333 -2.7856
 7005SOL     OW32650   4.603   1.522   9.052  0.0011 -0.2456 -0.2006
 7005SOL    HW132651   4.549   1.528   8.973  0.9804  1.9280 -0.7124
 7005SOL    HW232652   4.638   1.611   9.051 -2.9420  0.9106 -1.7289
 7006SOL     OW32653   4.620   3.339  11.353 -0.1824  0.5663 -0.0054
 7006SOL    HW132654   4.582   3.252  11.363 -1.6987  0.7989 -3.5977
 7006SOL    HW232655   4.553   3.384  11.302 -0.8011 -0.2734  0.0647
 7007SOL     OW32656   0.281   4.722   5.056  0.0129  0.4882 -0.2111
 7007SOL    HW132657   0.254   0.070   5.025 -0.3728  0.2517 -0.5472
 7007SOL    HW232658   0.376   4.733   5.056 -0.1365  1.7252  0.8304
 7008SOL     OW32659   1.367   1.770   5.629 -0.0242 -0.1741  0.5430
 7008SOL    HW132660   1.417   1.689   5.634  0.3529  0.1515  2.0678
 7008SOL    HW232661   1.443   1.827   5.617 -0.3529  0.0493 -0.4845
 7009SOL     OW32662   2.823   3.553   7.466 -0.4386  0.2508 -0.5598
 7009SOL    HW132663   2.893   3.587   7.521  0.7550  2.5092 -3.4327
 7009SOL    HW232664   2.843   3.460   7.465 -0.6242  0.2051  0.9920
 7010SOL     OW32665   2.020   0.775  17.169 -0.0666 -0.7701  0.7388
 7010SOL    HW132666   2.114   0.779  17.153  0.2411  0.7985  3.0765
 7010SOL    HW232667   2.031   0.747  17.259  0.6855  0.3722  1.0016
 7011SOL     OW32668   2.481   3.462   5.012 -0.4976 -0.2419  0.2754
 7011SOL    HW132669   2.521   3.459   4.925  0.0697  2.5122  0.4598
 7011SOL    HW232670   2.446   3.551   5.016 -0.2161 -0.0079 -2.0909
 7012SOL     OW32671   2.735   1.462  15.316  0.1808 -0.4169 -0.3096
 7012SOL    HW132672   2.766   1.475  15.405 -1.6879 -0.8850  0.4140
 7012SOL    HW232673   2.667   1.395  15.330  0.6337 -0.1783  2.8740
 7013SOL     OW32674   2.899   2.055   3.364 -0.1699  0.6179 -0.3396
 7013SOL    HW132675   2.906   2.101   3.448 -1.0935 -1.8952  1.0987
 7013SOL    HW232676   2.977   2.002   3.380  0.1542  0.9636 -0.7739
 7014SOL     OW32677   4.442   1.684   0.023  0.7992  0.2135  0.6358
 7014SOL    HW132678   4.473   1.699  17.683 -1.0956 -0.7656 -0.1916
 7014SOL    HW232679   4.466   1.592   0.031  0.5642 -0.0561 -1.5256
 7015SOL     OW32680   1.106   3.408   5.584  0.2838  0.1312 -0.1562
 7015SOL    HW132681   1.030   3.398   5.527 -0.4488 -1.5065  1.1180
 7015SOL    HW232682   1.116   3.503   5.576  0.0183  0.2643  1.1701
 7016SOL     OW32683   2.983   4.466   6.934 -0.0062 -0.1995  0.0766
 7016SOL    HW132684   2.965   4.420   7.015  1.0546 -2.1092 -0.7766
 7016SOL    HW232685   3.076   4.447   6.925 -0.2590 -0.7346 -1.4530
 7017SOL     OW32686   1.183   3.758  13.266  0.1951  0.5961  0.4810
 7017SOL    HW132687   1.183   3.835  13.323  0.0665  0.3162  0.8612
 7017SOL    HW232688   1.167   3.692  13.333 -0.0671  0.0849 -0.0820
 7018SOL     OW32689   1.080   0.630  16.659 -0.2770  0.5174  0.2813
 7018SOL    HW132690   1.121   0.716  16.672 -1.2169  1.1015 -0.6667
 7018SOL    HW232691   1.137   0.578  16.716 -0.7676  1.1463  1.3431
 7019SOL     OW32692   2.458   1.946  14.983 -0.5923 -0.3527 -0.2723
 7019SOL    HW132693   2.514   1.965  15.058 -0.8969 -2.2898  0.4400
 7019SOL    HW232694   2.372   1.937  15.024 -0.2503  4.3929  1.4790
 7020SOL     OW32695   3.734   1.086   8.635 -0.4638  0.3646  0.3125
 7020SOL    HW132696   3.685   1.018   8.588 -0.2409 -0.1188  0.7694
 7020SOL    HW232697   3.661   1.098   8.696 -1.5297  0.3083 -0.9575
 7021SOL     OW32698   4.674   1.251   6.414 -0.1265 -0.5863  0.6176
 7021SOL    HW132699   4.599   1.279   6.360  0.2518  1.7159  1.2868
 7021SOL    HW232700   4.684   1.334   6.460  1.1569  1.0385 -2.5990
 7022SOL     OW32701   1.867   2.595  13.445  0.4894  0.0314 -0.4838
 7022SOL    HW132702   1.820   2.649  13.509  1.0321  1.2859 -1.1708
 7022SOL    HW232703   1.931   2.663  13.426  4.1233 -2.8890  1.3990
 7023SOL     OW32704   0.425   4.413   5.322 -1.0310  0.1422 -0.4671
 7023SOL    HW132705   0.439   4.466   5.243  0.6156 -1.3520 -1.1854
 7023SOL    HW232706   0.486   4.341   5.303 -0.0925  1.3561 -1.9829
 7024SOL     OW32707   1.230   0.846   0.416 -0.0513 -0.0210  0.7742
 7024SOL    HW132708   1.248   0.934   0.381 -1.4800 -0.2807 -0.5870
 7024SOL    HW232709   1.319   0.812   0.424 -0.0243 -0.2626 -0.5703
 7025SOL     OW32710   0.305   1.430   4.789 -0.0606 -0.6737  0.4466
 7025SOL    HW132711   0.304   1.406   4.696  1.0839  3.2442 -0.5772
 7025SOL    HW232712   0.330   1.522   4.781  0.9100 -0.7591  2.4149
 7026SOL     OW32713   4.202   0.597   2.076  0.1004 -0.3403 -0.2602
 7026SOL    HW132714   4.164   0.653   2.144 -1.3027  0.8208 -1.9915
 7026SOL    HW232715   4.197   0.511   2.117  0.9572 -0.0231  0.4960
 7027SOL     OW32716   3.768   3.039   5.147  0.3637 -0.0533 -0.1519
 7027SOL    HW132717   3.845   3.070   5.195  0.1788  0.0215  0.0966
 7027SOL    HW232718   3.724   3.124   5.137  5.0564  2.4704  0.4597
 7028SOL     OW32719   0.713   3.664   6.082  0.0163 -0.1122 -0.3013
 7028SOL    HW132720   0.740   3.587   6.133 -0.2607 -0.1264 -0.1789
 7028SOL    HW232721   0.620   3.673   6.102  0.3463 -0.4804  1.3300
 7029SOL     OW32722   0.600   3.692   7.015 -0.2442  0.1923 -0.3952
 7029SOL    HW132723   0.515   3.735   7.029 -0.6139  0.2441 -2.8672
 7029SOL    HW232724   0.624   3.709   6.924  1.2010 -3.2291 -0.6392
 7030SOL     OW32725   1.595   1.331  12.455  0.2157  0.2165  0.1011
 7030SOL    HW132726   1.685   1.324  12.422  1.1665 -1.7545  3.1774
 7030SOL    HW232727   1.550   1.290  12.381 -1.6307 -0.9879  1.9135
 7031SOL     OW32728   1.031   1.283   7.559 -0.0287 -0.3050  0.6967
 7031SOL    HW132729   0.980   1.354   7.599  0.3336  0.7345 -0.6933
 7031SOL    HW232730   1.061   1.229   7.632  1.3944  1.7257  1.6060
 7032SOL     OW32731   0.611   4.593   3.416  0.3017 -0.4445 -0.4188
 7032SOL    HW132732   0.655   4.626   3.494 -0.6942 -1.0469  0.3870
 7032SOL    HW232733   0.598   4.500   3.434 -1.1173 -0.4998 -1.6635
 7033SOL     OW32734   4.251   2.188   2.147  0.6426  0.2915  0.0778
 7033SOL    HW132735   4.293   2.181   2.061 -0.4600  0.3064 -0.4617
 7033SOL    HW232736   4.166   2.199   2.104  0.7572 -1.2738 -0.5349
 7034SOL     OW32737   4.280   0.969  14.568  0.7318  0.3236  0.1882
 7034SOL    HW132738   4.275   1.031  14.640  0.0989 -0.3523  0.7337
 7034SOL    HW232739   4.189   0.943  14.555  0.1235  3.4810 -1.9377
 7035SOL     OW32740   1.199   1.413   2.644 -0.1011  0.0227  0.6354
 7035SOL    HW132741   1.160   1.326   2.639  0.2113  0.0464 -2.5689
 7035SOL    HW232742   1.239   1.413   2.731  3.1855 -1.8446 -0.8552
 7036SOL     OW32743   3.967   3.313  10.959 -0.3572  0.0847  0.7707
 7036SOL    HW132744   3.934   3.401  10.976 -1.3715 -0.1123 -0.1190
 7036SOL    HW232745   3.894   3.280  10.906 -0.0417  2.3904 -1.1095
 7037SOL     OW32746   4.510   1.714   6.459 -0.5782 -0.6724 -0.0182
 7037SOL    HW132747   4.462   1.727   6.540 -0.9935  0.0898 -0.3900
 7037SOL    HW232748   4.514   1.797   6.412  0.7507  0.6979  2.5271
 7038SOL     OW32749   4.580   1.546   4.103 -0.8660  0.2876  0.4266
 7038SOL    HW132750   4.605   1.454   4.114 -0.4590  0.0410 -2.6171
 7038SOL    HW232751   4.527   1.548   4.183  0.0684 -1.7101  1.0931
 7039SOL     OW32752   2.797   3.356   5.911 -0.6366 -0.2054  0.3093
 7039SOL    HW132753   2.832   3.283   5.962  0.6024  0.5019  0.4791
 7039SOL    HW232754   2.838   3.433   5.952  0.6937 -2.0868  2.5284
 7040SOL     OW32755   2.398   3.373   4.156  0.1168 -0.2946  0.1059
 7040SOL    HW132756   2.378   3.286   4.191 -1.8560 -0.5125 -1.5929
 7040SOL    HW232757   2.491   3.368   4.138 -0.1642 -2.0921 -0.8158
 7041SOL     OW32758   0.932   0.547   5.605  0.2381 -0.3435 -0.8216
 7041SOL    HW132759   0.999   0.484   5.579  1.0346  1.1682 -2.3881
 7041SOL    HW232760   0.893   0.518   5.688 -0.9621 -2.4542 -2.1316
 7042SOL     OW32761   3.097   0.262  14.960 -0.6278  0.2756  0.6392
 7042SOL    HW132762   3.151   0.230  14.887 -0.7370  0.7762  0.3414
 7042SOL    HW232763   3.168   0.292  15.018 -0.8483  1.5062  0.2619
 7043SOL     OW32764   4.737   3.913  15.045 -0.2642 -0.5260 -0.1434
 7043SOL    HW132765   0.012   3.992  15.098 -2.2237 -1.0073  1.0573
 7043SOL    HW232766   4.722   3.949  14.957  0.3671  1.5609  0.6108
 7044SOL     OW32767   3.726   4.673   6.610  0.5270 -0.6296 -0.2655
 7044SOL    HW132768   3.755   4.633   6.692 -0.6424  0.1977  0.5678
 7044SOL    HW232769   3.808   4.658   6.563 -0.2270 -1.7442 -1.2146
 7045SOL     OW32770   3.711   4.429   6.347  0.5980 -0.1292 -0.0113
 7045SOL    HW132771   3.666   4.457   6.267 -0.6108  1.5753  1.2642
 7045SOL    HW232772   3.685   4.491   6.414 -2.0233 -0.8517 -0.3640
 7046SOL     OW32773   4.170   0.714  14.354  0.3042 -0.2927  0.5402
 7046SOL    HW132774   4.101   0.654  14.383 -1.2604  2.1151  1.7770
 7046SOL    HW232775   4.135   0.795  14.392 -0.1761 -1.1746  1.9712
 7047SOL     OW32776   1.908   1.369  17.060 -0.1770 -0.0378  0.1286
 7047SOL    HW132777   1.869   1.301  17.114  1.1767  0.0936  1.2734
 7047SOL    HW232778   1.841   1.435  17.077 -0.8427  0.2338 -3.6216
 7048SOL     OW32779   1.084   0.689   4.326  0.2516  0.4426  0.2831
 7048SOL    HW132780   1.041   0.697   4.240 -1.2223 -0.9632  0.8847
 7048SOL    HW232781   1.162   0.641   4.299 -1.8227 -2.3768 -0.7011
 7049SOL     OW32782   1.025   0.536   6.918  0.2166 -0.5505 -0.3243
 7049SOL    HW132783   1.012   0.513   7.010 -1.2573 -2.2929 -0.9755
 7049SOL    HW232784   1.020   0.449   6.878 -0.4940 -0.5058 -0.3285
 7050SOL     OW32785   2.240   3.946   6.785  0.1722 -0.6011 -0.0575
 7050SOL    HW132786   2.204   4.026   6.824 -1.5160 -1.3248 -0.1004
 7050SOL    HW232787   2.197   3.879   6.838  0.5497  1.7325  3.1988
 7051SOL     OW32788   4.347   0.574   7.353  0.3712 -0.2148 -0.7502
 7051SOL    HW132789   4.271   0.539   7.401  0.3535  0.0901 -0.5528
 7051SOL    HW232790   4.417   0.522   7.392  1.3927  0.6147 -1.5138
 7052SOL     OW32791   0.872   0.253   8.089  0.0139  0.2157  0.1595
 7052SOL    HW132792   0.880   0.243   8.184 -2.0632 -1.9985  0.0871
 7052SOL    HW232793   0.851   0.346   8.086  0.4898  0.2978 -0.5289
 7053SOL     OW32794   4.661   4.010   6.383  0.0598  0.0606 -0.6140
 7053SOL    HW132795   4.665   4.022   6.478  0.9308 -2.7330 -0.2884
 7053SOL    HW232796   4.718   4.083   6.358  1.8696 -1.7317 -1.7103
 7054SOL     OW32797   3.831   3.742   2.042  0.7615  0.0198 -0.4762
 7054SOL    HW132798   3.839   3.648   2.054  0.7587  0.0389 -0.3168
 7054SOL    HW232799   3.758   3.766   2.101 -0.6923 -0.7358 -1.9849
 7055SOL     OW32800   2.278   3.148  14.230 -0.0250 -0.0046  0.7028
 7055SOL    HW132801   2.348   3.091  14.262  0.5699 -0.0177 -0.6204
 7055SOL    HW232802   2.214   3.147  14.301  0.4996 -0.8512  1.1735
 7056SOL     OW32803   2.721   4.021   4.891  0.6700 -0.3163  0.3523
 7056SOL    HW132804   2.644   3.982   4.850  1.0708 -1.6614  0.8541
 7056SOL    HW232805   2.682   4.100   4.927 -1.1238 -1.0470  0.0091
 7057SOL     OW32806   4.119   1.774   8.367  0.0734  0.0519  0.0948
 7057SOL    HW132807   4.153   1.758   8.279 -0.8443  0.2967 -0.3019
 7057SOL    HW232808   4.199   1.751   8.415  0.7389 -2.9775 -2.4293
 7058SOL     OW32809   1.800   3.883   5.492 -0.4858 -0.1745  0.1020
 7058SOL    HW132810   1.755   3.825   5.554  2.0503 -0.8086  1.3458
 7058SOL    HW232811   1.731   3.889   5.426 -0.6826  0.2548  0.3444
 7059SOL     OW32812   1.840   3.584   9.932 -0.1781 -0.8777 -0.4942
 7059SOL    HW132813   1.906   3.610   9.997 -0.3929 -1.7654  0.0767
 7059SOL    HW232814   1.771   3.647   9.952  1.3546  1.4397 -2.4814
 7060SOL     OW32815   4.389   3.681  10.199  0.3572  0.1573 -0.1767
 7060SOL    HW132816   4.321   3.640  10.146  1.1147  0.4244 -1.3707
 7060SOL    HW232817   4.341   3.743  10.254 -0.9819 -0.1126 -1.0471
 7061SOL     OW32818   1.190   4.063   5.767  0.0609 -0.3471 -0.0602
 7061SOL    HW132819   1.214   4.047   5.859 -1.0252 -3.1537 -0.2757
 7061SOL    HW232820   1.224   3.980   5.734  0.9831 -0.5563  1.4250
 7062SOL     OW32821   1.455   2.135   9.483  0.3048  0.3241  0.3985
 7062SOL    HW132822   1.465   2.148   9.578 -2.0439 -1.5732  0.9004
 7062SOL    HW232823   1.379   2.192   9.472 -1.0022 -1.5096  0.1007
 7063SOL     OW32824   2.646   1.190   4.056 -0.5522  0.2935 -0.0672
 7063SOL    HW132825   2.608   1.103   4.070 -0.6928  0.4330  0.4476
 7063SOL    HW232826   2.565   1.240   4.058  0.5227  2.0188  0.1419
 7064SOL     OW32827   2.912   0.823   7.537 -0.7647  0.0434  0.4069
 7064SOL    HW132828   2.963   0.842   7.458 -1.8058 -1.3035 -0.5928
 7064SOL    HW232829   2.846   0.762   7.504 -2.1886  0.8863  1.6893
 7065SOL     OW32830   0.170   4.367   6.341 -0.2759 -0.0741 -0.2437
 7065SOL    HW132831   0.165   4.366   6.436  0.3119 -2.3717 -0.2360
 7065SOL    HW232832   0.082   4.375   6.303 -0.8273 -1.3278  0.7615
 7066SOL     OW32833   4.055   4.036   8.311 -0.4229  0.3792  0.5472
 7066SOL    HW132834   4.013   3.981   8.377  1.1036 -2.8397 -1.1685
 7066SOL    HW232835   4.149   4.040   8.329 -0.1821  2.0569 -1.1307
 7067SOL     OW32836   3.124   3.083   7.910  0.5168 -0.0621 -0.1475
 7067SOL    HW132837   3.173   3.031   7.973  2.5025  0.2455 -1.4517
 7067SOL    HW232838   3.191   3.100   7.843  1.6188 -0.0437  0.9643
 7068SOL     OW32839   3.147   1.174  13.942 -0.4387 -0.2299 -0.7047
 7068SOL    HW132840   3.182   1.253  13.902  1.4281  0.0985  1.6062
 7068SOL    HW232841   3.127   1.214  14.026 -1.4431 -0.5765 -0.7713
 7069SOL     OW32842   3.374   0.749   9.529  0.2890  0.0177 -0.5666
 7069SOL    HW132843   3.468   0.749   9.512 -0.0101 -0.8346 -2.1521
 7069SOL    HW232844   3.343   0.725   9.442  0.5643  0.9368 -0.9146
 7070SOL     OW32845   4.074   1.598   2.225  0.5708 -0.1390  0.3897
 7070SOL    HW132846   4.014   1.539   2.271 -1.8309 -0.3999 -3.1013
 7070SOL    HW232847   4.149   1.590   2.283  0.8238  1.0903  0.2287
 7071SOL     OW32848   2.650   2.788   6.966 -0.4419  0.0849  0.5196
 7071SOL    HW132849   2.580   2.845   6.936  2.6638  2.7637 -1.6288
 7071SOL    HW232850   2.717   2.809   6.901  0.3428  1.0065  1.6155
 7072SOL     OW32851   2.415   3.190  13.726  0.5738 -0.3151 -0.2287
 7072SOL    HW132852   2.475   3.182  13.799  2.3489  1.3471 -1.5227
 7072SOL    HW232853   2.385   3.280  13.733  2.4334  0.0678  2.4502
 7073SOL     OW32854   3.710   2.340   1.793 -0.3400 -0.2472 -0.0954
 7073SOL    HW132855   3.763   2.398   1.847  1.5565  0.8931 -3.1960
 7073SOL    HW232856   3.724   2.383   1.708  0.4123 -1.1155 -0.4175
 7074SOL     OW32857   3.623   2.295   9.319 -0.1336  0.7802  0.0202
 7074SOL    HW132858   3.709   2.333   9.301 -0.5152  1.6203 -0.0519
 7074SOL    HW232859   3.568   2.333   9.251 -0.6687 -0.8364 -0.4423
 7075SOL     OW32860   3.290   1.898   8.209 -0.7746 -0.2818  0.7010
 7075SOL    HW132861   3.205   1.941   8.214  0.0508  1.7318 -2.7648
 7075SOL    HW232862   3.352   1.970   8.199  1.4999 -2.6917 -2.6688
 7076SOL     OW32863   4.566   0.771   5.482  0.6045  0.0249 -0.5777
 7076SOL    HW132864   4.617   0.733   5.553  1.8197  0.9749 -0.9301
 7076SOL    HW232865   4.490   0.714   5.493  0.4990  0.0288 -1.2930
 7077SOL     OW32866   3.535   3.274   3.156  0.3736  0.1799 -0.5852
 7077SOL    HW132867   3.472   3.346   3.147 -0.7427 -0.9037 -1.5361
 7077SOL    HW232868   3.524   3.256   3.249  1.4542 -0.0035 -0.4988
 7078SOL     OW32869   3.815   3.671  11.421  0.1432  0.1952 -0.2213
 7078SOL    HW132870   3.731   3.712  11.441 -0.2854 -0.0857 -1.4031
 7078SOL    HW232871   3.848   3.723  11.347 -1.5646  0.4342 -0.8125
 7079SOL     OW32872   1.992   4.473   9.400  0.4962 -0.2287 -0.0358
 7079SOL    HW132873   1.951   4.558   9.381 -0.9067 -0.7721  0.5904
 7079SOL    HW232874   2.007   4.470   9.495  2.3802 -1.3845 -0.3726
 7080SOL     OW32875   4.122   0.601   9.936 -0.7006  1.0904 -0.0789
 7080SOL    HW132876   4.180   0.670   9.903  1.8052 -0.7653  0.4883
 7080SOL    HW232877   4.109   0.633  10.025  1.0771 -1.1321  0.9799
 7081SOL     OW32878   3.620   0.512  15.473 -0.0494  0.0031  0.2514
 7081SOL    HW132879   3.692   0.471  15.425 -0.2989 -2.9869  2.4474
 7081SOL    HW232880   3.671   0.559  15.539  1.6029 -0.3106 -0.7853
 7082SOL     OW32881   3.061   0.338   0.439 -0.5559  0.7449  0.3080
 7082SOL    HW132882   2.999   0.265   0.441  0.2227  0.0690 -0.2861
 7082SOL    HW232883   3.033   0.380   0.358 -0.2133 -0.1162 -0.2566
 7083SOL     OW32884   3.779   4.726   5.022  0.4517  0.4932 -0.0873
 7083SOL    HW132885   3.736   4.665   5.082  0.6092  1.7281  1.2818
 7083SOL    HW232886   3.852   0.025   5.071  1.6424 -1.4971 -0.3566
 7084SOL     OW32887   1.183   0.076  14.932 -0.1090 -0.3893  0.6373
 7084SOL    HW132888   1.096   0.051  14.900  0.5919 -1.6790 -0.2573
 7084SOL    HW232889   1.240   0.073  14.854  1.4398 -0.9431  1.7913
 7085SOL     OW32890   2.283   4.424   2.584  0.8306 -0.1416  0.4542
 7085SOL    HW132891   2.240   4.377   2.512 -0.4395  0.2872  0.9398
 7085SOL    HW232892   2.370   4.435   2.545  1.8195  0.9162  2.9407
 7086SOL     OW32893   4.292   2.661   2.371 -0.1322 -0.8561  0.0635
 7086SOL    HW132894   4.233   2.593   2.340 -0.8674  0.9386 -2.4289
 7086SOL    HW232895   4.347   2.661   2.293  1.5907  0.8672  1.2708
 7087SOL     OW32896   4.126   3.411   2.038 -0.4945 -0.5868  0.0516
 7087SOL    HW132897   4.159   3.344   1.978 -0.4274  0.5699 -1.2314
 7087SOL    HW232898   4.204   3.455   2.070 -1.5043 -0.3437  2.2097
 7088SOL     OW32899   3.530   3.595   8.339 -0.1430  0.0391 -0.2807
 7088SOL    HW132900   3.555   3.533   8.270 -1.5706  0.3093 -1.0548
 7088SOL    HW232901   3.577   3.672   8.307 -2.0466  1.7026  0.9621
 7089SOL     OW32902   0.949   2.749   8.641 -0.2028 -0.1495 -0.0713
 7089SOL    HW132903   0.883   2.800   8.594 -1.2450 -1.6174 -0.2094
 7089SOL    HW232904   1.011   2.819   8.658  0.7052 -1.3079  1.4384
 7090SOL     OW32905   2.856   1.150   8.730 -0.6794  0.0822  0.7023
 7090SOL    HW132906   2.765   1.125   8.716 -0.5267  0.3572 -0.8099
 7090SOL    HW232907   2.894   1.074   8.774  1.8461  0.4053 -0.8515
 7091SOL     OW32908   2.544   3.169  13.981  0.5604  0.2668 -0.2143
 7091SOL    HW132909   2.498   3.087  14.002  0.4494  0.5823  0.7998
 7091SOL    HW232910   2.634   3.138  13.983  0.4650  0.0811  1.3036
 7092SOL     OW32911   4.543   2.162   6.958 -0.6035 -0.2054  0.4886
 7092SOL    HW132912   4.554   2.114   6.876 -2.3504 -0.6422  0.4987
 7092SOL    HW232913   4.619   2.219   6.968 -0.3870 -0.4894  0.4546
 7093SOL     OW32914   4.178   2.106   3.517  0.0457  0.3806  0.0958
 7093SOL    HW132915   4.118   2.056   3.462 -0.0429  2.5477 -1.7987
 7093SOL    HW232916   4.260   2.121   3.469  0.1244 -0.2085  0.0471
 7094SOL     OW32917   1.367   0.625   8.233  0.1418  0.3530  0.2346
 7094SOL    HW132918   1.319   0.626   8.150  0.6887 -1.8044 -0.1170
 7094SOL    HW232919   1.383   0.718   8.248  1.2586  0.4354 -1.4628
 7095SOL     OW32920   2.307   0.752   3.482 -0.0604  0.3002  0.2482
 7095SOL    HW132921   2.234   0.690   3.495  0.4235 -0.0691  1.2434
 7095SOL    HW232922   2.252   0.828   3.465 -0.2000 -0.3753 -2.3581
 7096SOL     OW32923   3.636   3.508  17.622 -0.1849  0.4734  0.5616
 7096SOL    HW132924   3.624   3.503  17.717  1.2462 -1.5725  0.6391
 7096SOL    HW232925   3.681   3.424  17.615 -0.1095  0.6465 -0.8751
 7097SOL     OW32926   4.031   4.610   7.778 -0.4773 -0.3809 -0.2042
 7097SOL    HW132927   3.988   4.547   7.835 -0.5531 -1.0190 -0.9665
 7097SOL    HW232928   3.953   4.662   7.763 -0.1385  0.3154  0.4109
 7098SOL     OW32929   3.026   3.044   8.542 -0.2844 -0.0293 -0.6263
 7098SOL    HW132930   3.107   3.011   8.503 -0.7612 -1.5930 -0.2814
 7098SOL    HW232931   3.001   2.991   8.618 -0.2077  0.5065 -0.2265
 7099SOL     OW32932   0.740   3.134  10.647 -0.2579  0.0569 -0.5024
 7099SOL    HW132933   0.732   3.085  10.729 -1.5931 -0.8734 -1.1839
 7099SOL    HW232934   0.745   3.066  10.579 -1.5724  0.6090 -1.1562
 7100SOL     OW32935   2.904   4.428   1.678  0.7489  0.1571 -0.1855
 7100SOL    HW132936   2.849   4.493   1.634  1.4347  1.3168  0.6595
 7100SOL    HW232937   2.835   4.366   1.704  0.7166 -0.0111 -0.6767
 7101SOL     OW32938   4.044   1.047   1.874  0.5668 -0.0030 -0.1958
 7101SOL    HW132939   4.088   1.019   1.794  2.9447  0.6527  0.8840
 7101SOL    HW232940   4.025   0.963   1.915 -1.8372  0.1179 -1.0272
 7102SOL     OW32941   0.337   1.536  12.543 -0.4563  0.6412 -0.2516
 7102SOL    HW132942   0.341   1.441  12.541  0.8541  0.7700 -3.8170
 7102SOL    HW232943   0.283   1.550  12.621  1.9965 -1.5862  1.8592
 7103SOL     OW32944   1.634   2.352   8.048  0.5146  0.0398 -0.7292
 7103SOL    HW132945   1.671   2.358   7.960  2.3947  0.9790  0.1232
 7103SOL    HW232946   1.560   2.412   8.037 -0.3139 -1.0752 -1.2132
 7104SOL     OW32947   3.679   4.319   2.786  0.3238 -0.0966  0.1162
 7104SOL    HW132948   3.606   4.340   2.845 -0.5100 -1.3675 -0.4580
 7104SOL    HW232949   3.683   4.224   2.784  1.1526 -0.0408 -0.7366
 7105SOL     OW32950   3.432   3.143   5.968 -0.0421  0.1515 -0.3506
 7105SOL    HW132951   3.464   3.233   5.967 -1.8975  0.8261  0.1017
 7105SOL    HW232952   3.507   3.092   5.939 -1.2919 -2.2099  0.5633
 7106SOL     OW32953   4.025   1.578   9.718  0.3460  0.2504  0.1318
 7106SOL    HW132954   3.932   1.577   9.740  0.3838 -1.7983  0.2192
 7106SOL    HW232955   4.018   1.631   9.639 -1.1144 -1.9653 -1.2332
 7107SOL     OW32956   0.134   1.762   2.939 -0.1879 -0.3126  0.0095
 7107SOL    HW132957   0.101   1.839   2.985  1.6400  0.4670  0.0188
 7107SOL    HW232958   0.158   1.809   2.859  0.3729 -2.2666 -0.9935
 7108SOL     OW32959   4.665   4.509   3.693 -0.2264  0.1181  0.3852
 7108SOL    HW132960   4.659   4.604   3.696  0.5787  0.1300  1.4906
 7108SOL    HW232961   4.732   4.495   3.760  0.4719 -2.4517 -0.8552
 7109SOL     OW32962   2.156   4.166   1.624 -0.6472 -0.0728 -0.2957
 7109SOL    HW132963   2.140   4.211   1.707 -1.5409 -0.6850 -0.1414
 7109SOL    HW232964   2.144   4.073   1.644 -0.1031 -0.1566 -0.3743
 7110SOL     OW32965   2.341   1.614   6.383  0.0824 -0.1612 -0.3058
 7110SOL    HW132966   2.366   1.550   6.450  0.0661 -0.1458 -0.2851
 7110SOL    HW232967   2.373   1.693   6.426 -2.1290 -0.1749  1.3775
 7111SOL     OW32968   3.997   3.143  17.460  0.2969 -0.1035 -0.3128
 7111SOL    HW132969   3.913   3.130  17.415  0.0373 -0.2927  0.2392
 7111SOL    HW232970   3.983   3.234  17.485 -1.6680 -0.6899  0.6658
 7112SOL     OW32971   0.987   1.179   6.097 -0.1485  0.2389 -0.5369
 7112SOL    HW132972   1.072   1.208   6.064 -0.0947 -0.1718 -0.7612
 7112SOL    HW232973   0.996   1.203   6.189 -2.3983 -1.4573  0.1204
 7113SOL     OW32974   2.622   4.735   7.272 -0.4249 -0.2622  0.4130
 7113SOL    HW132975   2.608   4.667   7.338 -2.2438  0.3731  0.6764
 7113SOL    HW232976   2.601   0.077   7.321  2.4313 -0.2545  1.6404
 7114SOL     OW32977   2.954   3.694   4.611 -0.2930  0.3929 -0.4376
 7114SOL    HW132978   2.881   3.638   4.586  1.1938 -0.8489 -2.0024
 7114SOL    HW232979   2.947   3.767   4.550  2.3595 -1.7822 -3.3412
 7115SOL     OW32980   2.858   4.611   7.323  0.0271 -0.4694 -0.4060
 7115SOL    HW132981   2.850   4.611   7.418  1.4404  0.5287 -0.2783
 7115SOL    HW232982   2.798   4.675   7.285 -1.5273 -2.3084 -1.0563
 7116SOL     OW32983   1.499   0.819   0.386  0.0390 -0.2917  0.2558
 7116SOL    HW132984   1.578   0.820   0.441  0.1333 -2.4727  0.1979
 7116SOL    HW232985   1.538   0.765   0.316  1.0875  1.4413 -0.4958
 7117SOL     OW32986   3.351   2.657   7.301 -0.3411 -0.1732 -1.1219
 7117SOL    HW132987   3.274   2.600   7.307 -1.0044  0.8231  0.0726
 7117SOL    HW232988   3.420   2.591   7.307 -0.7884 -0.5355  0.0762
 7118SOL     OW32989   3.156   2.321   9.539  0.6006  0.6312 -0.4808
 7118SOL    HW132990   3.244   2.329   9.575  0.8113 -0.5857 -0.7050
 7118SOL    HW232991   3.110   2.398   9.571 -1.6111 -1.3004  1.0438
 7119SOL     OW32992   2.360   3.334   7.071  0.1214 -0.1853  0.0174
 7119SOL    HW132993   2.279   3.372   7.104  0.8726  0.3613  1.2364
 7119SOL    HW232994   2.423   3.391   7.114  1.9504 -0.0647 -2.8075
 7120SOL     OW32995   2.357   2.803   7.475 -0.3280 -1.1453  0.7458
 7120SOL    HW132996   2.436   2.756   7.448 -0.4425 -1.6940  1.3678
 7120SOL    HW232997   2.288   2.742   7.453 -0.0264 -0.9845 -0.6720
 7121SOL     OW32998   0.842   1.468   5.706  0.0475 -0.0164 -0.0246
 7121SOL    HW132999   0.862   1.374   5.698  1.8967  0.3110  0.6911
 7121SOL    HW233000   0.749   1.475   5.725 -0.1430  0.3667 -1.1092
 7122SOL     OW33001   3.073   1.712   7.952 -0.5663  0.0462  0.1104
 7122SOL    HW133002   3.010   1.662   8.004  1.1115 -1.7678  0.3992
 7122SOL    HW233003   3.157   1.674   7.978 -0.8677 -1.4980 -1.1349
 7123SOL     OW33004   2.602   2.274  11.543  0.0790 -0.3869  0.2337
 7123SOL    HW133005   2.553   2.199  11.510  0.0090 -0.5714  0.7583
 7123SOL    HW233006   2.639   2.247  11.627  1.3047 -0.0463 -0.1971
 7124SOL     OW33007   1.569   4.528   8.828 -0.7630  0.5902  0.0361
 7124SOL    HW133008   1.617   4.584   8.767 -0.7015 -0.4406 -0.8662
 7124SOL    HW233009   1.539   4.462   8.766 -0.2017 -0.1606  0.5548
 7125SOL     OW33010   0.904   2.981   6.294 -0.5054 -0.4685 -1.1001
 7125SOL    HW133011   0.994   2.979   6.264 -0.3105 -0.5486 -0.5066
 7125SOL    HW233012   0.907   2.974   6.389 -0.7072 -1.4263 -1.1649
 7126SOL     OW33013   4.281   2.344   8.598 -0.1292 -0.0792 -0.4793
 7126SOL    HW133014   4.246   2.425   8.559 -0.7285 -0.4699 -0.7513
 7126SOL    HW233015   4.222   2.286   8.550 -0.5094 -0.7960  0.8640
 7127SOL     OW33016   3.649   4.418   7.614  0.5714 -0.4214  0.6005
 7127SOL    HW133017   3.723   4.463   7.573  0.0996 -0.2274 -0.0370
 7127SOL    HW233018   3.646   4.460   7.700  0.4261 -0.4310  0.5998
 7128SOL     OW33019   4.570   0.640   8.877  0.1093  0.1959 -0.1949
 7128SOL    HW133020   4.638   0.587   8.919  0.4442 -0.6925 -1.8931
 7128SOL    HW233021   4.499   0.576   8.882  0.9677 -0.7979 -0.9772
 7129SOL     OW33022   2.017   3.012   7.900  0.2299 -0.4199 -0.1791
 7129SOL    HW133023   2.060   2.961   7.831  1.3279 -1.1531  1.0467
 7129SOL    HW233024   2.056   2.988   7.984 -0.4137 -0.5739  0.0795
 7130SOL     OW33025   3.587   3.407   5.578 -0.0252 -0.5805 -0.0458
 7130SOL    HW133026   3.503   3.446   5.555  0.5479  0.7303  0.0961
 7130SOL    HW233027   3.654   3.471   5.556  0.4913 -0.8396  0.8068
 7131SOL     OW33028   4.177   1.978   6.709 -0.0945  0.4839 -0.0341
 7131SOL    HW133029   4.213   2.000   6.795 -0.5987 -0.7371  0.4890
 7131SOL    HW233030   4.096   2.030   6.703 -0.2189  0.0972 -1.4854
 7132SOL     OW33031   4.048   3.240  12.146 -0.6134  0.1613 -0.0080
 7132SOL    HW133032   3.983   3.178  12.179  3.3995 -3.9519  0.2411
 7132SOL    HW233033   4.127   3.192  12.171  0.0905 -0.2292 -2.9772
 7133SOL     OW33034   0.208   0.418  11.253  0.2769 -0.0576 -0.2909
 7133SOL    HW133035   0.173   0.329  11.245 -0.6171  0.2188  0.5525
 7133SOL    HW233036   0.186   0.463  11.171 -1.1521 -0.3860 -0.1009
 7134SOL     OW33037   1.549   2.486   4.474  0.4801 -0.4449 -0.0286
 7134SOL    HW133038   1.574   2.553   4.538  2.0016 -0.9660 -0.0706
 7134SOL    HW233039   1.603   2.413   4.502 -0.6136 -2.0892 -2.2055
 7135SOL     OW33040   4.680   2.687   3.038  0.9058  0.2544  0.2446
 7135SOL    HW133041   4.606   2.704   2.979 -0.6937 -1.0179  1.8628
 7135SOL    HW233042   4.683   2.591   3.037  2.2300  0.2969  0.6540
 7136SOL     OW33043   2.639   4.260  11.587 -0.3189 -0.6124  0.1096
 7136SOL    HW133044   2.677   4.347  11.592 -2.2604  0.2185  0.2644
 7136SOL    HW233045   2.721   4.210  11.581 -0.9014 -1.3817 -1.3737
 7137SOL     OW33046   1.331   3.591  14.061 -0.7445  0.2031 -0.2075
 7137SOL    HW133047   1.350   3.533  13.987 -2.6362 -1.3922  0.5317
 7137SOL    HW233048   1.370   3.534  14.127  1.6929  1.1700 -0.8374
 7138SOL     OW33049   0.889   4.181  15.537  0.1692  0.2306 -0.1801
 7138SOL    HW133050   0.823   4.114  15.558  1.0740 -1.0374 -1.4025
 7138SOL    HW233051   0.897   4.170  15.442  0.5999  1.6281 -0.3095
 7139SOL     OW33052   2.865   0.895   2.913 -0.2833 -0.3685  0.2686
 7139SOL    HW133053   2.924   0.880   2.840 -1.9213 -0.8669 -0.9564
 7139SOL    HW233054   2.919   0.952   2.968 -0.6659 -0.4420  0.7248
 7140SOL     OW33055   1.330   0.382   1.193 -1.1395  0.6533 -0.0118
 7140SOL    HW133056   1.339   0.293   1.226 -1.1106  1.2463  1.5993
 7140SOL    HW233057   1.341   0.426   1.278  3.6297 -1.3302  0.4013
 7141SOL     OW33058   3.571   0.904   0.703  0.4620 -0.0055 -0.0131
 7141SOL    HW133059   3.581   0.948   0.618 -1.5213 -0.0477 -0.2713
 7141SOL    HW233060   3.508   0.835   0.681 -0.3394  0.0564  2.0681
 7142SOL     OW33061   1.178   1.306  17.013 -0.0732 -0.2820  0.1841
 7142SOL    HW133062   1.213   1.372  17.072  0.8404  0.4736 -1.1988
 7142SOL    HW233063   1.256   1.300  16.958  0.3850 -1.6614  0.9916
 7143SOL     OW33064   1.422   4.385   7.775  0.2018  0.3360  0.4126
 7143SOL    HW133065   1.336   4.426   7.785  0.1330 -0.2138  2.1563
 7143SOL    HW233066   1.483   4.455   7.797 -0.3635  1.8605 -2.9191
 7144SOL     OW33067   0.812   3.251   7.823  0.0390 -0.1452 -0.3937
 7144SOL    HW133068   0.759   3.269   7.901  0.4688  0.8585 -0.3228
 7144SOL    HW233069   0.773   3.182   7.770 -2.7717 -0.3017  1.8977
 7145SOL     OW33070   1.047   3.396  14.476 -0.3375  0.1970  0.2733
 7145SOL    HW133071   0.994   3.317  14.466  2.6548 -1.7880  0.0615
 7145SOL    HW233072   1.124   3.364  14.523  1.2498  2.6291 -0.7083
 7146SOL     OW33073   2.903   4.384  11.813  0.0735 -0.3208  0.3526
 7146SOL    HW133074   2.885   4.321  11.743  3.0685 -0.1145 -0.5897
 7146SOL    HW233075   2.990   4.413  11.787 -0.5782  1.2724 -0.1033
 7147SOL     OW33076   1.529   4.666   3.650  0.2586  0.3747  0.3155
 7147SOL    HW133077   1.526   4.575   3.620 -1.2221  0.0196  1.5389
 7147SOL    HW233078   1.460   4.658   3.715  0.2784  1.2195  0.4450
 7148SOL     OW33079   2.343   0.148  14.861  0.9407  0.5297  0.4731
 7148SOL    HW133080   2.423   0.199  14.871  0.8574  0.7327  0.0886
 7148SOL    HW233081   2.334   0.152  14.766  0.4147  0.8301  0.5305
 7149SOL     OW33082   1.570   4.299  13.279  0.7843 -0.3500  0.3925
 7149SOL    HW133083   1.655   4.269  13.312 -0.1666 -0.2831  2.9020
 7149SOL    HW233084   1.510   4.226  13.296  0.0215 -0.0774 -1.1657
 7150SOL     OW33085   3.939   0.969   4.924  0.0420 -0.0892 -0.2049
 7150SOL    HW133086   3.993   0.893   4.948 -2.0236 -2.0098 -1.6424
 7150SOL    HW233087   3.989   1.001   4.849  1.0414 -0.9219  0.0958
 7151SOL     OW33088   1.806   3.147   5.566  0.0726 -0.0223  0.1253
 7151SOL    HW133089   1.796   3.224   5.621 -0.0903 -0.7389  1.0880
 7151SOL    HW233090   1.754   3.081   5.611 -0.4287 -1.2428 -2.2021
 7152SOL     OW33091   3.412   2.359   6.397  0.6108  0.1652  0.0344
 7152SOL    HW133092   3.505   2.340   6.408  0.3788 -1.3947 -0.7406
 7152SOL    HW233093   3.364   2.278   6.409 -0.5098  0.5694 -1.8209
 7153SOL     OW33094   2.740   2.543   9.162 -0.0755  0.4558  0.9727
 7153SOL    HW133095   2.808   2.490   9.202  0.6640 -0.4398 -1.4442
 7153SOL    HW233096   2.677   2.545   9.234 -0.3185 -0.8691  0.7851
 7154SOL     OW33097   0.566   1.724  15.390 -0.1488  0.2750  0.3434
 7154SOL    HW133098   0.616   1.806  15.386 -0.6625  0.6357  1.0698
 7154SOL    HW233099   0.536   1.716  15.300  0.7448  0.9508 -0.0116
 7155SOL     OW33100   2.685   4.521   2.261 -0.4575  0.2282 -0.3854
 7155SOL    HW133101   2.664   4.497   2.171 -1.7026 -0.9825  0.2160
 7155SOL    HW233102   2.597   4.530   2.298  0.8163 -1.0545  3.0097
 7156SOL     OW33103   1.480   3.960   3.514  0.3223  0.1005  0.3267
 7156SOL    HW133104   1.439   3.881   3.478  0.7527 -0.9804  2.1943
 7156SOL    HW233105   1.539   3.940   3.587 -0.6109 -1.2844  0.7160
 7157SOL     OW33106   1.141   4.608   3.156  0.1052 -0.5420  0.0606
 7157SOL    HW133107   1.188   4.661   3.220 -1.9435 -0.8312  1.8332
 7157SOL    HW233108   1.068   4.590   3.215  1.9173 -1.1719  2.1138
 7158SOL     OW33109   1.096   1.229   6.337 -0.1447  0.6148 -0.3007
 7158SOL    HW133110   1.179   1.182   6.344 -0.8996 -0.9800 -1.8155
 7158SOL    HW233111   1.040   1.192   6.405  0.7505 -0.8843 -0.3777
 7159SOL     OW33112   4.120   4.179   5.540  0.9129  0.6988  0.1188
 7159SOL    HW133113   4.035   4.214   5.566  0.7532 -0.8899  1.7870
 7159SOL    HW233114   4.111   4.087   5.564 -0.1398  0.9667  0.7350
 7160SOL     OW33115   3.474   1.651  16.492 -0.3315 -0.3397 -0.1194
 7160SOL    HW133116   3.435   1.616  16.572  1.0600 -1.0178  0.2797
 7160SOL    HW233117   3.401   1.667  16.432 -0.9269  0.0051  0.7071
 7161SOL     OW33118   2.606   3.314   3.340 -0.1411  0.3061  0.1266
 7161SOL    HW133119   2.644   3.252   3.277 -1.7519  0.1667 -0.7130
 7161SOL    HW233120   2.520   3.342   3.309 -0.0165 -0.5374 -0.9917
 7162SOL     OW33121   0.211   1.136   8.377 -0.2982  0.1470  0.4742
 7162SOL    HW133122   0.301   1.142   8.346 -0.7426 -2.6324 -1.3727
 7162SOL    HW233123   0.213   1.051   8.422 -1.4546  0.6854  1.5663
 7163SOL     OW33124   3.317   2.146   4.108  0.3762 -0.5072  0.2310
 7163SOL    HW133125   3.393   2.190   4.070 -1.3001  3.2289  1.1878
 7163SOL    HW233126   3.307   2.066   4.056 -1.9781 -1.4882  2.1501
 7164SOL     OW33127   2.277   4.700  11.200 -0.3346  0.0563 -0.4947
 7164SOL    HW133128   2.183   4.681  11.202 -0.1316 -0.9088  0.3021
 7164SOL    HW233129   2.320   4.621  11.165  0.3062 -1.2082  3.1466
 7165SOL     OW33130   2.570   2.566   3.522 -0.7288 -0.0280  0.1375
 7165SOL    HW133131   2.570   2.630   3.594  0.3516  0.4857 -0.3359
 7165SOL    HW233132   2.487   2.523   3.542  0.1367 -1.1229  1.4135
 7166SOL     OW33133   3.443   1.843   2.829  0.5495  0.5543  0.4193
 7166SOL    HW133134   3.466   1.928   2.867 -0.1712 -0.1368  2.4063
 7166SOL    HW233135   3.359   1.854   2.784 -0.1072 -3.0810  0.7242
 7167SOL     OW33136   4.208   1.523   7.255  0.5635 -0.0649 -0.4181
 7167SOL    HW133137   4.175   1.450   7.307  1.4967 -0.2762 -0.1206
 7167SOL    HW233138   4.252   1.466   7.191  0.1068 -2.2190  1.1856
 7168SOL     OW33139   2.991   2.946   8.858 -0.1120  0.1946  0.2191
 7168SOL    HW133140   3.072   2.956   8.909  0.8050 -0.2339 -1.1467
 7168SOL    HW233141   2.944   2.879   8.906 -2.4193  1.0626 -0.8025
 7169SOL     OW33142   2.366   3.908   0.275  0.3737  0.3814  0.2545
 7169SOL    HW133143   2.449   3.878   0.238  0.3216  1.3938 -0.6851
 7169SOL    HW233144   2.318   3.896   0.193 -2.1844  1.0300  1.6663
 7170SOL     OW33145   1.566   3.448   3.977  0.6537  0.5453  0.4305
 7170SOL    HW133146   1.535   3.535   4.003 -1.1758 -0.4511  1.5352
 7170SOL    HW233147   1.503   3.403   4.033 -0.1219  0.2127 -0.7175
 7171SOL     OW33148   0.549   2.404   5.376  0.3788  0.3332  0.1009
 7171SOL    HW133149   0.548   2.428   5.284  0.2043 -2.3219 -0.6029
 7171SOL    HW233150   0.627   2.452   5.406  1.5609 -2.2399  1.1595
 7172SOL     OW33151   4.012   1.865   8.902  0.7695 -0.0729 -0.4929
 7172SOL    HW133152   4.099   1.903   8.906  1.7255 -2.1021 -1.8905
 7172SOL    HW233153   3.989   1.851   8.994 -0.9331 -0.7177 -1.0026
 7173SOL     OW33154   2.468   2.875   4.560 -0.1709  0.1099  0.4802
 7173SOL    HW133155   2.552   2.916   4.580 -1.2044  3.3819 -2.1261
 7173SOL    HW233156   2.434   2.880   4.649 -0.3497  0.7630  0.3696
 7174SOL     OW33157   0.718   0.787   8.831  0.5315  0.0436  0.0271
 7174SOL    HW133158   0.753   0.838   8.757  0.5090 -0.2549 -0.1876
 7174SOL    HW233159   0.798   0.788   8.884  0.8500  1.3424 -0.4737
 7175SOL     OW33160   3.825   3.519   3.587  0.4018  0.6821  0.4290
 7175SOL    HW133161   3.756   3.577   3.555  1.0701  1.8929  1.1802
 7175SOL    HW233162   3.871   3.507   3.504 -0.6548  0.9417 -0.1971
 7176SOL     OW33163   3.845   0.255  10.523 -0.3503  0.3969  0.7213
 7176SOL    HW133164   3.771   0.237  10.465  0.4064  1.8856 -0.6934
 7176SOL    HW233165   3.813   0.230  10.610  0.3395 -0.1048  0.8240
 7177SOL     OW33166   2.912   4.376  15.666  0.0669 -0.7720  0.0473
 7177SOL    HW133167   2.901   4.375  15.571 -1.6657 -0.1400  0.2482
 7177SOL    HW233168   2.830   4.419  15.689  1.3264  1.6734 -0.0207
 7178SOL     OW33169   3.264   1.374  11.200  0.0279  0.3137  0.4967
 7178SOL    HW133170   3.282   1.462  11.167  1.0697  0.2560  0.9188
 7178SOL    HW233171   3.317   1.323  11.139  1.1033  1.4731  0.4541
 7179SOL     OW33172   0.888   1.150  16.925 -0.1027 -0.2133  0.2717
 7179SOL    HW133173   0.899   1.139  17.019  2.4579 -1.5899 -0.1871
 7179SOL    HW233174   0.869   1.058  16.907 -1.0313 -0.2661  1.5029
 7180SOL     OW33175   2.846   2.072   2.428  0.1472  0.2408  0.0471
 7180SOL    HW133176   2.849   2.154   2.476 -0.9871  0.4662 -0.2666
 7180SOL    HW233177   2.760   2.087   2.390 -0.0472  1.0463  0.8174
 7181SOL     OW33178   1.680   3.081   7.421  0.0866  0.4627 -0.3082
 7181SOL    HW133179   1.726   3.000   7.442 -0.3753 -0.3376 -2.4348
 7181SOL    HW233180   1.738   3.146   7.462  1.7401 -1.0359 -0.2954
 7182SOL     OW33181   0.069   0.465   4.880 -0.3260 -0.1291  0.2559
 7182SOL    HW133182   0.075   0.371   4.861 -1.3022  0.2146 -1.7115
 7182SOL    HW233183   0.108   0.505   4.803  0.6552  0.3080  0.9844
 7183SOL     OW33184   3.537   2.524   9.674  0.3290 -0.8082  0.0834
 7183SOL    HW133185   3.596   2.599   9.668 -0.1532 -0.4930 -0.7164
 7183SOL    HW233186   3.568   2.469   9.746  2.0537  0.3581  0.2290
 7184SOL     OW33187   0.035   2.624   5.150  0.6244  0.5669  0.0844
 7184SOL    HW133188   0.055   2.540   5.108  1.1065  0.4307  0.5863
 7184SOL    HW233189   4.700   2.588   5.200 -0.7785 -0.6629 -2.8452
 7185SOL     OW33190   0.969   1.960   6.938 -0.2077  0.3775 -0.3542
 7185SOL    HW133191   1.064   1.953   6.950 -0.1460  1.1054 -0.4048
 7185SOL    HW233192   0.945   1.890   6.998 -1.0564  2.0248  1.2359
 7186SOL     OW33193   0.904   0.998   4.511  0.4440 -0.5446 -0.1280
 7186SOL    HW133194   0.904   0.998   4.415  1.2801 -0.3235 -0.1274
 7186SOL    HW233195   0.812   1.004   4.535  0.3239 -2.3023 -0.1402
 7187SOL     OW33196   2.138   2.697   0.745 -0.6275  0.2365 -0.0767
 7187SOL    HW133197   2.157   2.770   0.804  0.6180  0.6178 -0.9500
 7187SOL    HW233198   2.077   2.734   0.681  0.1742  0.8621 -0.4724
 7188SOL     OW33199   1.215   1.127   2.771  0.1940 -0.2514 -0.2523
 7188SOL    HW133200   1.140   1.084   2.812 -1.3478  1.8193 -0.9564
 7188SOL    HW233201   1.278   1.125   2.844 -0.3412 -0.5036  0.2048
 7189SOL     OW33202   1.965   2.940   8.982  0.5993  0.6674 -0.1726
 7189SOL    HW133203   2.051   2.902   8.994 -0.4241 -2.1190 -1.7028
 7189SOL    HW233204   1.944   2.973   9.069  0.4190  0.1728 -0.0273
 7190SOL     OW33205   3.895   3.638   4.951  0.5508  0.1189  0.0351
 7190SOL    HW133206   3.923   3.546   4.952  3.2327  0.9072 -2.6342
 7190SOL    HW233207   3.967   3.669   5.005  0.2116 -0.4952  0.8468
 7191SOL     OW33208   4.572   0.377  12.815  0.3610  0.0880 -0.2145
 7191SOL    HW133209   4.502   0.344  12.871  2.0395 -2.1690  0.5326
 7191SOL    HW233210   4.609   0.294  12.785 -0.5776 -0.2686 -0.4172
 7192SOL     OW33211   1.330   2.979   2.883  0.1938 -0.4896  0.1714
 7192SOL    HW133212   1.376   2.929   2.950 -0.6989 -2.4996 -0.7152
 7192SOL    HW233213   1.296   3.049   2.939  1.6706 -0.2759  0.8082
 7193SOL     OW33214   3.669   0.046  10.223  0.1465  0.2088  0.0806
 7193SOL    HW133215   3.753   0.044  10.176 -1.6046  0.9131 -3.0739
 7193SOL    HW233216   3.615   0.116  10.185  1.7423  1.5962  0.3791
 7194SOL     OW33217   2.253   1.686   8.557  0.4821 -0.5614  0.2046
 7194SOL    HW133218   2.285   1.678   8.647  0.7180  1.0953  0.2759
 7194SOL    HW233219   2.327   1.724   8.510 -1.4678 -1.9328 -3.8843
 7195SOL     OW33220   1.806   0.219   5.593  0.2071 -0.9200 -0.2890
 7195SOL    HW133221   1.893   0.240   5.626 -0.5635  0.1978  1.0646
 7195SOL    HW233222   1.799   0.297   5.539 -1.1393 -0.6320  0.2970
 7196SOL     OW33223   4.442   1.754   4.761 -0.1217  0.2699 -0.1206
 7196SOL    HW133224   4.378   1.708   4.707  1.1947  0.0450 -1.4759
 7196SOL    HW233225   4.491   1.677   4.791 -1.6710  0.3586  2.5949
 7197SOL     OW33226   3.336   2.600   6.305  0.4123  0.0495  0.1558
 7197SOL    HW133227   3.322   2.666   6.373  1.6055 -2.3356  2.7067
 7197SOL    HW233228   3.382   2.526   6.346 -1.0743 -0.1611  1.4290
 7198SOL     OW33229   4.034   0.952   5.311 -0.1420  0.1015  0.3934
 7198SOL    HW133230   4.050   0.860   5.293  1.7452  0.9892 -2.5770
 7198SOL    HW233231   4.102   0.984   5.251 -0.0511 -1.2366 -0.2006
 7199SOL     OW33232   3.101   0.324   5.642 -0.1884  0.5882 -0.6113
 7199SOL    HW133233   3.126   0.257   5.706  0.0998  1.7321  0.4775
 7199SOL    HW233234   3.061   0.392   5.696 -1.4472 -0.7660  0.1533
 7200SOL     OW33235   3.366   1.802   6.544  0.1966 -0.0954 -0.5429
 7200SOL    HW133236   3.409   1.876   6.502  1.9105 -1.0910 -0.5410
 7200SOL    HW233237   3.280   1.803   6.503  0.9517  1.0683 -2.0861
 7201SOL     OW33238   3.753   1.330  17.244  0.5058 -0.3834  0.4138
 7201SOL    HW133239   3.820   1.339  17.312 -1.3048 -0.4497  2.2246
 7201SOL    HW233240   3.762   1.242  17.208  0.4998 -0.5213  0.7498
 7202SOL     OW33241   0.491   1.233   3.680  0.0012  0.0116  0.1050
 7202SOL    HW133242   0.447   1.253   3.598  0.3502  0.4215  0.0159
 7202SOL    HW233243   0.538   1.315   3.693  0.1186  0.0980 -0.8788
 7203SOL     OW33244   1.480   4.101   5.676  0.0371 -0.3686  0.6328
 7203SOL    HW133245   1.432   4.114   5.758 -0.9895  0.2114 -0.0788
 7203SOL    HW233246   1.500   4.187   5.641  1.9860 -1.8862 -2.0344
 7204SOL     OW33247   4.530   1.199   1.593  0.2255 -0.0881 -0.2362
 7204SOL    HW133248   4.451   1.236   1.555  0.5625  2.8096  1.8300
 7204SOL    HW233249   4.574   1.189   1.509  1.0146  2.8242 -0.1879
 7205SOL     OW33250   3.609   2.918   2.778 -0.1871 -0.5104 -0.0663
 7205SOL    HW133251   3.573   3.007   2.789  1.5719  0.2154 -0.2674
 7205SOL    HW233252   3.664   2.937   2.702 -2.6779 -1.1902 -2.0716
 7206SOL     OW33253   3.235   1.384   5.995  0.1353  0.2730 -0.1704
 7206SOL    HW133254   3.206   1.434   5.918 -0.1909 -0.4219 -0.5035
 7206SOL    HW233255   3.145   1.378   6.029 -0.2025 -0.6201 -1.2407
 7207SOL     OW33256   0.859   1.411   2.730  0.4481 -0.1021 -0.0765
 7207SOL    HW133257   0.789   1.379   2.788  1.0979 -0.0082  0.7535
 7207SOL    HW233258   0.844   1.358   2.652  0.4393 -0.9964  0.5237
 7208SOL     OW33259   3.130   4.689   7.032  0.3500  0.3962 -0.1383
 7208SOL    HW133260   3.037   4.709   7.042  0.2954 -0.5249  1.2059
 7208SOL    HW233261   3.164   4.700   7.121  0.0034  0.2105  0.0179
 7209SOL     OW33262   3.066   3.689   4.952  0.3968  0.2724 -0.4387
 7209SOL    HW133263   2.972   3.684   4.938 -0.0399  2.6905  1.6990
 7209SOL    HW233264   3.094   3.685   4.860 -2.5797  2.5340 -1.4193
 7210SOL     OW33265   1.149   3.819   9.498 -0.6463  0.1864 -0.0584
 7210SOL    HW133266   1.166   3.863   9.581  0.1393  0.1065 -0.1759
 7210SOL    HW233267   1.062   3.787   9.523 -1.4644  3.5437  1.3599
 7211SOL     OW33268   4.047   1.307   0.225 -0.3104  0.0531 -0.5710
 7211SOL    HW133269   4.070   1.331   0.314 -0.7266  2.5937 -1.1434
 7211SOL    HW233270   3.958   1.341   0.214 -0.3296 -0.2760 -1.4545
 7212SOL     OW33271   3.242   0.029   1.477  0.5382 -0.1739 -0.0648
 7212SOL    HW133272   3.235   4.715   1.398 -0.8145 -1.5032  0.9241
 7212SOL    HW233273   3.151   0.039   1.504  0.4620 -1.6434  0.1842
 7213SOL     OW33274   4.202   3.566   5.459 -0.4378 -0.3122  0.3826
 7213SOL    HW133275   4.214   3.492   5.518  0.1528  0.5495  1.3411
 7213SOL    HW233276   4.266   3.630   5.489  1.2780 -1.0024 -1.8259
 7214SOL     OW33277   3.398   2.367   6.907 -0.7859  0.0491 -0.2571
 7214SOL    HW133278   3.342   2.292   6.928  0.3383 -0.1808  1.9267
 7214SOL    HW233279   3.480   2.322   6.890 -0.6433  0.9741 -2.0059
 7215SOL     OW33280   0.449   3.311   1.693 -0.0368 -0.5618 -0.9817
 7215SOL    HW133281   0.354   3.314   1.688 -0.2526 -0.9383  2.4766
 7215SOL    HW233282   0.468   3.228   1.651  2.3045 -0.7644  0.4497
 7216SOL     OW33283   3.505   2.352   5.206 -0.3346  0.3420 -0.4905
 7216SOL    HW133284   3.548   2.272   5.237 -0.2177  0.2491 -0.8863
 7216SOL    HW233285   3.572   2.420   5.212 -1.3165  1.2556  0.0794
 7217SOL     OW33286   0.109   3.425   4.640  0.1314 -0.4903  0.0081
 7217SOL    HW133287   0.035   3.463   4.688  0.3268  2.0055 -1.6621
 7217SOL    HW233288   0.194   3.463   4.660 -0.7967  1.8730 -0.4964
 7218SOL     OW33289   4.504   3.738  11.428  0.4008  0.2142  0.0066
 7218SOL    HW133290   4.521   3.813  11.485 -1.3809  0.4959  0.1551
 7218SOL    HW233291   4.556   3.673  11.476  0.8939  1.1187  0.6810
 7219SOL     OW33292   4.307   2.257   7.882  0.2296  0.0938  0.3348
 7219SOL    HW133293   4.230   2.199   7.881  0.1800  0.2335 -2.4013
 7219SOL    HW233294   4.280   2.326   7.943  3.7046  1.3983  0.3732
 7220SOL     OW33295   0.746   4.358   0.022 -0.1889  0.6923 -0.1367
 7220SOL    HW133296   0.760   4.322  17.684 -1.4429  0.9723 -0.4606
 7220SOL    HW233297   0.773   4.281   0.071 -1.9448 -0.3890 -0.8369
 7221SOL     OW33298   0.175   3.623   5.943  0.0660 -0.2737  0.4926
 7221SOL    HW133299   0.089   3.628   5.901  0.6553 -0.4636 -0.7464
 7221SOL    HW233300   0.198   3.530   5.945 -2.7749 -0.9935  0.4725
 7222SOL     OW33301   4.042   3.172   6.618  0.9617  0.0902 -0.2633
 7222SOL    HW133302   3.982   3.147   6.687  2.2058  0.4331  0.9368
 7222SOL    HW233303   4.025   3.120   6.540  0.8947  1.0221 -0.8803
 7223SOL     OW33304   3.289   4.022   7.543  0.6498  0.1171 -0.3479
 7223SOL    HW133305   3.207   4.055   7.580 -0.0853 -2.2436  0.1167
 7223SOL    HW233306   3.338   4.103   7.528 -0.3449  1.1709  2.1388
 7224SOL     OW33307   4.389   0.794   6.227 -0.1443  0.2452  0.4130
 7224SOL    HW133308   4.423   0.754   6.307 -1.5195 -0.3041  0.7249
 7224SOL    HW233309   4.346   0.719   6.187  0.1946  0.0936  0.3302
 7225SOL     OW33310   0.157   2.986   5.112 -0.0474  0.6427  0.2804
 7225SOL    HW133311   0.197   2.938   5.040  0.2113  3.2872 -1.3337
 7225SOL    HW233312   0.216   3.061   5.122 -1.1925  1.8722 -2.0828
 7226SOL     OW33313   0.248   0.959   8.128 -0.0687  0.2370  0.3257
 7226SOL    HW133314   0.245   0.887   8.191  1.7334 -0.3471 -0.2419
 7226SOL    HW233315   0.334   1.001   8.135  0.2169 -0.6252  1.8296
 7227SOL     OW33316   0.092   1.951  12.889  0.5814 -0.0398 -0.4612
 7227SOL    HW133317   0.179   1.926  12.919  0.2388 -0.9490 -0.2456
 7227SOL    HW233318   0.114   2.008  12.815  0.9685 -0.4799 -0.6815
 7228SOL     OW33319   2.191   1.579   9.588 -0.1273  0.2157 -0.5943
 7228SOL    HW133320   2.122   1.552   9.648  0.7677 -1.7150 -0.4240
 7228SOL    HW233321   2.261   1.528   9.629 -0.2083  0.2416 -0.4234
 7229SOL     OW33322   0.330   1.061   3.074 -0.3143  0.0567 -0.3103
 7229SOL    HW133323   0.307   1.118   3.147 -0.5221 -0.0519 -0.2894
 7229SOL    HW233324   0.246   1.015   3.062  0.2733 -1.2025  0.3502
 7230SOL     OW33325   2.040   3.689  11.688  0.6635  0.3402 -0.3370
 7230SOL    HW133326   2.055   3.724  11.776  0.1841 -0.7458  0.1834
 7230SOL    HW233327   1.990   3.755  11.641  1.7532  0.7055 -0.9944
 7231SOL     OW33328   3.712   0.965   7.732  0.1266 -0.2291  0.4096
 7231SOL    HW133329   3.737   0.994   7.644  0.8956  0.4222  0.8402
 7231SOL    HW233330   3.622   0.997   7.732  0.1862 -0.0758  1.1574
 7232SOL     OW33331   4.440   1.856   1.301  0.0019 -0.3985 -0.0227
 7232SOL    HW133332   4.514   1.795   1.295  1.5443  1.5210 -0.6831
 7232SOL    HW233333   4.375   1.803   1.255 -1.2298  0.3672  0.8334
 7233SOL     OW33334   4.412   1.301   2.488  0.2579  0.2479 -0.1586
 7233SOL    HW133335   4.374   1.232   2.434  2.5234  1.3804 -3.2205
 7233SOL    HW233336   4.400   1.257   2.572 -1.6893  0.5798 -0.2589
 7234SOL     OW33337   3.930   3.864   6.010  0.5035  0.1300 -0.3066
 7234SOL    HW133338   3.955   3.776   6.037 -0.6111 -0.0269  0.2144
 7234SOL    HW233339   3.998   3.874   5.943 -0.1701  0.5172 -0.9430
 7235SOL     OW33340   2.327   1.650   5.703  0.3158 -0.1904  0.0845
 7235SOL    HW133341   2.389   1.662   5.631 -1.1584 -0.6459 -1.2677
 7235SOL    HW233342   2.321   1.742   5.729  0.9515 -0.5617  1.5507
 7236SOL     OW33343   4.329   4.554   5.085 -0.0263  0.4198 -0.4286
 7236SOL    HW133344   4.407   4.539   5.032  0.6739  0.4035  0.6037
 7236SOL    HW233345   4.262   4.498   5.048  0.1566  0.3881 -0.7087
 7237SOL     OW33346   3.724   3.342   9.844 -0.2538  0.3389 -0.3797
 7237SOL    HW133347   3.801   3.299   9.882 -2.3397 -2.1961  1.0552
 7237SOL    HW233348   3.749   3.431   9.870 -1.4214  0.6649 -0.3549
 7238SOL     OW33349   2.952   3.412   3.045  0.7298 -0.4110  0.1592
 7238SOL    HW133350   3.040   3.402   3.010  0.3844  0.4675 -0.9691
 7238SOL    HW233351   2.925   3.321   3.028 -1.5321  0.2642  0.1049
 7239SOL     OW33352   3.018   2.973   5.672  0.4297  0.2061 -0.0225
 7239SOL    HW133353   3.110   2.956   5.651  0.3653  2.4073 -2.1480
 7239SOL    HW233354   3.007   2.921   5.752 -0.2168  0.7552  0.2487
 7240SOL     OW33355   2.462   3.607  15.884  0.5179 -0.2775  0.0303
 7240SOL    HW133356   2.482   3.557  15.962 -0.4162 -0.9687 -0.1643
 7240SOL    HW233357   2.500   3.691  15.909  0.6609 -0.1856 -0.4877
 7241SOL     OW33358   1.710   1.174   2.266 -0.0966 -0.0202 -0.3101
 7241SOL    HW133359   1.667   1.254   2.296  2.3849  0.9802  0.5967
 7241SOL    HW233360   1.705   1.110   2.337  0.7622 -1.5021 -1.5922
 7242SOL     OW33361   2.971   1.425  11.729 -0.7219 -0.2014 -0.5935
 7242SOL    HW133362   2.974   1.492  11.797 -0.4674  0.4730 -1.2757
 7242SOL    HW233363   2.975   1.346  11.783  2.7871  1.7659  2.0590
 7243SOL     OW33364   1.023   4.305   1.813  0.5219 -0.0521  0.1776
 7243SOL    HW133365   1.021   4.355   1.731  1.5500 -0.2273  0.0403
 7243SOL    HW233366   1.050   4.222   1.773 -1.4144 -1.1358  1.1307
 7244SOL     OW33367   1.260   3.280   1.972  0.3119  0.5854  0.5029
 7244SOL    HW133368   1.264   3.304   2.065 -3.6888 -1.7838  1.2999
 7244SOL    HW233369   1.313   3.346   1.928 -1.0376  1.5622  0.3259
 7245SOL     OW33370   3.100   0.177   8.508 -0.3518 -0.1956 -0.5232
 7245SOL    HW133371   3.102   0.242   8.438 -0.1371  0.3683  0.0066
 7245SOL    HW233372   3.182   0.203   8.550  0.1616  0.9227 -2.1968
 7246SOL     OW33373   3.919   3.380  11.939 -0.0711  0.2261 -0.2909
 7246SOL    HW133374   3.933   3.316  11.869  0.6655  3.0019 -2.6953
 7246SOL    HW233375   3.947   3.327  12.013  1.3069 -0.2889 -1.1742
 7247SOL     OW33376   4.265   1.577   3.835  0.0113 -0.1086  0.1808
 7247SOL    HW133377   4.248   1.568   3.741 -1.5157  2.3531  0.2396
 7247SOL    HW233378   4.360   1.585   3.831 -0.0573  1.2467  1.3568
 7248SOL     OW33379   4.679   1.585  17.130  0.1754 -0.4355  0.1491
 7248SOL    HW133380   4.685   1.495  17.162 -2.6726 -0.7495 -0.2004
 7248SOL    HW233381   4.721   1.577  17.045  0.3604  0.3873  0.1648
 7249SOL     OW33382   0.188   0.835  13.683  0.6584 -0.1759  0.2359
 7249SOL    HW133383   0.117   0.815  13.622  1.2028  1.9150 -1.1033
 7249SOL    HW233384   0.213   0.749  13.717  0.7949  0.9230  2.8903
 7250SOL     OW33385   1.605   3.824   2.800  0.2355  0.5331  0.0786
 7250SOL    HW133386   1.573   3.745   2.844 -0.6345  0.1787 -1.2051
 7250SOL    HW233387   1.525   3.875   2.810  1.1437  2.3188 -1.7407
 7251SOL     OW33388   1.251   1.805   2.959  0.2995 -0.0738  0.0761
 7251SOL    HW133389   1.172   1.764   2.923  1.2789 -1.5568 -0.3700
 7251SOL    HW233390   1.219   1.878   3.011 -2.4986 -1.3402  0.1284
 7252SOL     OW33391   1.974   1.522   9.784 -0.3815 -0.7424  0.3984
 7252SOL    HW133392   2.038   1.536   9.854  0.1508 -1.5789  0.0888
 7252SOL    HW233393   1.894   1.526   9.837 -0.6857 -1.2263 -0.0229
 7253SOL     OW33394   1.945   2.087   3.181 -0.4089 -0.2966 -0.1164
 7253SOL    HW133395   1.850   2.088   3.184 -0.3291 -0.1697  2.5620
 7253SOL    HW233396   1.974   1.999   3.156 -0.1214 -0.7592  1.8201
 7254SOL     OW33397   3.467   3.999   5.981 -0.5419 -0.4337 -0.4228
 7254SOL    HW133398   3.411   3.987   6.058 -0.1848 -0.5385 -0.1765
 7254SOL    HW233399   3.491   3.908   5.967  1.5702 -0.0133  0.3445
 7255SOL     OW33400   4.720   0.561   1.067  0.0885 -0.3669  0.2391
 7255SOL    HW133401   4.676   0.477   1.053 -0.2265  0.0096 -1.0451
 7255SOL    HW233402   0.033   0.574   0.987 -1.6070  1.4802 -0.5354
 7256SOL     OW33403   1.198   2.588   4.071  0.1407  0.0262 -0.0252
 7256SOL    HW133404   1.110   2.571   4.104  0.4110 -0.9595  0.2014
 7256SOL    HW233405   1.241   2.610   4.154  1.0384 -0.8240 -0.2617
 7257SOL     OW33406   2.310   0.219   4.433  0.0791  1.0447 -0.2938
 7257SOL    HW133407   2.241   0.285   4.432 -1.1736 -0.2587 -0.0977
 7257SOL    HW233408   2.377   0.286   4.449 -1.2453  2.3024 -0.0534
 7258SOL     OW33409   0.575   4.117   5.596 -0.1459 -0.2012  0.4124
 7258SOL    HW133410   0.485   4.086   5.608  0.3523 -1.4608  0.9676
 7258SOL    HW233411   0.610   4.041   5.549 -0.9071  0.0449 -0.5522
 7259SOL     OW33412   0.239   0.228   6.542  0.2209  0.2276 -0.1842
 7259SOL    HW133413   0.146   0.243   6.525  0.4056  0.9193 -0.5793
 7259SOL    HW233414   0.229   0.161   6.609 -3.0186  0.0800 -0.7935
 7260SOL     OW33415   2.566   4.432   2.028  0.4248  0.1568 -0.2685
 7260SOL    HW133416   2.524   4.365   2.082  3.3107 -2.4768 -1.2821
 7260SOL    HW233417   2.545   4.389   1.945 -1.0085  0.2044  0.0797
 7261SOL     OW33418   1.424   0.405   9.674  0.7716 -0.3815  0.0097
 7261SOL    HW133419   1.366   0.335   9.703  0.1307 -0.5112 -1.5873
 7261SOL    HW233420   1.409   0.412   9.580 -1.2767 -0.6180  0.3151
 7262SOL     OW33421   1.020   2.866   7.487 -0.0235  0.2163 -0.0476
 7262SOL    HW133422   1.113   2.877   7.503  0.3819  0.1463 -2.3480
 7262SOL    HW233423   0.988   2.882   7.576 -1.5823  1.6949 -0.8566
 7263SOL     OW33424   3.613   0.869   8.154  0.1507 -0.1032  0.1174
 7263SOL    HW133425   3.559   0.946   8.166 -0.7439 -0.9310  1.4273
 7263SOL    HW233426   3.680   0.909   8.099 -0.6659 -0.5731 -1.2235
 7264SOL     OW33427   3.577   2.617  14.791 -0.5399 -0.1463 -0.3536
 7264SOL    HW133428   3.562   2.711  14.781  0.1474  0.0897  0.9214
 7264SOL    HW233429   3.494   2.582  14.759 -0.8604  0.1871  0.1153
 7265SOL     OW33430   0.821   3.134   1.637 -0.4293  0.0559 -0.3228
 7265SOL    HW133431   0.879   3.137   1.713 -1.2462 -2.9833  0.4256
 7265SOL    HW233432   0.878   3.118   1.562 -0.1895 -2.4055  0.3637
 7266SOL     OW33433   3.895   0.423   0.278 -0.2457  0.6837 -0.3004
 7266SOL    HW133434   3.982   0.441   0.243  0.2315  0.6705  0.8708
 7266SOL    HW233435   3.874   0.516   0.284 -0.2962  0.5438  1.6386
 7267SOL     OW33436   1.532   0.040   8.127 -0.3865  0.2835 -0.5736
 7267SOL    HW133437   1.489   4.716   8.067  3.1187 -0.6748 -2.1488
 7267SOL    HW233438   1.607   4.727   8.158 -1.8808 -1.3249  0.3840
 7268SOL     OW33439   3.406   1.223  12.133  0.1405 -0.1448  0.0074
 7268SOL    HW133440   3.459   1.302  12.130  0.6520 -0.5616 -2.4808
 7268SOL    HW233441   3.363   1.232  12.048 -1.4293  1.2923  0.9805
 7269SOL     OW33442   3.437   4.109   7.818  0.3106  0.6367  0.4818
 7269SOL    HW133443   3.402   4.067   7.739 -1.9424  0.4060  1.6277
 7269SOL    HW233444   3.530   4.112   7.793  0.4157 -1.8327  0.6106
 7270SOL     OW33445   3.931   4.623  12.963 -0.0199 -0.3524 -0.4003
 7270SOL    HW133446   4.017   4.661  12.982  0.5825 -1.8745 -0.0724
 7270SOL    HW233447   3.916   4.640  12.870 -1.2629 -4.1794 -0.9090
 7271SOL     OW33448   3.322   4.228   1.413 -0.2592  0.0972 -0.0380
 7271SOL    HW133449   3.253   4.263   1.471 -1.5824 -1.1083 -0.8871
 7271SOL    HW233450   3.291   4.273   1.335 -0.7261 -0.5707 -0.2403
 7272SOL     OW33451   1.433   4.231   2.368  0.2375  0.0642 -0.4703
 7272SOL    HW133452   1.415   4.178   2.290 -0.0733  1.7712 -1.5499
 7272SOL    HW233453   1.349   4.277   2.374 -0.2496 -0.8416 -0.3319
 7273SOL     OW33454   0.686   2.674  11.312 -0.1469 -0.6636 -1.0477
 7273SOL    HW133455   0.724   2.739  11.371  1.1623 -0.2746 -2.3194
 7273SOL    HW233456   0.656   2.735  11.244  1.5580 -1.7304 -2.7260
 7274SOL     OW33457   4.464   2.793   7.274  0.1578 -0.1328 -0.0163
 7274SOL    HW133458   4.505   2.806   7.189 -1.0953  0.4897 -0.5150
 7274SOL    HW233459   4.371   2.802   7.255  0.7017  1.5688 -1.8528
 7275SOL     OW33460   0.635   2.288   5.822 -0.0398 -0.1929  0.5552
 7275SOL    HW133461   0.692   2.221   5.860 -0.8854 -0.3681  1.5098
 7275SOL    HW233462   0.557   2.238   5.798  0.1673 -0.3565  0.2286
 7276SOL     OW33463   2.338   4.079   8.106  0.3467 -0.0033 -0.1675
 7276SOL    HW133464   2.271   4.064   8.172 -0.0541  2.2085 -0.0877
 7276SOL    HW233465   2.382   4.161   8.129  1.2893  0.0840 -2.2295
 7277SOL     OW33466   1.592   2.017   6.647  0.2040 -0.1655 -0.4419
 7277SOL    HW133467   1.658   2.069   6.693 -1.1154  3.1563 -2.3393
 7277SOL    HW233468   1.567   2.067   6.570 -1.7182  0.2214  0.4445
 7278SOL     OW33469   0.515   3.681   4.141 -0.1697 -0.2414 -0.5264
 7278SOL    HW133470   0.436   3.730   4.119 -0.0251 -0.7219 -2.1703
 7278SOL    HW233471   0.585   3.747   4.142  0.8020 -1.2838 -0.0074
 7279SOL     OW33472   0.468   2.631   7.248  0.1696  0.3084 -0.2075
 7279SOL    HW133473   0.383   2.668   7.273  0.9458  2.1039 -0.1842
 7279SOL    HW233474   0.527   2.653   7.320  0.9615  0.4550 -0.9019
 7280SOL     OW33475   4.404   3.567  15.012 -0.3173 -0.2106  0.0660
 7280SOL    HW133476   4.358   3.592  15.092 -1.8807  0.0953 -0.9284
 7280SOL    HW233477   4.341   3.589  14.944  0.8959  2.4223 -0.2279
 7281SOL     OW33478   2.786   3.184   7.124  0.7057  0.4837 -0.2284
 7281SOL    HW133479   2.747   3.220   7.204 -0.8231 -0.5251 -0.5359
 7281SOL    HW233480   2.731   3.109   7.102 -0.4044  1.2556 -0.1163
 7282SOL     OW33481   2.044   1.752   0.995  0.2004  0.4287  0.5856
 7282SOL    HW133482   2.122   1.747   1.050  1.5764 -1.1361 -1.5496
 7282SOL    HW233483   2.074   1.734   0.906  3.8209 -2.5084  2.4209
 7283SOL     OW33484   0.669   2.516   2.043 -0.5420  0.4302 -0.1131
 7283SOL    HW133485   0.661   2.611   2.047 -2.2754  0.4163 -2.7574
 7283SOL    HW233486   0.620   2.501   1.962  2.1426 -0.7628 -1.5198
 7284SOL     OW33487   0.790   0.493   4.956  0.3221 -0.4199 -0.3242
 7284SOL    HW133488   0.869   0.547   4.949 -0.3864  0.7570  0.5805
 7284SOL    HW233489   0.814   0.423   5.016  1.1242 -0.4733 -0.7124
 7285SOL     OW33490   1.556   0.607   5.005  0.1744  0.0146  0.0438
 7285SOL    HW133491   1.542   0.624   5.099  0.2978  1.6176 -0.2216
 7285SOL    HW233492   1.483   0.655   4.965 -0.2164  1.2299  2.1991
 7286SOL     OW33493   2.412   1.145  10.690 -0.1619  0.9236  0.0766
 7286SOL    HW133494   2.378   1.232  10.667 -3.9435 -0.4618  0.3220
 7286SOL    HW233495   2.474   1.185  10.751 -1.5697  0.1854  1.9896
 7287SOL     OW33496   1.824   2.522   4.257 -0.1745  0.7566  0.1832
 7287SOL    HW133497   1.873   2.523   4.175  0.2182 -1.2013  0.3909
 7287SOL    HW233498   1.827   2.616   4.276 -0.4997  0.3474  2.2870
 7288SOL     OW33499   3.725   2.471   0.636 -0.1728 -0.1923  0.4686
 7288SOL    HW133500   3.632   2.485   0.655  0.3153  0.8710  2.1078
 7288SOL    HW233501   3.769   2.551   0.665 -0.8150 -0.2023  1.4682
 7289SOL     OW33502   0.395   4.154   2.313  0.0242 -0.3034 -0.4927
 7289SOL    HW133503   0.434   4.237   2.283  0.9398 -0.1234  1.1808
 7289SOL    HW233504   0.407   4.158   2.408  1.3214 -1.7377 -0.5998
 7290SOL     OW33505   4.041   4.177   4.136 -0.0223  0.1856 -0.7280
 7290SOL    HW133506   3.952   4.152   4.112 -0.6245  1.5891  0.0351
 7290SOL    HW233507   4.073   4.087   4.135  0.7038  0.4256  0.8282
 7291SOL     OW33508   3.706   1.834  13.789  0.4203  0.5823 -0.7538
 7291SOL    HW133509   3.741   1.872  13.708  2.7177 -2.3709 -1.1586
 7291SOL    HW233510   3.614   1.823  13.765  0.5059 -2.3504  0.2827
 7292SOL     OW33511   3.612   0.955   7.232  0.0879  0.6734 -0.6048
 7292SOL    HW133512   3.633   0.862   7.228 -3.8726 -0.3809  2.7563
 7292SOL    HW233513   3.683   0.991   7.284  0.5654  0.4443 -1.0979
 7293SOL     OW33514   3.776   4.419   2.278  0.0883  0.1438  0.3721
 7293SOL    HW133515   3.742   4.383   2.360 -0.4845  0.8364  0.4462
 7293SOL    HW233516   3.773   4.349   2.214 -0.1220  1.1589 -0.7184
 7294SOL     OW33517   0.349   0.117   4.646  0.4612  0.2911  0.0367
 7294SOL    HW133518   0.406   0.107   4.570 -0.2745  3.2151 -0.8797
 7294SOL    HW233519   0.269   0.067   4.633  0.7257 -0.3556  0.8709
 7295SOL     OW33520   4.561   2.690   7.738 -0.0920 -0.2492  0.2382
 7295SOL    HW133521   4.573   2.745   7.660  0.3395  1.7630  1.7239
 7295SOL    HW233522   4.646   2.647   7.731 -0.5400 -1.4161  1.8621
 7296SOL     OW33523   3.626   1.638  15.551  0.2950  0.3312 -0.1374
 7296SOL    HW133524   3.713   1.603  15.574  0.1990  0.2753  0.1494
 7296SOL    HW233525   3.615   1.703  15.621  0.5892 -0.2833  0.4825
 7297SOL     OW33526   0.941   4.647   8.157  0.1920  0.2207 -0.5643
 7297SOL    HW133527   0.997   4.721   8.180  0.7406 -0.2069 -0.5357
 7297SOL    HW233528   0.940   4.648   8.061  0.5632  0.5120 -0.5663
 7298SOL     OW33529   4.112   2.538   4.940  0.2749 -0.0588 -0.1615
 7298SOL    HW133530   4.157   2.459   4.970  1.0286  0.3441 -0.2393
 7298SOL    HW233531   4.128   2.538   4.845 -1.2501 -1.4396 -0.4274
 7299SOL     OW33532   3.639   0.692   7.357 -0.5504  0.2624 -1.1052
 7299SOL    HW133533   3.666   0.613   7.311  1.4486 -1.0664  2.3802
 7299SOL    HW233534   3.685   0.677   7.440 -1.2058  0.5851 -0.6803
 7300SOL     OW33535   4.696   0.544  13.936 -0.2111 -0.4340 -0.4618
 7300SOL    HW133536   4.722   0.504  13.853  0.4979  0.5148 -0.7013
 7300SOL    HW233537   4.701   0.636  13.911 -0.7788  0.0036  1.0412
 7301SOL     OW33538   4.494   4.182   5.359  1.0094  0.1564  0.0112
 7301SOL    HW133539   4.405   4.170   5.324  1.1438 -1.4909  0.2662
 7301SOL    HW233540   4.487   4.266   5.404 -0.6479 -0.0013  0.0569
 7302SOL     OW33541   3.312   4.468   7.714  0.1216 -0.4839 -0.4030
 7302SOL    HW133542   3.327   4.434   7.626  0.8666 -0.1625 -0.4090
 7302SOL    HW233543   3.220   4.486   7.696 -0.5319 -0.6297  2.8089
 7303SOL     OW33544   3.283   3.764   8.996  0.0398 -0.4064 -0.1772
 7303SOL    HW133545   3.261   3.697   9.062  0.9314 -0.4652  0.0619
 7303SOL    HW233546   3.300   3.703   8.924 -1.9860 -1.8110  0.5248
 7304SOL     OW33547   4.459   2.599   6.319 -0.2494 -0.2570  0.3511
 7304SOL    HW133548   4.428   2.515   6.286  1.3792 -1.1686  1.1428
 7304SOL    HW233549   4.474   2.645   6.236 -0.3517 -4.1001 -1.8324
 7305SOL     OW33550   1.009   2.185  15.119 -0.3285 -0.3048 -0.0082
 7305SOL    HW133551   1.030   2.110  15.174 -1.7008 -0.4473  0.3319
 7305SOL    HW233552   0.963   2.244  15.180  0.0035  0.8019 -0.8176
 7306SOL     OW33553   4.140   1.294   2.256 -0.0297  0.1397  0.4169
 7306SOL    HW133554   4.179   1.271   2.171 -1.2953  0.5914 -0.2802
 7306SOL    HW233555   4.165   1.221   2.313  2.9079  1.9095  1.4237
 7307SOL     OW33556   4.669   2.479   5.775 -0.1555  0.3971  0.2013
 7307SOL    HW133557   4.638   2.515   5.692 -1.4689 -0.5414  0.2823
 7307SOL    HW233558   0.012   2.527   5.792  1.0582 -1.9333  1.0123
 7308SOL     OW33559   1.521   0.075   1.600  0.5814 -0.1289 -0.3602
 7308SOL    HW133560   1.435   0.117   1.610  1.5796  2.0970 -1.1199
 7308SOL    HW233561   1.503   0.001   1.541 -0.4042  0.2221 -0.5002
 7309SOL     OW33562   2.072   1.654   0.755 -0.0225 -0.1639 -0.3754
 7309SOL    HW133563   2.137   1.596   0.715  1.2580  2.2757 -1.8480
 7309SOL    HW233564   1.989   1.615   0.727  0.0522  0.8674 -2.0264
 7310SOL     OW33565   2.419   1.387   9.369 -0.1058 -0.1299  0.0537
 7310SOL    HW133566   2.407   1.419   9.458  1.6487  1.8908 -0.4161
 7310SOL    HW233567   2.333   1.380   9.329  0.0702 -0.3111 -0.2946
 7311SOL     OW33568   3.086   4.703   5.624 -0.0710  0.1477  0.4348
 7311SOL    HW133569   3.136   0.013   5.690 -2.0173 -0.5343  2.4134
 7311SOL    HW233570   2.996   4.728   5.646  0.3786 -0.6174  3.1773
 7312SOL     OW33571   2.734   1.921   6.613 -0.4205 -0.9281 -0.2055
 7312SOL    HW133572   2.752   1.977   6.537  1.2691 -0.3752  0.6101
 7312SOL    HW233573   2.651   1.943   6.656 -0.2418 -0.4605 -0.1067
 7313SOL     OW33574   3.323   4.305   1.712  0.0642 -0.4343  0.1435
 7313SOL    HW133575   3.398   4.326   1.767  2.1287 -2.2732 -1.9859
 7313SOL    HW233576   3.320   4.393   1.674  0.1118 -0.2396  0.5973
 7314SOL     OW33577   2.627   4.200   7.990 -0.2826 -0.1544  0.0152
 7314SOL    HW133578   2.664   4.116   8.014 -1.7531  0.1368  3.3035
 7314SOL    HW233579   2.599   4.238   8.073 -2.4661 -0.5340 -0.5436
 7315SOL     OW33580   3.576   2.743  15.881  0.8249 -0.2582 -0.4379
 7315SOL    HW133581   3.589   2.782  15.794  0.9698  2.1452  0.6744
 7315SOL    HW233582   3.490   2.703  15.867  1.2344 -0.3232 -2.7982
 7316SOL     OW33583   2.684   3.436   2.552 -0.3903  0.0419 -0.0089
 7316SOL    HW133584   2.711   3.361   2.605  1.5758  0.9186  0.2096
 7316SOL    HW233585   2.629   3.478   2.618  1.8304  2.0348  0.5546
 7317SOL     OW33586   4.681   2.308   7.774  0.3016  0.3231  0.2919
 7317SOL    HW133587   4.729   2.238   7.729 -1.8970  0.3565 -2.0739
 7317SOL    HW233588   4.594   2.273   7.757 -0.4777  1.6905  1.4349
 7318SOL     OW33589   0.503   0.788  13.618 -0.9405  0.0093  0.1914
 7318SOL    HW133590   0.420   0.769  13.574  0.9172 -1.0832 -2.8570
 7318SOL    HW233591   0.545   0.704  13.637 -1.0356 -0.7280 -2.9379
 7319SOL     OW33592   2.991   1.383   0.517 -0.0264  0.5986 -0.3279
 7319SOL    HW133593   3.026   1.324   0.584 -1.3888 -0.3967 -0.4987
 7319SOL    HW233594   2.992   1.340   0.432  1.9401  1.5915 -0.8055
 7320SOL     OW33595   1.550   0.160   5.641 -0.0742  0.4995  0.3257
 7320SOL    HW133596   1.642   0.162   5.612  0.1019 -0.9888  0.7891
 7320SOL    HW233597   1.554   0.133   5.732 -0.0257 -1.1993 -0.1800
 7321SOL     OW33598   3.249   0.667   3.674 -0.3478 -0.0405 -0.3556
 7321SOL    HW133599   3.244   0.725   3.750  1.7521 -0.8543  0.4171
 7321SOL    HW233600   3.341   0.680   3.650 -0.2892  2.3954  1.2499
 7322SOL     OW33601   3.945   4.144  15.552 -0.5455 -0.2682 -0.1555
 7322SOL    HW133602   4.022   4.186  15.592  0.3186 -1.4478 -0.5850
 7322SOL    HW233603   4.001   4.074  15.520  0.1996  0.0399  0.4580
 7323SOL     OW33604   3.429   3.576   4.774  0.5076  0.0273  0.5397
 7323SOL    HW133605   3.502   3.628   4.806  0.1371 -0.0113  1.4551
 7323SOL    HW233606   3.386   3.634   4.712  1.4362 -0.0134 -0.1363
 7324SOL     OW33607   2.411   3.479   1.706 -0.2802 -0.1558 -0.2835
 7324SOL    HW133608   2.443   3.531   1.632  1.0888 -0.1927  0.2817
 7324SOL    HW233609   2.321   3.512   1.714 -0.4634 -0.5881 -0.5533
 7325SOL     OW33610   3.169   0.572  10.829 -0.9601  0.0296  0.5250
 7325SOL    HW133611   3.216   0.489  10.834 -0.6358  0.3135  2.3134
 7325SOL    HW233612   3.228   0.644  10.805  0.3023 -1.0902  0.3066
 7326SOL     OW33613   2.430   3.455   2.996 -0.3800  1.0832  0.0964
 7326SOL    HW133614   2.436   3.361   3.007 -2.5767  1.1634  1.9788
 7326SOL    HW233615   2.508   3.475   2.945 -0.5462  0.3447 -0.4423
 7327SOL     OW33616   0.038   2.390   1.907  0.6555 -0.2354  0.1955
 7327SOL    HW133617   0.069   2.400   1.816 -1.0368 -2.9904 -0.6939
 7327SOL    HW233618   0.113   2.359   1.958 -0.2289 -0.1597  1.5127
 7328SOL     OW33619   4.643   3.780   7.293  0.5154 -0.4495 -0.0426
 7328SOL    HW133620   4.603   3.707   7.338 -0.7481  0.5911  0.5318
 7328SOL    HW233621   4.584   3.852   7.316 -0.1494 -0.6739 -1.0357
 7329SOL     OW33622   1.932   2.830   1.999 -0.2231 -0.4098 -0.4577
 7329SOL    HW133623   1.971   2.811   2.084  0.3418 -1.1368 -0.8731
 7329SOL    HW233624   1.949   2.748   1.952  1.8034 -0.2992  0.0971
 7330SOL     OW33625   4.489   0.773  12.355  0.0997  0.2662 -0.0185
 7330SOL    HW133626   4.419   0.832  12.382  0.2388 -0.0053  0.9235
 7330SOL    HW233627   4.544   0.844  12.322 -1.6628  1.3158 -0.6770
 7331SOL     OW33628   3.382   1.670   4.351 -0.0175  0.1439  0.5502
 7331SOL    HW133629   3.412   1.743   4.406  0.2005  0.6890 -0.3086
 7331SOL    HW233630   3.418   1.703   4.269 -0.0416  0.8423  0.8155
 7332SOL     OW33631   0.276   4.369   4.028  0.3655 -0.0659  0.4369
 7332SOL    HW133632   0.333   4.323   3.966 -0.9732  0.4644 -1.2094
 7332SOL    HW233633   0.267   4.303   4.096  3.6344 -0.0279  0.9333
 7333SOL     OW33634   1.176   2.665  13.003 -0.0214  0.2093  0.2749
 7333SOL    HW133635   1.105   2.702  13.056 -1.3830  0.4615 -1.7474
 7333SOL    HW233636   1.252   2.700  13.051  0.0602 -0.4847  0.6498
 7334SOL     OW33637   3.777   0.889   2.261 -0.3294  0.1671  0.2738
 7334SOL    HW133638   3.793   0.964   2.203 -2.5293  1.5614  1.4397
 7334SOL    HW233639   3.725   0.839   2.198 -0.2074 -0.6824  0.8450
 7335SOL     OW33640   2.485   4.556   6.153 -0.0748 -0.2179 -0.0843
 7335SOL    HW133641   2.526   4.478   6.117 -0.7745 -0.8311  0.4680
 7335SOL    HW233642   2.397   4.526   6.175 -0.2263 -1.9879 -3.1724
 7336SOL     OW33643   4.440   0.619  10.095 -0.0541  0.3865  0.4470
 7336SOL    HW133644   4.403   0.706  10.078  2.1057  1.0963 -0.5751
 7336SOL    HW233645   4.433   0.602  10.189 -0.2355  0.2756  0.4135
 7337SOL     OW33646   2.707   0.458   6.999  0.6879  0.3840 -0.3857
 7337SOL    HW133647   2.642   0.396   7.032  0.1116  0.6412 -1.0496
 7337SOL    HW233648   2.704   0.540   7.049 -1.5295 -0.5098  0.9546
 7338SOL     OW33649   0.705   1.092   5.303 -0.3878  0.6966 -0.6691
 7338SOL    HW133650   0.718   1.043   5.384  1.1190  0.2268 -1.2047
 7338SOL    HW233651   0.614   1.068   5.289 -0.1075 -1.2000  0.7743
 7339SOL     OW33652   2.237   3.826  17.211 -0.8273 -0.5523 -0.7580
 7339SOL    HW133653   2.245   3.789  17.123  1.7998 -1.0372 -0.3381
 7339SOL    HW233654   2.330   3.849  17.222 -0.5867 -2.1622  0.6369
 7340SOL     OW33655   0.034   4.554   5.097 -0.3825 -0.0038 -0.0842
 7340SOL    HW133656   0.114   4.599   5.071 -0.6135 -1.0029 -2.5268
 7340SOL    HW233657   0.056   4.516   5.182  0.7068 -1.3563 -0.9812
 7341SOL     OW33658   0.971   1.163   6.549 -0.1284 -0.0955 -0.2030
 7341SOL    HW133659   1.008   1.093   6.603  0.5682  2.4027  2.5390
 7341SOL    HW233660   0.885   1.182   6.586  0.2253  0.2946  0.4126
 7342SOL     OW33661   1.738   1.179   2.907  0.1616  0.0976  0.2037
 7342SOL    HW133662   1.792   1.100   2.906  1.2427  0.8118  3.7712
 7342SOL    HW233663   1.687   1.188   2.827 -0.5314 -0.5992  0.5752
 7343SOL     OW33664   0.456   2.421  17.179 -0.4299  0.5029  0.1843
 7343SOL    HW133665   0.416   2.352  17.232 -0.1413  0.8623  0.8634
 7343SOL    HW233666   0.386   2.458  17.126 -0.3900  0.3638  0.0318
 7344SOL     OW33667   0.135   2.668  13.257  0.5272  0.4757  0.5219
 7344SOL    HW133668   0.040   2.667  13.266  0.3493 -0.9106 -1.6321
 7344SOL    HW233669   0.150   2.578  13.284  1.4393 -0.3375 -2.7527
 7345SOL     OW33670   0.386   2.711   0.343 -0.4735  0.1460 -0.2577
 7345SOL    HW133671   0.423   2.684   0.427  0.0483  1.3634 -0.0987
 7345SOL    HW233672   0.455   2.749   0.288 -2.6288  2.2908 -1.4637
 7346SOL     OW33673   3.943   4.735   9.253  0.1300 -0.1823 -0.5032
 7346SOL    HW133674   3.954   0.024   9.345  0.3289 -2.3297  0.0900
 7346SOL    HW233675   4.024   0.021   9.208  0.4074 -0.7672 -0.3169
 7347SOL     OW33676   1.648   4.018   1.833 -0.3961  0.0126  0.4668
 7347SOL    HW133677   1.614   4.063   1.911  2.0166  1.6252  0.5573
 7347SOL    HW233678   1.649   3.924   1.855 -0.2227 -0.1794 -0.3614
 7348SOL     OW33679   3.891   0.911   5.942 -0.1954  0.2172 -0.5355
 7348SOL    HW133680   3.823   0.957   5.893 -1.6263 -0.3706  0.8583
 7348SOL    HW233681   3.910   0.964   6.020  0.4916 -2.0293  0.8365
 7349SOL     OW33682   4.292   3.503   8.631  0.0960  0.0996 -0.9812
 7349SOL    HW133683   4.330   3.415   8.636 -2.0702 -0.7844  0.1272
 7349SOL    HW233684   4.359   3.571   8.626  0.2729 -0.0371 -0.4220
 7350SOL     OW33685   4.592   4.312  13.445 -0.0250  0.2116 -0.4000
 7350SOL    HW133686   4.679   4.322  13.405 -0.0225  1.4074 -0.1110
 7350SOL    HW233687   4.603   4.222  13.474  0.3306  0.7711  1.2573
 7351SOL     OW33688   0.263   3.826  11.059  0.1035  0.1154 -0.2168
 7351SOL    HW133689   0.172   3.812  11.033  0.5690 -1.3182 -1.0682
 7351SOL    HW233690   0.249   3.822  11.154  0.4387 -0.7074 -0.2048
 7352SOL     OW33691   0.849   3.867   2.836  0.4753  0.3342  0.4589
 7352SOL    HW133692   0.809   3.954   2.834  0.0186  0.1325  0.9922
 7352SOL    HW233693   0.815   3.829   2.755  0.1781 -1.9441  1.6364
 7353SOL     OW33694   3.885   0.387   6.304 -0.2240  0.0680  0.0578
 7353SOL    HW133695   3.857   0.476   6.280 -0.5188 -0.1255 -0.3250
 7353SOL    HW233696   3.828   0.370   6.379 -1.1672 -1.3785 -0.9723
 7354SOL     OW33697   1.063   0.253   7.019 -0.4119 -0.1475 -0.2673
 7354SOL    HW133698   1.135   0.190   7.019  0.4122  0.8036 -0.9249
 7354SOL    HW233699   1.052   0.260   6.924 -1.1752  1.2508 -0.0662
 7355SOL     OW33700   1.507   3.917   2.512 -0.6676  0.1185 -0.5606
 7355SOL    HW133701   1.507   3.919   2.608  0.4464 -1.1786 -0.5354
 7355SOL    HW233702   1.418   3.882   2.506 -0.2337 -0.8279 -1.5337
 7356SOL     OW33703   1.732   0.063  13.989  0.9668 -0.5026  0.8672
 7356SOL    HW133704   1.804   0.124  14.003 -0.7819  1.4365  1.4790
 7356SOL    HW233705   1.731   0.008  14.067 -1.4868 -0.9370  0.5444
 7357SOL     OW33706   3.729   3.361  11.151 -0.1643  0.2845  0.4463
 7357SOL    HW133707   3.811   3.407  11.133  0.2227 -0.6580 -0.1565
 7357SOL    HW233708   3.765   3.276  11.173  1.6483  0.7531 -0.7049
 7358SOL     OW33709   2.924   1.165   3.050 -0.3177 -0.2971 -0.2248
 7358SOL    HW133710   2.962   1.236   3.102 -0.4419 -1.2947  1.2400
 7358SOL    HW233711   2.987   1.145   2.981  0.0861 -1.8697  0.6019
 7359SOL     OW33712   2.254   3.659   8.268 -0.6584 -0.3132  0.0244
 7359SOL    HW133713   2.335   3.610   8.281  0.2776  1.0355 -0.7729
 7359SOL    HW233714   2.212   3.622   8.347  1.3213  0.7648  1.5753
 7360SOL     OW33715   3.978   3.745  11.204 -0.3063 -0.6628  0.6008
 7360SOL    HW133716   4.018   3.772  11.121 -0.1194 -0.7815  0.6522
 7360SOL    HW233717   4.014   3.817  11.255  2.1573 -0.4011 -1.5262
 7361SOL     OW33718   3.279   0.836  10.891 -0.9298  0.2827  0.1218
 7361SOL    HW133719   3.363   0.815  10.931 -1.1010 -0.3418  0.1518
 7361SOL    HW233720   3.264   0.919  10.935  0.3808  0.2564  0.6143
 7362SOL     OW33721   1.460   0.208   2.052 -0.7239  0.4037  0.3924
 7362SOL    HW133722   1.410   0.268   1.997  1.2925  0.1900 -1.6525
 7362SOL    HW233723   1.517   0.262   2.106  1.6312 -0.7761 -0.8906
 7363SOL     OW33724   3.756   3.351   7.024 -0.1785 -0.0593  0.3402
 7363SOL    HW133725   3.712   3.422   7.071 -0.0723  0.1812  0.0764
 7363SOL    HW233726   3.846   3.381   7.035  0.2148 -1.3846  0.7239
 7364SOL     OW33727   1.331   0.876   3.207  0.0459  0.3658 -0.1843
 7364SOL    HW133728   1.408   0.932   3.200 -1.3039  2.4279  1.5075
 7364SOL    HW233729   1.349   0.836   3.293 -0.3813 -0.1852 -0.3489
 7365SOL     OW33730   0.131   1.614   8.299 -0.1137  0.3531  0.2198
 7365SOL    HW133731   0.069   1.556   8.255  0.0304  0.5693 -0.2677
 7365SOL    HW233732   0.166   1.556   8.368 -0.7076  0.6491  0.7700
 7366SOL     OW33733   3.682   2.852   1.670 -0.1519  0.1676  0.2681
 7366SOL    HW133734   3.763   2.802   1.667  1.3169  2.4160  2.6879
 7366SOL    HW233735   3.711   2.938   1.698 -0.2446 -0.0331  0.9861
 7367SOL     OW33736   3.588   4.241   0.530  0.1979  0.3861 -0.5169
 7367SOL    HW133737   3.498   4.233   0.562  0.1261 -0.3548 -0.8927
 7367SOL    HW233738   3.611   4.148   0.541  2.2562  1.0640  0.9919
 7368SOL     OW33739   3.489   0.327   4.346  0.2600 -0.1022  0.1270
 7368SOL    HW133740   3.478   0.248   4.400 -2.9187 -0.3101 -0.8229
 7368SOL    HW233741   3.561   0.364   4.397  1.0381 -0.7745 -0.4899
 7369SOL     OW33742   2.368   3.578   0.306 -0.6753  0.1897 -0.0851
 7369SOL    HW133743   2.450   3.618   0.278  0.1860 -1.2054  0.4694
 7369SOL    HW233744   2.301   3.631   0.263  0.4085  1.9496  0.4014
 7370SOL     OW33745   4.023   3.408   4.311  0.3225  0.0613  0.7623
 7370SOL    HW133746   3.968   3.437   4.239  2.2150 -0.2340 -0.7935
 7370SOL    HW233747   4.105   3.392   4.265  1.0691  1.0112  1.7627
 7371SOL     OW33748   3.299   1.768   9.472  0.2338 -0.2075  0.2261
 7371SOL    HW133749   3.316   1.794   9.381 -1.1819  1.3888  0.4264
 7371SOL    HW233750   3.343   1.683   9.472  0.5167 -0.0604  0.5857
 7372SOL     OW33751   3.831   2.783  11.367 -0.2373 -0.1529  0.3678
 7372SOL    HW133752   3.831   2.867  11.413 -1.3294  0.0845 -0.0616
 7372SOL    HW233753   3.890   2.804  11.295 -0.5415  0.2874  0.2485
 7373SOL     OW33754   2.908   3.384   9.926 -0.0351  0.5954 -0.0911
 7373SOL    HW133755   2.987   3.333   9.907  0.3530  1.7481 -1.5773
 7373SOL    HW233756   2.842   3.318   9.949 -0.1372  0.9546  0.6278
 7374SOL     OW33757   1.893   4.110   4.622  0.1700 -0.1174 -0.4169
 7374SOL    HW133758   1.931   4.192   4.653 -1.5221  0.1632  0.9007
 7374SOL    HW233759   1.959   4.073   4.563 -0.2236 -0.9295 -0.3541
 7375SOL     OW33760   4.063   2.146   4.427  0.1250 -0.1420  0.3134
 7375SOL    HW133761   4.070   2.139   4.522 -1.0615  0.3990  0.4435
 7375SOL    HW233762   4.116   2.223   4.405 -0.5432 -0.2549 -1.6527
 7376SOL     OW33763   0.495   0.556  14.008  0.4500 -0.4830 -0.6453
 7376SOL    HW133764   0.488   0.507  14.090 -3.0443  1.1518  0.0219
 7376SOL    HW233765   0.577   0.524  13.970  0.7616 -0.1228 -0.2788
 7377SOL     OW33766   2.955   2.792   2.270  0.2793  0.0978 -0.1346
 7377SOL    HW133767   3.042   2.762   2.297  1.1411  1.7061 -1.1594
 7377SOL    HW233768   2.892   2.759   2.335  1.0301 -0.3696  0.3600
 7378SOL     OW33769   1.718   3.544   3.258 -0.2665  0.0663  0.1026
 7378SOL    HW133770   1.722   3.625   3.207 -0.2339  0.6130  0.9842
 7378SOL    HW233771   1.721   3.480   3.186  2.3637 -0.0749  0.3396
 7379SOL     OW33772   1.593   3.142   8.896  0.4435 -0.5459 -0.1384
 7379SOL    HW133773   1.537   3.206   8.938  0.4112 -0.6584 -0.0126
 7379SOL    HW233774   1.520   3.102   8.848  0.5336  0.6695 -1.2882
 7380SOL     OW33775   1.415   2.147   8.133 -0.2388  0.2776  0.3950
 7380SOL    HW133776   1.404   2.073   8.073  0.8186  0.8386 -0.4991
 7380SOL    HW233777   1.498   2.192   8.115 -1.0643  1.4780 -0.4479
 7381SOL     OW33778   0.135   2.903  17.229 -0.0194  0.2330 -0.5264
 7381SOL    HW133779   0.082   2.982  17.239 -2.7238 -1.8307  1.5624
 7381SOL    HW233780   0.079   2.838  17.272  2.6457 -1.2079  0.7332
 7382SOL     OW33781   2.730   3.817   2.511  0.3117  0.1432  0.5267
 7382SOL    HW133782   2.653   3.865   2.482  1.4492  0.4181 -2.1250
 7382SOL    HW233783   2.691   3.762   2.579 -0.2417  0.6225  0.5960
 7383SOL     OW33784   0.849   1.112  14.875  0.1714  0.3324 -0.1046
 7383SOL    HW133785   0.931   1.103  14.827  1.5880  3.4358  1.7051
 7383SOL    HW233786   0.835   1.202  14.847  0.2836  0.9675  1.8796
 7384SOL     OW33787   1.955   3.496  10.506  0.4690  0.0288  0.0591
 7384SOL    HW133788   1.969   3.406  10.474  0.7015  0.2928 -0.5910
 7384SOL    HW233789   1.875   3.480  10.556 -0.4241  1.5439 -0.9099
 7385SOL     OW33790   4.223   3.913  15.710 -0.2492  0.2710  0.1531
 7385SOL    HW133791   4.286   3.876  15.771  0.1883  0.4874 -0.1658
 7385SOL    HW233792   4.204   3.997  15.752  3.6742  1.1342  0.2188
 7386SOL     OW33793   4.390   2.820   2.698 -0.4558  0.3215 -0.9253
 7386SOL    HW133794   4.331   2.748   2.718 -3.1275  2.6985 -0.3274
 7386SOL    HW233795   4.326   2.891   2.697 -1.4208 -0.5460  1.1324
 7387SOL     OW33796   4.185   2.078   7.389 -0.5523 -0.0221 -0.1267
 7387SOL    HW133797   4.227   2.072   7.303 -0.2270 -1.2740  0.1160
 7387SOL    HW233798   4.178   1.983   7.401 -0.6423 -0.2349 -1.8947
 7388SOL     OW33799   0.835   3.433   9.470 -0.5006 -0.0743  0.0749
 7388SOL    HW133800   0.774   3.491   9.514 -0.5205  0.8703 -1.2043
 7388SOL    HW233801   0.914   3.480   9.496 -0.3702 -0.7733  0.9386
 7389SOL     OW33802   2.411   3.281   2.703 -0.1466  0.3334 -0.2140
 7389SOL    HW133803   2.336   3.221   2.697  0.9516 -1.1444  0.6224
 7389SOL    HW233804   2.485   3.228   2.732 -1.2029 -1.7192 -1.2666
 7390SOL     OW33805   4.434   2.849   4.113  0.0503  0.3627 -0.0907
 7390SOL    HW133806   4.487   2.913   4.161  1.2660  0.3559 -1.4188
 7390SOL    HW233807   4.464   2.860   4.023  3.8740  1.3159  1.2574
 7391SOL     OW33808   3.293   2.467   8.324 -0.5049  0.9089  0.1835
 7391SOL    HW133809   3.293   2.419   8.406 -0.6067  0.4819 -0.0653
 7391SOL    HW233810   3.381   2.442   8.295 -1.1409  0.1199 -1.1181
 7392SOL     OW33811   2.241   2.154   6.337  0.0697  0.6482  0.5759
 7392SOL    HW133812   2.203   2.215   6.273 -2.8440  1.2267  2.8473
 7392SOL    HW233813   2.306   2.103   6.288 -0.4994  2.5680 -2.2007
 7393SOL     OW33814   0.293   2.807   6.641 -0.2007  0.2077 -0.4182
 7393SOL    HW133815   0.314   2.768   6.556 -0.9307 -1.3343  0.1103
 7393SOL    HW233816   0.223   2.747   6.668 -1.0530  1.4465  0.1132
 7394SOL     OW33817   0.832   0.773  12.708  0.6038 -0.0653  0.6118
 7394SOL    HW133818   0.872   0.852  12.671 -2.7654  0.4658 -1.9366
 7394SOL    HW233819   0.781   0.807  12.781 -1.4564 -4.3648  1.2176
 7395SOL     OW33820   2.230   2.979  13.329 -0.0151  0.4233 -0.0094
 7395SOL    HW133821   2.261   3.069  13.320 -1.3154  0.8370 -0.4329
 7395SOL    HW233822   2.236   2.973  13.425  1.4808 -0.3882 -0.1629
 7396SOL     OW33823   1.459   3.289   5.559 -0.1669  0.1104  0.1130
 7396SOL    HW133824   1.513   3.348   5.612  1.5924 -2.5481  1.3010
 7396SOL    HW233825   1.466   3.330   5.473  1.8563  1.2424  0.8050
 7397SOL     OW33826   3.650   2.209   3.011 -0.2403  0.3592  0.0206
 7397SOL    HW133827   3.641   2.266   2.935 -0.7908 -1.0588 -0.9862
 7397SOL    HW233828   3.702   2.135   2.978 -1.7375 -0.9935  0.6924
 7398SOL     OW33829   3.847   1.677   6.152  0.6899 -0.1781  0.1098
 7398SOL    HW133830   3.835   1.584   6.133  1.3408 -0.0312 -1.0459
 7398SOL    HW233831   3.943   1.677   6.153  0.6950  0.2590 -1.1667
 7399SOL     OW33832   2.765   0.422  11.586  0.6954 -0.5574  0.4132
 7399SOL    HW133833   2.755   0.365  11.663 -0.1805 -1.7106 -0.5647
 7399SOL    HW233834   2.694   0.484  11.600  1.5022  0.4275  0.1417
 7400SOL     OW33835   2.930   2.484  16.827 -0.0568  0.0284  0.1157
 7400SOL    HW133836   2.949   2.432  16.750  0.3961  2.3362 -1.3241
 7400SOL    HW233837   2.917   2.570  16.788  0.4597  0.0257 -0.0481
 7401SOL     OW33838   0.442   4.261   7.703 -0.7223 -0.1272 -0.4167
 7401SOL    HW133839   0.369   4.292   7.649  0.0485  0.3280 -1.1934
 7401SOL    HW233840   0.427   4.312   7.783  0.2293  1.5197 -1.2953
 7402SOL     OW33841   0.680   4.472  15.101  0.1804  0.1070 -0.4435
 7402SOL    HW133842   0.705   4.483  15.193  0.2538 -3.9667  0.0027
 7402SOL    HW233843   0.661   4.563  15.076  0.2368 -0.1627 -1.4941
 7403SOL     OW33844   3.983   2.522  12.320 -0.5605 -0.2232 -0.6616
 7403SOL    HW133845   3.956   2.446  12.372 -1.3175  0.5290  0.0505
 7403SOL    HW233846   4.078   2.521  12.308 -0.8147 -0.7812 -2.6339
 7404SOL     OW33847   1.531   2.901   4.107 -0.1437 -0.3685 -0.4017
 7404SOL    HW133848   1.534   2.805   4.106  0.7431 -0.3318 -2.6106
 7404SOL    HW233849   1.516   2.928   4.197  0.5117 -0.5116 -0.2451
 7405SOL     OW33850   4.721   4.137  15.798  0.5588  0.3612  0.2783
 7405SOL    HW133851   4.664   4.082  15.745 -1.5096  0.7038  2.1495
 7405SOL    HW233852   0.006   4.084  15.875 -1.4833 -0.3347  0.3965
 7406SOL     OW33853   0.823   2.428   5.682 -0.0909 -0.4013  0.0552
 7406SOL    HW133854   0.755   2.394   5.740 -1.1882 -3.1833 -2.8930
 7406SOL    HW233855   0.888   2.358   5.681  1.8702  1.4477 -1.2462
 7407SOL     OW33856   3.414   0.633  13.611  0.3685 -0.1607  0.3293
 7407SOL    HW133857   3.441   0.715  13.568  4.5193 -1.3128  0.7633
 7407SOL    HW233858   3.467   0.619  13.689  0.7419 -2.0615 -0.2638
 7408SOL     OW33859   0.446   3.460  14.760  0.3408  0.2209 -1.0960
 7408SOL    HW133860   0.471   3.546  14.726  1.7849  0.7957  1.4354
 7408SOL    HW233861   0.374   3.443  14.700 -2.4874  3.2891  1.4097
 7409SOL     OW33862   3.998   3.105   4.333 -0.1913  0.2555 -0.1606
 7409SOL    HW133863   3.986   3.194   4.367  1.2665  0.4332 -0.1114
 7409SOL    HW233864   3.910   3.076   4.310 -1.0044  1.0654  1.9406
 7410SOL     OW33865   2.851   1.447   6.908  0.0340  0.5239  0.5728
 7410SOL    HW133866   2.827   1.522   6.854  2.4313  1.7023  1.1822
 7410SOL    HW233867   2.833   1.377   6.844 -2.6675  1.9673 -0.2635
 7411SOL     OW33868   0.753   3.807  15.159 -0.0756 -0.0054 -0.0732
 7411SOL    HW133869   0.765   3.873  15.091  4.1280  1.8432  2.4532
 7411SOL    HW233870   0.660   3.811  15.183 -0.8010 -0.0552 -2.8794
 7412SOL     OW33871   0.206   2.099  17.071 -0.0194 -0.2037 -0.8686
 7412SOL    HW133872   0.251   2.146  17.141 -0.5223  0.7596 -1.2057
 7412SOL    HW233873   0.131   2.057  17.113 -0.1444 -0.6935 -1.5872
 7413SOL     OW33874   0.088   3.727   3.324  0.0691  0.6722  0.1171
 7413SOL    HW133875   0.163   3.732   3.383 -0.1848 -0.6933  0.5510
 7413SOL    HW233876   0.051   3.651   3.369  1.5235  0.1622  0.4345
 7414SOL     OW33877   1.324   1.870  17.504 -0.0814 -0.0750 -0.0275
 7414SOL    HW133878   1.410   1.911  17.508  0.4673 -1.2091 -0.2555
 7414SOL    HW233879   1.298   1.873  17.596 -3.6543 -0.6172 -1.0161
 7415SOL     OW33880   0.842   3.770   1.347  0.0615 -0.0511 -0.3145
 7415SOL    HW133881   0.804   3.767   1.259 -1.0449 -0.0153  0.1526
 7415SOL    HW233882   0.841   3.677   1.370  0.1287 -0.2800 -1.2209
 7416SOL     OW33883   1.874   2.752   6.703  0.2093 -0.1340  0.1576
 7416SOL    HW133884   1.821   2.731   6.781  0.9476  0.5682  0.8527
 7416SOL    HW233885   1.961   2.718   6.719  0.4477  0.3089 -0.1841
 7417SOL     OW33886   0.976   3.855   4.847 -0.6738 -0.1678  0.3337
 7417SOL    HW133887   0.933   3.921   4.902  1.2701  0.3859  1.1948
 7417SOL    HW233888   1.044   3.831   4.910 -1.0353 -1.4489  0.2297
 7418SOL     OW33889   1.560   2.906  14.060  0.2734  0.2916  0.0291
 7418SOL    HW133890   1.586   2.845  14.129 -1.2429 -1.5558 -1.0461
 7418SOL    HW233891   1.520   2.846  13.996 -1.6327 -0.5329  2.0391
 7419SOL     OW33892   0.117   4.573   7.488  0.1829  0.7056  0.3008
 7419SOL    HW133893   0.033   4.575   7.442  0.1510 -0.9643  0.2984
 7419SOL    HW233894   0.131   4.667   7.502  0.7647  0.5835  0.5568
 7420SOL     OW33895   3.503   2.287   3.640  0.4140 -0.1160 -0.0638
 7420SOL    HW133896   3.579   2.336   3.671  0.1955 -0.8867  1.7236
 7420SOL    HW233897   3.444   2.300   3.714  0.8477 -0.9970  0.4276
 7421SOL     OW33898   1.819   0.827   3.189  0.3735  0.5172 -0.4044
 7421SOL    HW133899   1.868   0.861   3.114 -0.1854 -1.2258 -1.5444
 7421SOL    HW233900   1.814   0.734   3.166 -0.3728  0.5698 -0.4530
 7422SOL     OW33901   3.286   2.534   5.770  0.6493 -0.4683 -0.0968
 7422SOL    HW133902   3.241   2.597   5.715 -1.7409  0.8201  3.3188
 7422SOL    HW233903   3.367   2.511   5.725 -1.1686 -1.4649 -2.8946
 7423SOL     OW33904   0.863   3.292  13.368 -0.2409 -0.0533 -0.2673
 7423SOL    HW133905   0.879   3.385  13.352 -0.3177  0.1879  1.1394
 7423SOL    HW233906   0.853   3.296  13.463 -1.0738 -3.7996 -0.2165
 7424SOL     OW33907   0.765   1.975   7.604  0.0971  0.4055 -0.5440
 7424SOL    HW133908   0.691   1.918   7.624 -0.1439  1.2332  0.9332
 7424SOL    HW233909   0.780   2.016   7.689  3.0957 -3.7016  0.9035
 7425SOL     OW33910   2.795   4.258   2.020 -0.0721  0.0295 -0.3611
 7425SOL    HW133911   2.839   4.333   2.061  0.8437  0.1833 -1.6358
 7425SOL    HW233912   2.710   4.280   2.058  0.3724  1.8870 -0.4404
 7426SOL     OW33913   2.920   4.726   4.655 -0.1838  0.0361 -0.1346
 7426SOL    HW133914   3.014   4.715   4.642 -0.3728 -1.5694 -0.1503
 7426SOL    HW233915   2.914   0.082   4.675 -1.0916  0.3222 -1.8204
 7427SOL     OW33916   0.316   1.754  13.837  0.3616  0.1741  0.1684
 7427SOL    HW133917   0.302   1.809  13.760  0.4923  0.2509  0.1988
 7427SOL    HW233918   0.407   1.775  13.861  0.9978 -0.9585 -1.2080
 7428SOL     OW33919   3.168   3.490   6.675  0.6230 -0.0710  0.7324
 7428SOL    HW133920   3.090   3.472   6.623  0.3783  2.4279  0.2038
 7428SOL    HW233921   3.135   3.495   6.765  0.0742 -0.0210  0.5313
 7429SOL     OW33922   1.226   1.937   6.981 -0.1983 -0.4155 -0.3208
 7429SOL    HW133923   1.292   1.983   6.928 -1.6492  0.1635 -1.6187
 7429SOL    HW233924   1.266   1.938   7.068  0.7076  0.7062 -0.7408
 7430SOL     OW33925   2.080   2.223  10.576 -0.0343  0.3189 -0.3342
 7430SOL    HW133926   2.038   2.149  10.619 -1.6246  1.9913  0.9416
 7430SOL    HW233927   2.095   2.287  10.646  2.3587 -1.8711  1.1797
 7431SOL     OW33928   2.637   3.392   1.836 -0.8785  0.1006 -0.8402
 7431SOL    HW133929   2.565   3.432   1.787 -0.0330  1.6364 -0.8466
 7431SOL    HW233930   2.592   3.339   1.902 -0.0881 -0.2360 -0.5722
 7432SOL     OW33931   0.436   2.810   3.913 -0.4344 -0.3757 -0.0484
 7432SOL    HW133932   0.487   2.756   3.974  0.1413 -0.2053 -0.3790
 7432SOL    HW233933   0.349   2.816   3.952 -1.3748 -1.3492 -1.9993
 7433SOL     OW33934   0.625   2.322   4.851  0.3350  0.4936  0.2691
 7433SOL    HW133935   0.593   2.298   4.938 -0.5872  1.6420  0.2465
 7433SOL    HW233936   0.620   2.235   4.812  0.0037  1.4441 -1.8278
 7434SOL     OW33937   3.564   1.035   9.419  0.3442  0.9003  0.2637
 7434SOL    HW133938   3.545   0.957   9.367  1.0607  0.2042  1.0577
 7434SOL    HW233939   3.659   1.024   9.421  0.2512  0.3537  1.3284
 7435SOL     OW33940   1.372   2.362  15.676 -0.2790  0.4515 -0.0352
 7435SOL    HW133941   1.451   2.319  15.645  0.5137  1.1687  1.0014
 7435SOL    HW233942   1.355   2.430  15.611  0.8720  0.1849 -0.6093
 7436SOL     OW33943   3.775   3.240   1.357  0.1301 -0.2752  0.7316
 7436SOL    HW133944   3.849   3.291   1.390 -0.9791  2.0336 -0.3808
 7436SOL    HW233945   3.771   3.260   1.264 -1.0701  1.0273  1.0684
 7437SOL     OW33946   4.711   4.053   4.048 -0.2999  0.1530 -0.4005
 7437SOL    HW133947   4.736   3.965   4.076  0.0060  0.5579  0.5957
 7437SOL    HW233948   4.689   4.040   3.956 -2.9696  0.6560  0.1670
 7438SOL     OW33949   1.847   0.150   3.501 -0.2137  0.2024  0.4522
 7438SOL    HW133950   1.917   0.190   3.450 -1.4765 -0.0614 -1.4734
 7438SOL    HW233951   1.882   0.173   3.587 -2.7622  0.3425  1.4280
 7439SOL     OW33952   0.311   0.586   8.253  0.2420  0.6103  0.0009
 7439SOL    HW133953   0.242   0.554   8.312  1.7028  1.5426  2.2157
 7439SOL    HW233954   0.294   0.539   8.172 -0.9254  0.8287  0.1135
 7440SOL     OW33955   0.515   3.398   3.859  0.0882  0.9204 -0.3112
 7440SOL    HW133956   0.505   3.378   3.953 -1.2546  0.5807 -0.5247
 7440SOL    HW233957   0.555   3.313   3.842 -0.7046  0.5614 -0.3516
 7441SOL     OW33958   2.304   4.473   7.900  0.4068  0.5501 -0.1625
 7441SOL    HW133959   2.213   4.468   7.870  0.0714  0.3218  0.8947
 7441SOL    HW233960   2.359   4.486   7.822  1.0081 -3.1168 -0.3665
 7442SOL     OW33961   0.310   2.008  14.117  0.0055 -0.1909 -0.4014
 7442SOL    HW133962   0.259   2.002  14.036  0.8212  3.4360 -1.1861
 7442SOL    HW233963   0.260   2.068  14.172 -1.6117  0.3817 -2.5030
 7443SOL     OW33964   3.153   3.289   5.966 -0.5772  0.7012  0.3583
 7443SOL    HW133965   3.221   3.227   5.942 -2.8305 -1.1414 -1.2397
 7443SOL    HW233966   3.103   3.283   5.884  2.1664 -1.7266 -1.1339
 7444SOL     OW33967   2.958   0.446   6.542 -0.0645  0.8353 -0.3022
 7444SOL    HW133968   3.004   0.453   6.458  0.3131  3.0250  0.0737
 7444SOL    HW233969   3.029   0.444   6.607 -0.8860 -2.0558  0.4971
 7445SOL     OW33970   3.893   0.643  17.732 -0.5150  0.6737 -0.4227
 7445SOL    HW133971   3.874   0.582  17.661  0.2250  0.1184 -0.1330
 7445SOL    HW233972   3.973   0.685  17.701 -0.2070 -0.4673 -1.1746
 7446SOL     OW33973   3.327   1.464   8.377 -0.2826  0.1495  0.0953
 7446SOL    HW133974   3.271   1.426   8.444 -0.0820  0.8232  0.6397
 7446SOL    HW233975   3.385   1.392   8.351 -2.5435 -1.2405 -1.1341
 7447SOL     OW33976   1.735   4.357   6.870 -0.5353  0.4958 -0.0041
 7447SOL    HW133977   1.750   4.264   6.853  0.6732  1.1610 -2.4449
 7447SOL    HW233978   1.810   4.387   6.920 -0.4757 -1.6530  1.2039
 7448SOL     OW33979   2.647   1.999   3.014  0.1222 -0.2554  0.4673
 7448SOL    HW133980   2.699   1.994   3.095 -1.0807  1.9568  1.3832
 7448SOL    HW233981   2.558   1.971   3.033 -0.1478  0.9754  1.0069
 7449SOL     OW33982   3.189   2.728   3.332 -0.2661 -0.2470 -0.1059
 7449SOL    HW133983   3.225   2.727   3.243  0.2703 -3.4983  0.1398
 7449SOL    HW233984   3.227   2.809   3.365  0.6071 -0.7278  0.0827
 7450SOL     OW33985   2.912   0.299   4.639 -0.0430  0.5598 -0.4262
 7450SOL    HW133986   2.821   0.291   4.669  0.1483 -1.5383 -0.4142
 7450SOL    HW233987   2.905   0.341   4.553 -0.1644  1.6543  0.1161
 7451SOL     OW33988   4.641   0.930   9.308  0.6819  0.6177  0.4850
 7451SOL    HW133989   4.685   0.846   9.294  0.3259  0.3821  0.7722
 7451SOL    HW233990   4.708   0.989   9.274  1.3233  0.1190  0.8622
 7452SOL     OW33991   1.402   2.914   9.635  0.2790 -0.3254 -0.4374
 7452SOL    HW133992   1.401   2.955   9.549 -1.5152 -0.4226 -0.4762
 7452SOL    HW233993   1.407   2.823   9.605  3.0119 -0.4042  0.2299
 7453SOL     OW33994   0.562   1.310  14.916 -0.0157 -0.1965  0.9130
 7453SOL    HW133995   0.652   1.324  14.889  0.6100 -1.0098  2.6030
 7453SOL    HW233996   0.574   1.324  15.010  0.2522 -0.1811  0.8762
 7454SOL     OW33997   2.587   1.490   7.882  0.5349  0.0660  0.7056
 7454SOL    HW133998   2.633   1.411   7.912 -0.6847 -0.4502  1.1930
 7454SOL    HW233999   2.499   1.485   7.918  0.6349 -0.9712  0.8085
 7455SOL     OW34000   2.407   2.356   4.283 -0.2952  0.0731  0.2050
 7455SOL    HW134001   2.483   2.349   4.339 -0.5963 -1.6627  0.4009
 7455SOL    HW234002   2.422   2.300   4.207 -3.2320 -1.1663  0.5286
 7456SOL     OW34003   0.227   3.908  16.366 -0.2512  0.7604 -0.2013
 7456SOL    HW134004   0.285   3.900  16.442 -0.5404  1.7969  0.1219
 7456SOL    HW234005   0.157   3.966  16.396 -0.1024  1.8584 -1.9690
 7457SOL     OW34006   2.981   4.505   6.301 -0.2718  0.0955 -0.4430
 7457SOL    HW134007   3.004   4.508   6.208 -0.1213  0.7181 -0.3860
 7457SOL    HW234008   2.893   4.544   6.297 -0.5918 -0.5050  0.8434
 7458SOL     OW34009   2.297   0.503   7.262  0.0616  0.1220  0.2180
 7458SOL    HW134010   2.341   0.528   7.181  0.0765 -0.0041  0.1874
 7458SOL    HW234011   2.243   0.435   7.221 -1.7004  0.3005  2.2223
 7459SOL     OW34012   1.151   1.872   0.003  0.2224  0.1181 -0.6186
 7459SOL    HW134013   1.166   1.902   0.092  1.0682  0.4656 -0.8715
 7459SOL    HW234014   1.099   1.947  17.724  0.4151  0.3351 -0.3987
 7460SOL     OW34015   4.572   1.941   6.757 -0.2668 -0.1730 -0.0140
 7460SOL    HW134016   4.653   1.921   6.711 -0.7622 -0.5299 -0.7344
 7460SOL    HW234017   4.525   1.996   6.694 -0.0196  0.2775  0.1953
 7461SOL     OW34018   3.498   4.554   3.943 -0.5016  0.3222 -0.2973
 7461SOL    HW134019   3.536   4.546   3.855  2.8763 -1.0689  1.2801
 7461SOL    HW234020   3.408   4.579   3.922 -1.3062 -2.0729  0.3458
 7462SOL     OW34021   2.766   1.332   1.865 -0.5426  0.1081  0.4457
 7462SOL    HW134022   2.732   1.376   1.787 -0.7207 -2.3691 -0.8632
 7462SOL    HW234023   2.778   1.405   1.926 -2.4088  1.5425 -0.9076
 7463SOL     OW34024   3.531   3.026  13.021 -0.2494 -0.1871 -0.0271
 7463SOL    HW134025   3.533   3.094  13.089 -0.4485  1.2718 -1.4923
 7463SOL    HW234026   3.548   2.943  13.066 -0.4926 -0.4535 -0.4381
 7464SOL     OW34027   3.871   3.565   5.769  0.1681  0.3448 -0.1015
 7464SOL    HW134028   3.884   3.486   5.715 -1.2965 -1.0232  1.5443
 7464SOL    HW234029   3.853   3.521   5.852  3.1667  0.1180  0.4113
 7465SOL     OW34030   0.913   4.586   5.413 -0.7649  0.0448  0.2205
 7465SOL    HW134031   0.852   4.582   5.486 -0.8378 -0.1030  0.1511
 7465SOL    HW234032   0.893   4.674   5.379 -1.0056 -1.0220 -2.3752
 7466SOL     OW34033   3.551   1.190   3.244  0.4982  0.0683 -0.6280
 7466SOL    HW134034   3.557   1.272   3.194  0.3906  0.0670 -0.6432
 7466SOL    HW234035   3.472   1.154   3.204 -0.1574  1.4403 -0.6019
 7467SOL     OW34036   2.534   3.930   2.348 -0.1008  0.0776  0.3756
 7467SOL    HW134037   2.452   3.880   2.351 -0.6999  1.2286  3.3758
 7467SOL    HW234038   2.558   3.914   2.257 -2.4062 -0.6162 -0.1156
 7468SOL     OW34039   1.238   3.838   6.150 -0.3464 -0.9300 -0.2692
 7468SOL    HW134040   1.228   3.913   6.093 -0.1044 -0.3470  0.4566
 7468SOL    HW234041   1.160   3.789   6.124  0.1481 -0.4009 -2.7010
 7469SOL     OW34042   4.518   4.615   4.616 -0.3194  0.0746  0.0298
 7469SOL    HW134043   4.522   4.671   4.693 -0.1551  0.9879 -0.6384
 7469SOL    HW234044   4.463   4.547   4.656 -0.3963  0.0107 -0.1838
 7470SOL     OW34045   4.189   1.102   7.293 -0.0016  0.6699  0.1968
 7470SOL    HW134046   4.275   1.138   7.315  0.1341  0.0639  0.6553
 7470SOL    HW234047   4.128   1.159   7.342 -1.2262 -1.0258  0.6416
 7471SOL     OW34048   4.572   0.906   4.592 -0.1184 -0.2129  0.0855
 7471SOL    HW134049   4.601   0.825   4.633  1.6338  1.0598  1.3994
 7471SOL    HW234050   4.490   0.880   4.552 -0.8910  0.5137  1.1694
 7472SOL     OW34051   4.427   3.936   6.899  0.7002  0.3453 -0.4109
 7472SOL    HW134052   4.457   3.860   6.950  1.6116 -0.2880 -1.9050
 7472SOL    HW234053   4.333   3.924   6.913  0.6835 -0.8274 -1.4960
 7473SOL     OW34054   2.603   4.526   3.114 -0.4274  0.2332 -0.0369
 7473SOL    HW134055   2.566   4.501   3.030 -0.2812  0.3305 -0.1297
 7473SOL    HW234056   2.521   4.535   3.163  0.1579 -1.2233  1.2391
 7474SOL     OW34057   3.076   2.919   2.555 -0.3306  0.4309 -0.2526
 7474SOL    HW134058   2.984   2.924   2.528 -0.1816 -0.7400 -0.9916
 7474SOL    HW234059   3.105   2.833   2.523 -1.4427  0.2435 -0.7559
 7475SOL     OW34060   3.653   4.160   4.374  0.3104  0.0112 -0.0523
 7475SOL    HW134061   3.647   4.091   4.439 -0.1453  1.2875  1.2637
 7475SOL    HW234062   3.694   4.228   4.428  0.9896 -0.0641 -0.4776
 7476SOL     OW34063   2.075   1.333   6.745  0.1645  0.9169 -0.2471
 7476SOL    HW134064   2.008   1.328   6.677  1.4887 -2.9706 -1.2563
 7476SOL    HW234065   2.063   1.418   6.788 -0.9524  0.1037  1.0657
 7477SOL     OW34066   1.584   0.387  15.987  0.1599 -0.0948  0.0292
 7477SOL    HW134067   1.662   0.351  16.030 -1.5431 -1.1265  2.2543
 7477SOL    HW234068   1.614   0.478  15.987 -0.8667  0.2397  2.1230
 7478SOL     OW34069   0.178   2.409   6.794  0.0669  0.0219  0.3154
 7478SOL    HW134070   0.130   2.489   6.817 -0.3925 -0.9354  2.7843
 7478SOL    HW234071   0.203   2.414   6.702 -1.0738  1.4598  0.0917
 7479SOL     OW34072   0.793   2.144   2.490  0.3057 -0.5697  0.1479
 7479SOL    HW134073   0.770   2.052   2.480  0.1488 -0.6881  1.6264
 7479SOL    HW234074   0.742   2.186   2.420  0.9294  0.9754  0.6211
 7480SOL     OW34075   3.158   4.087   1.050 -0.3565  0.0182 -0.2391
 7480SOL    HW134076   3.212   4.085   0.971  0.6893 -2.3878  0.5383
 7480SOL    HW234077   3.210   4.022   1.098 -0.5119  0.3759  0.4177
 7481SOL     OW34078   3.265   0.866   4.903  0.1325  0.2734 -0.2712
 7481SOL    HW134079   3.316   0.793   4.869  2.2987  1.2218  1.0013
 7481SOL    HW234080   3.227   0.837   4.986  1.2659  0.8171  0.4274
 7482SOL     OW34081   2.289   4.311  17.382  0.1610  0.1264 -0.0276
 7482SOL    HW134082   2.216   4.362  17.414  0.3352  0.2629  0.1529
 7482SOL    HW234083   2.254   4.224  17.402 -1.6226  0.3794 -2.0498
 7483SOL     OW34084   1.004   2.074   8.127  0.0094 -0.0771 -0.0003
 7483SOL    HW134085   1.069   2.004   8.131  1.0250  0.8671  0.1848
 7483SOL    HW234086   0.931   2.028   8.168  0.9944 -1.5912  0.0365
 7484SOL     OW34087   3.241   4.148   6.152 -0.0716 -0.3168 -0.1581
 7484SOL    HW134088   3.189   4.069   6.168  0.8207 -0.5038  1.8590
 7484SOL    HW234089   3.185   4.207   6.101  0.4489  1.3320  1.1535
 7485SOL     OW34090   0.111   2.211  16.668  0.2603 -0.2173  0.0049
 7485SOL    HW134091   0.113   2.142  16.735 -1.9822  0.8066  1.1176
 7485SOL    HW234092   0.099   2.165  16.585 -3.5803  0.1893  0.3312
 7486SOL     OW34093   1.119   4.569   9.574  0.2607  0.6293 -0.1031
 7486SOL    HW134094   1.132   4.610   9.659  1.6642 -0.2259  0.1080
 7486SOL    HW234095   1.091   4.481   9.599  0.5488  0.0533 -1.7685
 7487SOL     OW34096   0.890   1.845   2.311  0.4124  0.3793 -0.4498
 7487SOL    HW134097   0.808   1.846   2.362 -0.5141  1.9480 -1.9409
 7487SOL    HW234098   0.873   1.912   2.245  1.8083 -1.8794 -3.0783
 7488SOL     OW34099   0.558   3.409   1.931  0.5460 -0.2115  0.2948
 7488SOL    HW134100   0.496   3.377   1.865 -0.5679 -0.1754  1.3284
 7488SOL    HW234101   0.610   3.474   1.884 -0.9038  0.3825 -0.4839
 7489SOL     OW34102   4.407   0.237  12.981  0.0900  0.1706 -0.0337
 7489SOL    HW134103   4.376   0.235  13.072 -1.5839  0.8106 -0.5894
 7489SOL    HW234104   4.454   0.154  12.981 -0.8195 -0.3396 -0.7208
 7490SOL     OW34105   2.733   2.391   1.441  0.7270  0.5079 -0.1210
 7490SOL    HW134106   2.801   2.334   1.405  1.2268  1.7487 -1.1553
 7490SOL    HW234107   2.665   2.390   1.374  0.0082 -2.3117  0.6471
 7491SOL     OW34108   0.102   4.398   3.455  0.5797 -0.3842  0.0414
 7491SOL    HW134109   0.015   4.360   3.465  0.3262  0.2269  0.1535
 7491SOL    HW234110   0.139   4.395   3.543  1.2359  0.3069 -0.2106
 7492SOL     OW34111   1.361   3.684   4.559 -0.6183  0.5620 -0.2944
 7492SOL    HW134112   1.404   3.735   4.628  1.0827 -0.5189 -0.5586
 7492SOL    HW234113   1.271   3.702   4.585 -0.6989 -1.2885  0.7068
 7493SOL     OW34114   2.121   2.445   0.874 -0.3094  0.2000  0.1798
 7493SOL    HW134115   2.115   2.530   0.830  0.7039  0.3697  0.3618
 7493SOL    HW234116   2.116   2.463   0.968  0.0990  0.7043  0.1040
 7494SOL     OW34117   1.636   2.925   5.719  0.3562  0.1306 -0.3202
 7494SOL    HW134118   1.587   2.979   5.781  1.0235 -0.5281  0.7738
 7494SOL    HW234119   1.563   2.898   5.663 -0.6234  0.3243  0.8673
 7495SOL     OW34120   1.704   2.313   8.734  0.0689  0.2718 -0.0904
 7495SOL    HW134121   1.639   2.282   8.797  0.1967 -1.5946 -0.8836
 7495SOL    HW234122   1.765   2.361   8.790  1.2997 -2.0607  0.5589
 7496SOL     OW34123   3.518   2.742  11.079 -0.6450  0.4487  0.1831
 7496SOL    HW134124   3.537   2.794  11.157  3.2632 -0.3103 -0.2529
 7496SOL    HW234125   3.504   2.655  11.117 -2.3211  1.6329  2.3056
 7497SOL     OW34126   2.518   1.773   2.307 -0.9416 -0.2026 -0.0044
 7497SOL    HW134127   2.431   1.794   2.274 -1.9764  0.4285  3.1080
 7497SOL    HW234128   2.519   1.830   2.383 -1.1742  0.2367 -0.3290
 7498SOL     OW34129   1.875   2.182   9.160  0.3955 -0.0944  0.2535
 7498SOL    HW134130   1.895   2.196   9.068 -1.6554 -0.5283 -0.2518
 7498SOL    HW234131   1.944   2.119   9.183 -0.5114  0.3664  4.3004
 7499SOL     OW34132   1.023   3.169   5.233 -0.6885 -0.1974  0.2826
 7499SOL    HW134133   1.036   3.229   5.160 -2.0934 -0.9997 -0.6337
 7499SOL    HW234134   1.009   3.094   5.175 -1.0000  0.0975 -0.0203
 7500SOL     OW34135   0.802   1.182   7.009 -0.6622  0.2067  0.0906
 7500SOL    HW134136   0.706   1.178   7.016 -0.7340 -0.7609 -1.6130
 7500SOL    HW234137   0.827   1.169   7.101  0.9265  0.1164 -0.3584
 7501SOL     OW34138   0.569   3.682  14.651  0.4567 -0.0858  0.1565
 7501SOL    HW134139   0.597   3.714  14.736 -2.3686 -0.0884  1.0791
 7501SOL    HW234140   0.549   3.761  14.601  0.7214 -0.0259  0.1444
 7502SOL     OW34141   1.216   2.317  13.367  0.3370 -0.2871  0.3365
 7502SOL    HW134142   1.196   2.331  13.274 -1.6027  0.6551  0.8991
 7502SOL    HW234143   1.301   2.360  13.354  0.1689 -0.0206  0.1169
 7503SOL     OW34144   4.011   3.018  12.511  0.0392 -0.2160 -0.5267
 7503SOL    HW134145   4.048   3.102  12.537  1.2668 -1.0950  0.5992
 7503SOL    HW234146   3.923   3.041  12.481 -0.8315  0.7302  2.7069
 7504SOL     OW34147   3.101   4.065   3.793  0.4125 -0.2462  0.0335
 7504SOL    HW134148   3.092   4.148   3.841 -3.3577  0.6336 -2.2386
 7504SOL    HW234149   3.190   4.049   3.761  0.5009 -1.1769  0.7441
 7505SOL     OW34150   0.193   2.527   1.126  0.1809 -0.2553 -0.1918
 7505SOL    HW134151   0.206   2.448   1.178 -0.1241  0.4111  0.9109
 7505SOL    HW234152   0.258   2.521   1.056 -0.3351  0.1097 -0.7047
 7506SOL     OW34153   3.105   1.614   5.455 -0.1433  0.4337 -0.3363
 7506SOL    HW134154   3.165   1.594   5.383  0.4829  0.2475  0.2461
 7506SOL    HW234155   3.150   1.691   5.488 -1.9219  0.6832  1.4959
 7507SOL     OW34156   1.022   1.445  12.054  0.2973 -0.6891  0.4451
 7507SOL    HW134157   1.104   1.395  12.061 -0.9637 -3.0872 -1.5253
 7507SOL    HW234158   1.002   1.454  12.147  0.0309 -1.3694  0.4550
 7508SOL     OW34159   0.813   0.923  12.940  0.6032  0.4228 -0.0156
 7508SOL    HW134160   0.838   0.985  12.872 -1.4067  3.2171  1.7332
 7508SOL    HW234161   0.761   0.975  13.002  0.6425  1.6632 -1.0193
 7509SOL     OW34162   0.154   3.109   5.905 -0.2019 -0.3746  0.4734
 7509SOL    HW134163   0.099   3.048   5.856 -0.7453  0.4141  0.0960
 7509SOL    HW234164   0.146   3.070   5.992  0.1197 -2.9243 -0.6506
 7510SOL     OW34165   1.526   4.484   2.449  0.1676  0.3140  0.3817
 7510SOL    HW134166   1.510   4.468   2.542 -0.9109 -0.8532 -0.0079
 7510SOL    HW234167   1.517   4.396   2.414 -2.0099 -0.2493  2.3402
 7511SOL     OW34168   3.342   1.079   4.747  0.6219 -0.5679 -0.1098
 7511SOL    HW134169   3.432   1.056   4.724  0.5646 -0.8707 -0.0302
 7511SOL    HW234170   3.321   1.002   4.799 -0.7632 -0.5294 -0.6280
 7512SOL     OW34171   3.332   1.122  16.073  0.0692  0.8061 -0.2379
 7512SOL    HW134172   3.250   1.136  16.120  0.6381  0.8047  0.7502
 7512SOL    HW234173   3.346   1.028  16.057  1.5185  1.2870 -1.7869
 7513SOL     OW34174   4.370   2.814   4.403  0.4057 -0.5110 -0.3397
 7513SOL    HW134175   4.416   2.891   4.370  0.3323  0.5746  2.1024
 7513SOL    HW234176   4.445   2.759   4.429 -0.0734  0.5111  3.1905
 7514SOL     OW34177   3.775   0.030  12.485 -0.2186 -0.3337 -0.2029
 7514SOL    HW134178   3.756   0.048  12.393  1.8797 -1.0693 -0.7891
 7514SOL    HW234179   3.715   0.089  12.530  0.2492 -0.9955  1.3023
 7515SOL     OW34180   2.896   0.336   5.052  0.0785  0.8278 -0.0314
 7515SOL    HW134181   2.935   0.412   5.094 -0.1170  0.8127  0.1800
 7515SOL    HW234182   2.804   0.329   5.080  0.0663 -0.9718 -0.5390
 7516SOL     OW34183   1.191   0.516   8.993  0.1148  0.3534 -0.1440
 7516SOL    HW134184   1.245   0.551   8.922  0.9761 -3.4813 -1.3941
 7516SOL    HW234185   1.119   0.491   8.935  0.1549  0.8099 -0.3869
 7517SOL     OW34186   2.051   4.047   4.911 -0.3676  0.0269 -0.1261
 7517SOL    HW134187   1.966   4.080   4.881 -0.4006 -1.2103 -1.3993
 7517SOL    HW234188   2.028   3.954   4.916  0.3623 -0.0096  2.3519
 7518SOL     OW34189   4.479   0.180   2.289  0.7587  0.4185 -0.0014
 7518SOL    HW134190   4.439   0.179   2.202 -0.4291 -2.1317  0.5705
 7518SOL    HW234191   4.535   0.102   2.289  1.4326  0.8741  3.4461
 7519SOL     OW34192   0.157   4.135   4.486  0.2627 -0.1018 -0.6480
 7519SOL    HW134193   0.239   4.184   4.487  1.3696 -2.0076  1.3793
 7519SOL    HW234194   0.105   4.199   4.535 -0.9025 -1.1526 -0.5053
 7520SOL     OW34195   0.934   0.994  11.387 -0.5003  0.2882 -0.5821
 7520SOL    HW134196   0.988   1.016  11.463 -1.6483 -3.2800  1.2545
 7520SOL    HW234197   0.929   0.899  11.401  0.4967  0.4426  0.7753
 7521SOL     OW34198   4.312   1.678   3.334  0.0699 -0.3160 -0.2134
 7521SOL    HW134199   4.332   1.733   3.259  1.2797 -0.0186  0.3260
 7521SOL    HW234200   4.394   1.657   3.379 -0.3638  0.9344  1.1456
 7522SOL     OW34201   0.894   4.077   8.128 -0.0693 -0.0312 -0.4065
 7522SOL    HW134202   0.869   4.096   8.037  1.2643  1.8996 -0.3577
 7522SOL    HW234203   0.887   4.164   8.166  0.3322  0.0951 -0.6267
 7523SOL     OW34204   2.402   3.926   8.839  0.3010 -0.1712  0.6905
 7523SOL    HW134205   2.378   3.882   8.758  1.6962  0.3051  0.0072
 7523SOL    HW234206   2.318   3.970   8.851  0.2440  0.1161 -0.7287
 7524SOL     OW34207   1.888   1.980   5.029 -0.1474 -0.1201 -0.0137
 7524SOL    HW134208   1.825   2.028   5.082 -2.9169 -0.5400 -2.9101
 7524SOL    HW234209   1.972   2.003   5.068 -0.9834  3.6450 -0.3620
 7525SOL     OW34210   1.400   4.562   7.075  0.5106 -0.5633  0.1876
 7525SOL    HW134211   1.407   4.473   7.042 -1.9157 -0.6992  0.0124
 7525SOL    HW234212   1.455   4.601   7.008 -0.0017 -0.7520 -0.3415
 7526SOL     OW34213   4.400   4.537   5.896  0.1064  0.3497  0.1422
 7526SOL    HW134214   4.360   4.585   5.824  1.4496  2.8618  1.0719
 7526SOL    HW234215   4.330   4.473   5.906  1.3272 -1.1108 -0.7652
 7527SOL     OW34216   2.108   1.334   3.580  0.4924  0.1060 -0.3941
 7527SOL    HW134217   2.016   1.341   3.554 -0.2126  1.8326  2.5163
 7527SOL    HW234218   2.129   1.413   3.629 -1.0872 -0.2164  0.8003
 7528SOL     OW34219   1.989   4.648   2.673  0.4733 -0.3314  0.6142
 7528SOL    HW134220   1.947   4.730   2.647  1.2831 -0.2750 -0.5434
 7528SOL    HW234221   1.920   4.601   2.720  0.3026 -0.6615  0.0374
 7529SOL     OW34222   0.971   2.435   9.271 -0.0045  0.0227 -0.0096
 7529SOL    HW134223   0.926   2.359   9.307  0.8169  0.3666  1.7697
 7529SOL    HW234224   0.954   2.494   9.345  0.8518  1.7213 -1.1533
 7530SOL     OW34225   3.204   0.342  12.044 -0.3199 -0.2210 -0.5625
 7530SOL    HW134226   3.231   0.431  12.023  1.3046 -0.4284  0.6344
 7530SOL    HW234227   3.155   0.369  12.122  0.1446 -0.5901 -0.1390
 7531SOL     OW34228   2.259   0.355   2.209 -0.0218 -0.5036 -0.0978
 7531SOL    HW134229   2.301   0.269   2.212 -1.9642 -1.4592 -0.4391
 7531SOL    HW234230   2.266   0.373   2.116 -1.2374  2.4647  0.3861
 7532SOL     OW34231   4.136   3.345   6.810 -0.1154 -0.7481  0.0122
 7532SOL    HW134232   4.214   3.290   6.817  1.4724  1.8447  2.5837
 7532SOL    HW234233   4.105   3.306   6.728  0.6091 -0.3750 -0.4344
 7533SOL     OW34234   0.580   0.155   8.413  0.6284  0.5831  0.2285
 7533SOL    HW134235   0.628   0.133   8.334  1.8987  0.1868  1.1155
 7533SOL    HW234236   0.583   0.073   8.461 -2.2649  0.0855 -0.4559
 7534SOL     OW34237   1.484   0.586  12.230 -0.5528  0.4717  0.0290
 7534SOL    HW134238   1.530   0.585  12.146 -0.6539 -2.2791  0.0323
 7534SOL    HW234239   1.532   0.512  12.265 -1.1796 -0.5460 -1.2490
 7535SOL     OW34240   1.673   3.733   2.375  0.3243 -0.0880 -0.3881
 7535SOL    HW134241   1.651   3.812   2.425  0.1755  0.6048 -1.5447
 7535SOL    HW234242   1.681   3.678   2.452 -1.0800  1.1459  0.6496
 7536SOL     OW34243   3.200   3.356   2.936  0.0829 -0.1010  0.3186
 7536SOL    HW134244   3.196   3.263   2.957 -3.8116  0.3539  1.4519
 7536SOL    HW234245   3.254   3.362   2.857 -1.1016  1.0925 -0.3965
 7537SOL     OW34246   3.009   1.129   1.484 -0.1649 -0.4301 -0.4852
 7537SOL    HW134247   2.927   1.134   1.533  0.7486  0.6886  0.9345
 7537SOL    HW234248   3.062   1.068   1.536 -1.2580 -0.9035  0.0726
 7538SOL     OW34249   0.594   1.483  12.716  0.0231 -0.9720  0.0413
 7538SOL    HW134250   0.626   1.456  12.630  0.8504  0.6174 -0.1409
 7538SOL    HW234251   0.536   1.556  12.691  2.9106  1.7619  1.3200
 7539SOL     OW34252   2.247   0.956   7.257  0.0623 -0.6770  0.6653
 7539SOL    HW134253   2.172   0.930   7.204  1.6810  1.0743 -2.4735
 7539SOL    HW234254   2.240   0.890   7.326 -2.1977 -2.7932 -1.5916
 7540SOL     OW34255   1.397   4.631   8.994 -0.2221  0.3240 -0.0387
 7540SOL    HW134256   1.463   4.615   8.927 -0.0798 -0.1538  0.2193
 7540SOL    HW234257   1.338   4.560   8.970  1.8361 -1.2797 -0.3139
 7541SOL     OW34258   0.775   1.096   5.018  0.2720  0.0190 -0.0116
 7541SOL    HW134259   0.779   1.185   5.053  0.9662 -0.1589  0.3532
 7541SOL    HW234260   0.709   1.062   5.079  0.2690 -0.5943 -0.3541
 7542SOL     OW34261   0.080   3.254  13.295 -0.3822 -0.8161 -0.3939
 7542SOL    HW134262   0.087   3.348  13.281  2.8720 -0.9207  0.3888
 7542SOL    HW234263   0.001   3.231  13.247 -0.4672  0.2976 -0.7903
 7543SOL     OW34264   3.649   3.257   3.439 -0.2492  0.1745  0.2845
 7543SOL    HW134265   3.597   3.335   3.457  1.7560  1.6788 -0.4235
 7543SOL    HW234266   3.713   3.266   3.510 -0.0392  0.3440  0.0739
 7544SOL     OW34267   3.687   0.852   3.339  0.2801 -0.5758 -0.0208
 7544SOL    HW134268   3.612   0.870   3.282  0.0991 -3.8870 -0.8065
 7544SOL    HW234269   3.658   0.776   3.389  0.8480 -1.2142 -0.6474
 7545SOL     OW34270   2.867   0.569   4.861  0.0392  0.3190 -0.0786
 7545SOL    HW134271   2.833   0.479   4.865  0.1471  0.3256  0.9183
 7545SOL    HW234272   2.918   0.572   4.942 -2.4542  1.5720  1.4537
 7546SOL     OW34273   2.005   3.984  10.308 -0.8336 -0.3211  0.2541
 7546SOL    HW134274   2.080   3.936  10.275  0.3084  1.4121  0.3410
 7546SOL    HW234275   2.017   3.987  10.403  1.8238 -1.8611 -0.0349
 7547SOL     OW34276   3.586   3.314   5.828 -0.1506  0.2876 -0.9743
 7547SOL    HW134277   3.582   3.354   5.741 -4.7293 -1.3425 -1.5053
 7547SOL    HW234278   3.674   3.276   5.831  1.0396  3.1493  0.1021
 7548SOL     OW34279   2.655   2.582   5.794  0.3969  0.2339 -0.8910
 7548SOL    HW134280   2.735   2.580   5.847  0.4597  3.0607 -0.8948
 7548SOL    HW234281   2.592   2.576   5.867 -0.4947 -2.9696 -1.9009
 7549SOL     OW34282   2.917   0.094   0.466 -0.3892 -1.4791 -0.1087
 7549SOL    HW134283   2.940   0.004   0.441  0.1411 -0.9661 -1.5368
 7549SOL    HW234284   2.911   0.086   0.561 -1.2849  0.5858  0.0003
 7550SOL     OW34285   3.846   1.357   4.130  0.3462 -0.3606 -0.8585
 7550SOL    HW134286   3.809   1.319   4.211  0.2923 -1.9302 -1.6172
 7550SOL    HW234287   3.805   1.315   4.055  1.4908  1.0109 -2.2280
 7551SOL     OW34288   1.428   3.880   9.900 -0.2231 -0.1618  0.5084
 7551SOL    HW134289   1.494   3.848   9.962  1.4362  2.3256  0.0046
 7551SOL    HW234290   1.431   3.820   9.826 -2.9520 -0.0223  0.2855
 7552SOL     OW34291   0.763   0.525   6.648  0.6521  0.0149 -0.7750
 7552SOL    HW134292   0.670   0.533   6.627 -0.0509 -2.6541  1.3282
 7552SOL    HW234293   0.786   0.617   6.663  1.2736 -0.6283  2.2863
 7553SOL     OW34294   0.369   1.229   7.381 -0.4499 -0.2321 -0.0492
 7553SOL    HW134295   0.413   1.197   7.302 -0.3083  3.3220 -1.3854
 7553SOL    HW234296   0.429   1.299   7.409  0.2892 -0.9849  0.2651
 7554SOL     OW34297   4.657   1.502   6.540  0.2472  0.0999  0.3704
 7554SOL    HW134298   4.595   1.552   6.487  0.4102  2.1038  2.0953
 7554SOL    HW234299   4.706   1.572   6.583 -0.3666 -0.6030  2.2145
 7555SOL     OW34300   4.551   3.447   5.510 -0.2039  0.3997  0.9094
 7555SOL    HW134301   4.564   3.528   5.461 -2.0360 -1.1800 -2.1710
 7555SOL    HW234302   4.482   3.403   5.460 -0.4130  1.6895  0.0664
 7556SOL     OW34303   1.771   1.660   1.259 -0.2952 -0.0029 -0.5110
 7556SOL    HW134304   1.780   1.710   1.178  0.4928 -0.2908 -0.5992
 7556SOL    HW234305   1.752   1.726   1.325 -0.9729 -0.7746  0.0624
 7557SOL     OW34306   1.558   0.211  14.447 -0.1077  0.6466 -0.5067
 7557SOL    HW134307   1.634   0.265  14.425  1.4436 -0.7048  1.6245
 7557SOL    HW234308   1.512   0.213  14.363 -0.7466 -0.0231 -0.1683
 7558SOL     OW34309   1.981   3.524  15.082 -0.0679  0.0400  0.9096
 7558SOL    HW134310   1.941   3.606  15.053  1.1899 -0.1827 -1.4507
 7558SOL    HW234311   1.947   3.459  15.021  0.4783  0.4146  0.2088
 7559SOL     OW34312   0.551   1.006   2.174 -0.4980 -0.5908  0.4351
 7559SOL    HW134313   0.472   0.957   2.149 -0.8122  0.1850 -0.0950
 7559SOL    HW234314   0.523   1.051   2.254  1.4683  0.8690  0.3031
 7560SOL     OW34315   1.986   3.771   4.900 -0.0337 -0.1445 -0.0854
 7560SOL    HW134316   2.071   3.743   4.866 -0.0599  1.4183 -1.4542
 7560SOL    HW234317   1.949   3.688   4.930 -0.8227  1.3830  3.1673
 7561SOL     OW34318   1.189   2.761  15.422  0.6197 -0.2769  0.2108
 7561SOL    HW134319   1.198   2.741  15.329  1.8080 -1.9243  0.6851
 7561SOL    HW234320   1.169   2.855  15.424  2.5306  0.1369 -0.3751
 7562SOL     OW34321   2.139   4.369   5.876  0.1320  0.3876  0.1431
 7562SOL    HW134322   2.176   4.413   5.800 -0.5302 -2.8684 -2.0806
 7562SOL    HW234323   2.069   4.309   5.848 -1.1941  1.8536  0.3395
 7563SOL     OW34324   2.990   2.461   1.316 -0.3639 -0.4413 -0.2363
 7563SOL    HW134325   2.928   2.533   1.305 -0.3723 -0.5619 -0.9702
 7563SOL    HW234326   2.993   2.457   1.411  1.3475 -0.0465 -0.2688
 7564SOL     OW34327   1.453   3.461   8.720  0.4490 -0.0124 -0.2115
 7564SOL    HW134328   1.540   3.450   8.757  0.0204 -1.0390  0.4803
 7564SOL    HW234329   1.455   3.459   8.624 -0.8024 -0.9606 -0.2201
 7565SOL     OW34330   1.776   3.280   5.266 -0.1067 -0.0249 -0.0052
 7565SOL    HW134331   1.825   3.358   5.293  0.2087  0.1930 -1.2029
 7565SOL    HW234332   1.688   3.318   5.277 -0.6751 -1.4085  0.1568
 7566SOL     OW34333   0.671   4.072   8.405  0.1314 -0.1966  0.2673
 7566SOL    HW134334   0.671   4.021   8.486  1.2562 -0.7989 -0.1247
 7566SOL    HW234335   0.663   4.008   8.335 -3.0472  1.0469 -0.5473
 7567SOL     OW34336   1.173   1.835  16.728  0.3342 -1.0741 -0.0132
 7567SOL    HW134337   1.167   1.756  16.675  1.3452  0.6417 -2.6869
 7567SOL    HW234338   1.201   1.894  16.658 -0.5953  1.4655  1.7489
 7568SOL     OW34339   1.282   4.732  17.605  0.0883  0.2840  0.3294
 7568SOL    HW134340   1.369   4.719  17.568 -0.1550 -0.6823  0.0812
 7568SOL    HW234341   1.230   0.042  17.541 -0.9949  1.1229  1.8314
 7569SOL     OW34342   3.647   2.412   4.815 -0.2508  0.6312 -0.4836
 7569SOL    HW134343   3.671   2.500   4.844  0.1868  0.2390  0.3650
 7569SOL    HW234344   3.725   2.380   4.769 -0.4422 -0.6431  0.0632
 7570SOL     OW34345   2.527   0.255  16.445 -0.2632 -0.5897  0.4525
 7570SOL    HW134346   2.540   0.210  16.529  0.9606 -0.6199  0.2570
 7570SOL    HW234347   2.485   0.336  16.473  1.3792 -0.1201  1.5748
 7571SOL     OW34348   2.558   0.849  16.548  0.5092  0.9545  0.3086
 7571SOL    HW134349   2.470   0.884  16.531 -0.4523 -1.9906 -0.7501
 7571SOL    HW234350   2.553   0.860  16.643 -1.1386  1.8624  0.1220
 7572SOL     OW34351   0.761   1.836   8.127  0.2381 -0.0321  0.2466
 7572SOL    HW134352   0.705   1.760   8.109  2.0377 -1.5013  0.8482
 7572SOL    HW234353   0.777   1.818   8.219 -0.0551 -3.2435 -0.3217
 7573SOL     OW34354   1.169   2.928   2.493  0.6055  0.5023 -0.4946
 7573SOL    HW134355   1.100   2.924   2.427 -0.0519  2.3739  0.0954
 7573SOL    HW234356   1.244   2.961   2.444 -0.3250  2.1563 -0.7916
 7574SOL     OW34357   2.122   2.919   5.117 -0.2827 -0.5364  0.2398
 7574SOL    HW134358   2.187   2.959   5.175  0.1020  0.0515 -0.5919
 7574SOL    HW234359   2.045   2.973   5.137 -0.2393 -0.1090 -0.7726
 7575SOL     OW34360   2.085   3.488  12.036 -0.0926  0.5613 -0.2922
 7575SOL    HW134361   2.010   3.435  12.062  0.6189  0.1833  1.0092
 7575SOL    HW234362   2.135   3.494  12.117 -1.5061  2.2868  0.4607
 7576SOL     OW34363   4.712   0.642  11.324 -0.3566 -0.5310  0.2779
 7576SOL    HW134364   0.009   0.562  11.362  0.1601 -1.7193 -2.7083
 7576SOL    HW234365   4.703   0.615  11.232 -2.4043  2.6977 -0.4688
 7577SOL     OW34366   3.272   2.996   9.467  0.0306  0.1753 -0.0320
 7577SOL    HW134367   3.320   2.948   9.534  0.6276 -0.6980 -1.0816
 7577SOL    HW234368   3.246   3.075   9.515  1.2258 -0.6729  2.0015
 7578SOL     OW34369   3.436   3.807  12.852  0.8000  0.0247  0.6550
 7578SOL    HW134370   3.346   3.796  12.884 -0.0757  0.4036 -1.6923
 7578SOL    HW234371   3.414   3.831  12.763 -0.7424  1.1531  1.3369
 7579SOL     OW34372   4.367   0.594   4.617  0.3161  0.0064 -0.8911
 7579SOL    HW134373   4.274   0.571   4.618  1.0953 -2.9493  1.5389
 7579SOL    HW234374   4.388   0.637   4.700  1.7737  2.9089 -2.7548
 7580SOL     OW34375   2.601   2.778   5.634  0.1616  0.0338 -0.1878
 7580SOL    HW134376   2.525   2.750   5.583  1.1475 -0.7005 -1.2471
 7580SOL    HW234377   2.607   2.719   5.710 -2.1149 -0.7178 -0.6044
 7581SOL     OW34378   3.949   0.643   4.960  0.9580  0.1091 -0.4156
 7581SOL    HW134379   3.937   0.641   4.865 -1.1167 -1.4947 -0.1238
 7581SOL    HW234380   3.859   0.631   4.991  1.2161  1.0918  0.7232
 7582SOL     OW34381   0.792   0.313   4.037  0.1455 -0.1732 -0.2332
 7582SOL    HW134382   0.833   0.240   4.083  2.5435  0.6277 -1.1258
 7582SOL    HW234383   0.844   0.314   3.956 -0.8573  0.1988 -0.8773
 7583SOL     OW34384   3.445   1.311   5.368  0.2696 -0.4305  0.2246
 7583SOL    HW134385   3.539   1.322   5.385  0.5545 -1.8424 -0.4846
 7583SOL    HW234386   3.426   1.221   5.341 -0.6739 -0.4179  0.8155
 7584SOL     OW34387   0.461   3.956   6.182  0.0634  0.0550  0.2841
 7584SOL    HW134388   0.377   4.002   6.181 -1.5553 -2.8400  1.9603
 7584SOL    HW234389   0.451   3.901   6.260  0.7331  0.8250  0.9200
 7585SOL     OW34390   3.236   1.568   6.374  0.0786 -0.4031  0.5159
 7585SOL    HW134391   3.275   1.558   6.460  2.7827 -3.9113 -1.0927
 7585SOL    HW234392   3.174   1.495   6.364 -1.2882  0.8824 -0.5014
 7586SOL     OW34393   0.652   0.103   7.659  0.5179 -0.5264  0.0199
 7586SOL    HW134394   0.674   0.153   7.580 -0.3454  1.5879  1.0997
 7586SOL    HW234395   0.701   0.157   7.721  2.2683 -2.7117  0.5118
 7587SOL     OW34396   1.321   2.362   7.299 -0.2697 -0.0222 -0.0508
 7587SOL    HW134397   1.278   2.447   7.307 -0.0367  0.3603 -2.8551
 7587SOL    HW234398   1.313   2.345   7.205  1.3973  1.9907 -0.5471
 7588SOL     OW34399   4.725   2.936   7.264 -0.0923  0.1247 -0.5200
 7588SOL    HW134400   4.726   2.841   7.254  0.4103  0.0111  0.6196
 7588SOL    HW234401   0.075   2.947   7.301 -0.9437 -1.1113  1.8285
 7589SOL     OW34402   3.464   3.458   5.210 -0.1348  0.4079  0.7409
 7589SOL    HW134403   3.426   3.517   5.145 -1.7810 -0.6644  0.7299
 7589SOL    HW234404   3.383   3.437   5.257 -1.5199  2.5366 -0.6959
 7590SOL     OW34405   2.180   2.240   2.761 -0.2287  0.3565  0.2376
 7590SOL    HW134406   2.147   2.152   2.778  2.6512 -0.9746 -1.1536
 7590SOL    HW234407   2.100   2.292   2.753 -0.7514 -0.7835 -1.6872
 7591SOL     OW34408   1.239   0.305   8.085 -0.1950  0.3903  0.1730
 7591SOL    HW134409   1.217   0.224   8.038  0.7131  0.6212 -0.6521
 7591SOL    HW234410   1.328   0.318   8.052  0.9465 -1.6197  2.4299
 7592SOL     OW34411   2.400   3.327   0.407 -0.1950  0.2753 -0.3191
 7592SOL    HW134412   2.393   3.411   0.361  1.0850 -0.3958 -1.7284
 7592SOL    HW234413   2.306   3.315   0.418 -0.5168  1.9954 -1.0730
 7593SOL     OW34414   2.651   0.783   7.411 -0.9123  0.4199  0.0717
 7593SOL    HW134415   2.648   0.792   7.315 -0.4682  1.1011  0.1266
 7593SOL    HW234416   2.564   0.746   7.421 -0.4528 -0.9833 -1.0009
 7594SOL     OW34417   4.161   0.381   2.242 -0.9443 -0.3597 -0.3521
 7594SOL    HW134418   4.165   0.288   2.265 -0.8851  0.1352  1.6105
 7594SOL    HW234419   4.073   0.399   2.274  0.0003 -0.7593  2.4713
 7595SOL     OW34420   0.296   1.372   1.200 -0.4822  0.3907  0.7042
 7595SOL    HW134421   0.344   1.323   1.266 -0.6510  0.6455  1.0153
 7595SOL    HW234422   0.242   1.298   1.169 -2.6597  2.1780  0.2258
 7596SOL     OW34423   1.526   1.270  14.383 -0.3013  0.3532 -0.0005
 7596SOL    HW134424   1.549   1.202  14.319 -1.0495 -0.3200  0.4401
 7596SOL    HW234425   1.488   1.211  14.448 -2.7810  0.5556 -1.2586
 7597SOL     OW34426   0.386   2.080   8.258  0.1118  0.1723 -0.1098
 7597SOL    HW134427   0.408   2.093   8.350 -1.1205  1.4543  0.0038
 7597SOL    HW234428   0.408   1.987   8.247 -0.9811 -0.3462  2.0983
 7598SOL     OW34429   0.955   3.472   3.444 -1.0208 -0.3884 -0.0366
 7598SOL    HW134430   0.872   3.451   3.487  0.3824 -0.7970  2.5323
 7598SOL    HW234431   0.924   3.558   3.415  0.7531  0.1243 -0.4130
 7599SOL     OW34432   0.162   1.758   8.835 -0.5033 -0.2611  0.0690
 7599SOL    HW134433   0.160   1.788   8.745  1.0393 -0.9562 -0.1943
 7599SOL    HW234434   0.104   1.817   8.884  0.1373  0.7520 -0.4092
 7600SOL     OW34435   0.504   4.381  13.799  0.2881 -0.4764  0.1819
 7600SOL    HW134436   0.518   4.354  13.890 -1.3699 -0.1903  0.5340
 7600SOL    HW234437   0.437   4.316  13.778  0.3910 -1.2462  2.2101
 7601SOL     OW34438   3.924   2.237   0.858  0.1650  0.0847 -0.5706
 7601SOL    HW134439   3.869   2.299   0.906 -1.6731 -0.9028 -1.4327
 7601SOL    HW234440   3.982   2.293   0.805  0.2550 -0.8903 -1.4897
 7602SOL     OW34441   2.747   0.622   5.911  0.5974 -0.2153  0.2861
 7602SOL    HW134442   2.654   0.625   5.933  0.5186  0.6127 -0.1616
 7602SOL    HW234443   2.767   0.715   5.901 -0.3223  0.1238  1.6087
 7603SOL     OW34444   1.874   1.161   1.370 -0.1786 -0.0554  0.3017
 7603SOL    HW134445   1.845   1.252   1.365  0.7449  0.1779 -0.5628
 7603SOL    HW234446   1.956   1.159   1.419  0.4930 -1.3773 -0.8708
 7604SOL     OW34447   1.999   4.140   2.106 -0.5998  0.3198  0.4265
 7604SOL    HW134448   1.953   4.206   2.158 -0.8650 -0.3567  1.0476
 7604SOL    HW234449   1.928   4.076   2.112 -0.1443 -0.2720 -0.4480
 7605SOL     OW34450   1.020   0.979   6.735  0.0138 -0.1054  0.1866
 7605SOL    HW134451   1.091   0.977   6.799  1.1235 -0.3495 -1.0539
 7605SOL    HW234452   0.946   0.969   6.795  1.7936 -2.0907  2.0193
 7606SOL     OW34453   1.444   3.825   7.578  0.2018 -0.0532 -0.1050
 7606SOL    HW134454   1.375   3.873   7.624 -1.3550 -1.3332 -1.1671
 7606SOL    HW234455   1.513   3.797   7.638  0.5955  0.8255 -0.1382
 7607SOL     OW34456   3.771   1.705   4.914  0.1107 -0.3073 -0.1471
 7607SOL    HW134457   3.703   1.733   4.852  1.1220 -1.0582 -1.6100
 7607SOL    HW234458   3.727   1.641   4.970  1.0603  1.2002  2.3176
 7608SOL     OW34459   2.565   0.017   7.838 -0.8001  0.1877  0.0187
 7608SOL    HW134460   2.516   4.723   7.762 -1.1719  0.5140  0.1222
 7608SOL    HW234461   2.616   4.678   7.864 -1.7360 -1.2739 -2.5425
 7609SOL     OW34462   4.326   1.700   8.159 -0.2818 -0.2428  0.6209
 7609SOL    HW134463   4.407   1.722   8.206 -0.1438 -1.0850  0.7726
 7609SOL    HW234464   4.328   1.604   8.163 -0.3855 -0.2881 -0.5624
 7610SOL     OW34465   1.129   3.379   4.279  0.1789 -0.2108 -0.3077
 7610SOL    HW134466   1.114   3.318   4.208 -0.2758 -0.8147  0.3139
 7610SOL    HW234467   1.165   3.318   4.343 -1.9169 -0.8099  0.3036
 7611SOL     OW34468   2.752   2.885   3.626 -0.0651  0.0815  0.2893
 7611SOL    HW134469   2.697   2.818   3.667 -0.6620  0.5563  0.2594
 7611SOL    HW234470   2.692   2.915   3.558  1.2590  0.1743 -0.8309
 7612SOL     OW34471   3.441   2.770   5.826 -0.1719 -0.9349 -0.1003
 7612SOL    HW134472   3.397   2.685   5.830 -1.7921 -0.1784 -2.1761
 7612SOL    HW234473   3.509   2.765   5.893  0.6981 -1.1105 -0.9986
 7613SOL     OW34474   2.887   3.689  11.889 -0.0703 -0.0417 -0.1189
 7613SOL    HW134475   2.851   3.676  11.801 -2.1503  1.4348  0.5144
 7613SOL    HW234476   2.880   3.601  11.925 -1.0794  0.4541  0.8984
 7614SOL     OW34477   1.728   2.462   5.377 -0.2009  0.6206 -0.0249
 7614SOL    HW134478   1.733   2.541   5.323  0.9194  1.3921  1.2097
 7614SOL    HW234479   1.798   2.417   5.330  0.7228 -0.9773  2.8906
 7615SOL     OW34480   3.510   3.677   2.971  0.2174 -0.1206  0.0562
 7615SOL    HW134481   3.589   3.728   2.990 -0.8119  1.6498 -0.3860
 7615SOL    HW234482   3.531   3.663   2.879 -0.3130 -1.2616  0.1138
 7616SOL     OW34483   1.419   2.485  13.217 -0.1589 -0.2053 -0.0905
 7616SOL    HW134484   1.435   2.562  13.162 -0.6828 -0.3079 -0.3876
 7616SOL    HW234485   1.386   2.423  13.151  1.3244 -0.9324 -0.1458
 7617SOL     OW34486   2.537   4.395  10.641 -0.6305  0.2425 -0.1549
 7617SOL    HW134487   2.562   4.471  10.693 -0.7095  0.7987 -0.9327
 7617SOL    HW234488   2.508   4.427  10.556  1.0883  0.0805 -0.8008
 7618SOL     OW34489   3.791   2.519   3.049  0.2084  0.6047  0.8105
 7618SOL    HW134490   3.741   2.600   3.054 -0.5735  0.0758  1.4991
 7618SOL    HW234491   3.770   2.474   3.131 -0.7227 -0.4671 -0.0295
 7619SOL     OW34492   3.961   0.241   0.477 -0.4000  0.2768  0.3617
 7619SOL    HW134493   3.950   0.307   0.409 -0.8915 -1.0392 -0.8366
 7619SOL    HW234494   4.007   0.174   0.425  1.4964  0.8021  1.3519
 7620SOL     OW34495   0.837   0.807   2.860  0.3609 -0.4801 -0.2587
 7620SOL    HW134496   0.888   0.872   2.908  2.3975 -2.6013  0.4405
 7620SOL    HW234497   0.877   0.815   2.773 -1.1291  1.1412 -0.7847
 7621SOL     OW34498   4.579   2.270   8.624  0.0834 -0.1286  0.0318
 7621SOL    HW134499   4.511   2.209   8.596  1.2379 -0.2647 -2.5612
 7621SOL    HW234500   4.555   2.356   8.589  2.2838 -0.3856 -2.1695
 7622SOL     OW34501   2.479   1.076   0.828  0.0208 -1.0101 -0.1649
 7622SOL    HW134502   2.551   1.088   0.766  0.3719 -1.0559  0.2396
 7622SOL    HW234503   2.486   0.981   0.832 -1.2316 -0.9446  3.2952
 7623SOL     OW34504   0.585   1.991   2.920 -0.0640 -0.6147  0.2918
 7623SOL    HW134505   0.597   2.067   2.976 -0.1997  0.0023 -0.5065
 7623SOL    HW234506   0.654   2.006   2.856 -1.5217  0.3657 -1.0777
 7624SOL     OW34507   3.973   0.274   8.598  0.1188  0.1463 -0.0880
 7624SOL    HW134508   4.028   0.223   8.658  1.7976  1.3903 -0.5971
 7624SOL    HW234509   3.987   0.360   8.638 -0.2797  0.6714 -1.0915
 7625SOL     OW34510   0.714   0.200   7.414 -0.5182 -0.0862 -0.1776
 7625SOL    HW134511   0.763   0.185   7.333  0.1955 -1.8963  0.5987
 7625SOL    HW234512   0.727   0.294   7.426  3.2678 -0.5141 -0.9470
 7626SOL     OW34513   1.786   3.679   8.908  0.0558  0.3843 -0.2723
 7626SOL    HW134514   1.784   3.591   8.870  0.6528 -0.5144  1.7585
 7626SOL    HW234515   1.740   3.664   8.990 -0.5953  1.8650 -0.3829
 7627SOL     OW34516   0.014   3.225  15.851  0.7423 -0.0288  0.9770
 7627SOL    HW134517   0.063   3.297  15.890 -0.1438  0.9038  0.3509
 7627SOL    HW234518   0.067   3.146  15.866 -0.0681 -0.9482 -0.9828
 7628SOL     OW34519   4.297   1.585  16.802 -0.3575  0.2854 -0.2489
 7628SOL    HW134520   4.216   1.601  16.753  0.2365  1.5712 -0.8014
 7628SOL    HW234521   4.303   1.667  16.851  1.2238 -0.1930  0.3538
 7629SOL     OW34522   1.959   4.243   3.467 -0.4787 -0.8721 -0.1136
 7629SOL    HW134523   1.971   4.161   3.419  1.5931 -0.1807 -0.7688
 7629SOL    HW234524   2.001   4.229   3.552 -1.4638  2.1511  0.8517
 7630SOL     OW34525   3.598   1.670   7.125  0.4213  0.1668  0.3633
 7630SOL    HW134526   3.577   1.763   7.115  2.5354  0.7721  1.6756
 7630SOL    HW234527   3.690   1.673   7.151  0.5061  1.4094 -0.0442
 7631SOL     OW34528   0.313   3.864   5.891 -0.3411  0.3429  0.7343
 7631SOL    HW134529   0.278   3.775   5.896  1.5445 -0.4867 -0.8320
 7631SOL    HW234530   0.280   3.908   5.969 -0.3515 -1.7161  1.9034
 7632SOL     OW34531   1.238   3.988   3.911  0.0609  0.6673  0.3720
 7632SOL    HW134532   1.250   4.030   3.996 -0.9921 -2.8719  2.2845
 7632SOL    HW234533   1.228   4.069   3.860  0.9540 -0.7359 -2.0314
 7633SOL     OW34534   0.577   0.908   5.471 -0.4231  0.5774  0.0513
 7633SOL    HW134535   0.494   0.881   5.432  0.4519 -2.9580  0.6857
 7633SOL    HW234536   0.629   0.828   5.463 -3.8897 -1.8172  1.7183
 7634SOL     OW34537   3.296   2.572   8.862 -0.4037 -0.7937  0.3477
 7634SOL    HW134538   3.216   2.541   8.905 -0.6940 -0.5781 -0.0364
 7634SOL    HW234539   3.307   2.660   8.897  0.7214 -2.1209  3.3416
 7635SOL     OW34540   2.154   1.808   7.781 -0.2841 -0.1259  0.6760
 7635SOL    HW134541   2.083   1.773   7.834  0.5783 -1.8098  0.7079
 7635SOL    HW234542   2.181   1.878   7.840  1.4551  0.5733 -0.9605
 7636SOL     OW34543   3.379   1.068   0.202  0.0236  0.3505  0.2183
 7636SOL    HW134544   3.362   0.974   0.210 -0.4155  0.6124  2.1563
 7636SOL    HW234545   3.470   1.044   0.184  0.2273  1.0398  0.3344
 7637SOL     OW34546   2.887   3.970   0.436 -0.0156  0.2267  0.4386
 7637SOL    HW134547   2.967   3.929   0.404 -0.4236 -1.2619  1.3670
 7637SOL    HW234548   2.833   3.893   0.450  0.8303 -1.0258 -3.0232
 7638SOL     OW34549   2.420   2.362   8.352  0.3330 -0.0396  0.1099
 7638SOL    HW134550   2.333   2.330   8.376 -0.3744  2.8032  1.2455
 7638SOL    HW234551   2.467   2.305   8.413  0.7699 -0.0733 -0.2563
 7639SOL     OW34552   2.618   0.318   6.304  0.9071 -0.3415  0.6094
 7639SOL    HW134553   2.680   0.384   6.273 -1.4548  1.5511 -0.1072
 7639SOL    HW234554   2.673   0.271   6.367 -0.1448  1.2024  2.6884
 7640SOL     OW34555   2.960   1.017   9.019 -0.4054  0.1572  0.4359
 7640SOL    HW134556   3.011   1.097   9.001  0.3870 -0.3937  0.2107
 7640SOL    HW234557   2.953   1.018   9.115  0.1664 -3.0831  0.4943
 7641SOL     OW34558   2.887   4.073   3.113 -0.1049 -0.1654 -0.1204
 7641SOL    HW134559   2.914   4.000   3.057 -0.5545  0.0767 -0.6509
 7641SOL    HW234560   2.831   4.127   3.057  0.1198 -1.9576 -2.0618
 7642SOL     OW34561   3.735   2.943  14.616  0.9002 -0.3282 -0.0093
 7642SOL    HW134562   3.709   3.035  14.623 -0.0370 -0.5587 -0.4623
 7642SOL    HW234563   3.819   2.941  14.661  0.7742 -0.7694  0.2076
 7643SOL     OW34564   0.699   4.260  17.081 -0.4282  0.5553 -0.4346
 7643SOL    HW134565   0.696   4.356  17.084 -0.3707  0.6422 -3.0401
 7643SOL    HW234566   0.622   4.234  17.030 -1.1023  2.5462 -0.4344
 7644SOL     OW34567   1.927   0.507   2.765  0.1535 -0.6513 -0.6099
 7644SOL    HW134568   1.871   0.549   2.699  2.8607  1.1361 -1.7740
 7644SOL    HW234569   1.858   0.481   2.826 -0.5517  1.6066 -0.4579
 7645SOL     OW34570   2.848   4.153   5.842  0.0487 -0.1387  0.0508
 7645SOL    HW134571   2.814   4.128   5.928  2.7118  0.0877  1.1419
 7645SOL    HW234572   2.941   4.162   5.859 -0.2170 -0.6165  1.8032
 7646SOL     OW34573   0.316   2.327   1.979  0.2259 -0.1620 -0.9578
 7646SOL    HW134574   0.323   2.359   2.069 -0.0023  3.2847 -2.1667
 7646SOL    HW234575   0.399   2.359   1.943  0.7006  0.5341  0.7606
 7647SOL     OW34576   0.567   4.504  11.368 -0.3040  0.3173  0.0731
 7647SOL    HW134577   0.544   4.571  11.433  2.9954  1.2033  0.3217
 7647SOL    HW234578   0.522   4.538  11.291  0.5834 -0.1739 -0.6688
 7648SOL     OW34579   0.941   2.043   0.897 -0.6118 -0.3937 -0.6746
 7648SOL    HW134580   0.990   1.984   0.954 -0.8863 -0.7898 -0.8481
 7648SOL    HW234581   0.922   1.975   0.832  0.3006 -0.9354 -0.3750
 7649SOL     OW34582   2.901   2.269   7.078  0.3401  0.0685 -0.0935
 7649SOL    HW134583   2.904   2.361   7.104  1.9257 -0.5247  1.7584
 7649SOL    HW234584   2.806   2.256   7.074  0.3468  0.8697 -3.5594
 7650SOL     OW34585   2.914   3.629   2.789  0.1465  0.2309 -0.1151
 7650SOL    HW134586   2.938   3.538   2.771  0.0729  0.0587  0.6634
 7650SOL    HW234587   2.998   3.667   2.813  1.1050 -1.6523 -0.4609
 7651SOL     OW34588   3.451   2.733   3.674  1.0270  0.0292  0.2454
 7651SOL    HW134589   3.432   2.779   3.592 -0.7581  0.2800  0.7985
 7651SOL    HW234590   3.369   2.741   3.722  1.5370  1.0864  0.9454
 7652SOL     OW34591   1.122   2.809   1.957 -0.5916 -0.2080  0.5697
 7652SOL    HW134592   1.115   2.889   2.009  1.6201  0.8928 -0.8448
 7652SOL    HW234593   1.215   2.801   1.976 -0.9345  1.4389  2.9245
 7653SOL     OW34594   1.784   0.735   4.869  0.4065 -0.5556 -0.0307
 7653SOL    HW134595   1.856   0.695   4.917  0.5055  1.0252  1.1566
 7653SOL    HW234596   1.714   0.675   4.896 -0.3080  1.1748  2.0057
 7654SOL     OW34597   1.932   1.167   7.111 -0.7049 -0.0232  0.2275
 7654SOL    HW134598   1.978   1.250   7.125  0.9644 -0.8845 -0.1391
 7654SOL    HW234599   1.999   1.105   7.083  0.7526  2.2059 -1.1906
 7655SOL     OW34600   3.539   4.638   7.805 -0.0231 -0.3438  0.2141
 7655SOL    HW134601   3.480   4.583   7.754  0.2462 -1.6267  1.2762
 7655SOL    HW234602   3.467   4.682   7.850 -0.9550 -1.4672 -0.1754
 7656SOL     OW34603   2.617   0.120   5.809 -0.7968  0.2358  0.4668
 7656SOL    HW134604   2.648   0.209   5.827 -1.5996  0.5061  0.5501
 7656SOL    HW234605   2.540   0.141   5.755 -1.3942 -1.5122  0.6249
 7657SOL     OW34606   3.164   3.464   4.023 -0.5639 -0.4693  0.1377
 7657SOL    HW134607   3.151   3.486   3.931 -0.6024  0.2019  0.3040
 7657SOL    HW234608   3.164   3.555   4.052  2.0397 -1.0352  1.9220
 7658SOL     OW34609   0.163   0.069  17.259  0.6467  0.6902  0.2380
 7658SOL    HW134610   0.085   0.105  17.302  0.3149  2.0191 -1.4962
 7658SOL    HW234611   0.153   4.722  17.301 -0.0255  0.5459 -0.2264
 7659SOL     OW34612   3.794   4.074   5.424 -0.0302 -0.0113  0.4299
 7659SOL    HW134613   3.708   4.040   5.447  0.6543 -1.5709  0.7146
 7659SOL    HW234614   3.833   3.988   5.406 -2.2758 -1.1701  1.1004
 7660SOL     OW34615   2.086   3.878   5.607 -0.3095 -0.0488  0.0008
 7660SOL    HW134616   2.098   3.946   5.541 -2.2133  1.7771  1.5436
 7660SOL    HW234617   1.992   3.866   5.618  0.1855 -4.4186 -0.6815
 7661SOL     OW34618   0.639   4.516  17.351  0.0858 -0.5642  0.3233
 7661SOL    HW134619   0.579   4.450  17.317 -0.1683  0.2087 -0.7283
 7661SOL    HW234620   0.652   4.557  17.266  0.6806 -0.9697  0.2214
 7662SOL     OW34621   0.737   4.224  12.307  0.2918  0.5064  0.4940
 7662SOL    HW134622   0.753   4.133  12.334 -2.5313 -0.2432 -0.4609
 7662SOL    HW234623   0.787   4.224  12.225 -0.3143  1.1288  0.1355
 7663SOL     OW34624   3.677   1.047   4.753  0.1741  0.1590  0.1237
 7663SOL    HW134625   3.764   1.082   4.736  0.6361 -1.1202 -0.1257
 7663SOL    HW234626   3.679   0.967   4.699  0.0112 -0.0738  0.4599
 7664SOL     OW34627   2.193   0.877   2.570  0.3685  0.3909  0.1304
 7664SOL    HW134628   2.169   0.790   2.540 -2.9426  0.1774  3.4557
 7664SOL    HW234629   2.284   0.871   2.539  0.5737  1.6926  0.4887
 7665SOL     OW34630   0.866   0.736   2.221 -0.3211 -0.0684 -0.2169
 7665SOL    HW134631   0.906   0.689   2.147 -1.7719 -1.7861  0.0934
 7665SOL    HW234632   0.784   0.689   2.237 -1.1071  1.2763 -0.3071
 7666SOL     OW34633   0.913   3.173   0.026 -0.5197  0.3199  0.2248
 7666SOL    HW134634   1.009   3.166   0.018 -0.7563 -1.7161 -0.7781
 7666SOL    HW234635   0.900   3.193   0.118 -0.3655 -0.7100  0.4760
 7667SOL     OW34636   0.504   1.622   6.336 -0.5053 -0.3429 -0.2348
 7667SOL    HW134637   0.586   1.605   6.382 -1.5505 -1.7322  1.0895
 7667SOL    HW234638   0.497   1.717   6.345 -2.2314 -0.2999 -2.0672
 7668SOL     OW34639   1.434   1.054  13.878 -0.5645 -0.2501  0.2661
 7668SOL    HW134640   1.387   1.138  13.875 -0.5235 -0.2213  0.4589
 7668SOL    HW234641   1.483   1.053  13.796  0.7963 -0.2099  1.0879
 7669SOL     OW34642   4.427   0.412   8.840  0.2667  0.0223 -0.2722
 7669SOL    HW134643   4.438   0.381   8.750  1.1710 -0.4925  0.0189
 7669SOL    HW234644   4.381   0.343   8.888 -0.4555 -1.2545 -2.8450
 7670SOL     OW34645   3.187   2.008   7.458  0.0972 -0.0463 -0.0360
 7670SOL    HW134646   3.170   2.097   7.425  1.0445  0.0001 -0.4203
 7670SOL    HW234647   3.218   2.021   7.548  1.5307 -1.4418 -0.3318
 7671SOL     OW34648   0.711   3.659  13.928  0.3999  0.0524  0.1103
 7671SOL    HW134649   0.719   3.750  13.958 -0.3612  0.7387 -1.7880
 7671SOL    HW234650   0.802   3.650  13.900  0.4169  1.3714 -0.3054
 7672SOL     OW34651   0.435   2.956  10.866  0.2970  0.2868  0.0937
 7672SOL    HW134652   0.508   2.924  10.813  0.2818  0.4411 -0.0202
 7672SOL    HW234653   0.467   2.909  10.943  0.1130 -2.4945 -1.5073
 7673SOL     OW34654   3.876   3.077  12.262 -0.4591  0.2260  0.3658
 7673SOL    HW134655   3.916   2.995  12.292 -2.7801 -0.1852  2.4042
 7673SOL    HW234656   3.783   3.053  12.259 -0.4350  0.1643  0.1074
 7674SOL     OW34657   2.967   3.293  16.406  0.8488  0.3653  0.1774
 7674SOL    HW134658   3.026   3.220  16.426 -1.2930 -1.0983  1.1390
 7674SOL    HW234659   2.947   3.267  16.316  0.7010 -1.6414  0.8000
 7675SOL     OW34660   0.211   2.149   3.042  0.3302  0.2548 -0.0025
 7675SOL    HW134661   0.227   2.079   3.106 -0.8446 -0.6328 -0.6675
 7675SOL    HW234662   0.258   2.110   2.968 -0.5032  1.0931 -0.9638
 7676SOL     OW34663   3.891   0.030   8.508  0.0087 -0.4106 -0.5946
 7676SOL    HW134664   3.935   0.009   8.426 -0.3807 -0.9223 -0.6722
 7676SOL    HW234665   3.920   0.114   8.544 -0.0728  0.1109 -1.7618
 7677SOL     OW34666   0.249   1.528   3.749 -0.3916 -0.0802 -0.0255
 7677SOL    HW134667   0.285   1.609   3.785 -1.5025 -0.0233  0.9398
 7677SOL    HW234668   0.223   1.481   3.828  1.2116 -1.0527 -0.0557
 7678SOL     OW34669   1.390   2.936   6.051  0.2829  0.1971 -0.6295
 7678SOL    HW134670   1.377   2.959   5.959  0.8844  0.4396 -0.6502
 7678SOL    HW234671   1.378   2.841   6.041 -0.0323  0.1722 -0.0024
 7679SOL     OW34672   3.060   4.443   3.298 -0.3703 -0.2536  0.0334
 7679SOL    HW134673   3.145   4.483   3.314 -0.0687 -0.9093  0.0841
 7679SOL    HW234674   3.089   4.374   3.238 -0.0734 -0.5486  0.5191
 7680SOL     OW34675   2.779   1.482   6.265  0.5158 -0.1049 -0.3121
 7680SOL    HW134676   2.785   1.575   6.248 -0.2043 -0.1848 -0.9777
 7680SOL    HW234677   2.718   1.445   6.201  1.5840 -0.5240 -1.0869
 7681SOL     OW34678   0.751   0.597   1.635 -0.5997  0.3941  0.4321
 7681SOL    HW134679   0.767   0.509   1.602 -1.6006  1.2546 -2.3838
 7681SOL    HW234680   0.677   0.618   1.577  0.5723  1.1726 -0.7719
 7682SOL     OW34681   2.112   3.163   0.527  0.2856  0.4105 -0.0300
 7682SOL    HW134682   2.078   3.188   0.440  1.2979 -1.2299 -0.8897
 7682SOL    HW234683   2.135   3.076   0.495  1.8153  0.4751  0.8997
 7683SOL     OW34684   4.612   2.229   7.430  0.1099 -0.2098 -0.0444
 7683SOL    HW134685   4.560   2.309   7.433 -0.6743 -0.6939 -0.5674
 7683SOL    HW234686   4.693   2.267   7.395  0.8933  0.0879  2.1165
 7684SOL     OW34687   0.191   1.939   3.264  0.2855  0.1469  0.3079
 7684SOL    HW134688   0.159   1.974   3.348 -0.5575 -0.2112  0.1363
 7684SOL    HW234689   0.136   1.861   3.259  1.7320 -0.9328  1.2958
 7685SOL     OW34690   3.854   4.536   3.700 -0.2889  0.2599  0.7657
 7685SOL    HW134691   3.891   4.487   3.627 -1.2991  1.5290 -0.6173
 7685SOL    HW234692   3.765   4.499   3.703  0.0006 -0.5655 -1.3160
 7686SOL     OW34693   0.191   0.529   5.548 -0.0801 -0.1008 -0.3540
 7686SOL    HW134694   0.095   0.536   5.545 -0.0423  1.0207  1.2396
 7686SOL    HW234695   0.205   0.481   5.466 -0.3197 -0.6327 -0.0851
 7687SOL     OW34696   0.412   1.198  10.887  0.3886  0.3047 -0.0194
 7687SOL    HW134697   0.348   1.259  10.924  1.7160  1.8972 -0.3302
 7687SOL    HW234698   0.458   1.169  10.966  0.4835 -3.0215 -1.2880
 7688SOL     OW34699   0.039   1.309  17.005 -0.7180 -0.1321 -0.1667
 7688SOL    HW134700   0.106   1.347  17.062 -1.0654  2.5399 -1.5198
 7688SOL    HW234701   0.040   1.363  16.926  1.4101 -0.8014 -0.6043
 7689SOL     OW34702   1.672   2.711   3.214  0.3758 -0.4455  0.2759
 7689SOL    HW134703   1.663   2.727   3.120 -1.0918 -2.8217  0.0199
 7689SOL    HW234704   1.706   2.622   3.217  1.9317  0.2052  2.4663
 7690SOL     OW34705   2.437   3.763  15.430 -0.7688  0.5520  0.1507
 7690SOL    HW134706   2.382   3.799  15.499  0.1977 -0.1407  1.2669
 7690SOL    HW234707   2.395   3.680  15.404  1.0249 -0.8470  1.7127
 7691SOL     OW34708   3.784   0.727   8.693  1.0795 -0.1100 -0.7970
 7691SOL    HW134709   3.738   0.740   8.610  0.4592 -0.4142 -0.4999
 7691SOL    HW234710   3.850   0.659   8.681  1.7604  0.4019  0.0656
 7692SOL     OW34711   1.961   3.469  13.679 -0.0697 -0.5366 -0.1860
 7692SOL    HW134712   1.995   3.398  13.733  1.4546  1.0082  0.9210
 7692SOL    HW234713   1.867   3.460  13.694  0.3323  0.4846  3.0178
 7693SOL     OW34714   4.002   4.107   1.582  0.3279 -0.1099  0.7017
 7693SOL    HW134715   4.006   4.115   1.487 -1.8622 -1.2963  0.5150
 7693SOL    HW234716   3.917   4.064   1.587  0.4376 -0.1842  1.8670
 7694SOL     OW34717   4.203   3.324  11.162 -0.3297 -0.2138 -0.3686
 7694SOL    HW134718   4.131   3.380  11.192  0.4476 -0.6572  2.3165
 7694SOL    HW234719   4.183   3.307  11.070  1.3204  0.4461 -0.8455
 7695SOL     OW34720   0.206   0.292   9.034 -0.6143 -0.2632  0.0167
 7695SOL    HW134721   0.246   0.234   9.099 -1.1342  0.2134  0.7547
 7695SOL    HW234722   0.136   0.235   9.003 -1.8286 -0.2760  2.8146
 7696SOL     OW34723   2.012   1.004   5.509  0.6387  0.0972  0.1143
 7696SOL    HW134724   1.975   0.990   5.597 -1.5098 -1.4914 -1.0397
 7696SOL    HW234725   1.949   1.069   5.479 -0.5612 -0.8054  0.6836
 7697SOL     OW34726   2.325   3.472   8.804  0.3482  0.5386 -0.6490
 7697SOL    HW134727   2.315   3.478   8.899 -1.2366  0.9751 -0.8524
 7697SOL    HW234728   2.391   3.403   8.791  1.6163  2.1645 -2.9504
 7698SOL     OW34729   2.118   0.099   6.391 -0.2416 -0.6549  0.1599
 7698SOL    HW134730   2.153   0.116   6.303  1.8718 -1.6726  0.8222
 7698SOL    HW234731   2.192   0.136   6.439 -1.0291 -0.0845  0.9283
 7699SOL     OW34732   2.503   1.723   7.027  0.0103 -0.5139 -0.2431
 7699SOL    HW134733   2.532   1.808   7.058 -1.6729 -0.3439  0.8860
 7699SOL    HW234734   2.554   1.665   7.083 -1.2918 -1.3482  0.0866
 7700SOL     OW34735   2.513   2.205   8.542  0.1905 -0.0248 -0.3375
 7700SOL    HW134736   2.468   2.122   8.555  1.5396 -0.7777 -0.4107
 7700SOL    HW234737   2.603   2.186   8.568  0.0673 -0.7602 -0.4558
 7701SOL     OW34738   4.178   4.320   4.337  1.0031 -0.2855 -0.0169
 7701SOL    HW134739   4.149   4.261   4.267  1.6574  1.2927 -1.6368
 7701SOL    HW234740   4.170   4.264   4.414  0.0167 -1.2909 -0.8428
 7702SOL     OW34741   1.410   2.794   2.026  0.4117 -0.3739 -0.0167
 7702SOL    HW134742   1.414   2.710   2.073 -0.5371 -0.5204 -0.2094
 7702SOL    HW234743   1.493   2.835   2.050  0.2412 -0.0144 -0.0555
 7703SOL     OW34744   1.025   2.419  15.495  0.8077 -0.1072 -0.2372
 7703SOL    HW134745   0.943   2.395  15.453 -0.2620 -0.8988  2.3125
 7703SOL    HW234746   1.058   2.331  15.509  0.8983 -0.0974 -0.3879
 7704SOL     OW34747   2.733   2.696   2.386 -0.1681  0.1042 -0.6766
 7704SOL    HW134748   2.740   2.643   2.465  2.6877 -0.6602 -1.4552
 7704SOL    HW234749   2.702   2.634   2.319 -0.5855 -0.1991 -0.2026
 7705SOL     OW34750   4.429   2.292   7.639  0.0359 -0.0089 -0.6632
 7705SOL    HW134751   4.359   2.329   7.693  1.7702  1.1754  0.7488
 7705SOL    HW234752   4.451   2.372   7.592 -1.0000 -0.8443 -2.5724
 7706SOL     OW34753   0.418   1.621   3.368 -0.2236  0.1358  0.0254
 7706SOL    HW134754   0.445   1.713   3.373  0.3929 -0.1957  2.9101
 7706SOL    HW234755   0.370   1.640   3.287 -0.1037 -0.9907 -0.3118
 7707SOL     OW34756   1.292   2.579   2.539 -0.0617 -0.4488  0.4509
 7707SOL    HW134757   1.256   2.651   2.487  1.5945  1.1681  1.5612
 7707SOL    HW234758   1.318   2.511   2.477 -0.4042  0.7540 -1.0243
 7708SOL     OW34759   1.661   2.693   2.906 -0.2755 -0.0913  0.0936
 7708SOL    HW134760   1.588   2.706   2.845  1.5468  1.2206 -1.7815
 7708SOL    HW234761   1.709   2.621   2.865 -1.2006 -2.1078  2.5051
 7709SOL     OW34762   0.609   3.810  14.877  0.8335 -0.1031  0.8519
 7709SOL    HW134763   0.522   3.845  14.897 -0.2883 -3.3758  1.8599
 7709SOL    HW234764   0.672   3.879  14.894  1.3901 -0.1742 -0.9324
 7710SOL     OW34765   2.316   2.390   7.966 -0.1408  0.6865  0.5183
 7710SOL    HW134766   2.384   2.330   7.937 -1.3913  0.1185 -1.3024
 7710SOL    HW234767   2.357   2.437   8.038 -0.9463  0.6847  0.9825
 7711SOL     OW34768   0.360   2.766   4.652 -0.2338 -0.1717 -0.1052
 7711SOL    HW134769   0.302   2.823   4.601 -0.2006 -1.8686 -2.0199
 7711SOL    HW234770   0.398   2.715   4.580 -0.6522  1.0144 -1.1730
 7712SOL     OW34771   2.759   3.025   5.649 -0.2527  0.2148  0.3354
 7712SOL    HW134772   2.724   2.936   5.657  1.4622 -0.4483  0.3641
 7712SOL    HW234773   2.847   2.998   5.624  0.1696  2.6096 -0.6933
 7713SOL     OW34774   2.706   0.392   5.405  0.2086 -0.4090  0.2681
 7713SOL    HW134775   2.693   0.436   5.321  1.8254 -1.1441 -0.3567
 7713SOL    HW234776   2.615   0.373   5.425 -0.1012  0.6664 -0.1009
 7714SOL     OW34777   0.395   3.070   2.979  0.4603 -0.5175 -0.2902
 7714SOL    HW134778   0.372   3.161   2.962  0.8630 -0.5364 -0.9077
 7714SOL    HW234779   0.361   3.020   2.905  1.1229  0.4078 -1.2120
 7715SOL     OW34780   1.102   1.121  14.733  0.1058  0.2454 -0.1222
 7715SOL    HW134781   1.158   1.044  14.744 -0.9373 -0.8199 -2.1787
 7715SOL    HW234782   1.102   1.128  14.637 -1.0344 -1.5926 -0.2554
 7716SOL     OW34783   2.214   0.844   9.324 -0.0129  0.5146  0.0112
 7716SOL    HW134784   2.152   0.800   9.382  0.0710 -2.3093 -2.0258
 7716SOL    HW234785   2.214   0.934   9.357  0.8954  0.8754 -0.9824
 7717SOL     OW34786   0.962   4.216   4.415 -0.5763  1.0081 -0.8869
 7717SOL    HW134787   0.877   4.208   4.457  1.7376 -0.2793  3.5082
 7717SOL    HW234788   1.007   4.265   4.484 -1.4499  1.7018 -0.8080
 7718SOL     OW34789   3.475   4.436   9.355 -0.8679 -0.0353 -0.1759
 7718SOL    HW134790   3.414   4.372   9.390 -0.1035 -0.6217  0.0999
 7718SOL    HW234791   3.537   4.377   9.312 -3.1923 -2.4593 -0.2067
 7719SOL     OW34792   3.370   2.947   3.403  0.4198 -0.4551  0.8401
 7719SOL    HW134793   3.285   2.992   3.409  1.0760  0.6789  1.7327
 7719SOL    HW234794   3.420   2.991   3.472  0.4416 -0.6388  0.9420
 7720SOL     OW34795   1.285   1.842   4.120  0.0577 -0.3422  0.3629
 7720SOL    HW134796   1.298   1.934   4.143  1.5127  0.1620 -2.5390
 7720SOL    HW234797   1.198   1.828   4.159 -0.8266  1.0784 -1.0642
 7721SOL     OW34798   0.792   0.648  10.475 -0.7982 -0.3636 -0.1706
 7721SOL    HW134799   0.860   0.714  10.459  1.4329 -2.2588  1.5169
 7721SOL    HW234800   0.724   0.706  10.508  0.2943  3.3207 -4.4072
 7722SOL     OW34801   1.939   0.917   7.648  0.0099  0.1214 -0.3462
 7722SOL    HW134802   1.877   0.871   7.705  0.4581 -0.7659 -0.5740
 7722SOL    HW234803   1.873   0.936   7.581  0.8425 -0.6676 -1.4016
 7723SOL     OW34804   1.610   3.307   5.986 -0.1196 -0.8813 -0.3368
 7723SOL    HW134805   1.671   3.280   5.918 -1.4647 -0.0546 -1.8683
 7723SOL    HW234806   1.609   3.402   5.980  0.6487 -0.8488  0.0175
 7724SOL     OW34807   1.839   1.827   7.317  0.2415  0.9644 -0.3409
 7724SOL    HW134808   1.909   1.821   7.382 -1.2274 -1.7619  1.0315
 7724SOL    HW234809   1.840   1.736   7.285 -0.3848  0.8161  0.0543
 7725SOL     OW34810   2.370   3.650   2.385  0.0035  0.0726  0.0961
 7725SOL    HW134811   2.365   3.596   2.464  1.1802  0.9754  0.7816
 7725SOL    HW234812   2.461   3.628   2.364 -0.0462  0.0325 -0.0768
 7726SOL     OW34813   4.168   1.832  12.594 -0.3600 -0.5070  0.0871
 7726SOL    HW134814   4.152   1.853  12.686 -1.9452 -1.1959 -0.0288
 7726SOL    HW234815   4.263   1.831  12.588 -0.3745 -0.5459 -0.1449
 7727SOL     OW34816   4.736   0.397  11.475 -0.1785  0.5152 -0.4259
 7727SOL    HW134817   0.025   0.328  11.414 -1.6228 -2.2978  2.1453
 7727SOL    HW234818   0.075   0.398  11.531  0.0440  1.7195 -0.7450
 7728SOL     OW34819   0.274   1.569   6.480 -0.2638  0.6962 -0.3921
 7728SOL    HW134820   0.321   1.531   6.406  0.4895  0.2630  0.3106
 7728SOL    HW234821   0.348   1.614   6.520  2.2327 -2.7500 -1.0905
 7729SOL     OW34822   2.968   3.116   4.639 -0.1662  0.4989 -0.3963
 7729SOL    HW134823   3.034   3.169   4.685  2.0782 -1.4496 -1.3956
 7729SOL    HW234824   3.010   3.092   4.557  1.5523  1.2735  0.2532
 7730SOL     OW34825   3.708   2.632   4.960  0.0837  0.1311  0.1286
 7730SOL    HW134826   3.775   2.616   5.027 -0.6877 -1.3380  0.5653
 7730SOL    HW234827   3.678   2.719   4.985 -0.4915 -0.6154  2.0758
 7731SOL     OW34828   0.148   3.697   4.471  0.0280 -0.5003 -0.2020
 7731SOL    HW134829   0.243   3.695   4.485 -0.4254 -1.5250  2.7544
 7731SOL    HW234830   0.124   3.611   4.436  0.9524 -0.7568 -0.1960
 7732SOL     OW34831   2.009   0.386   7.862 -0.3323  0.2014  0.7138
 7732SOL    HW134832   2.068   0.389   7.787 -1.1233 -0.7330  0.0370
 7732SOL    HW234833   1.994   0.292   7.849  2.5145 -0.0630 -0.7782
 7733SOL     OW34834   3.689   3.783  12.354 -0.0667 -0.4459  0.1297
 7733SOL    HW134835   3.722   3.867  12.386  0.7430 -0.9256  0.5562
 7733SOL    HW234836   3.619   3.803  12.292 -1.4043 -1.7028  1.2428
 7734SOL     OW34837   3.994   4.554   6.193 -0.0421 -0.1487 -0.1724
 7734SOL    HW134838   3.964   4.548   6.284  0.3078  0.8441  0.0103
 7734SOL    HW234839   4.021   4.462   6.187  0.9858  0.0902  0.7973
 7735SOL     OW34840   4.034   3.580  14.157 -0.3098 -0.1016  0.2917
 7735SOL    HW134841   4.051   3.554  14.248 -0.9099  0.1497  0.4782
 7735SOL    HW234842   4.031   3.492  14.119 -0.3536  0.7600 -1.6802
 7736SOL     OW34843   3.962   4.417   2.727 -0.3748 -0.0354  0.0527
 7736SOL    HW134844   4.019   4.340   2.721 -0.3859 -0.1332  1.1865
 7736SOL    HW234845   3.888   4.375   2.769 -1.0596  0.2464 -0.8773
 7737SOL     OW34846   3.613   2.788   0.143  0.0077 -0.4525 -0.1491
 7737SOL    HW134847   3.616   2.702   0.102  0.3007 -1.2585  1.5648
 7737SOL    HW234848   3.519   2.792   0.160 -0.0217  1.6216 -0.7775
 7738SOL     OW34849   1.560   3.489   6.500  0.7616  0.0636  0.8912
 7738SOL    HW134850   1.570   3.536   6.582  4.0285  0.9515 -0.0286
 7738SOL    HW234851   1.644   3.509   6.458 -0.7645  0.7134 -1.8493
 7739SOL     OW34852   1.763   4.314  15.360 -0.3833 -0.2035  0.2451
 7739SOL    HW134853   1.710   4.386  15.326 -0.5733 -0.9304 -0.9901
 7739SOL    HW234854   1.796   4.275  15.280  0.7583  0.5500  0.3565
 7740SOL     OW34855   3.351   2.669  11.408  0.0793  0.6549 -0.3803
 7740SOL    HW134856   3.403   2.744  11.381  0.7994 -0.4136 -1.9566
 7740SOL    HW234857   3.393   2.605  11.351 -1.5404  0.0382 -0.8631
 7741SOL     OW34858   1.089   1.992   7.686 -0.8657 -0.2355  0.4819
 7741SOL    HW134859   1.027   2.026   7.622  0.7003  0.2513 -0.7671
 7741SOL    HW234860   1.139   2.072   7.703 -2.2221  0.8787 -0.8609
 7742SOL     OW34861   1.815   4.083  10.641  0.4634 -0.1985  0.8113
 7742SOL    HW134862   1.795   4.041  10.724 -1.3492  0.3722  0.6702
 7742SOL    HW234863   1.880   4.020  10.609  0.6588 -0.4190  1.6477
 7743SOL     OW34864   0.893   0.572   2.438  0.0116  0.4106  0.2507
 7743SOL    HW134865   0.894   0.652   2.386  0.0278  0.1215 -0.1958
 7743SOL    HW234866   0.831   0.591   2.508 -2.2759 -2.4984 -1.0078
 7744SOL     OW34867   2.224   4.702  12.350 -0.0011  0.3958 -0.9848
 7744SOL    HW134868   2.307   4.673  12.311 -0.2243 -3.7441  1.5948
 7744SOL    HW234869   2.263   0.038  12.396 -0.9389  0.9870 -1.1366
 7745SOL     OW34870   3.718   1.048   9.034 -0.0158  0.6942 -0.5834
 7745SOL    HW134871   3.641   1.053   8.977  1.0126 -0.3593 -2.0615
 7745SOL    HW234872   3.780   0.998   8.981 -2.1873 -0.0385 -2.4882
 7746SOL     OW34873   3.366   1.259   3.442  0.5635  0.4037  0.0095
 7746SOL    HW134874   3.352   1.312   3.364  1.9773  0.5472 -0.1469
 7746SOL    HW234875   3.450   1.219   3.418  0.1330 -0.0584 -0.7317
 7747SOL     OW34876   0.235   1.255   3.260  0.1847 -0.1917 -0.2626
 7747SOL    HW134877   0.147   1.245   3.295  1.0980 -1.0645  1.7523
 7747SOL    HW234878   0.283   1.298   3.331 -0.3480  0.2846 -0.1878
 7748SOL     OW34879   2.634   4.190   3.445 -0.4121  0.3223 -0.1406
 7748SOL    HW134880   2.636   4.142   3.527 -0.3779  0.4533 -0.0639
 7748SOL    HW234881   2.726   4.213   3.428 -0.1554  0.3424  1.3243
 7749SOL     OW34882   2.958   3.325   8.586  1.0378  0.3980 -0.3534
 7749SOL    HW134883   2.974   3.231   8.596  0.8836  0.5488  1.2285
 7749SOL    HW234884   3.046   3.362   8.590  0.3734  2.2900 -2.6477
 7750SOL     OW34885   0.840   4.586   5.970  0.3370 -0.5548  0.0779
 7750SOL    HW134886   0.803   4.630   5.894  0.7064  0.6504  0.5955
 7750SOL    HW234887   0.777   4.514   5.968  0.8162 -1.0625  2.3588
 7751SOL     OW34888   4.567   1.394  14.606  0.1777  0.5847  0.1044
 7751SOL    HW134889   4.532   1.392  14.695  1.2417 -1.0468  0.4933
 7751SOL    HW234890   4.594   1.303  14.592  0.2074  0.7001 -0.6025
 7752SOL     OW34891   3.583   3.749  11.583  0.1533  0.2583  0.3937
 7752SOL    HW134892   3.576   3.841  11.558 -1.6012 -0.0601 -0.2805
 7752SOL    HW234893   3.497   3.733  11.623  0.0992  0.1917  0.2513
 7753SOL     OW34894   1.748   2.444  11.601 -0.3345  0.2896 -0.0257
 7753SOL    HW134895   1.696   2.435  11.681  0.4875  3.0318  0.8444
 7753SOL    HW234896   1.673   2.442  11.543 -1.1404  3.0500  0.9023
 7754SOL     OW34897   3.710   0.836   5.073  0.0780  0.7093 -0.2187
 7754SOL    HW134898   3.804   0.837   5.054  0.3255 -1.5977  0.9441
 7754SOL    HW234899   3.677   0.925   5.056 -1.4303  0.2116  0.1064
 7755SOL     OW34900   4.696   3.858   2.152  0.6542 -0.3747  0.2527
 7755SOL    HW134901   0.044   3.888   2.182  0.6885  1.7650 -1.9695
 7755SOL    HW234902   4.664   3.943   2.122 -0.3270 -1.0882 -0.6885
 7756SOL     OW34903   0.441   3.823   6.407 -0.6073 -0.2278 -0.5294
 7756SOL    HW134904   0.420   3.877   6.483  3.2691 -0.3066  0.5561
 7756SOL    HW234905   0.434   3.733   6.440  1.8058  0.3360  1.4591
 7757SOL     OW34906   2.404   2.303   2.939  0.2618  0.1145  0.5744
 7757SOL    HW134907   2.394   2.332   3.030  2.7409 -1.0775  1.2246
 7757SOL    HW234908   2.325   2.258   2.910  0.8824 -1.2889  1.0777
 7758SOL     OW34909   4.584   0.750   1.205 -0.2200 -0.4789 -0.4635
 7758SOL    HW134910   4.619   0.696   1.134  1.2282  0.3520 -0.3704
 7758SOL    HW234911   4.489   0.733   1.209 -0.2516  0.3908  2.2706
 7759SOL     OW34912   4.064   2.898  10.155  0.3372  0.0791 -0.4933
 7759SOL    HW134913   3.978   2.860  10.173  0.5938  0.6993  2.0446
 7759SOL    HW234914   4.032   2.988  10.153  0.6254  0.1930 -0.0945
 7760SOL     OW34915   0.579   1.648   8.067  0.4287 -0.0814  0.0436
 7760SOL    HW134916   0.514   1.661   7.998 -0.4243 -0.2238  0.8212
 7760SOL    HW234917   0.617   1.569   8.029 -1.9044 -1.8257  1.3208
 7761SOL     OW34918   0.654   2.624   4.705 -0.1420  0.6462  0.3419
 7761SOL    HW134919   0.588   2.597   4.641  0.7377  2.2396 -1.2228
 7761SOL    HW234920   0.687   2.534   4.713  1.3235  1.0646 -1.0498
 7762SOL     OW34921   4.374   3.875   5.217 -0.2667 -0.2408 -0.4507
 7762SOL    HW134922   4.282   3.850   5.225  0.2178 -1.9545 -0.2032
 7762SOL    HW234923   4.360   3.970   5.224 -1.1192 -0.4216  0.2888
 7763SOL     OW34924   0.273   2.274   7.115  0.2487 -0.1867 -0.1469
 7763SOL    HW134925   0.360   2.278   7.154  0.4152  0.5969 -0.6028
 7763SOL    HW234926   0.259   2.183   7.090 -0.2230 -0.3374  0.6808
 7764SOL     OW34927   3.275   2.045   6.961  0.0280 -1.2591  0.8382
 7764SOL    HW134928   3.352   2.023   7.014  0.0325  0.4760  1.5326
 7764SOL    HW234929   3.282   1.970   6.902 -1.0999 -0.0540 -0.8059
 7765SOL     OW34930   3.138   2.627   6.992  0.3146 -0.5442  0.6407
 7765SOL    HW134931   3.077   2.585   6.931  1.3780 -0.2435 -0.6464
 7765SOL    HW234932   3.136   2.568   7.067 -0.6902 -1.8803 -0.4363
 7766SOL     OW34933   2.568   4.307   6.048 -0.5936 -0.0785 -0.7501
 7766SOL    HW134934   2.643   4.274   6.097 -2.6130 -1.2772  1.5249
 7766SOL    HW234935   2.576   4.247   5.973 -0.5976 -1.6220  0.4751
 7767SOL     OW34936   2.760   2.491   1.970 -0.3571  0.4572 -0.2841
 7767SOL    HW134937   2.708   2.543   2.031 -0.0522 -1.0837  1.3134
 7767SOL    HW234938   2.719   2.405   1.984  0.7101 -0.1880 -1.1165
 7768SOL     OW34939   1.112   2.749  17.469  0.3105  0.4147  0.2468
 7768SOL    HW134940   1.069   2.684  17.525  1.3942  0.1555  0.7785
 7768SOL    HW234941   1.122   2.701  17.387  2.8032  0.8186  0.3166
 7769SOL     OW34942   1.816   1.250   5.696  0.1304  0.2465  0.5717
 7769SOL    HW134943   1.736   1.264   5.646 -0.4756  1.6780  1.9573
 7769SOL    HW234944   1.770   1.214   5.772 -0.0596 -2.0911 -0.6625
 7770SOL     OW34945   1.801   1.069   6.807  0.0880  0.0643 -0.0552
 7770SOL    HW134946   1.799   1.163   6.827  1.8957 -0.0100  0.4491
 7770SOL    HW234947   1.896   1.058   6.806 -0.0777 -1.4981  1.6101
 7771SOL     OW34948   3.633   2.931   6.811 -0.3750 -0.4286  0.4279
 7771SOL    HW134949   3.631   3.017   6.769  0.8232  0.5994  2.5057
 7771SOL    HW234950   3.542   2.928   6.841 -0.3497  1.1464  0.6537
 7772SOL     OW34951   1.623   2.247   3.378  0.1260  0.0685  1.0894
 7772SOL    HW134952   1.624   2.164   3.330 -1.0304  0.6353  0.0976
 7772SOL    HW234953   1.643   2.223   3.468  0.1115 -1.4139  0.6956
 7773SOL     OW34954   1.154   2.942   0.493 -0.4385 -0.8316 -0.2773
 7773SOL    HW134955   1.148   3.020   0.438  1.5509  0.9299  1.9695
 7773SOL    HW234956   1.148   2.869   0.431  0.4830 -0.0437 -1.3027
 7774SOL     OW34957   2.818   2.476   3.551 -0.2816 -0.3458  0.2054
 7774SOL    HW134958   2.734   2.512   3.522 -0.5504  0.2096  1.6564
 7774SOL    HW234959   2.867   2.509   3.476  0.1050 -0.0754  0.5733
 7775SOL     OW34960   0.830   3.947   3.594  0.4617 -0.3278  0.0422
 7775SOL    HW134961   0.841   3.884   3.523 -0.1041  1.3078 -1.4997
 7775SOL    HW234962   0.759   4.004   3.566  0.3125  0.7933  2.7575
 7776SOL     OW34963   1.186   2.756   9.357  0.7201 -0.1780  0.5609
 7776SOL    HW134964   1.138   2.813   9.417  0.1806 -2.1615  2.0163
 7776SOL    HW234965   1.120   2.706   9.309  0.0047  0.9661  0.3474
 7777SOL     OW34966   2.248   0.881   4.366  0.1793 -0.4694  0.1698
 7777SOL    HW134967   2.290   0.815   4.421  0.1187  0.6425  1.5718
 7777SOL    HW234968   2.278   0.960   4.412 -0.7016 -1.2547  2.1063
 7778SOL     OW34969   3.964   1.796   5.877 -0.0680  0.8561 -0.2641
 7778SOL    HW134970   4.031   1.857   5.908 -1.7788  0.9042  3.3314
 7778SOL    HW234971   3.952   1.742   5.956  1.2279  2.8215  1.2697
 7779SOL     OW34972   1.605   3.064  14.770 -0.0495  0.4173 -0.2693
 7779SOL    HW134973   1.606   3.079  14.675  2.5821 -0.7310 -0.4227
 7779SOL    HW234974   1.604   3.152  14.807 -2.1136  0.4479 -0.3630
 7780SOL     OW34975   3.049   1.283   0.058  0.0987  0.0486 -0.3337
 7780SOL    HW134976   3.112   1.355   0.057  1.0052 -0.7109  1.4558
 7780SOL    HW234977   2.975   1.339   0.081 -0.7041 -0.6195 -1.2587
 7781SOL     OW34978   4.643   3.281   4.189  0.1139  0.6002 -0.2016
 7781SOL    HW134979   4.679   3.329   4.115  1.1005  1.6591  0.9689
 7781SOL    HW234980   4.690   3.197   4.186  0.2705  0.5802  2.9439
 7782SOL     OW34981   4.292   0.143   8.494  0.1509  0.1831  0.2419
 7782SOL    HW134982   4.219   0.135   8.555  1.7795 -0.3697  2.1136
 7782SOL    HW234983   4.349   0.070   8.517 -2.0561 -1.6341  0.0153
 7783SOL     OW34984   3.854   3.805   9.439 -0.1431  0.0925  0.1643
 7783SOL    HW134985   3.830   3.845   9.522 -0.6108 -0.0374  0.0909
 7783SOL    HW234986   3.778   3.748   9.428  0.2635 -0.1442 -1.4435
 7784SOL     OW34987   1.579   0.603   9.089 -0.4677 -0.3369 -0.0014
 7784SOL    HW134988   1.539   0.677   9.043  0.5322  0.4545  0.3921
 7784SOL    HW234989   1.500   0.572   9.135  0.4205 -1.7558  0.5524
 7785SOL     OW34990   3.331   4.510  17.231  0.3465  0.1746  0.0030
 7785SOL    HW134991   3.344   4.599  17.199 -1.0478  0.3755  0.0178
 7785SOL    HW234992   3.389   4.505  17.307  0.6998 -1.4241 -0.3724
 7786SOL     OW34993   0.574   1.141   8.563 -0.1833 -0.2398  0.3252
 7786SOL    HW134994   0.485   1.111   8.584 -0.1340 -1.2233 -0.8113
 7786SOL    HW234995   0.614   1.062   8.525  1.7996  0.5306  0.8346
 7787SOL     OW34996   1.016   3.869  15.270  0.1610 -0.4922  0.1447
 7787SOL    HW134997   0.995   3.937  15.207 -0.8236 -1.0694 -0.1552
 7787SOL    HW234998   0.929   3.831  15.282 -1.0753  2.1752 -0.3835
 7788SOL     OW34999   2.875   0.960   2.123 -0.1688 -0.6130 -0.1929
 7788SOL    HW135000   2.960   0.946   2.164  1.1010  0.4664 -2.4599
 7788SOL    HW235001   2.845   1.048   2.146 -1.1383 -1.4686  1.7751
 7789SOL     OW35002   3.474   0.502  15.244 -0.7007  0.1969 -0.0628
 7789SOL    HW135003   3.524   0.508  15.326 -0.6530 -1.6025  0.0545
 7789SOL    HW235004   3.460   0.593  15.218  1.7710 -0.3171 -3.2524
 7790SOL     OW35005   3.429   0.778  10.114 -0.0511 -0.0766 -0.2515
 7790SOL    HW135006   3.411   0.872  10.120 -0.8602 -0.0910 -2.5650
 7790SOL    HW235007   3.485   0.777  10.037 -0.2324 -0.0590 -0.3854
 7791SOL     OW35008   1.013   1.545   2.907  0.3968  0.1242 -0.4163
 7791SOL    HW135009   0.949   1.497   2.854  2.9877 -1.2619 -2.3080
 7791SOL    HW235010   1.087   1.498   2.868  1.6897  1.5407  0.3482
 7792SOL     OW35011   0.494   0.912   5.786  1.3615  0.1927 -0.4823
 7792SOL    HW135012   0.497   0.838   5.847 -0.9475 -0.4658 -1.1668
 7792SOL    HW235013   0.411   0.889   5.745  0.7664  0.3609  0.6248
 7793SOL     OW35014   0.646   3.087  14.269  0.2869  0.3056 -1.0656
 7793SOL    HW135015   0.595   3.166  14.253  0.1298  0.5683  0.6696
 7793SOL    HW235016   0.584   3.015  14.261  0.5507  0.0242 -0.5921
 7794SOL     OW35017   2.273   1.811   2.868 -0.0312  0.4146  0.3943
 7794SOL    HW135018   2.346   1.822   2.807 -0.5240 -2.3139 -0.6874
 7794SOL    HW235019   2.309   1.866   2.939 -0.3605  1.8061 -0.5121
 7795SOL     OW35020   0.757   2.068   8.412  0.8436 -0.3378 -0.1314
 7795SOL    HW135021   0.796   2.102   8.493  1.3084 -0.3858 -0.3370
 7795SOL    HW235022   0.669   2.062   8.450  1.4771  1.5582  1.6525
 7796SOL     OW35023   1.732   0.916   8.875 -0.0833  0.4100  0.6590
 7796SOL    HW135024   1.752   1.009   8.866 -1.9329  0.5572 -1.9079
 7796SOL    HW235025   1.640   0.912   8.902  0.1616 -1.4693  1.2699
 7797SOL     OW35026   4.313   2.961   5.167  0.6528 -0.2826  0.2356
 7797SOL    HW135027   4.297   3.050   5.136  2.1277  0.4928  1.6874
 7797SOL    HW235028   4.405   2.949   5.142  1.3274  1.9342  1.6137
 7798SOL     OW35029   1.498   4.274  15.147 -0.1449 -0.1556 -0.1469
 7798SOL    HW135030   1.495   4.331  15.071 -0.8685 -2.2478 -1.6782
 7798SOL    HW235031   1.545   4.204  15.103  0.8392  0.5707 -0.2414
 7799SOL     OW35032   0.397   2.849  17.286  0.0314  0.2786 -0.2652
 7799SOL    HW135033   0.450   2.857  17.207  0.7322  0.6238  0.2424
 7799SOL    HW235034   0.312   2.871  17.249 -0.3377 -3.1275 -1.4725
 7800SOL     OW35035   2.119   3.552   1.401 -0.0254  0.4460  0.7065
 7800SOL    HW135036   2.067   3.554   1.481 -0.5627 -3.4817  0.4348
 7800SOL    HW235037   2.066   3.509   1.334  0.9168 -0.8091  0.7772
 7801SOL     OW35038   0.357   3.946   6.958  0.1515 -0.2213  0.2163
 7801SOL    HW135039   0.269   3.921   6.983  0.0407 -1.9629 -1.9653
 7801SOL    HW235040   0.329   3.971   6.870  2.1714 -3.7038 -1.4094
 7802SOL     OW35041   0.515   2.052   8.505 -0.2438 -0.0997  0.1244
 7802SOL    HW135042   0.431   2.094   8.525 -0.5400  0.7873 -2.8603
 7802SOL    HW235043   0.512   1.980   8.567  1.8833  1.3032  1.8762
 7803SOL     OW35044   2.881   2.856  13.403  0.6126 -0.3747  0.3130
 7803SOL    HW135045   2.833   2.939  13.412  0.5315 -0.6633  2.5818
 7803SOL    HW235046   2.945   2.878  13.335  1.1328 -3.8261 -0.3009
 7804SOL     OW35047   4.116   4.188  16.844  0.2271  0.4665 -0.1413
 7804SOL    HW135048   4.182   4.123  16.870  0.0185  1.4543  2.9369
 7804SOL    HW235049   4.106   4.161  16.753  2.9574  0.1677 -0.3392
 7805SOL     OW35050   4.576   3.884   3.253  0.1512 -0.1480  0.4350
 7805SOL    HW135051   4.509   3.855   3.316 -0.5176  1.1432  0.3107
 7805SOL    HW235052   4.656   3.851   3.293  0.0409 -3.1240 -1.7877
 7806SOL     OW35053   0.876   3.164  14.447  0.1465  0.1309  0.3697
 7806SOL    HW135054   0.810   3.231  14.468 -0.4471 -1.3110  2.9903
 7806SOL    HW235055   0.822   3.112  14.387 -0.6964 -1.6571  2.6923
 7807SOL     OW35056   3.415   3.464   7.840 -0.1900 -0.1263  0.6661
 7807SOL    HW135057   3.429   3.558   7.828 -1.8681  0.3622  2.5547
 7807SOL    HW235058   3.333   3.438   7.799  0.1156 -0.9862  0.6111
 7808SOL     OW35059   2.399   3.298  17.347  0.6073 -0.2052 -0.6239
 7808SOL    HW135060   2.482   3.255  17.327  1.5704  2.7688 -3.0430
 7808SOL    HW235061   2.374   3.250  17.426  1.8655 -1.2391 -0.8488
 7809SOL     OW35062   2.004   3.068   1.893  0.2573  0.1965 -0.5407
 7809SOL    HW135063   1.958   2.990   1.925  0.3193  0.3774 -0.0163
 7809SOL    HW235064   2.063   3.022   1.833  1.3864 -0.9188  1.4317
 7810SOL     OW35065   3.990   0.712   4.506 -0.3998 -0.1149  0.5377
 7810SOL    HW135066   4.032   0.781   4.557 -1.5832  1.1470 -0.2125
 7810SOL    HW235067   3.944   0.670   4.579  0.3604  0.0190  1.0933
 7811SOL     OW35068   3.560   0.610   5.163 -0.0411 -0.6196  0.2730
 7811SOL    HW135069   3.643   0.562   5.168 -0.4133 -1.3614 -0.5855
 7811SOL    HW235070   3.590   0.685   5.113  0.1904  0.1393  1.5492
 7812SOL     OW35071   1.662   2.451   5.978  0.2726 -0.1578 -0.1941
 7812SOL    HW135072   1.705   2.476   5.896  0.2552  0.5057  0.0039
 7812SOL    HW235073   1.668   2.355   5.979 -2.2129 -0.2764  2.5730
 7813SOL     OW35074   1.094   1.876   4.288  0.0605 -0.2027 -0.5860
 7813SOL    HW135075   1.006   1.877   4.325 -0.0898 -0.6255 -0.9344
 7813SOL    HW235076   1.130   1.806   4.343 -0.9098 -0.4568 -0.2849
 7814SOL     OW35077   3.676   3.427  15.275 -0.4961  0.2939  0.3180
 7814SOL    HW135078   3.624   3.428  15.355 -2.3868 -1.2944 -0.8949
 7814SOL    HW235079   3.727   3.503  15.303  0.4287  0.4968 -1.8415
 7815SOL     OW35080   3.289   0.438  15.021 -0.0898  0.5983 -0.7948
 7815SOL    HW135081   3.374   0.476  15.044  0.8396 -1.3732 -0.9128
 7815SOL    HW235082   3.234   0.513  15.042 -0.6542 -0.1305  0.3649
 7816SOL     OW35083   2.083   3.463  10.087 -0.0293  0.5713 -0.5443
 7816SOL    HW135084   2.035   3.424  10.160 -1.6902  1.3444 -1.2047
 7816SOL    HW235085   2.167   3.422  10.107 -1.1765 -2.7545 -2.5285
 7817SOL     OW35086   1.347   3.065   2.344  0.2943 -0.4493  0.1434
 7817SOL    HW135087   1.358   3.116   2.425  0.4897 -0.8784  0.3881
 7817SOL    HW235088   1.433   3.023   2.341  0.3204 -0.5085  1.6015
 7818SOL     OW35089   1.471   0.987   3.631  0.0495  0.7630 -0.1442
 7818SOL    HW135090   1.399   1.023   3.683 -0.6593 -0.6806 -0.1229
 7818SOL    HW235091   1.511   0.943   3.706 -0.6861 -0.6781 -0.6067
 7819SOL     OW35092   0.244   2.053   3.509 -0.0381 -0.0843  0.1129
 7819SOL    HW135093   0.178   1.986   3.523 -1.9077  1.5599 -0.7939
 7819SOL    HW235094   0.237   2.105   3.590 -0.3844  0.2936 -0.1621
 7820SOL     OW35095   1.961   3.683   7.670  0.3083 -0.2681 -0.2498
 7820SOL    HW135096   2.032   3.720   7.617 -0.4914 -0.1304 -1.2189
 7820SOL    HW235097   2.004   3.622   7.730 -1.9385 -1.7658 -0.1849
 7821SOL     OW35098   1.372   3.409   7.205 -0.2413 -0.0086 -0.3057
 7821SOL    HW135099   1.322   3.479   7.247  1.0834 -0.3628  1.8874
 7821SOL    HW235100   1.435   3.387   7.274 -0.6032 -0.7275 -0.2019
 7822SOL     OW35101   4.483   2.720   6.086  0.2408 -0.4093 -0.0263
 7822SOL    HW135102   4.435   2.802   6.073  0.2740 -0.3749  0.0705
 7822SOL    HW235103   4.573   2.753   6.088 -0.4696  1.4905  0.5953
 7823SOL     OW35104   4.390   1.491   0.808 -0.1458 -0.3671 -0.3056
 7823SOL    HW135105   4.439   1.572   0.793 -0.5893  0.1052  0.7286
 7823SOL    HW235106   4.354   1.511   0.895  0.1599 -2.1818  0.2359
 7824SOL     OW35107   0.328   2.388   5.764 -0.1837 -0.2557  0.1826
 7824SOL    HW135108   0.346   2.298   5.737 -0.4820  0.3248 -1.9310
 7824SOL    HW235109   0.327   2.383   5.860  3.1903 -2.1970  0.1367
 7825SOL     OW35110   1.810   2.571   5.801  0.0898 -0.6934 -0.0176
 7825SOL    HW135111   1.840   2.657   5.832  2.3969 -0.2119 -3.5566
 7825SOL    HW235112   1.747   2.599   5.735  0.2799 -1.3321 -0.4700
 7826SOL     OW35113   1.059   4.264   6.829  0.0966  0.3576 -0.0928
 7826SOL    HW135114   1.094   4.288   6.744  3.5945 -0.0624  1.2306
 7826SOL    HW235115   1.092   4.322   6.897  3.6527  0.0332 -1.5631
 7827SOL     OW35116   2.090   2.267   7.741 -0.0084 -0.0538 -0.1896
 7827SOL    HW135117   2.147   2.190   7.732 -0.5518 -0.6777  1.8847
 7827SOL    HW235118   2.096   2.294   7.832  0.6849  2.6076 -0.9972
 7828SOL     OW35119   4.368   2.922   5.963 -0.5786 -0.1099 -0.1967
 7828SOL    HW135120   4.403   3.011   5.967 -1.9029  0.4446 -1.0559
 7828SOL    HW235121   4.375   2.908   5.868 -0.7603  1.3962 -0.4364
 7829SOL     OW35122   1.340   3.619   3.009 -0.1803  0.2826 -0.5438
 7829SOL    HW135123   1.368   3.569   3.086 -0.6470  3.0011  1.3556
 7829SOL    HW235124   1.356   3.710   3.033 -0.9559  0.5613 -1.0926
 7830SOL     OW35125   3.352   3.170   3.672  0.0394  0.4183 -0.3148
 7830SOL    HW135126   3.327   3.155   3.763  0.1961  1.2416 -0.1336
 7830SOL    HW235127   3.287   3.236   3.647  1.2479  1.5445 -0.4712
 7831SOL     OW35128   4.026   4.366   4.812  0.1485 -0.0883  0.3315
 7831SOL    HW135129   4.117   4.347   4.835  1.0775  1.7074 -1.8735
 7831SOL    HW235130   3.974   4.296   4.852 -0.1921 -0.1013 -0.1327
 7832SOL     OW35131   3.614   4.250   3.898 -0.6477  0.0795  0.0943
 7832SOL    HW135132   3.674   4.243   3.972 -1.1562  0.0509  0.5032
 7832SOL    HW235133   3.577   4.338   3.910 -1.9424 -0.5164  0.4649
 7833SOL     OW35134   0.338   0.866   6.170 -0.1258  0.4910  0.4367
 7833SOL    HW135135   0.355   0.933   6.104 -0.7608  0.2126 -0.0073
 7833SOL    HW235136   0.268   0.806   6.143  0.6127  0.2679 -1.0152
 7834SOL     OW35137   1.025   2.983   4.152 -0.4473  0.1366  0.0070
 7834SOL    HW135138   0.965   3.015   4.218 -0.1896  2.5880 -0.9492
 7834SOL    HW235139   1.100   2.972   4.210 -0.0525  0.5637 -0.4190
 7835SOL     OW35140   1.488   3.094   7.111 -0.2287 -0.2791  0.7410
 7835SOL    HW135141   1.432   3.125   7.183 -0.0299 -1.5526  1.4416
 7835SOL    HW235142   1.563   3.063   7.161  0.8124 -0.6330 -1.0571
 7836SOL     OW35143   0.485   3.366  16.295 -0.0718 -0.1495 -0.2276
 7836SOL    HW135144   0.455   3.315  16.370  1.7850 -3.2160 -1.5527
 7836SOL    HW235145   0.452   3.453  16.319 -2.1846 -1.2354  0.8176
 7837SOL     OW35146   4.448   1.977  11.062 -0.2591  0.0118  0.0569
 7837SOL    HW135147   4.541   1.966  11.082  0.4493  1.3871 -2.4362
 7837SOL    HW235148   4.416   1.965  11.151 -3.1081  0.3212 -0.9118
 7838SOL     OW35149   0.234   2.825   4.902  0.4505 -0.0546 -0.2966
 7838SOL    HW135150   0.277   2.788   4.824  0.6539 -0.0410 -0.1907
 7838SOL    HW235151   0.153   2.848   4.857 -1.3141 -1.0721  2.3494
 7839SOL     OW35152   2.272   4.248  15.943 -0.0090  0.3483 -0.3710
 7839SOL    HW135153   2.357   4.209  15.926  0.9196  2.5148 -0.6881
 7839SOL    HW235154   2.296   4.333  15.980 -0.8574  0.0047  0.9859
 7840SOL     OW35155   0.197   4.100   0.251 -0.1157  0.2388 -0.0821
 7840SOL    HW135156   0.272   4.071   0.301  0.3248 -0.0464 -0.9054
 7840SOL    HW235157   0.179   4.026   0.193  0.3544 -0.4209  0.6224
 7841SOL     OW35158   0.721   2.235   7.000  0.0516 -0.4321  0.6540
 7841SOL    HW135159   0.715   2.326   7.031 -0.7570  0.0758 -0.9699
 7841SOL    HW235160   0.785   2.249   6.931 -1.1272  2.0069  0.0496
 7842SOL     OW35161   3.026   1.475   8.796  0.1659 -0.5858  1.0391
 7842SOL    HW135162   2.994   1.417   8.728 -0.2080  1.0261 -0.1654
 7842SOL    HW235163   2.977   1.557   8.785 -1.9885 -1.9640  0.5142
 7843SOL     OW35164   4.482   0.097  11.942  0.5961 -0.3491  0.1915
 7843SOL    HW135165   4.388   0.095  11.925  0.7711 -0.0435 -0.8098
 7843SOL    HW235166   4.514   0.083  11.853 -0.6360 -2.0290  0.0237
 7844SOL     OW35167   3.490   1.689  10.556 -0.7169 -0.9603  0.1635
 7844SOL    HW135168   3.546   1.621  10.595  1.1925  0.6347  0.1799
 7844SOL    HW235169   3.415   1.684  10.615 -1.4168 -2.2527 -0.8337
 7845SOL     OW35170   1.612   3.193   7.884 -0.3585 -0.1835 -0.1842
 7845SOL    HW135171   1.618   3.219   7.976  1.3787 -1.1636 -0.0236
 7845SOL    HW235172   1.521   3.211   7.862 -0.0189 -0.2663 -1.6124
 7846SOL     OW35173   0.807   4.080   0.101 -0.1782 -0.0093  0.0881
 7846SOL    HW135174   0.887   4.076   0.049 -1.0534 -0.4684 -1.2242
 7846SOL    HW235175   0.832   4.030   0.178 -1.4215  1.2108  1.2743
 7847SOL     OW35176   3.024   2.307   8.761  0.4307 -0.2901  0.1836
 7847SOL    HW135177   3.116   2.282   8.769  0.2528 -0.9359  0.1800
 7847SOL    HW235178   3.025   2.398   8.791  1.4698  0.3889 -1.9272
 7848SOL     OW35179   2.184   4.719   1.342 -0.1912  0.1885  0.7259
 7848SOL    HW135180   2.165   4.683   1.429 -1.3376  1.3825  0.9626
 7848SOL    HW235181   2.229   0.057   1.378  0.2845  0.7759 -1.0675
 7849SOL     OW35182   2.380   3.380  14.084  0.4263 -0.3335 -0.9474
 7849SOL    HW135183   2.306   3.373  14.145  0.7770 -0.4382 -0.5302
 7849SOL    HW235184   2.422   3.294  14.082  0.1729 -0.5012  0.2965
 7850SOL     OW35185   2.056   4.612   4.643  0.0964  0.1640  0.1436
 7850SOL    HW135186   2.022   4.584   4.558  1.1887 -0.2450 -0.1556
 7850SOL    HW235187   1.981   4.661   4.678 -1.6095 -2.4870  0.1362
 7851SOL     OW35188   4.720   3.173   8.177  0.1227  0.1942  0.0862
 7851SOL    HW135189   0.019   3.159   8.090 -1.3974  0.3038 -0.5803
 7851SOL    HW235190   0.030   3.105   8.225  0.6058  0.3348 -0.2009
 7852SOL     OW35191   4.293   3.707   9.229  0.2270  0.0724 -0.0241
 7852SOL    HW135192   4.364   3.714   9.166 -1.8040  0.1267 -2.3135
 7852SOL    HW235193   4.236   3.784   9.222 -0.1007 -0.3390 -1.7027
 7853SOL     OW35194   0.694   3.279  17.679  0.0538  0.1755 -0.2002
 7853SOL    HW135195   0.779   3.242  17.702 -0.0181  0.0530 -0.1294
 7853SOL    HW235196   0.695   3.358  17.734 -3.1005 -0.0436  0.1700
 7854SOL     OW35197   1.863   1.534   4.237 -0.6053 -0.2391  0.0370
 7854SOL    HW135198   1.810   1.583   4.173 -1.8735 -0.3894  0.9735
 7854SOL    HW235199   1.951   1.556   4.209 -0.0052 -1.5493  0.9031
 7855SOL     OW35200   3.610   4.639   4.656  0.7377 -0.9958 -0.5011
 7855SOL    HW135201   3.596   4.564   4.598 -3.1017 -2.1216  1.8536
 7855SOL    HW235202   3.695   4.615   4.694  1.6783 -2.1422 -3.3276
 7856SOL     OW35203   1.486   2.831   2.692 -0.4548 -0.1322 -0.8524
 7856SOL    HW135204   1.444   2.895   2.748  0.8567 -0.8892  0.9824
 7856SOL    HW235205   1.438   2.749   2.706 -1.2941  0.4310 -0.4607
 7857SOL     OW35206   2.941   1.888  13.563  0.4059  0.3111 -0.4950
 7857SOL    HW135207   2.950   1.895  13.468 -0.9537 -1.6465 -0.7606
 7857SOL    HW235208   2.987   1.965  13.595 -1.0743  0.5054  1.1467
 7858SOL     OW35209   1.635   2.641   5.594  0.0092  0.4099 -0.4309
 7858SOL    HW135210   1.541   2.659   5.584 -0.5093 -2.0055  0.1479
 7858SOL    HW235211   1.656   2.571   5.532  0.7379  1.5725 -1.5108
 7859SOL     OW35212   4.487   1.026  12.796  0.0592  0.3773 -1.0327
 7859SOL    HW135213   4.451   0.938  12.802  0.4571  0.1466 -1.9445
 7859SOL    HW235214   4.579   1.003  12.812 -0.1979 -0.9259 -1.4066
 7860SOL     OW35215   2.259   3.364  12.770  0.6046 -0.1174 -0.5640
 7860SOL    HW135216   2.334   3.366  12.710  1.5509  1.1223  0.6482
 7860SOL    HW235217   2.308   3.351  12.851 -2.0365 -0.5448  0.9571
 7861SOL     OW35218   1.541   4.450   8.125 -0.0979 -0.8158  0.0322
 7861SOL    HW135219   1.549   4.377   8.063 -3.0560  0.9077 -2.3132
 7861SOL    HW235220   1.631   4.484   8.129  0.8740 -2.9745 -3.7822
 7862SOL     OW35221   3.768   3.489   5.307 -0.1523 -0.0607  0.4776
 7862SOL    HW135222   3.793   3.416   5.250 -0.1425  0.7882 -0.5917
 7862SOL    HW235223   3.679   3.504   5.275  0.2099  2.4187  0.6074
 7863SOL     OW35224   1.400   2.207   3.668 -0.5154  0.5669  0.2945
 7863SOL    HW135225   1.427   2.196   3.759 -0.5976 -0.7682  0.1645
 7863SOL    HW235226   1.344   2.284   3.659 -0.8499  0.4706  1.5244
 7864SOL     OW35227   3.422   2.443  11.926 -0.0785 -0.0357 -0.3763
 7864SOL    HW135228   3.418   2.499  11.849 -0.1986  1.4707  0.7214
 7864SOL    HW235229   3.338   2.399  11.939 -0.8160  1.7071  0.7270
 7865SOL     OW35230   3.555   3.432  15.519  0.2461 -0.1178 -0.5661
 7865SOL    HW135231   3.488   3.365  15.534  0.0142  0.2308 -0.0828
 7865SOL    HW235232   3.502   3.511  15.526 -0.9669 -0.9634 -0.1598
 7866SOL     OW35233   1.794   2.543   8.869 -0.2859  0.4368 -0.2770
 7866SOL    HW135234   1.832   2.546   8.957  1.6423  0.7659 -1.1309
 7866SOL    HW235235   1.707   2.582   8.876 -0.9894 -1.3727  1.2678
 7867SOL     OW35236   0.575   4.376   0.264  0.2673 -0.5880  0.1086
 7867SOL    HW135237   0.643   4.322   0.223 -2.5794 -2.9010 -1.4966
 7867SOL    HW235238   0.515   4.397   0.193 -1.4392 -1.6490  1.2443
 7868SOL     OW35239   0.712   3.811   8.961 -0.6503  0.0122  0.4010
 7868SOL    HW135240   0.785   3.778   9.015 -1.0029  0.2316  1.0166
 7868SOL    HW235241   0.763   3.844   8.888 -1.3116 -0.0050 -0.0651
 7869SOL     OW35242   1.264   4.339  15.510  0.3141  0.7837 -0.0511
 7869SOL    HW135243   1.259   4.328  15.605 -1.1886  0.7573 -0.1220
 7869SOL    HW235244   1.344   4.290  15.493 -0.7317 -0.7156 -0.7152
 7870SOL     OW35245   3.533   0.698   1.515 -0.2725 -0.1811  0.5029
 7870SOL    HW135246   3.537   0.772   1.576 -1.5436  2.1823 -2.2760
 7870SOL    HW235247   3.501   0.630   1.574 -0.9668 -1.9947 -1.9493
 7871SOL     OW35248   3.096   3.865   0.767  0.7187 -0.5632 -0.9129
 7871SOL    HW135249   3.052   3.843   0.849  0.3027 -2.7405 -1.7175
 7871SOL    HW235250   3.077   3.787   0.714 -1.3480 -1.0338  0.4978
 7872SOL     OW35251   2.558   0.848   1.938 -0.3054 -0.1907  0.1838
 7872SOL    HW135252   2.608   0.840   2.019  1.9594  0.8472 -1.1196
 7872SOL    HW235253   2.502   0.771   1.945  0.5706 -0.7583  0.8657
 7873SOL     OW35254   0.997   2.349   5.392  0.0088 -0.0946  0.0426
 7873SOL    HW135255   1.028   2.262   5.416 -1.6709 -0.7800 -0.3110
 7873SOL    HW235256   1.074   2.399   5.420  1.7022 -2.4624 -0.3171
 7874SOL     OW35257   1.411   3.549   7.798  0.6297  0.1925  0.3239
 7874SOL    HW135258   1.488   3.526   7.746  1.1599 -1.3127  1.8015
 7874SOL    HW235259   1.440   3.633   7.833  2.2439 -0.7747  1.2829
 7875SOL     OW35260   0.859   2.036  12.961 -0.2552  0.0836  0.3585
 7875SOL    HW135261   0.905   1.968  12.913 -0.3430 -0.2057  0.6819
 7875SOL    HW235262   0.906   2.115  12.936 -1.5517  1.2918  1.6797
 7876SOL     OW35263   2.571   4.541  17.573 -0.6469  0.1137 -0.5445
 7876SOL    HW135264   2.645   4.522  17.632 -0.0443  3.0671 -0.3376
 7876SOL    HW235265   2.623   4.540  17.493  1.0514  0.8515  0.5417
 7877SOL     OW35266   0.173   3.868  11.361 -0.1449 -0.2556 -0.7894
 7877SOL    HW135267   0.215   3.952  11.379  0.3673 -0.7443  0.2946
 7877SOL    HW235268   0.252   3.813  11.364 -1.1942 -1.6096  1.8239
 7878SOL     OW35269   2.122   3.127   7.496 -0.1123  0.3968  0.3521
 7878SOL    HW135270   2.186   3.123   7.567  1.8635  0.6125 -1.4302
 7878SOL    HW235271   2.181   3.147   7.424 -1.0657  0.3941 -0.4327
 7879SOL     OW35272   4.652   0.012  16.096  0.0275 -0.1766  0.1628
 7879SOL    HW135273   4.617   0.044  16.013 -1.7961 -3.2605 -0.2480
 7879SOL    HW235274   0.006   0.015  16.071 -0.0236 -0.2043 -0.0264
 7880SOL     OW35275   3.467   3.457  10.332  0.6249 -0.0695  0.1334
 7880SOL    HW135276   3.541   3.490  10.281 -1.5857  3.4616 -0.8172
 7880SOL    HW235277   3.399   3.455  10.265 -0.0932 -0.9744  0.8965
 7881SOL     OW35278   0.086   4.200   0.530  0.5009  0.6541 -0.0906
 7881SOL    HW135279   0.120   4.208   0.441 -1.6237 -0.7496 -1.0054
 7881SOL    HW235280   4.730   4.204   0.517  0.7177 -1.3048 -2.1145
 7882SOL     OW35281   1.893   3.046   9.204 -0.5399  0.3497  0.1599
 7882SOL    HW135282   1.856   3.021   9.289  0.7489 -0.6332  0.4309
 7882SOL    HW235283   1.941   3.126   9.225  2.3206 -1.2731 -0.1253
 7883SOL     OW35284   4.189   1.485   3.581 -0.1817 -0.1924 -0.1435
 7883SOL    HW135285   4.105   1.531   3.579 -0.0615 -0.0250 -1.2726
 7883SOL    HW235286   4.188   1.441   3.496 -1.6561  0.4848 -0.4881
 7884SOL     OW35287   2.991   2.330   8.145  0.3537 -0.4324 -0.4763
 7884SOL    HW135288   3.076   2.351   8.106  1.3698  0.7182  2.3751
 7884SOL    HW235289   2.933   2.334   8.069 -1.5755 -0.0009  1.0479
 7885SOL     OW35290   1.846   4.247  10.945  0.7735  0.3504 -0.6997
 7885SOL    HW135291   1.837   4.341  10.931 -2.1459  0.1911 -0.0348
 7885SOL    HW235292   1.936   4.243  10.976 -0.0270 -1.7886  1.3405
 7886SOL     OW35293   0.851   1.468   7.666  0.2579  0.1717  0.1213
 7886SOL    HW135294   0.848   1.477   7.762 -2.7169  3.0091 -0.2199
 7886SOL    HW235295   0.868   1.556   7.632  0.3258  0.6864  1.4529
 7887SOL     OW35296   2.339   2.313  16.858 -0.3219  0.1127  0.8064
 7887SOL    HW135297   2.348   2.231  16.809  0.8201  0.7126  0.0154
 7887SOL    HW235298   2.422   2.312  16.906 -0.2728  1.2096  0.7374
 7888SOL     OW35299   1.279   0.624   3.657 -0.3330 -0.1788  0.3313
 7888SOL    HW135300   1.327   0.543   3.671 -1.1725 -0.7141  0.0739
 7888SOL    HW235301   1.254   0.663   3.740  0.7410  0.4021  0.3851
 7889SOL     OW35302   0.438   1.140   4.705 -0.4432 -0.3197 -0.2296
 7889SOL    HW135303   0.361   1.136   4.761 -0.2875  0.0442  0.0103
 7889SOL    HW235304   0.413   1.081   4.634 -0.4053 -0.3496 -0.2176
 7890SOL     OW35305   4.495   2.026   7.896 -0.1122 -0.5105  0.2222
 7890SOL    HW135306   4.427   1.958   7.893 -0.7731  0.1131  1.3406
 7890SOL    HW235307   4.441   2.105   7.896  0.5766 -0.0350  2.5174
 7891SOL     OW35308   0.186   0.789   2.623 -0.0702  0.3612 -0.3578
 7891SOL    HW135309   0.158   0.773   2.533 -2.3909  0.0322  0.4112
 7891SOL    HW235310   0.149   0.877   2.634 -2.0512 -0.5499  0.2058
 7892SOL     OW35311   1.611   4.600   7.824  0.1061 -0.4101 -0.3461
 7892SOL    HW135312   1.686   4.541   7.831  1.0518  0.6456 -1.8244
 7892SOL    HW235313   1.647   4.657   7.757  1.2189  3.0190  3.1544
 7893SOL     OW35314   2.240   3.915   9.965  0.7365  0.0120 -0.0553
 7893SOL    HW135315   2.201   3.859  10.032  0.0578 -1.0118 -1.3098
 7893SOL    HW235316   2.295   3.846   9.929  0.0338 -2.7315  4.1228
 7894SOL     OW35317   4.212   4.458   4.071  0.0048  0.5736  0.8084
 7894SOL    HW135318   4.306   4.441   4.061 -0.0422  0.6912  0.1642
 7894SOL    HW235319   4.197   4.405   4.149 -2.1497  0.7987  0.5354
 7895SOL     OW35320   0.696   2.163   6.382  0.4263  0.1081  0.2074
 7895SOL    HW135321   0.771   2.147   6.439 -1.6175 -2.8817  2.0491
 7895SOL    HW235322   0.634   2.203   6.443  0.4262 -0.8870  0.8587
 7896SOL     OW35323   1.463   0.390   2.777 -0.8056 -0.6852  0.5280
 7896SOL    HW135324   1.376   0.361   2.747 -1.6254  1.3817  0.9358
 7896SOL    HW235325   1.525   0.319   2.759  0.3605  0.1227  1.4097
 7897SOL     OW35326   2.304   1.041   1.614  0.3203  0.1621  0.0584
 7897SOL    HW135327   2.398   1.024   1.601 -0.0150 -0.9257 -1.0791
 7897SOL    HW235328   2.269   1.026   1.526 -2.8666 -0.3791  1.4307
 7898SOL     OW35329   2.847   2.862   4.180  0.1644  0.4089  0.4823
 7898SOL    HW135330   2.931   2.821   4.203  0.4427  0.6823 -0.0367
 7898SOL    HW235331   2.786   2.836   4.249  0.4971 -2.8609 -0.4671
 7899SOL     OW35332   2.144   0.622   2.499 -0.2622  0.0497 -0.0926
 7899SOL    HW135333   2.161   0.628   2.405 -0.9895 -0.0037 -0.2234
 7899SOL    HW235334   2.062   0.576   2.511 -0.2718  0.1607  0.2678
 7900SOL     OW35335   0.476   0.897  12.340  0.7189 -0.0014 -0.8313
 7900SOL    HW135336   0.569   0.914  12.327  0.7746 -0.5089 -1.0651
 7900SOL    HW235337   0.487   0.807  12.370  1.3862  0.2063 -0.4514
 7901SOL     OW35338   0.970   2.863   2.964  0.2667 -0.1257 -0.0035
 7901SOL    HW135339   1.032   2.847   3.035  0.7741 -0.2316 -0.4697
 7901SOL    HW235340   1.020   2.844   2.885 -3.4805 -0.6167 -2.2283
 7902SOL     OW35341   2.951   3.725   7.261 -0.1830  0.5767  0.3084
 7902SOL    HW135342   2.940   3.816   7.235 -0.2486  0.8686  1.3702
 7902SOL    HW235343   2.905   3.709   7.343 -2.5734  0.2351 -1.1074
 7903SOL     OW35344   2.955   0.577   5.746 -0.5889  0.5344 -0.6481
 7903SOL    HW135345   2.882   0.577   5.807  0.4059 -1.7031  0.5611
 7903SOL    HW235346   2.949   0.670   5.724 -0.1594  0.9572  1.0882
 7904SOL     OW35347   4.697   0.411   4.306 -0.3192  0.1766  0.1383
 7904SOL    HW135348   4.640   0.414   4.230 -0.0384  2.5752  0.0093
 7904SOL    HW235349   4.647   0.465   4.367 -1.1811  0.9645 -1.2589
 7905SOL     OW35350   4.029   2.102   1.069 -0.4510 -0.2674 -0.2683
 7905SOL    HW135351   4.109   2.080   1.019 -1.0794 -1.4708 -0.7451
 7905SOL    HW235352   3.982   2.155   1.004  1.6244 -0.1874 -1.7225
 7906SOL     OW35353   1.053   3.209   1.798 -0.1710  0.0851  0.0271
 7906SOL    HW135354   1.138   3.237   1.834  0.0298  0.2623 -0.5991
 7906SOL    HW235355   1.058   3.222   1.704 -0.9107 -0.7489 -0.1309
 7907SOL     OW35356   1.683   3.102   1.909 -0.2617  0.0551 -0.8588
 7907SOL    HW135357   1.755   3.115   1.847 -0.8110  3.0366 -0.9176
 7907SOL    HW235358   1.673   3.188   1.952 -2.1881  0.4823 -2.1570
 7908SOL     OW35359   0.620   2.407  11.301  0.5364  0.1447 -0.6276
 7908SOL    HW135360   0.705   2.378  11.267  0.4132  1.7659 -2.2801
 7908SOL    HW235361   0.642   2.498  11.322  0.9726  1.1895 -5.7006
 7909SOL     OW35362   4.300   1.292   1.468 -0.1961 -0.1684 -0.2907
 7909SOL    HW135363   4.285   1.381   1.437  0.6207  0.7517  1.9709
 7909SOL    HW235364   4.213   1.287   1.510 -0.3953  0.1148 -0.6766
 7910SOL     OW35365   1.259   4.467   3.455 -0.4584 -0.0082 -0.0483
 7910SOL    HW135366   1.252   4.389   3.400  0.9466  0.9145 -1.5589
 7910SOL    HW235367   1.285   4.425   3.536 -1.2220 -0.0794  0.1605
 7911SOL     OW35368   3.591   2.876   1.939 -0.2360 -0.0118  0.2136
 7911SOL    HW135369   3.607   2.814   1.869 -0.3906  3.4209 -2.8743
 7911SOL    HW235370   3.513   2.917   1.901 -0.5530 -1.5785 -0.8293
 7912SOL     OW35371   0.380   0.320   6.347  0.2235 -0.0720 -0.0621
 7912SOL    HW135372   0.326   0.279   6.414  1.5225 -0.1267  0.9420
 7912SOL    HW235373   0.312   0.307   6.281 -1.4486  3.3292  0.9973
 7913SOL     OW35374   1.466   2.563   6.134  0.4651  0.4232  0.7172
 7913SOL    HW135375   1.553   2.534   6.107  0.3264 -0.9375  1.7273
 7913SOL    HW235376   1.412   2.516   6.071  1.3874 -0.9023  0.9251
 7914SOL     OW35377   0.565   4.177   6.591  0.6865 -0.3355  0.2494
 7914SOL    HW135378   0.578   4.252   6.649 -0.5817 -1.3525  1.8780
 7914SOL    HW235379   0.607   4.210   6.512  1.1163  0.9625  1.0247
 7915SOL     OW35380   0.697   4.234   8.738  0.3763 -0.3980 -0.1718
 7915SOL    HW135381   0.705   4.145   8.702 -2.3641 -1.2802  1.3531
 7915SOL    HW235382   0.687   4.214   8.831  0.2395  0.9308  0.0981
 7916SOL     OW35383   2.518   2.404   6.406  0.2283  0.2895 -0.7346
 7916SOL    HW135384   2.546   2.325   6.359 -0.8165 -0.2809 -0.4043
 7916SOL    HW235385   2.580   2.472   6.379 -0.7134  0.5113 -2.2880
 7917SOL     OW35386   1.548   1.954  12.789 -0.0369 -0.6690 -0.6151
 7917SOL    HW135387   1.554   1.985  12.699 -0.6678 -1.8072 -1.0494
 7917SOL    HW235388   1.562   2.028  12.849 -0.2487 -0.5474 -0.7168
 7918SOL     OW35389   2.950   4.073   0.682 -0.1390 -0.0469  0.1903
 7918SOL    HW135390   2.917   4.036   0.601  0.2944  2.7150 -1.2283
 7918SOL    HW235391   2.996   3.996   0.716  1.4878  1.2789  1.0224
 7919SOL     OW35392   1.788   3.570   1.693 -0.7960 -0.4424 -1.1726
 7919SOL    HW135393   1.713   3.580   1.634 -1.1690 -0.6834 -0.7349
 7919SOL    HW235394   1.812   3.477   1.690  3.3206  0.5965 -0.6143
 7920SOL     OW35395   3.695   0.829   2.512 -0.3281 -0.1143 -0.0942
 7920SOL    HW135396   3.629   0.895   2.533  0.3312  0.3488  0.5369
 7920SOL    HW235397   3.737   0.856   2.430 -0.7865  0.3285 -0.1869
 7921SOL     OW35398   2.369   3.812   7.283 -0.1905  0.0268 -0.2123
 7921SOL    HW135399   2.323   3.768   7.212  0.2092 -0.4404 -0.1793
 7921SOL    HW235400   2.432   3.748   7.317 -0.5496  0.2504  0.8795
 7922SOL     OW35401   3.570   0.793  14.752  0.3565 -0.4583  0.3024
 7922SOL    HW135402   3.652   0.826  14.717 -1.3567  2.2356 -1.1870
 7922SOL    HW235403   3.527   0.756  14.674  0.7003  1.0762 -0.6259
 7923SOL     OW35404   4.438   1.964  15.590 -0.3367 -0.0994  0.3991
 7923SOL    HW135405   4.347   1.989  15.576 -0.1103  0.5679  0.1113
 7923SOL    HW235406   4.478   2.049  15.608 -0.8723  0.6730 -2.0858
 7924SOL     OW35407   3.007   3.932  12.238  0.2107  0.6051 -0.2700
 7924SOL    HW135408   3.013   3.939  12.143  0.3467  0.8982 -0.2394
 7924SOL    HW235409   3.034   3.841  12.250  0.8636  1.0805  1.8806
 7925SOL     OW35410   3.401   3.938  17.688  0.0874  0.5162 -0.4437
 7925SOL    HW135411   3.349   3.964  17.611  0.5170  0.2233 -0.8320
 7925SOL    HW235412   3.454   3.868  17.649 -0.1053 -0.2249  0.6094
 7926SOL     OW35413   0.342   2.285  14.503  0.3504 -0.1257  0.3650
 7926SOL    HW135414   0.354   2.355  14.567  0.1508 -0.1466  0.4251
 7926SOL    HW235415   0.383   2.211  14.548 -0.4920 -0.4070  0.6663
 7927SOL     OW35416   0.809   0.081   5.340  0.2463  0.1226 -0.4796
 7927SOL    HW135417   0.740   0.091   5.405  1.0889 -0.1644  0.4548
 7927SOL    HW235418   0.874   0.144   5.372 -0.1631 -0.6904  1.9437
 7928SOL     OW35419   0.150   3.669  11.683 -0.1820  0.3202  0.5033
 7928SOL    HW135420   0.121   3.580  11.664  1.6243 -0.4300  1.2676
 7928SOL    HW235421   0.083   3.712  11.630  0.3017  0.1580 -0.2370
 7929SOL     OW35422   4.088   2.202   2.694 -0.2888  0.4570 -0.5560
 7929SOL    HW135423   4.144   2.272   2.661 -2.2269  0.6622 -3.3788
 7929SOL    HW235424   4.137   2.124   2.720 -2.2295 -0.2551  0.9699
 7930SOL     OW35425   3.574   1.257   6.231 -0.2478 -0.7144 -0.1359
 7930SOL    HW135426   3.515   1.205   6.284 -2.5467  0.9055 -1.1155
 7930SOL    HW235427   3.654   1.248   6.283 -1.3029  0.8774  1.7450
 7931SOL     OW35428   4.644   0.592   9.489 -0.0671 -0.0534  0.1296
 7931SOL    HW135429   4.663   0.537   9.565  3.7171  1.0485 -0.0090
 7931SOL    HW235430   4.732   0.617   9.460 -0.3385  0.0286 -0.6389
 7932SOL     OW35431   2.811   3.581   4.938  0.7168 -0.0972  0.6142
 7932SOL    HW135432   2.768   3.538   5.012  0.2462 -0.4187  0.1523
 7932SOL    HW235433   2.750   3.565   4.866  2.0049  3.8419 -1.4077
 7933SOL     OW35434   2.913   2.804   7.439 -0.4131  0.1485  0.1577
 7933SOL    HW135435   2.951   2.830   7.355  1.9426  0.1731  1.2330
 7933SOL    HW235436   2.847   2.873   7.446  0.3345  1.1501 -2.8490
 7934SOL     OW35437   3.337   0.298   4.928  0.1362  0.4153 -0.3810
 7934SOL    HW135438   3.248   0.319   4.900  0.3980  0.7516 -0.9635
 7934SOL    HW235439   3.389   0.342   4.861 -0.1808  0.0382 -0.8767
 7935SOL     OW35440   3.455   0.439   9.377 -0.1367  0.3508  0.2540
 7935SOL    HW135441   3.470   0.348   9.404  0.1398  0.0916 -0.7696
 7935SOL    HW235442   3.382   0.437   9.316  1.4083  0.6478 -1.5946
 7936SOL     OW35443   3.926   0.053   7.427 -0.3739 -0.1395  0.1120
 7936SOL    HW135444   3.917   4.706   7.383  0.4289  1.6010 -3.4701
 7936SOL    HW235445   3.873   0.029   7.502 -1.4708 -0.3906 -0.7347
 7937SOL     OW35446   3.051   4.647   8.529  0.4055 -0.2838  0.0500
 7937SOL    HW135447   3.142   4.627   8.553  0.6624 -1.6563 -2.0598
 7937SOL    HW235448   3.057   0.003   8.544 -0.5789  0.1982 -2.6354
 7938SOL     OW35449   2.832   1.580   8.476  0.1756  0.0222  0.3083
 7938SOL    HW135450   2.843   1.622   8.561 -4.2640  1.4525  0.2159
 7938SOL    HW235451   2.822   1.488   8.501 -1.0337 -0.0533 -0.4421
 7939SOL     OW35452   1.245   0.036  15.203 -0.0105 -0.1464  0.1527
 7939SOL    HW135453   1.251   4.682  15.178  0.9263  0.3347 -1.3936
 7939SOL    HW235454   1.239   0.073  15.115 -1.0848 -2.2396 -0.6287
 7940SOL     OW35455   1.832   2.497   9.957 -0.7996  0.2993  0.0820
 7940SOL    HW135456   1.866   2.408   9.955  0.2532  0.7172 -0.6886
 7940SOL    HW235457   1.828   2.520   9.864  3.8719 -0.8784 -0.4044
 7941SOL     OW35458   4.230   0.258   5.069  0.5942 -0.1014 -0.2768
 7941SOL    HW135459   4.203   0.317   4.999  0.3694  4.0297  3.2575
 7941SOL    HW235460   4.268   0.190   5.014  1.4569  0.3193 -0.1867
 7942SOL     OW35461   1.408   3.080  12.212 -0.3889  0.7113  0.3646
 7942SOL    HW135462   1.428   3.169  12.244 -2.6089  1.5701 -0.6494
 7942SOL    HW235463   1.334   3.103  12.156 -0.9345  2.4340  1.8015
 7943SOL     OW35464   4.101   2.145  13.853  0.1519  0.2460  0.5607
 7943SOL    HW135465   4.037   2.086  13.892  1.3317 -1.1414  0.3562
 7943SOL    HW235466   4.066   2.153  13.764 -1.5175  0.6825  1.2406
 7944SOL     OW35467   2.601   3.659   7.344 -0.4722 -0.1749 -0.7302
 7944SOL    HW135468   2.647   3.743   7.342 -0.6014 -0.0836 -0.0035
 7944SOL    HW235469   2.668   3.610   7.391 -0.2345 -1.7437 -2.7113
 7945SOL     OW35470   0.636   4.221   9.013 -0.0717 -0.2281  0.4641
 7945SOL    HW135471   0.608   4.130   9.019 -0.6306 -0.1718 -1.1155
 7945SOL    HW235472   0.582   4.260   9.082 -0.4203 -0.1898  0.1725
 7946SOL     OW35473   3.253   0.354   8.276 -0.1218  0.0557 -0.2998
 7946SOL    HW135474   3.273   0.406   8.198  1.6884 -3.8872 -2.4568
 7946SOL    HW235475   3.273   0.262   8.256  0.1162 -0.2132  1.2338
 7947SOL     OW35476   2.645   4.512   8.901  0.3289  0.3472  0.1042
 7947SOL    HW135477   2.587   4.438   8.882  0.2246  0.1406  1.2275
 7947SOL    HW235478   2.596   4.576   8.849  0.6039  0.4046 -0.0884
 7948SOL     OW35479   2.682   4.108   5.242  0.8486  0.0105 -0.4045
 7948SOL    HW135480   2.640   4.114   5.156 -0.5544  0.7839  0.3299
 7948SOL    HW235481   2.618   4.168   5.280 -1.3776 -1.2753 -2.0820
 7949SOL     OW35482   1.013   0.556   2.746 -0.5421  0.2154 -0.3354
 7949SOL    HW135483   1.061   0.569   2.665  1.2102 -1.1833  0.4620
 7949SOL    HW235484   0.974   0.469   2.734 -0.9393  0.2186  0.8609
 7950SOL     OW35485   0.220   4.700   8.181  0.0986 -0.4580  0.5580
 7950SOL    HW135486   0.159   4.736   8.116 -2.0134 -1.6525  1.8827
 7950SOL    HW235487   0.150   4.690   8.246  0.7407 -1.5709  1.0668
 7951SOL     OW35488   2.487   1.888  12.385  0.0283 -0.0078  0.2863
 7951SOL    HW135489   2.404   1.922  12.351  0.4586  1.4051  0.6292
 7951SOL    HW235490   2.480   1.794  12.370 -1.3287  0.3917 -1.6029
 7952SOL     OW35491   3.956   1.200  11.315 -0.4349  0.5120 -0.0342
 7952SOL    HW135492   3.948   1.163  11.227  0.7782 -0.4229  0.2605
 7952SOL    HW235493   3.865   1.229  11.326 -0.4806  0.6495 -0.7451
 7953SOL     OW35494   3.472   0.757   9.002 -0.5810  0.1083 -0.0251
 7953SOL    HW135495   3.394   0.809   9.022  0.0569  0.1811  2.2660
 7953SOL    HW235496   3.471   0.758   8.906 -1.5026  0.2100 -0.0144
 7954SOL     OW35497   3.950   2.270   2.244 -0.4269  0.4736  0.7388
 7954SOL    HW135498   3.905   2.348   2.213  0.7399  1.1654  0.7817
 7954SOL    HW235499   3.877   2.209   2.250  0.3038 -0.6889 -2.2388
 7955SOL     OW35500   2.117   2.352   6.230 -0.5234  0.5975  0.0832
 7955SOL    HW135501   2.076   2.424   6.279 -1.7764 -0.3464  0.4077
 7955SOL    HW235502   2.074   2.341   6.145 -1.2215  3.2784  0.0898
 7956SOL     OW35503   1.036   2.500   4.757  0.5320 -0.3595  0.3905
 7956SOL    HW135504   1.085   2.525   4.679  0.6921 -0.4864  0.4505
 7956SOL    HW235505   1.103   2.527   4.820 -0.7034 -2.5850  2.6638
 7957SOL     OW35506   4.507   1.308   6.206 -0.7039 -0.7347  0.1422
 7957SOL    HW135507   4.521   1.215   6.191  0.3633 -0.8170  1.7386
 7957SOL    HW235508   4.528   1.326   6.114  1.9712 -0.6160  0.7796
 7958SOL     OW35509   0.601   4.378   3.735  0.2696 -0.5401 -0.5614
 7958SOL    HW135510   0.545   4.315   3.780  0.2362 -1.2302 -1.5637
 7958SOL    HW235511   0.608   4.328   3.654 -0.6390 -1.3725 -0.1328
 7959SOL     OW35512   1.929   2.475  16.859  0.3782  0.3455 -0.4114
 7959SOL    HW135513   1.898   2.516  16.779 -1.0183 -1.5483 -0.8472
 7959SOL    HW235514   2.020   2.496  16.839  0.6312 -0.8466 -0.5066
 7960SOL     OW35515   4.558   4.567   8.124  0.0149  0.5165 -0.5535
 7960SOL    HW135516   4.623   4.636   8.133  0.2543  0.2656 -0.3528
 7960SOL    HW235517   4.581   4.500   8.189  2.5165  1.5802 -0.3572
 7961SOL     OW35518   0.446   4.012   1.881  0.3265  0.3898  0.0959
 7961SOL    HW135519   0.538   4.012   1.854 -0.2684 -1.0210 -1.9103
 7961SOL    HW235520   0.444   3.931   1.932  1.6703  0.2875 -0.0125
 7962SOL     OW35521   0.385   3.762  16.563  0.2036 -0.1504 -0.6790
 7962SOL    HW135522   0.375   3.838  16.621  2.3404 -1.0398  0.8466
 7962SOL    HW235523   0.348   3.691  16.616 -3.4643  0.8183 -1.9281
 7963SOL     OW35524   2.770   1.201   1.091 -0.2390  0.2228 -0.0134
 7963SOL    HW135525   2.846   1.154   1.124 -0.0220 -0.0796 -0.9486
 7963SOL    HW235526   2.707   1.159   1.150  0.0085 -0.7982 -0.4674
 7964SOL     OW35527   1.039   3.481   2.386  0.1952  0.4524  0.1759
 7964SOL    HW135528   0.990   3.540   2.443  0.8397  1.6607 -0.5254
 7964SOL    HW235529   0.964   3.425   2.364  0.7299 -0.9950  2.0759
 7965SOL     OW35530   3.832   4.310   4.545 -0.8163  0.1461 -0.5566
 7965SOL    HW135531   3.880   4.361   4.480 -1.1052 -0.8583 -1.5539
 7965SOL    HW235532   3.849   4.377   4.612  3.2088 -1.1223 -0.3227
 7966SOL     OW35533   3.364   4.224   9.066  0.0212  0.2386 -0.6205
 7966SOL    HW135534   3.296   4.167   9.031  1.1521 -1.2709 -0.3279
 7966SOL    HW235535   3.299   4.291   9.088  0.3570 -0.1319  1.5293
 7967SOL     OW35536   1.826   2.193   8.538 -0.3203 -0.1386  0.7973
 7967SOL    HW135537   1.756   2.168   8.478 -0.2628  1.6019  0.0047
 7967SOL    HW235538   1.778   2.233   8.610  0.3917  2.0598  0.0553
 7968SOL     OW35539   4.190   3.551  15.246  0.0419 -0.1436  0.0881
 7968SOL    HW135540   4.162   3.557  15.338  0.6506  2.1487  0.1034
 7968SOL    HW235541   4.194   3.645  15.234 -1.4746 -0.1655 -0.5117
 7969SOL     OW35542   3.354   0.247  15.270  0.1098  0.3597 -0.3055
 7969SOL    HW135543   3.354   0.342  15.259  1.2454  0.4853  0.8433
 7969SOL    HW235544   3.417   0.235  15.198  0.0193  2.2711 -0.7168
 7970SOL     OW35545   1.579   2.810   6.450  0.2889 -0.0307  0.7179
 7970SOL    HW135546   1.612   2.852   6.370  1.0338  0.3390  1.2251
 7970SOL    HW235547   1.483   2.812   6.441  0.3916  1.1527 -0.1998
 7971SOL     OW35548   4.733   4.607   1.221  0.1700  0.3586  0.2202
 7971SOL    HW135549   0.074   4.633   1.269  0.9768 -0.3521 -0.7170
 7971SOL    HW235550   0.026   4.520   1.193 -2.0151 -0.1283 -0.6881
 7972SOL     OW35551   1.870   1.664   3.693  0.1541  0.6700  0.7234
 7972SOL    HW135552   1.895   1.595   3.632  0.9677  0.8639  0.8325
 7972SOL    HW235553   1.863   1.733   3.626  0.1837 -0.9286 -0.9114
 7973SOL     OW35554   1.543   4.712   5.979  0.3310  0.3431 -0.6105
 7973SOL    HW135555   1.556   0.065   6.004  1.6056 -0.5873  2.1315
 7973SOL    HW235556   1.460   4.728   5.934 -0.3487  3.8259  1.9057
 7974SOL     OW35557   2.219   0.974  12.813  0.2312  0.1696 -0.4363
 7974SOL    HW135558   2.280   0.975  12.740 -0.2837 -1.7044 -0.8820
 7974SOL    HW235559   2.249   1.047  12.868  1.7026 -1.4066  0.8376
 7975SOL     OW35560   4.607   1.295   4.933 -0.4882 -0.1641 -0.2851
 7975SOL    HW135561   4.584   1.250   4.852 -0.6023 -0.7178  0.0553
 7975SOL    HW235562   4.577   1.231   4.998  0.2654 -0.8903 -0.6501
 7976SOL     OW35563   1.262   4.284   3.081 -0.2842  0.2642 -0.7549
 7976SOL    HW135564   1.337   4.285   3.141 -1.4321  0.1317  0.6709
 7976SOL    HW235565   1.234   4.374   3.070  0.2893  0.5427  0.1166
 7977SOL     OW35566   0.224   0.658   4.732 -0.3339 -0.8869  0.0661
 7977SOL    HW135567   0.262   0.574   4.706  1.3909 -0.4818  1.2977
 7977SOL    HW235568   0.302   0.710   4.751 -0.7984 -1.3550  3.1587
 7978SOL     OW35569   4.444   4.433  13.667  0.0071 -0.4110  0.2310
 7978SOL    HW135570   4.350   4.429  13.651  0.2215 -0.8200 -0.8648
 7978SOL    HW235571   4.478   4.378  13.597 -0.6420 -0.1828 -0.2577
 7979SOL     OW35572   0.263   2.955   0.383 -0.4084 -0.5352 -1.0894
 7979SOL    HW135573   0.299   2.866   0.374 -0.6257 -1.0118  2.8942
 7979SOL    HW235574   0.307   2.998   0.309 -0.3771 -0.8503 -1.2554
 7980SOL     OW35575   2.490   2.220  13.472 -0.0357  0.0289  0.0376
 7980SOL    HW135576   2.506   2.164  13.548 -0.2059  0.5019  0.4232
 7980SOL    HW235577   2.400   2.194  13.453  0.1938 -0.7555  0.0097
 7981SOL     OW35578   1.831   0.761  10.934 -0.3006  0.5695 -0.8188
 7981SOL    HW135579   1.821   0.851  10.904  2.0551  0.8685 -0.7170
 7981SOL    HW235580   1.767   0.777  11.003 -0.2344 -0.2249 -0.5722
 7982SOL     OW35581   3.178   3.699   9.613 -0.3162  0.6979  0.0235
 7982SOL    HW135582   3.147   3.642   9.543 -3.3841  1.0747  1.1038
 7982SOL    HW235583   3.218   3.625   9.660  0.1772  0.6315 -0.5078
 7983SOL     OW35584   4.361   1.275   3.657 -0.1831 -0.3352 -0.2482
 7983SOL    HW135585   4.317   1.357   3.635  0.3379  0.3299  1.1508
 7983SOL    HW235586   4.286   1.247   3.710  0.2369  0.4694  0.7708
 7984SOL     OW35587   1.519   0.476  15.707 -0.4108  0.1733  0.2479
 7984SOL    HW135588   1.549   0.454  15.796  1.0519  0.9774 -0.0338
 7984SOL    HW235589   1.555   0.401  15.660 -1.3391 -0.3267  0.3438
 7985SOL     OW35590   2.618   2.952   5.209 -0.0707 -0.2472  0.4374
 7985SOL    HW135591   2.642   2.860   5.221 -0.6639 -0.4109  0.3918
 7985SOL    HW235592   2.530   2.956   5.246  0.3161 -1.2232  1.4945
 7986SOL     OW35593   0.035   3.376   3.910 -0.1584 -0.1237  0.2215
 7986SOL    HW135594   4.682   3.409   3.913 -0.3767 -1.0908  3.3264
 7986SOL    HW235595   0.047   3.382   3.815  0.3340  0.5368  0.3301
 7987SOL     OW35596   1.570   2.204   6.014  0.0812 -0.1307  0.3921
 7987SOL    HW135597   1.624   2.141   5.967  0.4775 -0.0865  0.7882
 7987SOL    HW235598   1.508   2.234   5.947 -0.9756 -0.6313  1.1320
 7988SOL     OW35599   4.452   1.667   7.194 -0.3233  0.1655  0.1160
 7988SOL    HW135600   4.537   1.634   7.223 -0.3519 -0.6664 -0.7466
 7988SOL    HW235601   4.384   1.615   7.238  2.7420 -4.9674 -1.1962
 7989SOL     OW35602   1.901   2.589   0.361  0.1258  0.1526 -0.4006
 7989SOL    HW135603   1.808   2.584   0.336 -0.4207  2.0286  1.2638
 7989SOL    HW235604   1.898   2.635   0.445  2.2978  0.5081 -0.5176
 7990SOL     OW35605   3.918   0.130   0.867  0.2825  0.7595 -0.5607
 7990SOL    HW135606   3.897   0.223   0.879  0.4173  0.6126  0.8002
 7990SOL    HW235607   3.931   0.093   0.954 -0.0510  0.8006 -0.4916
 7991SOL     OW35608   1.440   2.716   5.331  0.0684 -0.4007 -0.0080
 7991SOL    HW135609   1.488   2.788   5.291  1.0164  0.3364  2.4664
 7991SOL    HW235610   1.397   2.676   5.256  0.9332 -1.4798  0.0644
 7992SOL     OW35611   2.191   4.563   8.236 -0.3593 -0.1988  0.0542
 7992SOL    HW135612   2.277   4.570   8.278  0.0155  0.8538 -0.8602
 7992SOL    HW235613   2.186   4.468   8.235  2.1016 -0.3320  0.8741
 7993SOL     OW35614   3.280   3.374  16.811  0.4424  0.1580  0.2411
 7993SOL    HW135615   3.237   3.450  16.772  1.6258  1.8644  2.2405
 7993SOL    HW235616   3.241   3.368  16.898 -0.5264 -1.1067 -0.2787
 7994SOL     OW35617   3.909   0.917  12.627  0.1104 -0.1434  0.0178
 7994SOL    HW135618   4.003   0.913  12.643  0.4633 -1.4535 -2.3527
 7994SOL    HW235619   3.896   1.006  12.658  0.5409  0.2783 -1.0310
 7995SOL     OW35620   0.002   2.317  15.760  0.0882 -0.1975  0.6011
 7995SOL    HW135621   0.083   2.364  15.742  0.5851 -0.8213  1.2050
 7995SOL    HW235622   4.727   2.314  15.855 -0.7414  0.6658  0.5255
 7996SOL     OW35623   4.560   1.320  12.290 -0.2099  0.7070 -0.9592
 7996SOL    HW135624   4.541   1.356  12.204 -1.1412  2.5479  0.0174
 7996SOL    HW235625   4.485   1.357  12.337 -1.5150 -0.1128 -2.4017
 7997SOL     OW35626   0.944   3.517  17.184 -0.1774  0.1156 -0.6593
 7997SOL    HW135627   1.015   3.480  17.131 -0.5419 -1.9328  0.2888
 7997SOL    HW235628   0.988   3.599  17.209  0.5777 -0.7477  0.8276
 7998SOL     OW35629   2.153   2.190   4.728  0.1268 -0.0556  0.1532
 7998SOL    HW135630   2.236   2.198   4.681 -1.1698  1.3464 -1.9184
 7998SOL    HW235631   2.104   2.141   4.661  1.1113 -2.5868  1.2874
 7999SOL     OW35632   0.574   2.548   3.169  0.1127 -0.1284 -0.2565
 7999SOL    HW135633   0.618   2.516   3.248  2.7660 -0.2988 -1.8112
 7999SOL    HW235634   0.650   2.548   3.112 -0.7527  1.3618 -1.3903
 8000SOL     OW35635   2.179   2.782   7.817 -0.8096  0.0291  0.0188
 8000SOL    HW135636   2.183   2.691   7.788 -4.3422  0.9718 -3.4085
 8000SOL    HW235637   2.216   2.770   7.905 -1.5897  1.8502  0.5802
 8001SOL     OW35638   0.160   3.915   7.621  0.0104 -0.6026 -0.3676
 8001SOL    HW135639   0.163   3.821   7.604  0.9145 -0.4360 -1.1340
 8001SOL    HW235640   0.236   3.932   7.678 -0.5310  0.9419 -0.1063
 8002SOL     OW35641   1.923   0.930  11.156  0.2840 -0.0249 -0.0708
 8002SOL    HW135642   1.881   0.933  11.070  2.5734  0.3963 -1.1706
 8002SOL    HW235643   2.007   0.895  11.127 -0.5550 -0.1505 -2.3786
 8003SOL     OW35644   1.373   4.024   8.534 -0.4937  0.0350 -0.5280
 8003SOL    HW135645   1.289   4.017   8.490 -1.0323 -1.8731  0.8138
 8003SOL    HW235646   1.349   4.012   8.626 -0.9218 -1.1575 -0.8034
 8004SOL     OW35647   0.052   2.824  11.296  0.2031  0.0297 -0.5106
 8004SOL    HW135648   0.034   2.894  11.234 -1.2104  0.8720  0.8487
 8004SOL    HW235649   0.060   2.858  11.385  1.2775 -0.3903 -0.4501
 8005SOL     OW35650   4.548   1.635   6.204  0.2973  0.5491 -0.1709
 8005SOL    HW135651   4.556   1.659   6.296  0.4468  1.0662 -0.3171
 8005SOL    HW235652   4.561   1.541   6.217  0.7947  0.6123 -0.2163
 8006SOL     OW35653   4.625   2.621   4.725  0.2209 -0.1923  0.9710
 8006SOL    HW135654   4.587   2.655   4.644 -0.7840  0.5137  1.7446
 8006SOL    HW235655   4.667   2.695   4.769 -0.5489  1.1482 -0.5429
 8007SOL     OW35656   0.346   4.675   1.780 -0.0235 -0.1528 -0.3408
 8007SOL    HW135657   0.385   4.619   1.847 -1.1145  0.0672  0.4895
 8007SOL    HW235658   0.304   4.600   1.739 -0.2585 -1.1586  1.7631
 8008SOL     OW35659   4.299   3.100  12.765 -0.4073  0.2727  0.0388
 8008SOL    HW135660   4.236   3.160  12.724  0.1726 -0.7221 -2.2592
 8008SOL    HW235661   4.303   3.043  12.689  0.7933 -0.1536  0.4294
 8009SOL     OW35662   0.641   4.168   3.543 -0.4591 -0.3098 -0.3244
 8009SOL    HW135663   0.611   4.203   3.459  3.3794  0.7554 -1.2449
 8009SOL    HW235664   0.575   4.100   3.556 -0.2840 -0.2567  0.8157
 8010SOL     OW35665   2.096   1.496   7.573 -0.0196  0.4404 -0.4245
 8010SOL    HW135666   2.064   1.454   7.653  0.0203  1.9746  0.3844
 8010SOL    HW235667   2.033   1.463   7.509 -1.6430  1.0586  0.8548
 8011SOL     OW35668   1.694   3.127   8.487  0.6624 -0.6088 -0.1809
 8011SOL    HW135669   1.635   3.083   8.426 -1.1034  2.1919 -0.5049
 8011SOL    HW235670   1.650   3.096   8.567  1.0003  2.7275  1.3222
 8012SOL     OW35671   3.970   1.134   5.472  0.4540  0.0928  0.4266
 8012SOL    HW135672   3.959   1.203   5.407 -1.1580  0.1638  0.7804
 8012SOL    HW235673   3.998   1.063   5.413 -1.3430 -1.3059  1.2346
 8013SOL     OW35674   4.705   3.517   1.860  0.1120 -0.3478  0.2058
 8013SOL    HW135675   4.640   3.506   1.790  1.5080 -2.1019 -0.8130
 8013SOL    HW235676   4.649   3.525   1.937  1.4847 -1.6313  1.3369
 8014SOL     OW35677   3.383   2.775   6.948 -0.0498 -0.0565  0.5864
 8014SOL    HW135678   3.313   2.722   6.912  1.1628 -1.0421 -0.3380
 8014SOL    HW235679   3.356   2.865   6.934 -3.1045 -1.3475 -1.7188
 8015SOL     OW35680   1.534   2.088   4.367  0.0718 -0.0786 -0.4457
 8015SOL    HW135681   1.574   2.009   4.330 -0.5225 -0.8626  0.5648
 8015SOL    HW235682   1.452   2.082   4.319 -0.8310  1.4959  0.8882
 8016SOL     OW35683   4.247   4.069   0.950 -0.0238 -0.0460 -0.2530
 8016SOL    HW135684   4.254   3.991   1.006  0.4364 -0.7762 -1.3222
 8016SOL    HW235685   4.218   4.037   0.865 -0.7388  1.0242 -0.4034
 8017SOL     OW35686   0.256   1.597  13.613 -0.1604 -0.2143 -0.3716
 8017SOL    HW135687   0.274   1.606  13.707  0.9618 -1.4368 -0.4646
 8017SOL    HW235688   0.274   1.503  13.607 -1.4244 -0.3493 -1.7837
 8018SOL     OW35689   3.607   3.667   9.433  0.2049  0.2635  0.1651
 8018SOL    HW135690   3.604   3.603   9.505  0.3313 -2.8879 -2.6332
 8018SOL    HW235691   3.600   3.610   9.356 -2.3705  1.9653 -0.8435
 8019SOL     OW35692   0.449   1.388   5.917 -0.2550  0.4692 -0.0287
 8019SOL    HW135693   0.369   1.427   5.953  0.8355 -0.8467  3.7671
 8019SOL    HW235694   0.481   1.335   5.990 -1.8336  2.1730  1.8981
 8020SOL     OW35695   0.197   2.691  16.524 -0.3142 -0.0441 -0.3380
 8020SOL    HW135696   0.129   2.623  16.523 -0.5689  0.1551  1.6363
 8020SOL    HW235697   0.276   2.638  16.530  0.0226  0.3619 -1.3349
 8021SOL     OW35698   1.060   3.671   5.585 -0.3770 -0.3008 -0.3521
 8021SOL    HW135699   1.020   3.682   5.671 -1.7102  1.1193 -1.1489
 8021SOL    HW235700   0.987   3.684   5.524 -1.7773  0.4182  1.5061
 8022SOL     OW35701   1.849   4.057   7.182  0.0261 -0.0880  0.1697
 8022SOL    HW135702   1.865   3.964   7.168  1.1589 -0.0078  0.9007
 8022SOL    HW235703   1.756   4.077   7.169 -0.1726  0.8303  3.0954
 8023SOL     OW35704   4.681   3.834  14.225  0.2842 -0.0119 -0.4042
 8023SOL    HW135705   4.692   3.928  14.212 -0.3713  0.0770 -0.2917
 8023SOL    HW235706   4.596   3.836  14.268 -0.5389  2.2657 -2.1540
 8024SOL     OW35707   2.782   1.393   2.549 -0.9782 -0.0395  0.1715
 8024SOL    HW135708   2.703   1.438   2.521  0.1805  1.0210 -1.4277
 8024SOL    HW235709   2.773   1.411   2.642  0.2598 -1.8026  0.6394
 8025SOL     OW35710   1.206   3.295   1.334  0.3228 -0.5556 -0.2142
 8025SOL    HW135711   1.225   3.209   1.298  3.0965 -0.2968  0.6299
 8025SOL    HW235712   1.291   3.337   1.326 -1.2568  2.4314 -1.5079
 8026SOL     OW35713   4.139   0.314  13.829 -0.5739  1.0265  0.2146
 8026SOL    HW135714   4.223   0.326  13.785  0.9843 -1.7557  2.3732
 8026SOL    HW235715   4.118   0.222  13.814  2.7173  0.2370  0.3856
 8027SOL     OW35716   3.554   0.363  14.706 -0.0779 -0.4219 -1.0130
 8027SOL    HW135717   3.542   0.296  14.638  0.0255  0.6730 -2.1193
 8027SOL    HW235718   3.638   0.335  14.744  0.6409  3.1605  0.0071
 8028SOL     OW35719   3.928   2.660   9.956 -0.5438  0.3194  0.2250
 8028SOL    HW135720   3.952   2.570   9.977 -0.2540  0.3901  0.1924
 8028SOL    HW235721   3.909   2.703  10.040 -0.5411  0.4095  0.1793
 8029SOL     OW35722   0.688   3.279   7.233 -0.1674  0.3463 -0.2801
 8029SOL    HW135723   0.626   3.337   7.188 -1.8679  0.7369  2.5133
 8029SOL    HW235724   0.760   3.269   7.171  0.9201  0.3772  0.9896
 8030SOL     OW35725   3.360   1.584  12.197 -0.0828  0.4857  0.2666
 8030SOL    HW135726   3.425   1.541  12.141 -2.3851 -0.3092 -1.7693
 8030SOL    HW235727   3.318   1.642  12.133  0.5540 -1.0864 -1.5736
 8031SOL     OW35728   4.723   2.939   5.737  0.2462  0.0649  0.0443
 8031SOL    HW135729   0.006   2.988   5.658  0.5694 -1.0997 -0.5884
 8031SOL    HW235730   0.020   2.855   5.709 -1.5794 -0.3163 -1.0759
 8032SOL     OW35731   2.438   1.572   3.457  0.5205 -0.1759  0.0798
 8032SOL    HW135732   2.527   1.596   3.482  0.5215  1.2304 -1.2483
 8032SOL    HW235733   2.448   1.479   3.438 -2.3477 -0.8400  1.7080
 8033SOL     OW35734   1.616   2.293   1.571  0.1080 -0.0231  0.8358
 8033SOL    HW135735   1.526   2.315   1.548  0.9557  1.6292 -0.9698
 8033SOL    HW235736   1.646   2.258   1.486 -0.1487 -0.3827  0.8949
 8034SOL     OW35737   1.424   2.956  12.469  0.5105 -0.1600 -0.3526
 8034SOL    HW135738   1.369   2.884  12.439  0.6574 -0.2828 -0.3273
 8034SOL    HW235739   1.436   3.020  12.399 -0.6853  1.3289  0.7945
 8035SOL     OW35740   4.312   0.278   6.383 -1.0786  0.2096 -0.2631
 8035SOL    HW135741   4.370   0.243   6.451 -3.4596 -0.6446  1.2931
 8035SOL    HW235742   4.272   0.195   6.357 -0.6844  0.2888 -1.1120
 8036SOL     OW35743   3.626   3.186   8.367  0.0354 -0.1787  0.8998
 8036SOL    HW135744   3.631   3.121   8.297  0.5184  1.4855 -0.6020
 8036SOL    HW235745   3.701   3.241   8.346 -0.0261 -0.8014 -0.9311
 8037SOL     OW35746   3.717   3.238   0.257  0.1910 -0.1220  0.0733
 8037SOL    HW135747   3.698   3.174   0.188  0.3838  0.9408 -0.9645
 8037SOL    HW235748   3.710   3.176   0.329 -1.3195  1.8772  1.6501
 8038SOL     OW35749   1.125   1.140   0.304  0.4326  0.1131  0.0836
 8038SOL    HW135750   1.113   1.219   0.251  2.6637 -0.5131 -1.3398
 8038SOL    HW235751   1.204   1.104   0.264 -1.6157 -2.5077 -1.5383
 8039SOL     OW35752   0.114   2.241   5.596  0.1630 -0.0197  0.0356
 8039SOL    HW135753   0.188   2.258   5.538 -0.3685 -1.0390 -0.9514
 8039SOL    HW235754   0.132   2.310   5.660  1.4358 -0.7516  0.4808
 8040SOL     OW35755   2.027   0.434   4.609  0.1649 -0.2424  0.0167
 8040SOL    HW135756   2.088   0.480   4.668 -0.2748  0.2024  0.1269
 8040SOL    HW235757   1.943   0.461   4.644  0.6975  1.8023 -0.2524
 8041SOL     OW35758   1.098   4.506   7.069  0.1390 -0.2493  0.1566
 8041SOL    HW135759   1.062   4.593   7.084  1.9870  0.6317 -0.5382
 8041SOL    HW235760   1.120   4.525   6.978 -0.6843  1.5467  0.3435
 8042SOL     OW35761   3.428   0.480   9.042 -0.2505 -0.0604 -0.1630
 8042SOL    HW135762   3.444   0.574   9.036  1.2854 -0.5967 -4.0465
 8042SOL    HW235763   3.479   0.437   8.974 -1.6627  0.1437 -1.3442
 8043SOL     OW35764   4.438   4.196   6.007  0.0997 -0.2470  0.2774
 8043SOL    HW135765   4.519   4.181   5.958  1.2042  3.0153  1.1223
 8043SOL    HW235766   4.396   4.262   5.952  1.1818  1.2205  1.2104
 8044SOL     OW35767   2.883   1.802   5.127  0.3564 -0.1464 -0.1496
 8044SOL    HW135768   2.853   1.733   5.186  1.4777 -0.3413  0.1888
 8044SOL    HW235769   2.898   1.741   5.054 -1.7739 -0.3228 -0.4551
 8045SOL     OW35770   2.425   2.277   7.239  0.1967 -0.0075  0.2818
 8045SOL    HW135771   2.413   2.245   7.150 -0.4119 -0.6512  0.5967
 8045SOL    HW235772   2.512   2.250   7.268 -0.4302 -2.6303 -0.2715
 8046SOL     OW35773   2.278   3.851  12.642 -0.1577  0.0116 -0.0342
 8046SOL    HW135774   2.221   3.928  12.637 -1.0373 -0.6585 -0.3586
 8046SOL    HW235775   2.352   3.903  12.609 -0.2141  1.2184  1.7863
 8047SOL     OW35776   0.580   4.205   3.161 -0.3845 -0.0972  0.3299
 8047SOL    HW135777   0.602   4.260   3.085 -0.0166 -0.0593  0.4636
 8047SOL    HW235778   0.533   4.262   3.222  0.2225  0.9785 -0.1903
 8048SOL     OW35779   4.116   0.278  10.488 -0.0292 -0.4156 -0.4762
 8048SOL    HW135780   4.025   0.275  10.457 -0.0552 -0.6254 -0.3834
 8048SOL    HW235781   4.140   0.185  10.482  0.1594 -0.4160  0.2820
 8049SOL     OW35782   3.408   1.478  12.782  0.4460 -0.4430  0.4204
 8049SOL    HW135783   3.369   1.500  12.867  3.5640  0.2879  1.6618
 8049SOL    HW235784   3.390   1.385  12.791 -1.3300 -0.1302  0.1216
 8050SOL     OW35785   3.614   0.889  11.574 -0.3016  0.3522 -0.0938
 8050SOL    HW135786   3.523   0.882  11.545 -0.4000  0.0227  0.2961
 8050SOL    HW235787   3.606   0.937  11.657 -2.4470  0.1854 -0.2033
 8051SOL     OW35788   0.574   1.345  13.993  0.3624 -0.2063  0.5664
 8051SOL    HW135789   0.611   1.259  13.973 -0.7497 -1.3299  3.3929
 8051SOL    HW235790   0.509   1.327  14.061  0.0354 -1.6149 -0.1106
 8052SOL     OW35791   2.171   1.464   3.280 -0.1183 -0.9296 -0.3204
 8052SOL    HW135792   2.257   1.422   3.286  0.2997 -0.3310 -1.9550
 8052SOL    HW235793   2.156   1.495   3.369  3.5887 -0.5408  0.1673
 8053SOL     OW35794   3.162   4.155   8.623 -0.3718 -0.0858 -0.1479
 8053SOL    HW135795   3.146   4.163   8.717 -1.8917  2.3205 -0.5903
 8053SOL    HW235796   3.117   4.074   8.601 -0.9107 -0.0263  0.7545
 8054SOL     OW35797   1.378   3.899   5.278  0.5946  0.7204  0.1751
 8054SOL    HW135798   1.436   3.847   5.221 -1.6765  0.3366 -1.8016
 8054SOL    HW235799   1.349   3.833   5.341 -0.0025 -0.6606 -1.5424
 8055SOL     OW35800   1.595   0.072   9.810  0.0508 -0.0987 -0.0398
 8055SOL    HW135801   1.628   0.047   9.724 -4.0725 -1.0500 -1.3362
 8055SOL    HW235802   1.540   4.734   9.829  0.1026 -0.0375  0.3544
 8056SOL     OW35803   3.433   3.190   8.782  0.0745  0.4010  0.8121
 8056SOL    HW135804   3.506   3.242   8.748  1.8824 -1.7413  1.3589
 8056SOL    HW235805   3.387   3.157   8.705  0.7589 -1.5402  1.2244
 8057SOL     OW35806   1.509   1.411   2.288 -0.0105 -0.2185  0.2719
 8057SOL    HW135807   1.526   1.468   2.364 -0.8988  0.8779 -0.3527
 8057SOL    HW235808   1.426   1.369   2.311  0.4354 -1.0207  0.3799
 8058SOL     OW35809   0.999   4.462  13.244 -0.7513 -0.0993  0.9809
 8058SOL    HW135810   1.057   4.489  13.315  0.2103 -0.1347  0.2117
 8058SOL    HW235811   1.030   4.372  13.232 -2.0553 -0.4715  0.3808
 8059SOL     OW35812   2.224   0.310   5.847  0.1519 -0.3149 -0.1154
 8059SOL    HW135813   2.167   0.261   5.906 -0.4083  2.1756  1.4243
 8059SOL    HW235814   2.253   0.372   5.914  3.2787 -0.5638 -1.2278
 8060SOL     OW35815   0.274   0.589  13.778  0.4394  0.1609 -0.2550
 8060SOL    HW135816   0.224   0.528  13.724  1.1982  0.5963 -1.4369
 8060SOL    HW235817   0.337   0.523  13.809 -1.3176 -1.8571 -0.9374
 8061SOL     OW35818   0.430   0.016  16.016 -0.1626  0.3797  0.6280
 8061SOL    HW135819   0.468   4.708  15.941  1.0962 -0.7705  1.9836
 8061SOL    HW235820   0.509   0.051  16.057 -0.2236  0.5744  0.5773
 8062SOL     OW35821   2.037   2.393  11.578  0.0166 -0.1716 -0.0187
 8062SOL    HW135822   1.957   2.446  11.571  1.5503  2.5307  2.6316
 8062SOL    HW235823   1.993   2.322  11.626 -0.2280  0.5403  0.8208
 8063SOL     OW35824   2.014   1.977   9.993  0.1753  0.5242  0.3135
 8063SOL    HW135825   2.020   1.948   9.902  0.9166  0.2453  0.4517
 8063SOL    HW235826   1.941   1.920  10.019  0.5646 -1.3210 -2.6162
 8064SOL     OW35827   3.980   0.893  14.124  0.8459 -0.0212 -0.4546
 8064SOL    HW135828   3.902   0.921  14.171 -1.4581 -1.8919 -3.1385
 8064SOL    HW235829   4.044   0.964  14.129  2.5685 -1.5633 -0.6930
 8065SOL     OW35830   3.353   3.874   6.287  0.2021  0.0218  0.5965
 8065SOL    HW135831   3.272   3.924   6.290 -0.2557 -0.7671  1.3585
 8065SOL    HW235832   3.315   3.796   6.328  0.0493  0.4484  1.2664
 8066SOL     OW35833   3.417   0.050   7.546  0.5692 -0.1667  0.0004
 8066SOL    HW135834   3.332   0.013   7.520  0.4669 -1.0189  1.5617
 8066SOL    HW235835   3.387   0.098   7.624  0.4863  1.3924 -0.9921
 8067SOL     OW35836   4.229   3.521   3.797  0.1171 -0.1833 -0.1137
 8067SOL    HW135837   4.178   3.588   3.752 -2.4667 -3.3244 -1.8401
 8067SOL    HW235838   4.217   3.440   3.747  1.6109 -1.0422  0.9236
 8068SOL     OW35839   3.850   2.098  14.736  0.1112 -0.5750  0.2949
 8068SOL    HW135840   3.940   2.101  14.768  0.9871 -1.3851 -2.0674
 8068SOL    HW235841   3.798   2.085  14.815 -0.9742 -0.6083 -0.4239
 8069SOL     OW35842   1.447   2.201  15.899  0.1351  0.3243 -0.1480
 8069SOL    HW135843   1.402   2.235  15.822 -1.9121 -1.7391  0.1309
 8069SOL    HW235844   1.508   2.273  15.913  0.1757  0.1929  0.3399
 8070SOL     OW35845   1.348   2.701   5.597 -0.2365  0.9995  0.2845
 8070SOL    HW135846   1.395   2.724   5.517  1.8245 -1.0236  0.8952
 8070SOL    HW235847   1.254   2.718   5.589 -0.2471 -0.1472 -2.1058
 8071SOL     OW35848   3.097   3.166  11.989 -0.1136 -0.4335 -0.1402
 8071SOL    HW135849   3.110   3.080  12.029  0.0537  0.4214  1.6488
 8071SOL    HW235850   3.005   3.162  11.964 -0.1963 -0.2565  0.1339
 8072SOL     OW35851   0.675   3.019   9.210 -0.6373 -0.1471  0.2887
 8072SOL    HW135852   0.676   2.926   9.188  1.6591 -0.2306  0.6812
 8072SOL    HW235853   0.585   3.042   9.231 -0.0694  1.4249  1.0114
 8073SOL     OW35854   1.223   0.721   3.938 -0.3161  0.1415  0.6878
 8073SOL    HW135855   1.129   0.725   3.956 -0.5921 -1.0061 -0.5094
 8073SOL    HW235856   1.236   0.812   3.913  1.5237 -0.8051 -1.8558
 8074SOL     OW35857   1.342   3.490   9.610  0.0075 -0.2362 -0.2336
 8074SOL    HW135858   1.366   3.466   9.700  1.4825 -0.5175 -0.7060
 8074SOL    HW235859   1.423   3.476   9.562  1.0998 -0.4145  1.6429
 8075SOL     OW35860   3.206   2.966  15.284 -0.3876 -0.2231 -0.3374
 8075SOL    HW135861   3.123   2.959  15.237 -0.8855 -2.2748  0.8591
 8075SOL    HW235862   3.239   3.055  15.272 -0.3960  0.0427  1.5365
 8076SOL     OW35863   3.497   4.503  10.426 -0.3663  0.3820  0.0282
 8076SOL    HW135864   3.404   4.522  10.435 -0.4095 -0.8197  2.0652
 8076SOL    HW235865   3.493   4.425  10.481 -0.4660  0.7441  0.5279
 8077SOL     OW35866   1.500   0.133   6.626 -0.0029 -0.4671 -0.1846
 8077SOL    HW135867   1.435   0.076   6.585  1.9405 -1.8499 -1.3720
 8077SOL    HW235868   1.455   0.217   6.624  1.5762  0.3989  1.1540
 8078SOL     OW35869   2.566   4.205   5.009  0.4265  0.1481 -0.0956
 8078SOL    HW135870   2.482   4.237   4.976 -0.1931 -0.0276  1.3207
 8078SOL    HW235871   2.612   4.289   5.013  1.2298 -0.2992  0.0213
 8079SOL     OW35872   2.693   3.393   2.290 -0.7858  0.2209  0.4394
 8079SOL    HW135873   2.650   3.469   2.250 -2.2638 -0.7643  0.1738
 8079SOL    HW235874   2.689   3.409   2.385  1.0841  1.0727  0.3769
 8080SOL     OW35875   1.423   1.902   0.277  0.5841 -0.3379 -0.9828
 8080SOL    HW135876   1.459   1.851   0.350 -2.3577 -0.0051  0.7307
 8080SOL    HW235877   1.328   1.910   0.290  0.5002 -0.3541 -1.5761
 8081SOL     OW35878   2.064   0.299   2.420 -0.4143 -0.0374 -0.1195
 8081SOL    HW135879   2.145   0.304   2.370 -0.8937 -0.5094 -0.9352
 8081SOL    HW235880   2.008   0.339   2.353 -1.5375 -1.1440  0.1570
 8082SOL     OW35881   2.086   4.565   9.665 -0.0672  0.8943  0.0323
 8082SOL    HW135882   2.018   4.626   9.696  1.6061  1.2735  2.9020
 8082SOL    HW235883   2.130   4.541   9.746 -1.4373  0.1778  0.5637
 8083SOL     OW35884   2.002   4.657   4.987 -0.1507  0.1988 -0.1437
 8083SOL    HW135885   1.939   4.606   5.038  3.2730 -2.3420  1.5645
 8083SOL    HW235886   2.051   4.583   4.950 -0.8557  0.1848 -1.0722
 8084SOL     OW35887   3.205   2.694   1.916 -0.4142 -0.0891  0.3660
 8084SOL    HW135888   3.118   2.735   1.918  0.5370  1.9366  0.5135
 8084SOL    HW235889   3.248   2.777   1.894  0.8104 -1.4601 -2.2679
 8085SOL     OW35890   2.765   0.968  11.871 -0.3795 -0.0288  0.2267
 8085SOL    HW135891   2.809   0.889  11.900  1.9509  1.1437 -0.1146
 8085SOL    HW235892   2.684   0.969  11.923 -0.5214  1.3633 -0.0008
 8086SOL     OW35893   1.898   4.688   5.797 -0.1514  0.4069 -0.7906
 8086SOL    HW135894   1.986   4.704   5.832  0.8092  0.5580 -3.2647
 8086SOL    HW235895   1.868   4.650   5.880  0.1786 -0.4951 -1.0838
 8087SOL     OW35896   1.388   0.892   8.336  0.2195 -0.2358 -0.3152
 8087SOL    HW135897   1.299   0.922   8.317 -0.1655 -0.3653  1.2907
 8087SOL    HW235898   1.443   0.933   8.269  1.9673  0.6105  1.6187
 8088SOL     OW35899   4.581   4.275   3.581  0.7635  0.0680  0.1027
 8088SOL    HW135900   4.500   4.280   3.531 -0.3062  1.3436  1.9664
 8088SOL    HW235901   4.584   4.362   3.620  1.9083 -0.4478  1.1639
 8089SOL     OW35902   2.035   0.208   4.287 -0.2410  0.1789  0.0232
 8089SOL    HW135903   2.073   0.188   4.201  1.3651 -0.2206  0.8400
 8089SOL    HW235904   2.092   0.282   4.306  0.4257 -0.9513  2.4136
 8090SOL     OW35905   3.247   3.881   6.716 -0.2651 -0.2358 -0.1790
 8090SOL    HW135906   3.195   3.936   6.775 -0.3326  0.1337 -0.5825
 8090SOL    HW235907   3.174   3.838   6.672 -1.6178  0.8280  1.0241
 8091SOL     OW35908   2.562   1.989   5.421  0.4046  0.7335  0.7782
 8091SOL    HW135909   2.598   1.965   5.336 -2.8490  0.6005 -0.5842
 8091SOL    HW235910   2.637   2.039   5.453  1.2640 -0.7969  1.1164
 8092SOL     OW35911   4.110   2.677   3.833  0.1005  0.1624 -0.1008
 8092SOL    HW135912   4.178   2.689   3.766  0.9463  2.4430  1.1563
 8092SOL    HW235913   4.076   2.766   3.846 -1.5324 -0.5937  0.7964
 8093SOL     OW35914   4.550   4.515   4.953  0.1970  0.5962  0.3264
 8093SOL    HW135915   4.572   4.596   4.907  0.2130 -0.4750 -1.5622
 8093SOL    HW235916   4.623   4.521   5.015 -0.1868  0.1116  0.8206
 8094SOL     OW35917   4.634   1.349   8.611  0.0641 -0.1307  0.2061
 8094SOL    HW135918   4.554   1.398   8.628  0.5306 -0.0586  2.2601
 8094SOL    HW235919   4.595   1.262   8.604 -0.8588  0.1858  1.4606
 8095SOL     OW35920   1.133   2.680  13.649  0.0566 -0.0111 -0.1900
 8095SOL    HW135921   1.181   2.703  13.570 -0.2707  1.8978  0.1722
 8095SOL    HW235922   1.139   2.584  13.644 -1.3048 -0.0782 -0.4968
 8096SOL     OW35923   3.142   1.132  14.319 -0.2307  0.3196  0.0384
 8096SOL    HW135924   3.152   1.154  14.412 -1.5262  0.8058  0.0639
 8096SOL    HW235925   3.168   1.214  14.276  0.0282  0.2685  0.0999
 8097SOL     OW35926   2.504   3.638   8.388 -0.1783 -0.3127 -0.2796
 8097SOL    HW135927   2.447   3.667   8.459 -0.5275  1.4399 -1.2700
 8097SOL    HW235928   2.587   3.631   8.436 -0.4187 -1.1786  0.0059
 8098SOL     OW35929   0.769   1.260  10.972 -0.1032  0.0490  0.3270
 8098SOL    HW135930   0.717   1.209  11.034 -0.3761  0.9282  0.8289
 8098SOL    HW235931   0.777   1.336  11.030 -0.3023 -0.8350  1.5033
 8099SOL     OW35932   4.007   2.188   6.786  0.2839  0.4421  0.2638
 8099SOL    HW135933   3.926   2.139   6.799 -1.0307  1.8976 -2.5726
 8099SOL    HW235934   3.987   2.258   6.724  0.0639  1.1358  1.1178
 8100SOL     OW35935   1.793   4.130  15.892  0.3793 -0.6086  0.1498
 8100SOL    HW135936   1.886   4.130  15.914  0.3381  2.9853  0.4272
 8100SOL    HW235937   1.803   4.162  15.802 -1.3799 -0.6640 -0.0736
 8101SOL     OW35938   0.973   0.879   6.089  0.2061  0.6072  0.2491
 8101SOL    HW135939   1.009   0.964   6.064  3.9864 -1.1450 -0.2636
 8101SOL    HW235940   0.995   0.877   6.182 -3.3387  2.6719  1.1396
 8102SOL     OW35941   1.175   0.125   0.716 -0.4809 -0.5610  0.2359
 8102SOL    HW135942   1.244   0.111   0.780 -1.9637 -0.1672  1.9148
 8102SOL    HW235943   1.104   0.080   0.761 -4.9927  3.4613 -2.6671
 8103SOL     OW35944   2.923   3.048   6.003  0.1137 -0.4060  0.7317
 8103SOL    HW135945   2.939   3.015   6.092  0.2931 -0.4484  0.6844
 8103SOL    HW235946   3.010   3.028   5.969 -1.5109 -0.2442 -3.4811
 8104SOL     OW35947   4.416   4.039   2.344 -0.1757  0.8030 -0.2131
 8104SOL    HW135948   4.384   4.028   2.255 -0.6174 -0.7161  0.1200
 8104SOL    HW235949   4.491   4.097   2.338  2.1262 -2.1630  0.0950
 8105SOL     OW35950   3.914   3.666  14.622 -0.1512  0.0631 -0.4874
 8105SOL    HW135951   3.858   3.590  14.605  0.2965 -0.1514 -1.0022
 8105SOL    HW235952   3.891   3.697  14.710  1.9593 -1.5306  0.6488
 8106SOL     OW35953   0.850   3.690   5.386 -0.0391  0.0901  0.2731
 8106SOL    HW135954   0.768   3.641   5.387 -0.0325  0.0921  0.8632
 8106SOL    HW235955   0.900   3.644   5.318 -0.1732  0.5676 -0.1444
 8107SOL     OW35956   2.226   4.395   9.259 -0.0045 -0.3930 -0.7310
 8107SOL    HW135957   2.225   4.479   9.213 -0.5711  0.3656  0.6798
 8107SOL    HW235958   2.159   4.419   9.322 -0.8821  0.5273 -2.0321
 8108SOL     OW35959   0.383   0.276   1.981  0.2773  0.1106 -0.4298
 8108SOL    HW135960   0.386   0.210   1.911  0.2444 -2.2294  1.7561
 8108SOL    HW235961   0.306   0.329   1.962 -0.2066 -0.3021  0.3963
 8109SOL     OW35962   1.543   0.135   7.080 -0.3531 -0.2906  0.6734
 8109SOL    HW135963   1.609   0.074   7.045  0.8124  0.4288  1.6017
 8109SOL    HW235964   1.547   0.215   7.028  2.0230 -0.5287  0.4715
 8110SOL     OW35965   4.587   1.869  16.334 -0.4916  0.6608  0.4418
 8110SOL    HW135966   4.617   1.883  16.245 -0.4001 -1.7742  0.0970
 8110SOL    HW235967   4.502   1.829  16.315  0.2572 -0.4222 -0.6161
 8111SOL     OW35968   3.822   3.654  15.326 -0.1319  0.6001 -0.6505
 8111SOL    HW135969   3.793   3.737  15.365 -0.8844  0.6561 -1.3234
 8111SOL    HW235970   3.882   3.684  15.259  0.3054 -2.0247 -1.4229
 8112SOL     OW35971   1.182   0.131  17.395 -0.6961  0.2352 -0.1221
 8112SOL    HW135972   1.221   0.080  17.324  1.0166 -0.0682  1.0553
 8112SOL    HW235973   1.199   0.220  17.365  2.2806 -0.2643  0.1378
 8113SOL     OW35974   4.469   1.101   2.013 -0.2604 -0.0313  0.2878
 8113SOL    HW135975   4.388   1.150   2.002 -0.6992 -1.2395 -1.8702
 8113SOL    HW235976   4.429   1.016   2.030 -0.3525 -0.0536 -0.0535
 8114SOL     OW35977   2.263   0.424   6.296 -0.6777 -0.0812 -0.7792
 8114SOL    HW135978   2.243   0.449   6.206 -0.5708 -0.4633 -0.9087
 8114SOL    HW235979   2.312   0.342   6.282  0.5928  0.3999  0.8363
 8115SOL     OW35980   1.465   1.186   8.940 -0.1699 -0.7341  0.3760
 8115SOL    HW135981   1.423   1.108   8.976 -0.0323 -0.1297  1.8252
 8115SOL    HW235982   1.496   1.242   9.011 -1.5244  2.6188 -1.6506
 8116SOL     OW35983   3.320   3.390  13.434  0.1145 -0.6510 -0.1699
 8116SOL    HW135984   3.297   3.463  13.377 -0.1668  1.3612  2.5293
 8116SOL    HW235985   3.388   3.417  13.496 -1.3437  1.9865  0.2891
 8117SOL     OW35986   2.339   1.357   5.278  0.2879 -0.3385 -0.1516
 8117SOL    HW135987   2.381   1.274   5.300  1.2502 -0.2392 -1.6138
 8117SOL    HW235988   2.412   1.412   5.248  0.2238 -0.3304 -0.2948
 8118SOL     OW35989   2.434   0.681   1.574 -0.4765 -0.3226  0.1849
 8118SOL    HW135990   2.382   0.751   1.533  0.0227  0.0061  0.1189
 8118SOL    HW235991   2.483   0.665   1.494  0.0286 -0.7558  0.5828
 8119SOL     OW35992   2.035   0.875   6.798 -0.0038 -0.0109 -0.0161
 8119SOL    HW135993   2.070   0.918   6.720 -0.9901  0.6194 -0.1062
 8119SOL    HW235994   2.095   0.801   6.797  0.3441  0.2598  0.7601
 8120SOL     OW35995   3.371   3.298   6.562 -0.2401 -0.4922 -0.5302
 8120SOL    HW135996   3.319   3.373   6.591 -1.0585 -0.5138 -1.9344
 8120SOL    HW235997   3.446   3.350   6.535  1.4961 -2.0389  1.3117
 8121SOL     OW35998   1.537   2.461   3.055  0.9441 -0.2346 -0.3334
 8121SOL    HW135999   1.619   2.443   3.101  0.5842 -2.0554 -0.3891
 8121SOL    HW236000   1.517   2.554   3.058 -1.2980 -0.7715  1.2066
 8122SOL     OW36001   1.852   1.231  16.230 -0.4755  0.3761 -0.4319
 8122SOL    HW136002   1.848   1.323  16.201  0.1813  0.6137  0.2422
 8122SOL    HW236003   1.843   1.183  16.148  2.1501 -2.5227  0.9812
 8123SOL     OW36004   0.590   3.062   2.587 -0.3185  0.0925  0.6931
 8123SOL    HW136005   0.514   3.007   2.566 -0.7153  2.3044 -3.6821
 8123SOL    HW236006   0.608   3.092   2.498  0.7966  0.3814  1.0303
 8124SOL     OW36007   0.479   3.511  15.878  0.0329 -0.0311 -0.1104
 8124SOL    HW136008   0.499   3.591  15.928 -2.3147  1.7825 -2.0778
 8124SOL    HW236009   0.491   3.543  15.789 -0.0366  0.0836 -0.0790
 8125SOL     OW36010   2.842   0.393   2.428  0.9555  0.0518  0.8155
 8125SOL    HW136011   2.820   0.459   2.494 -2.7324  0.1270 -0.5009
 8125SOL    HW236012   2.833   0.307   2.470  0.4401 -0.7281 -0.9262
 8126SOL     OW36013   1.957   4.271   9.920  0.1721  0.6257  0.2399
 8126SOL    HW136014   2.041   4.226   9.912 -0.3619 -0.4548  0.6607
 8126SOL    HW236015   1.938   4.247  10.011 -1.5531  0.3500 -0.1915
 8127SOL     OW36016   1.013   3.316   8.062 -0.5525  0.2184 -0.5334
 8127SOL    HW136017   0.923   3.348   8.059 -0.2578  1.1513  0.6160
 8127SOL    HW236018   1.005   3.239   8.006  0.7984  0.3421 -0.8971
 8128SOL     OW36019   4.691   0.418   3.427  0.7955  0.0832  1.1046
 8128SOL    HW136020   4.682   0.512   3.410 -2.0336 -0.7904 -2.2343
 8128SOL    HW236021   0.003   0.385   3.352 -0.5048 -1.7050  1.0118
 8129SOL     OW36022   1.328   2.441   3.885 -0.1037  0.5971  0.2062
 8129SOL    HW136023   1.256   2.482   3.933 -0.1192  2.1431 -1.1213
 8129SOL    HW236024   1.346   2.365   3.940 -0.0183  1.6450  1.6236
 8130SOL     OW36025   1.890   0.293   6.140  0.0320  0.2669 -0.2534
 8130SOL    HW136026   1.967   0.253   6.100 -1.7578 -2.5606 -0.8943
 8130SOL    HW236027   1.855   0.344   6.067  1.9623 -0.1943 -1.4892
 8131SOL     OW36028   0.139   3.309   6.914 -0.4921  0.1279  0.4930
 8131SOL    HW136029   0.061   3.273   6.956  0.5603 -1.4456  1.0900
 8131SOL    HW236030   0.111   3.330   6.825  1.2082 -0.0210 -0.0760
 8132SOL     OW36031   1.868   2.562  16.609  0.0251 -0.0510  0.2316
 8132SOL    HW136032   1.776   2.555  16.583 -0.3836  2.5149  0.9460
 8132SOL    HW236033   1.896   2.622  16.540 -1.2831 -0.8082 -0.9556
 8133SOL     OW36034   1.083   0.037  10.993 -0.0447  0.0858 -0.5597
 8133SOL    HW136035   1.066   4.680  10.992 -0.8460  0.2244  0.0483
 8133SOL    HW236036   1.162   0.036  11.046 -1.6020  0.1198  1.7617
 8134SOL     OW36037   4.143   2.474   1.908 -0.1339  0.5305  0.1367
 8134SOL    HW136038   4.205   2.488   1.837 -1.3561 -0.0506 -1.0501
 8134SOL    HW236039   4.120   2.382   1.894  0.3276  0.9348 -3.3013
 8135SOL     OW36040   2.665   0.969   9.232  0.6164 -0.2819  0.3069
 8135SOL    HW136041   2.715   0.897   9.194  1.3490 -0.7200  2.0786
 8135SOL    HW236042   2.573   0.944   9.225 -0.1328  1.8818  2.2670
 8136SOL     OW36043   3.289   3.704  12.010 -0.5828  0.2346  0.5324
 8136SOL    HW136044   3.253   3.622  11.977 -1.9026 -0.3262  3.3604
 8136SOL    HW236045   3.355   3.725  11.944 -1.6885  0.4343 -0.5099
 8137SOL     OW36046   3.116   0.218   8.856 -0.3165 -0.6088 -0.7753
 8137SOL    HW136047   3.074   0.225   8.770 -1.7914 -0.8700 -0.0780
 8137SOL    HW236048   3.093   0.300   8.899  0.4452 -0.3065 -0.9458
 8138SOL     OW36049   2.528   1.849   1.056  0.4443  0.2652  1.0448
 8138SOL    HW136050   2.557   1.761   1.033 -0.6125  0.3929 -0.7685
 8138SOL    HW236051   2.455   1.831   1.116  0.4733  1.8036  1.5264
 8139SOL     OW36052   2.076   1.979   2.759  0.1355 -0.6352  0.5492
 8139SOL    HW136053   2.000   1.928   2.787 -0.3827  1.5548  3.1032
 8139SOL    HW236054   2.148   1.918   2.771  1.9189  1.3711 -0.0067
 8140SOL     OW36055   1.055   1.524   2.438 -0.3749 -0.8620 -0.3804
 8140SOL    HW136056   1.102   1.485   2.511  1.9300 -2.0924 -2.5131
 8140SOL    HW236057   0.994   1.579   2.487 -0.3733 -4.0158  3.1670
 8141SOL     OW36058   1.132   2.838   4.588 -0.0589  0.0550 -0.2666
 8141SOL    HW136059   1.156   2.797   4.671 -0.8769 -1.3178 -0.6978
 8141SOL    HW236060   1.037   2.831   4.581 -0.4269  1.7022  3.1210
 8142SOL     OW36061   3.290   3.919   3.499  0.0767 -0.1046 -0.0920
 8142SOL    HW136062   3.321   3.931   3.589 -2.0675 -2.5736  0.9637
 8142SOL    HW236063   3.216   3.860   3.512  0.2718 -0.1535  0.8048
 8143SOL     OW36064   1.904   3.479   2.190 -0.1771  0.5617 -0.5439
 8143SOL    HW136065   1.917   3.429   2.270 -2.3011  0.4713 -0.2586
 8143SOL    HW236066   1.990   3.518   2.173  1.0221 -1.4513  0.8452
 8144SOL     OW36067   1.571   1.630   3.806  0.3226  0.7118 -0.1789
 8144SOL    HW136068   1.656   1.650   3.767  1.9193 -1.6222  2.0916
 8144SOL    HW236069   1.529   1.715   3.799  1.7789  1.4631  0.3006
 8145SOL     OW36070   3.112   2.592   9.177  0.4190 -0.2091  0.2133
 8145SOL    HW136071   3.203   2.592   9.206 -0.6385 -0.0092  3.4784
 8145SOL    HW236072   3.056   2.632   9.243  0.7078  0.5585  0.0005
 8146SOL     OW36073   1.834   3.449   3.981  0.1640  0.4988  0.0033
 8146SOL    HW136074   1.739   3.450   3.968  0.1687  1.1955  0.0334
 8146SOL    HW236075   1.870   3.396   3.909 -0.8094  1.3661 -1.1298
 8147SOL     OW36076   2.916   2.628   3.329 -0.2992  0.2249 -0.0307
 8147SOL    HW136077   2.931   2.611   3.236  1.3627  0.6265  0.1618
 8147SOL    HW236078   3.000   2.669   3.348  0.2463 -0.8648 -0.0713
 8148SOL     OW36079   1.981   0.412  10.775 -0.4656  0.2010  0.1605
 8148SOL    HW136080   1.967   0.504  10.755 -0.9496  0.6344  2.4402
 8148SOL    HW236081   1.900   0.376  10.738  1.5528 -2.6368 -1.4929
 8149SOL     OW36082   1.711   2.759   6.924  0.0602  0.1628  0.2228
 8149SOL    HW136083   1.672   2.845   6.942 -0.1600 -0.0281  0.6385
 8149SOL    HW236084   1.646   2.694   6.949 -1.3495  1.2127 -0.6415
 8150SOL     OW36085   1.893   1.800   7.890 -0.0259 -0.3400 -0.1338
 8150SOL    HW136086   1.859   1.876   7.842 -1.8546 -1.1872 -0.1748
 8150SOL    HW236087   1.808   1.758   7.901 -0.5434  0.5162 -0.8453
 8151SOL     OW36088   1.094   1.174   5.511 -0.1001  0.2253  0.5367
 8151SOL    HW136089   1.067   1.135   5.428 -0.3368 -0.5365  0.9705
 8151SOL    HW236090   1.124   1.260   5.481 -1.7250  1.1274  1.5124
 8152SOL     OW36091   3.667   3.553   1.486 -0.1208  0.0066 -0.1243
 8152SOL    HW136092   3.646   3.643   1.463  2.4947  1.1259  1.8499
 8152SOL    HW236093   3.647   3.561   1.579 -0.8645  4.0960 -0.6478
 8153SOL     OW36094   1.770   1.530   3.167 -1.3101 -0.1747  0.1507
 8153SOL    HW136095   1.852   1.483   3.150 -0.7664  1.1189 -0.8763
 8153SOL    HW236096   1.757   1.569   3.080  0.1367 -1.8583 -0.8277
 8154SOL     OW36097   0.862   3.032   7.054  0.5531  0.1233  0.1317
 8154SOL    HW136098   0.937   3.021   7.113 -0.1955 -0.8933  0.9018
 8154SOL    HW236099   0.791   3.061   7.111  1.4531 -0.0764  1.3500
 8155SOL     OW36100   2.385   3.106   2.422  0.2576 -0.4333  0.5247
 8155SOL    HW136101   2.436   3.175   2.466  0.1628 -0.3429  0.4930
 8155SOL    HW236102   2.392   3.145   2.335  1.8904 -0.3064  0.7056
 8156SOL     OW36103   4.004   1.949   2.415 -0.1688  0.2299  0.0598
 8156SOL    HW136104   3.965   1.960   2.328  1.3569  2.6202 -0.3609
 8156SOL    HW236105   3.960   1.870   2.445 -0.3093  0.4635  0.4677
 8157SOL     OW36106   3.524   3.408   8.087 -0.3324 -0.5875  0.1423
 8157SOL    HW136107   3.476   3.326   8.099 -0.6847  0.0004  2.7528
 8157SOL    HW236108   3.487   3.446   8.007 -0.6750  1.4582  1.2468
 8158SOL     OW36109   2.855   0.734  12.015  0.7567 -0.5010 -0.0919
 8158SOL    HW136110   2.803   0.763  12.090 -0.3687 -0.1503 -1.0064
 8158SOL    HW236111   2.847   0.642  12.042 -1.3036 -0.5019 -0.6649
 8159SOL     OW36112   4.020   1.213   6.671 -0.5997 -0.0097  0.3661
 8159SOL    HW136113   3.971   1.258   6.740 -0.8618 -2.1456  1.5489
 8159SOL    HW236114   4.076   1.286   6.643 -0.5157 -0.2692 -0.1424
 8160SOL     OW36115   0.274   1.604   3.123  0.0191 -0.4649  0.0100
 8160SOL    HW136116   0.340   1.556   3.073  2.5794  2.3320  0.7211
 8160SOL    HW236117   0.219   1.644   3.056  1.9663  1.0591 -0.6700
 8161SOL     OW36118   1.537   3.814   4.761 -0.1344 -0.3890  0.1329
 8161SOL    HW136119   1.562   3.722   4.761 -0.3655 -0.4556  2.1054
 8161SOL    HW236120   1.616   3.855   4.726 -0.6351 -0.5881 -1.2446
 8162SOL     OW36121   4.207   1.593   8.707 -0.0240 -0.0159  0.2827
 8162SOL    HW136122   4.118   1.557   8.705 -0.1404  0.3684 -1.3575
 8162SOL    HW236123   4.224   1.580   8.800  0.4055  0.6136  0.2881
 8163SOL     OW36124   0.581   1.516   4.251  0.2754 -0.1698  0.0472
 8163SOL    HW136125   0.620   1.433   4.281 -3.9224 -1.7178  1.3342
 8163SOL    HW236126   0.593   1.513   4.156  0.3895  1.7058 -0.0004
 8164SOL     OW36127   0.003   3.958   8.916 -0.0445  0.2100 -0.5432
 8164SOL    HW136128   0.068   3.917   8.860  0.6137  0.3430  0.1276
 8164SOL    HW236129   4.716   4.034   8.864 -0.4525  0.9499  0.7104
 8165SOL     OW36130   4.513   4.584   1.388  0.1666 -0.2579  0.3696
 8165SOL    HW136131   4.593   4.589   1.337 -0.2882  1.2219 -0.2095
 8165SOL    HW236132   4.535   4.639   1.464  1.1251  0.0920 -0.1676
 8166SOL     OW36133   2.570   1.122   6.932  0.1265 -0.8657  0.5045
 8166SOL    HW136134   2.536   1.039   6.899  1.9981 -1.8786  1.1725
 8166SOL    HW236135   2.510   1.142   7.005  0.1504  4.0183 -0.8155
 8167SOL     OW36136   4.202   1.951   2.790  0.5418  0.7105 -0.2457
 8167SOL    HW136137   4.165   1.863   2.779  1.4982  0.1589  0.9052
 8167SOL    HW236138   4.273   1.936   2.728  0.0645  2.0646 -1.1131
 8168SOL     OW36139   1.857   1.425   1.381  0.1431  0.1764  0.0312
 8168SOL    HW136140   1.811   1.503   1.349 -1.4117 -0.9298 -0.4284
 8168SOL    HW236141   1.886   1.449   1.469 -1.0680 -0.9173  0.7428
 8169SOL     OW36142   2.733   1.329   9.006 -0.2132  0.2576  0.3912
 8169SOL    HW136143   2.780   1.281   8.937  0.4432 -0.0944  1.0760
 8169SOL    HW236144   2.745   1.273   9.083  0.3492  0.4141  0.4223
 8170SOL     OW36145   2.257   0.978   3.207  0.0028  0.1289 -0.3431
 8170SOL    HW136146   2.199   1.020   3.143 -1.7523 -1.7948  0.0000
 8170SOL    HW236147   2.253   1.040   3.280  0.4398 -0.7759  0.4547
 8171SOL     OW36148   0.505   3.856  11.855 -0.4816  0.7758 -0.4068
 8171SOL    HW136149   0.412   3.872  11.838 -0.6806 -1.4927 -1.5505
 8171SOL    HW236150   0.546   3.935  11.820 -0.2931 -0.2671 -2.5813
 8172SOL     OW36151   4.284   1.579   4.624  0.2899  0.4887 -0.1727
 8172SOL    HW136152   4.274   1.499   4.676 -1.6377  1.9807  1.7335
 8172SOL    HW236153   4.240   1.552   4.543  1.1029 -0.1988 -0.3822
 8173SOL     OW36154   4.144   1.341   6.145 -0.4776  0.1299 -0.3260
 8173SOL    HW136155   4.177   1.398   6.215  0.8033 -3.9026  2.3216
 8173SOL    HW236156   4.177   1.257   6.176 -0.7464 -0.0579 -0.5413
 8174SOL     OW36157   1.665   2.435  13.360  0.0237 -0.0646 -0.3176
 8174SOL    HW136158   1.735   2.494  13.387 -0.1753 -0.1684  0.4197
 8174SOL    HW236159   1.599   2.490  13.316 -0.0345  0.6532  0.6803
 8175SOL     OW36160   0.600   3.584   6.490  0.0432  0.3595 -0.3462
 8175SOL    HW136161   0.695   3.587   6.488  0.0864 -1.3259 -1.1029
 8175SOL    HW236162   0.579   3.507   6.437  0.1181  0.2109 -0.1585
 8176SOL     OW36163   4.249   0.032   9.179 -0.5073  0.1171 -0.3795
 8176SOL    HW136164   4.298   0.099   9.227 -1.5473  0.0623  0.7366
 8176SOL    HW236165   4.295   4.691   9.207  0.1311  0.7895  0.4704
 8177SOL     OW36166   0.592   1.300  17.170 -0.0742  0.1704  0.1199
 8177SOL    HW136167   0.628   1.218  17.135 -1.6202 -1.5761  2.6471
 8177SOL    HW236168   0.613   1.369  17.107 -0.8940 -1.0349 -1.4843
 8178SOL     OW36169   2.967   2.281   4.029  0.6051 -0.3458 -0.3533
 8178SOL    HW136170   3.043   2.300   4.084 -1.2009  1.7825  1.4082
 8178SOL    HW236171   2.988   2.340   3.957 -0.6099  1.0601  0.4587
 8179SOL     OW36172   3.089   0.992  13.751 -0.4253 -0.3732 -0.4240
 8179SOL    HW136173   3.110   1.065  13.809 -2.1269 -0.2694  0.0687
 8179SOL    HW236174   3.058   1.040  13.674 -1.1140 -0.1869 -0.0274
 8180SOL     OW36175   0.310   0.329   2.908  0.2547 -0.2784 -0.2372
 8180SOL    HW136176   0.371   0.342   2.981  1.1111  0.0230 -1.0138
 8180SOL    HW236177   0.369   0.287   2.846  0.2509 -3.1818  1.7133
 8181SOL     OW36178   1.782   1.401   8.262  0.6165  0.4445  0.1983
 8181SOL    HW136179   1.842   1.437   8.326  0.3711 -0.2244  0.8140
 8181SOL    HW236180   1.776   1.308   8.286  2.3751  0.1582 -0.4558
 8182SOL     OW36181   3.746   1.802   5.296  0.4080  0.3322  0.2943
 8182SOL    HW136182   3.656   1.787   5.269  0.4255 -0.6223  0.7641
 8182SOL    HW236183   3.747   1.738   5.367 -1.8153  0.0224  0.0279
 8183SOL     OW36184   1.600   1.402  13.224 -0.2436  0.2335 -0.1355
 8183SOL    HW136185   1.585   1.385  13.131 -0.2197  0.1736 -0.1287
 8183SOL    HW236186   1.667   1.338  13.247 -0.3741 -0.1287 -0.7594
 8184SOL     OW36187   0.604   2.430   2.787 -0.3138 -0.3053  0.2922
 8184SOL    HW136188   0.640   2.460   2.870  0.8881  1.0408 -0.7127
 8184SOL    HW236189   0.621   2.504   2.729  0.4382  0.6318  1.7286
 8185SOL     OW36190   2.330   2.437   4.527  0.3874 -0.1659  0.3660
 8185SOL    HW136191   2.320   2.419   4.434  1.8625  0.4513  0.0787
 8185SOL    HW236192   2.359   2.352   4.559 -0.5467 -0.6389 -0.0686
 8186SOL     OW36193   3.495   4.361   2.981  0.0350 -0.0555  0.0461
 8186SOL    HW136194   3.468   4.272   2.960  0.5707  0.0641 -1.1936
 8186SOL    HW236195   3.413   4.400   3.011 -2.2980 -2.1950 -3.5762
 8187SOL     OW36196   0.635   2.679  15.833 -0.1149  0.0819 -0.0464
 8187SOL    HW136197   0.655   2.605  15.890  1.0256 -0.2498 -0.8668
 8187SOL    HW236198   0.571   2.734  15.878 -2.2317 -1.4837 -1.1247
 8188SOL     OW36199   1.999   1.451   5.876 -0.4094 -0.2704 -0.0313
 8188SOL    HW136200   2.083   1.425   5.913 -0.6876 -0.8686  0.1796
 8188SOL    HW236201   2.015   1.448   5.782  0.4192 -1.9493  0.1626
 8189SOL     OW36202   1.232   0.665  15.858 -0.3276  0.5344  0.0274
 8189SOL    HW136203   1.323   0.677  15.886 -0.9632  1.7608  1.5993
 8189SOL    HW236204   1.217   0.751  15.819 -1.4679  0.5553  0.5216
 8190SOL     OW36205   1.001   3.639   6.424  0.7466  0.7077 -0.2087
 8190SOL    HW136206   0.981   3.597   6.340 -1.4303  0.6523  0.3463
 8190SOL    HW236207   1.004   3.733   6.405  1.0878  1.1712  2.1419
 8191SOL     OW36208   1.668   1.504   7.077  0.3991  0.1279  0.1700
 8191SOL    HW136209   1.696   1.554   7.000 -1.0092  1.8256  0.7544
 8191SOL    HW236210   1.751   1.501   7.124  1.5862  0.2451 -1.9295
 8192SOL     OW36211   3.167   0.231   3.087  0.4210 -0.5326  0.2000
 8192SOL    HW136212   3.079   0.197   3.103 -0.0082 -0.4549 -2.0129
 8192SOL    HW236213   3.170   0.237   2.992  3.5529 -1.2979  0.2544
 8193SOL     OW36214   1.124   1.950   8.667 -0.4736  1.0257 -0.0399
 8193SOL    HW136215   1.108   2.027   8.613 -0.4758  0.4197 -0.8982
 8193SOL    HW236216   1.084   1.883   8.612  0.1183  3.2099 -3.1157
 8194SOL     OW36217   1.116   1.611   6.361  0.5598 -0.3264 -0.1798
 8194SOL    HW136218   1.165   1.684   6.323 -3.0020  2.2292  0.1160
 8194SOL    HW236219   1.191   1.561   6.391 -1.0191 -1.9642  1.0688
 8195SOL     OW36220   2.113   0.596   1.346  0.5263 -0.4559  0.0534
 8195SOL    HW136221   2.141   0.686   1.361  0.4422 -0.1375 -1.7800
 8195SOL    HW236222   2.178   0.553   1.402 -0.0494  0.0587  1.1084
 8196SOL     OW36223   1.412   0.376   6.690  0.2065 -0.4359 -0.5436
 8196SOL    HW136224   1.321   0.403   6.682  0.5973  0.1521 -3.0368
 8196SOL    HW236225   1.456   0.440   6.634  2.2478 -1.0181  0.3674
 8197SOL     OW36226   4.057   2.434   1.413  0.2833 -0.0800  0.3271
 8197SOL    HW136227   4.069   2.529   1.402 -0.7098 -0.2714 -2.4431
 8197SOL    HW236228   4.148   2.406   1.411  0.4079  0.2938  0.6826
 8198SOL     OW36229   1.128   3.152   4.756  0.1119 -0.3905  0.3539
 8198SOL    HW136230   1.038   3.125   4.776  0.0716  0.4402  1.3110
 8198SOL    HW236231   1.186   3.095   4.806 -1.2505 -2.5183 -0.5050
 8199SOL     OW36232   4.226   0.966   5.094  0.1188  0.8837 -0.2982
 8199SOL    HW136233   4.265   0.944   5.010 -2.8089  0.3664 -1.5000
 8199SOL    HW236234   4.235   1.061   5.103  0.8710  0.9327 -1.5033
 8200SOL     OW36235   1.855   4.313   8.159  0.3041 -0.0523  0.1050
 8200SOL    HW136236   1.825   4.308   8.249 -0.0893 -0.6240 -0.0603
 8200SOL    HW236237   1.873   4.226   8.124 -0.4711 -0.4355  0.6648
 8201SOL     OW36238   1.096   1.666   6.833  0.3023 -0.7100 -0.2986
 8201SOL    HW136239   1.113   1.582   6.789  1.1422 -1.2742  1.0847
 8201SOL    HW236240   1.157   1.663   6.907 -0.2660 -0.2438  0.1799
 8202SOL     OW36241   2.121   3.035   6.476  0.1403 -0.4335  0.0104
 8202SOL    HW136242   2.094   3.043   6.385 -2.6569 -0.6234  0.8362
 8202SOL    HW236243   2.041   3.033   6.528  0.2339 -3.1283  0.0372
 8203SOL     OW36244   2.689   0.389   9.212  0.3280 -0.4208  0.3032
 8203SOL    HW136245   2.730   0.472   9.236 -0.7366  0.4258 -0.8152
 8203SOL    HW236246   2.598   0.414   9.197  0.7681 -0.5617 -2.6865
 8204SOL     OW36247   1.578   0.840   7.145 -0.4638  0.3790  0.0521
 8204SOL    HW136248   1.618   0.904   7.203  0.4661  0.1843 -0.3599
 8204SOL    HW236249   1.513   0.801   7.203  0.3861  0.2195  0.8856
 8205SOL     OW36250   0.439   4.523   7.412  0.0716 -1.2503  0.0724
 8205SOL    HW136251   0.519   4.556   7.454 -0.0826 -0.5952 -0.1538
 8205SOL    HW236252   0.376   4.593   7.430 -0.5246 -1.5824 -0.7392
 8206SOL     OW36253   3.660   0.563   5.865  0.0456 -0.4557 -0.1560
 8206SOL    HW136254   3.573   0.587   5.834  0.1337 -0.1556 -0.1701
 8206SOL    HW236255   3.648   0.536   5.956  1.2991 -1.9685 -0.4344
 8207SOL     OW36256   3.575   1.296   7.477  0.3550  0.3504  0.0518
 8207SOL    HW136257   3.506   1.294   7.410  1.4940  1.9624 -1.1472
 8207SOL    HW236258   3.588   1.390   7.483  1.6880  0.2332 -0.9029
 8208SOL     OW36259   3.813   1.874   2.223 -0.1773  0.5632 -0.2734
 8208SOL    HW136260   3.813   1.785   2.260 -0.2173  1.0074  0.7820
 8208SOL    HW236261   3.737   1.875   2.165  2.7699  1.8651 -4.1100
 8209SOL     OW36262   3.309   4.254   9.464 -0.5929 -0.6084  0.3714
 8209SOL    HW136263   3.364   4.179   9.487 -0.4721 -0.4969  0.4426
 8209SOL    HW236264   3.242   4.250   9.533  1.0278  0.5438  2.0007
 8210SOL     OW36265   0.709   1.820   3.495  0.0996  0.5320 -0.7605
 8210SOL    HW136266   0.621   1.853   3.477  0.2198  0.8875 -0.7046
 8210SOL    HW236267   0.709   1.833   3.590  1.7057  0.2395 -0.7231
 8211SOL     OW36268   3.140   2.891   4.171 -0.8230  0.0131 -0.2984
 8211SOL    HW136269   3.122   2.919   4.081 -0.1335  0.9526 -0.1428
 8211SOL    HW236270   3.206   2.823   4.159  1.3998  2.0845  0.1442
 8212SOL     OW36271   3.117   3.412  12.132  0.1552  0.4366 -0.3001
 8212SOL    HW136272   3.174   3.336  12.119  1.3027  1.1118  0.7914
 8212SOL    HW236273   3.061   3.381  12.203  0.3879  0.8797  0.0794
 8213SOL     OW36274   1.016   0.469   3.366  0.6242  0.4090  0.6980
 8213SOL    HW136275   1.069   0.441   3.292 -1.9911 -1.8971 -0.2897
 8213SOL    HW236276   0.934   0.442   3.324  1.0174 -0.2203  0.3410
 8214SOL     OW36277   4.276   3.525  12.883 -0.1051 -0.1417  0.9544
 8214SOL    HW136278   4.322   3.487  12.808 -1.0411 -0.0620  0.3300
 8214SOL    HW236279   4.251   3.607  12.841  0.9610  0.2290  1.0351
 8215SOL     OW36280   4.623   3.928   6.006  0.1405  0.2573 -0.2444
 8215SOL    HW136281   4.578   3.959   6.085 -2.0240  2.1743 -2.2161
 8215SOL    HW236282   4.553   3.879   5.964  0.3668 -1.1875  1.0518
 8216SOL     OW36283   1.469   3.032   5.502 -0.0161 -0.4618  0.0131
 8216SOL    HW136284   1.375   3.042   5.491  0.1145  0.6213 -0.0891
 8216SOL    HW236285   1.476   3.124   5.527 -0.5341 -0.8893  1.7800
 8217SOL     OW36286   2.825   2.302   2.653  0.3828  0.0717 -0.5676
 8217SOL    HW136287   2.762   2.248   2.701 -1.5604  2.1625 -0.7545
 8217SOL    HW236288   2.909   2.275   2.691  0.8911  0.5403 -1.3423
 8218SOL     OW36289   1.860   2.302   8.172  0.0422 -0.2026  0.2238
 8218SOL    HW136290   1.768   2.309   8.149  0.3920  0.0960 -1.1033
 8218SOL    HW236291   1.883   2.242   8.101  1.5355 -1.0219  1.4042
 8219SOL     OW36292   1.261   0.065  17.083  0.4551  0.3308 -0.2595
 8219SOL    HW136293   1.275   4.713  17.054  2.3172  0.0992  1.3832
 8219SOL    HW236294   1.165   0.061  17.089  0.4512 -0.7130 -0.9236
 8220SOL     OW36295   2.532   3.305  10.690  0.7385 -0.4137  0.3424
 8220SOL    HW136296   2.563   3.221  10.723  1.2987 -0.3192  0.0554
 8220SOL    HW236297   2.551   3.364  10.762  0.4437  2.3476 -1.8206
 8221SOL     OW36298   1.837   3.935   2.204 -0.7186  0.2706  0.8330
 8221SOL    HW136299   1.789   3.992   2.264 -2.6398  1.9829 -2.3089
 8221SOL    HW236300   1.804   3.847   2.221  1.7394 -0.8127 -0.0499
 8222SOL     OW36301   3.668   2.377  17.542  0.1470 -0.0213 -0.4779
 8222SOL    HW136302   3.577   2.358  17.520  0.6442 -1.5894 -1.2093
 8222SOL    HW236303   3.709   2.366  17.456 -1.5426  0.6037 -1.3653
 8223SOL     OW36304   2.904   0.597   8.150  0.3198  0.0454  0.3240
 8223SOL    HW136305   2.956   0.663   8.103  0.5925  1.4648  2.6082
 8223SOL    HW236306   2.841   0.577   8.081  0.7935 -0.5043  0.0547
 8224SOL     OW36307   3.781   1.704   8.014 -1.0147  0.4374  0.1014
 8224SOL    HW136308   3.778   1.782   8.069 -1.2286  0.0295  0.6713
 8224SOL    HW236309   3.812   1.635   8.073 -0.7262  0.6657  0.2163
 8225SOL     OW36310   3.814   4.197   9.370 -0.1052  0.1516  0.2672
 8225SOL    HW136311   3.755   4.242   9.309 -0.3957 -3.0107 -1.7730
 8225SOL    HW236312   3.754   4.191   9.444 -0.5626 -0.0916 -0.1289
 8226SOL     OW36313   3.594   4.260   9.200 -0.4644  0.2921  0.5820
 8226SOL    HW136314   3.642   4.266   9.118 -0.1426 -0.9859  0.6715
 8226SOL    HW236315   3.513   4.225   9.162 -0.9224  2.4634 -0.4019
 8227SOL     OW36316   2.583   1.190   2.040 -0.7152 -0.4795 -0.0101
 8227SOL    HW136317   2.632   1.149   1.968 -1.4353  1.2586 -1.4839
 8227SOL    HW236318   2.659   1.233   2.079 -1.6476  0.8106  0.3762
 8228SOL     OW36319   3.665   3.522  12.254 -0.1467  0.1701 -0.8798
 8228SOL    HW136320   3.679   3.616  12.269 -1.9218  0.5079 -1.2564
 8228SOL    HW236321   3.746   3.480  12.283 -0.5695  2.0316  2.9711
 8229SOL     OW36322   1.756   4.284   8.439 -0.4967  0.2079 -0.6223
 8229SOL    HW136323   1.712   4.369   8.430  2.7219  2.1111  1.4513
 8229SOL    HW236324   1.682   4.230   8.412  0.2942 -1.7532  1.1738
 8230SOL     OW36325   2.279   4.691   4.505  0.0108  0.2544 -0.3318
 8230SOL    HW136326   2.203   4.688   4.563  0.7837 -0.2634  0.6548
 8230SOL    HW236327   2.294   0.046   4.490 -1.9466  0.5984 -0.1586
 8231SOL     OW36328   1.675   0.054   4.915  0.3443 -0.6632  0.0640
 8231SOL    HW136329   1.740   0.077   4.981  0.6700 -1.2671 -0.0415
 8231SOL    HW236330   1.722   0.073   4.834  2.0815  1.1779  1.5329
 8232SOL     OW36331   3.971   1.679   3.541 -0.0732  0.7636 -0.1788
 8232SOL    HW136332   3.994   1.763   3.580 -0.2847  0.9045 -0.3511
 8232SOL    HW236333   3.915   1.706   3.467  2.2676 -0.6314 -2.4350
 8233SOL     OW36334   1.067   4.525   4.428 -0.0247  0.4488  0.0206
 8233SOL    HW136335   1.154   4.559   4.449 -1.3109  3.8676 -0.2232
 8233SOL    HW236336   1.091   4.478   4.348 -0.7945  2.2290 -1.2480
 8234SOL     OW36337   2.913   0.149   3.285  0.0578  0.2687 -0.2028
 8234SOL    HW136338   2.907   0.179   3.194  1.4431  0.3219 -0.2741
 8234SOL    HW236339   2.835   0.093   3.287  0.7877 -0.8130 -2.0758
 8235SOL     OW36340   1.687   4.322  16.764 -0.0390  1.0769  0.2201
 8235SOL    HW136341   1.778   4.326  16.736  0.4761  0.8133  1.8728
 8235SOL    HW236342   1.691   4.276  16.848  3.0741 -2.8445 -2.1203
 8236SOL     OW36343   0.897   4.589   1.946 -0.0071 -0.0528 -0.2084
 8236SOL    HW136344   0.975   4.579   1.892  2.0242 -1.0626  2.8936
 8236SOL    HW236345   0.911   4.534   2.023 -1.1721 -0.2141 -0.1128
 8237SOL     OW36346   2.151   3.348   2.922  0.1876 -0.2419 -0.6862
 8237SOL    HW136347   2.201   3.425   2.894 -1.9700  1.3407 -0.1539
 8237SOL    HW236348   2.140   3.373   3.014 -1.2063 -0.0529 -0.9042
 8238SOL     OW36349   0.094   4.339   8.802 -0.0438  0.1247 -0.0134
 8238SOL    HW136350   0.094   4.353   8.896  0.5027 -1.1437  0.1805
 8238SOL    HW236351   0.137   4.254   8.793  2.0612  1.2502 -0.5754
 8239SOL     OW36352   2.237   4.521   5.670  0.4614  0.0860 -0.2951
 8239SOL    HW136353   2.299   4.521   5.743 -1.5542 -0.2471  1.4289
 8239SOL    HW236354   2.229   4.615   5.651  1.4357  0.1224 -0.4812
 8240SOL     OW36355   2.352   2.394   3.498 -0.5563 -0.3830 -0.0485
 8240SOL    HW136356   2.278   2.364   3.550 -0.4669  1.6497  1.2501
 8240SOL    HW236357   2.305   2.442   3.429 -1.7342 -1.9820 -0.3494
 8241SOL     OW36358   0.522   3.727   9.191 -0.6087  0.2910  0.6486
 8241SOL    HW136359   0.584   3.715   9.263 -0.4688  0.9836  0.6452
 8241SOL    HW236360   0.583   3.694   9.124 -0.0459  2.8886 -0.1232
 8242SOL     OW36361   0.401   2.736   5.085 -0.1560 -0.0959  0.1762
 8242SOL    HW136362   0.322   2.754   5.034  1.2099 -0.8428 -2.2327
 8242SOL    HW236363   0.472   2.770   5.031  1.0890  0.0577  1.9020
 8243SOL     OW36364   3.075   4.705  13.110 -0.1312 -0.3227  0.0500
 8243SOL    HW136365   3.037   0.014  13.036 -0.2700 -0.9026 -0.2452
 8243SOL    HW236366   3.103   0.035  13.172 -3.3978  0.5555  0.5637
 8244SOL     OW36367   4.090   1.416   0.470 -0.0547  0.0354  0.3773
 8244SOL    HW136368   4.185   1.425   0.485 -0.2404  0.9704  1.0207
 8244SOL    HW236369   4.049   1.489   0.517 -1.1456 -1.9563  2.5064
 8245SOL     OW36370   1.633   1.178   5.217 -0.0079 -0.1193  0.2766
 8245SOL    HW136371   1.680   1.118   5.160 -0.4287  0.7072 -0.9378
 8245SOL    HW236372   1.566   1.202   5.152  0.9968 -0.4688 -0.8903
 8246SOL     OW36373   2.067   4.468  16.877 -0.2358 -0.4881 -0.1893
 8246SOL    HW136374   1.987   4.490  16.923  0.1609  0.5868  0.0092
 8246SOL    HW236375   2.130   4.458  16.949  0.2703  1.8516 -0.2894
 8247SOL     OW36376   1.933   2.202   4.109  0.6506  0.2459  0.2141
 8247SOL    HW136377   1.999   2.134   4.122  2.1545  2.0136  1.8594
 8247SOL    HW236378   1.876   2.169   4.039  2.2408 -1.5858 -0.2038
 8248SOL     OW36379   3.547   3.922   6.469  0.3189  0.4695  0.3010
 8248SOL    HW136380   3.487   3.902   6.397 -0.6522  1.0598  0.9559
 8248SOL    HW236381   3.501   3.992   6.514  0.3107 -0.6092  1.9785
 8249SOL     OW36382   3.601   1.352   3.041 -0.3342 -0.0730  0.2887
 8249SOL    HW136383   3.621   1.421   2.978 -1.2872  0.1990  0.2909
 8249SOL    HW236384   3.679   1.372   3.092  0.8682 -0.5958 -1.3228
 8250SOL     OW36385   2.838   1.213   2.202  0.1784  0.5207  0.0991
 8250SOL    HW136386   2.856   1.212   2.296 -0.3889 -1.1833  0.1755
 8250SOL    HW236387   2.853   1.305   2.180  1.2300  0.2954 -0.1319
 8251SOL     OW36388   0.805   0.539   3.519 -0.2215 -0.5346 -0.1035
 8251SOL    HW136389   0.777   0.617   3.470 -0.8689 -0.9490 -0.3964
 8251SOL    HW236390   0.896   0.527   3.492 -0.0059 -1.4099  1.0242
 8252SOL     OW36391   0.435   4.333   2.592 -0.5600 -0.6400  0.2161
 8252SOL    HW136392   0.426   4.404   2.528 -0.2035 -1.0305 -0.2691
 8252SOL    HW236393   0.510   4.283   2.559  0.1047  0.2384  0.3730
 8253SOL     OW36394   2.939   3.255  14.353  0.2878 -0.0962 -0.8073
 8253SOL    HW136395   2.864   3.261  14.413  0.0143 -1.1495 -1.0454
 8253SOL    HW236396   2.918   3.331  14.300 -3.3702 -0.1876  0.4790
 8254SOL     OW36397   3.862   1.661  15.266 -0.2626 -0.0564 -0.0809
 8254SOL    HW136398   3.878   1.745  15.309  1.2339 -0.6894  0.5872
 8254SOL    HW236399   3.901   1.607  15.335  1.5031  1.5334  0.1508
 8255SOL     OW36400   3.529   3.623  16.857 -0.5312  0.1559 -0.0859
 8255SOL    HW136401   3.494   3.629  16.946  1.3351 -2.5703  0.8278
 8255SOL    HW236402   3.468   3.682  16.813  0.1651  1.0017  0.0908
 8256SOL     OW36403   3.605   3.173   6.678  0.3071  0.3324 -0.4546
 8256SOL    HW136404   3.677   3.234   6.696 -1.1541  1.8052  0.3983
 8256SOL    HW236405   3.539   3.239   6.656 -1.6515 -1.4494  0.0382
 8257SOL     OW36406   0.030   0.586  16.717 -0.0336 -0.0281  0.7156
 8257SOL    HW136407   4.696   0.573  16.779  0.2566 -1.7242  0.6955
 8257SOL    HW236408   0.108   0.584  16.773 -0.6600 -0.8581  1.5622
 8258SOL     OW36409   3.689   4.695  10.492  0.2582  0.0964  0.4074
 8258SOL    HW136410   3.630   4.627  10.460  1.3852 -1.5354  1.7301
 8258SOL    HW236411   3.683   0.014  10.415  1.1369 -0.9157 -0.4077
 8259SOL     OW36412   4.709   2.039   9.090 -0.0186 -0.3190 -0.1205
 8259SOL    HW136413   0.005   2.127   9.073 -1.0891  0.1318  0.0349
 8259SOL    HW236414   4.670   2.048   9.177 -2.6633 -0.8040 -1.2416
 8260SOL     OW36415   3.110   0.436   6.756  0.6060 -0.3865 -0.1231
 8260SOL    HW136416   3.169   0.403   6.824  1.3752 -0.8605 -1.0089
 8260SOL    HW236417   3.024   0.403   6.782 -1.7685  2.9525 -3.7461
 8261SOL     OW36418   3.812   1.488   3.182 -0.0525 -0.7602 -0.1676
 8261SOL    HW136419   3.820   1.572   3.226  0.1784 -0.1062 -1.4719
 8261SOL    HW236420   3.892   1.491   3.129  0.3910  0.1079  0.5390
 8262SOL     OW36421   4.173   4.377   3.157 -0.1675  0.2687 -0.1472
 8262SOL    HW136422   4.228   4.366   3.080 -2.3830  1.7398 -1.9179
 8262SOL    HW236423   4.192   4.468   3.178 -0.5200  0.6042 -1.3143
 8263SOL     OW36424   0.753   0.944  12.297  0.3138 -0.7890  1.0193
 8263SOL    HW136425   0.801   1.026  12.288 -0.8059 -0.3618 -1.1514
 8263SOL    HW236426   0.820   0.876  12.302  0.1982 -1.1133 -1.9569
 8264SOL     OW36427   3.779   2.332   5.096  0.5333 -0.2512  0.0148
 8264SOL    HW136428   3.720   2.350   5.022  0.1828 -1.3635  0.0210
 8264SOL    HW236429   3.825   2.416   5.103  1.4392 -0.5722 -2.0635
 8265SOL     OW36430   2.107   2.011  13.105  0.2838 -0.2441  0.4481
 8265SOL    HW136431   2.124   1.992  13.013  1.0893 -0.5027  0.6561
 8265SOL    HW236432   2.013   2.027  13.115  0.3653  1.6278 -1.7450
 8266SOL     OW36433   0.053   2.400   7.030 -0.5085  0.5363  0.0512
 8266SOL    HW136434   0.127   2.348   7.063 -1.9297 -1.5145  0.0613
 8266SOL    HW236435   0.091   2.415   6.944  1.2333 -2.2539  0.3074
 8267SOL     OW36436   1.632   2.343  17.309  0.2865 -0.6134  0.7684
 8267SOL    HW136437   1.708   2.291  17.285  0.8872  0.3244  0.6406
 8267SOL    HW236438   1.563   2.300  17.258 -0.6184  3.6597 -1.6765
 8268SOL     OW36439   2.094   3.698  10.599 -0.1047 -0.0953 -0.2930
 8268SOL    HW136440   2.104   3.672  10.691 -0.5042  3.6923  0.8208
 8268SOL    HW236441   2.058   3.620  10.558 -0.0083  0.0388 -0.6303
 8269SOL     OW36442   0.741   1.145  11.492  0.1494  0.3611  0.1325
 8269SOL    HW136443   0.661   1.161  11.441  0.4475  0.0838 -0.4214
 8269SOL    HW236444   0.796   1.089  11.437  0.5678 -0.8964  1.8557
 8270SOL     OW36445   1.014   1.377  14.552  0.7040 -0.8712  0.2881
 8270SOL    HW136446   1.047   1.289  14.568 -0.3376 -1.2837  0.1641
 8270SOL    HW236447   1.075   1.422  14.493  0.3690 -0.5817  0.1604
 8271SOL     OW36448   4.380   1.327   7.137  0.0228  0.2142  0.6538
 8271SOL    HW136449   4.363   1.260   7.070 -3.4183  1.8795 -0.1551
 8271SOL    HW236450   4.472   1.308   7.152 -0.1973 -0.0435  1.6248
 8272SOL     OW36451   2.966   4.606   8.787 -0.0718 -0.1082  0.4559
 8272SOL    HW136452   2.969   4.612   8.692  0.4475 -2.3176  0.3372
 8272SOL    HW236453   2.911   4.681   8.810  0.0673  0.2794 -0.4843
 8273SOL     OW36454   4.376   2.447   3.199  0.5797 -0.2667 -0.3918
 8273SOL    HW136455   4.314   2.415   3.134  0.5603  2.4436 -1.7046
 8273SOL    HW236456   4.372   2.371   3.257  0.2887  0.0845  0.0488
 8274SOL     OW36457   2.184   0.018   8.031  0.4319 -0.3647  0.3062
 8274SOL    HW136458   2.141   0.068   8.100 -1.1356 -1.7777  0.3379
 8274SOL    HW236459   2.197   4.672   8.074  0.6681 -0.9469 -0.8842
 8275SOL     OW36460   0.150   3.975   0.026  0.2620 -0.0773 -0.8580
 8275SOL    HW136461   0.160   4.057  17.727 -0.1927  0.2186 -0.4670
 8275SOL    HW236462   0.223   3.922  17.747 -0.5188 -1.1046 -0.9239
 8276SOL     OW36463   0.925   3.582   1.533  0.2992  0.1107 -0.3877
 8276SOL    HW136464   0.880   3.512   1.579 -0.5648 -0.1161 -1.5861
 8276SOL    HW236465   1.015   3.577   1.567 -0.7453 -1.6747  2.1200
 8277SOL     OW36466   3.084   1.866  10.638 -0.1398 -0.0162 -0.0283
 8277SOL    HW136467   3.021   1.853  10.710  0.6948 -2.5362  0.2393
 8277SOL    HW236468   3.161   1.900  10.683  0.8035 -1.4213 -0.5645
 8278SOL     OW36469   3.906   2.612   6.257  0.2193 -0.1800  0.4002
 8278SOL    HW136470   3.944   2.542   6.309  0.7023 -1.4624 -1.6722
 8278SOL    HW236471   3.919   2.584   6.166  1.1889 -0.5434  0.6513
 8279SOL     OW36472   1.641   0.125   0.116 -0.4570 -0.1754  0.3973
 8279SOL    HW136473   1.608   0.124   0.026 -0.8430 -1.2666  0.5508
 8279SOL    HW236474   1.735   0.136   0.100 -0.5080 -0.3677 -0.0335
 8280SOL     OW36475   0.812   4.236  15.230 -0.1638  0.9097  0.2126
 8280SOL    HW136476   0.906   4.235  15.247 -0.0814 -3.3300 -0.5881
 8280SOL    HW236477   0.820   4.260  15.138  2.2502 -0.6962  0.0227
 8281SOL     OW36478   0.169   4.320  14.672  0.2344 -0.3423  0.2420
 8281SOL    HW136479   0.118   4.334  14.593 -0.2905  0.4030  0.7131
 8281SOL    HW236480   0.194   4.410  14.692 -0.1313  0.5361 -3.2564
 8282SOL     OW36481   2.312   1.472   2.261 -0.3638 -0.1596 -0.2565
 8282SOL    HW136482   2.394   1.491   2.216 -0.4204 -1.4104 -0.9175
 8282SOL    HW236483   2.335   1.426   2.341 -1.5345 -1.0672 -0.4284
 8283SOL     OW36484   3.551   1.591   6.491  0.1649 -0.3317 -0.3875
 8283SOL    HW136485   3.548   1.570   6.398  2.4541  1.6626 -0.8925
 8283SOL    HW236486   3.466   1.631   6.505  0.4243  0.0347  0.1309
 8284SOL     OW36487   0.472   2.662  17.487 -0.8119  0.1642 -0.2403
 8284SOL    HW136488   0.386   2.627  17.510 -1.4545  1.1285 -1.1654
 8284SOL    HW236489   0.464   2.708  17.403  0.2794 -1.9265 -1.5033
 8285SOL     OW36490   0.966   3.996   7.610 -0.0397 -0.3112  0.6828
 8285SOL    HW136491   0.973   3.901   7.618 -0.0244 -0.2644  1.1949
 8285SOL    HW236492   0.888   3.998   7.555  2.2589  0.8562 -2.5357
 8286SOL     OW36493   3.192   3.413   5.287  0.1682  0.3540 -0.3289
 8286SOL    HW136494   3.152   3.424   5.373 -0.2774  0.9579 -0.6149
 8286SOL    HW236495   3.116   3.428   5.232  1.2350 -1.4829 -2.3446
 8287SOL     OW36496   4.459   0.362   8.580  0.1148 -0.4663 -0.1821
 8287SOL    HW136497   4.400   0.315   8.521 -1.7000 -0.4300  1.5880
 8287SOL    HW236498   4.476   0.447   8.539  0.7674 -0.3166  0.4004
 8288SOL     OW36499   4.105   3.390   4.033 -0.1673 -0.3882 -0.6131
 8288SOL    HW136500   4.157   3.426   3.960  1.9650 -1.7464  0.2475
 8288SOL    HW236501   4.019   3.424   4.006 -0.4770  0.3535  1.3008
 8289SOL     OW36502   1.159   1.235   4.528  0.4748 -0.1146 -0.0099
 8289SOL    HW136503   1.100   1.210   4.457  0.9903 -0.1433 -0.4226
 8289SOL    HW236504   1.177   1.327   4.506  1.8601 -0.8748 -2.0318
 8290SOL     OW36505   2.264   0.348   8.583 -0.0321 -0.3605 -0.2917
 8290SOL    HW136506   2.312   0.427   8.606  0.7587 -1.0554  0.4739
 8290SOL    HW236507   2.175   0.376   8.565 -0.3398 -3.7922 -3.9781
 8291SOL     OW36508   0.345   1.393  16.791  0.2044 -0.0347  0.0450
 8291SOL    HW136509   0.285   1.357  16.726  0.7516 -3.0173  1.2028
 8291SOL    HW236510   0.422   1.359  16.745  2.1226  1.1019  2.4211
 8292SOL     OW36511   0.050   1.361   9.205  0.5298 -0.7890 -0.2070
 8292SOL    HW136512   0.095   1.416   9.270 -1.3131 -0.2893  0.6461
 8292SOL    HW236513   0.016   1.426   9.144  0.0645 -1.9964 -1.2128
 8293SOL     OW36514   0.167   2.860  16.957 -0.3074  0.1880  0.0755
 8293SOL    HW136515   0.262   2.861  16.949 -0.2034 -2.0002  0.9791
 8293SOL    HW236516   0.150   2.858  17.051  1.7378  0.1110  0.4443
 8294SOL     OW36517   1.253   0.150  12.963 -0.0416 -0.5149  0.2445
 8294SOL    HW136518   1.325   0.088  12.968 -0.0019 -0.6111 -1.5470
 8294SOL    HW236519   1.207   0.121  13.042 -1.5043 -0.3044 -0.5328
 8295SOL     OW36520   4.573   4.197   1.330  0.1119 -0.2799  0.0653
 8295SOL    HW136521   4.633   4.220   1.259 -0.4749 -0.9916 -0.6572
 8295SOL    HW236522   4.633   4.151   1.389 -1.5651  0.1328  2.0777
 8296SOL     OW36523   1.697   3.208   4.818  0.3450 -0.4561 -0.1336
 8296SOL    HW136524   1.733   3.125   4.787  1.6355  0.7776 -1.9378
 8296SOL    HW236525   1.730   3.265   4.749  1.1718 -0.4220  0.3038
 8297SOL     OW36526   3.311   2.471   1.148 -0.3237 -0.0792 -0.8189
 8297SOL    HW136527   3.376   2.541   1.154  0.4814 -0.8760 -0.3144
 8297SOL    HW236528   3.236   2.510   1.193 -0.6308  0.5912 -1.9118
 8298SOL     OW36529   4.307   1.834   7.931  0.1559  0.6277 -0.5555
 8298SOL    HW136530   4.320   1.756   7.878 -2.3567  1.6850 -2.7109
 8298SOL    HW236531   4.319   1.799   8.020 -1.9773 -2.2209 -1.4036
 8299SOL     OW36532   1.430   1.295   8.283  0.5424 -0.0878 -0.0414
 8299SOL    HW136533   1.434   1.372   8.340  0.1289 -1.0318  1.2450
 8299SOL    HW236534   1.342   1.260   8.297  0.6261 -0.2161  0.1665
 8300SOL     OW36535   2.589   1.122   8.721  0.1316 -0.3167 -0.7069
 8300SOL    HW136536   2.549   1.170   8.648  1.8016 -0.1830 -1.5128
 8300SOL    HW236537   2.526   1.125   8.793 -0.1754 -0.2192 -0.9766
 8301SOL     OW36538   3.780   0.221   1.466  0.9183  0.7534 -0.2517
 8301SOL    HW136539   3.686   0.216   1.449  0.8948 -1.9771  0.6311
 8301SOL    HW236540   3.777   0.306   1.509 -0.2573 -0.1613  1.4446
 8302SOL     OW36541   2.563   3.875   9.578  0.9567 -0.0219  0.5488
 8302SOL    HW136542   2.627   3.808   9.603 -1.2920 -2.8090 -1.1507
 8302SOL    HW236543   2.488   3.823   9.550  1.1208 -1.6211  3.0570
 8303SOL     OW36544   4.067   3.489   4.735  0.5766 -0.2298  0.0639
 8303SOL    HW136545   4.033   3.440   4.810 -0.1951  0.5681  0.2368
 8303SOL    HW236546   4.097   3.570   4.774  0.0764  1.1199 -2.3129
 8304SOL     OW36547   3.445   4.323  10.612 -0.3588 -0.4771  0.2652
 8304SOL    HW136548   3.473   4.300  10.701 -3.7753 -1.5217  1.0736
 8304SOL    HW236549   3.351   4.324  10.627 -0.4824  2.2051 -0.6805
 8305SOL     OW36550   0.592   2.002  13.091 -0.2687 -0.1500 -0.5421
 8305SOL    HW136551   0.687   2.004  13.078  0.0350  0.7123  1.7645
 8305SOL    HW236552   0.563   2.009  13.000  1.4679 -1.1328 -1.1792
 8306SOL     OW36553   1.651   1.294   6.490  0.2519  0.1212  0.4789
 8306SOL    HW136554   1.611   1.227   6.546  1.7727 -0.6372  0.6499
 8306SOL    HW236555   1.590   1.364   6.515 -1.1203 -1.1069  0.5692
 8307SOL     OW36556   1.936   1.896   8.375  0.0834 -0.1872  0.1955
 8307SOL    HW136557   1.985   1.838   8.433 -0.2313 -1.4724 -0.8287
 8307SOL    HW236558   2.006   1.953   8.343 -0.0183  0.3973  1.0233
 8308SOL     OW36559   0.705   3.524  17.048 -0.7526  0.5078 -0.0812
 8308SOL    HW136560   0.772   3.480  17.100 -0.9990  0.1647 -0.0610
 8308SOL    HW236561   0.746   3.611  17.048  0.9886 -0.3074  0.8888
 8309SOL     OW36562   0.907   3.654   8.588 -0.4884 -0.0657 -0.6484
 8309SOL    HW136563   0.907   3.571   8.637  0.8645 -0.1524 -0.7752
 8309SOL    HW236564   0.876   3.630   8.501 -1.6583  0.4946 -0.3811
 8310SOL     OW36565   2.822   4.572   2.803 -0.2041  0.0729  0.7997
 8310SOL    HW136566   2.761   4.519   2.753 -2.2810  1.9702  1.3299
 8310SOL    HW236567   2.897   4.514   2.788 -3.0239 -3.2277 -0.3589
 8311SOL     OW36568   0.897   1.711   7.596 -0.4876 -0.7549 -0.7250
 8311SOL    HW136569   0.988   1.723   7.571  0.0461 -0.3914  1.3850
 8311SOL    HW236570   0.892   1.786   7.656  0.4788 -1.8531  0.7258
 8312SOL     OW36571   1.069   2.301   7.976  0.2730 -0.3391  0.1586
 8312SOL    HW136572   1.147   2.285   7.924 -2.0983 -0.9699 -3.1643
 8312SOL    HW236573   1.046   2.216   8.015  1.0329 -0.8662 -0.5433
 8313SOL     OW36574   1.522   0.242   5.985 -0.5353  0.2494  0.0996
 8313SOL    HW136575   1.472   0.271   6.062 -0.5761 -0.9836  0.5420
 8313SOL    HW236576   1.590   0.309   5.990  1.3477 -1.7762  2.3771
 8314SOL     OW36577   2.456   2.693   6.714 -0.2751  0.5995 -0.5719
 8314SOL    HW136578   2.450   2.697   6.810 -0.6962 -0.9306 -0.5444
 8314SOL    HW236579   2.398   2.761   6.679  0.0901  1.4867  0.5356
 8315SOL     OW36580   1.186   0.047   8.037 -0.5552 -0.5674 -0.2019
 8315SOL    HW136581   1.238   0.025   7.959  0.2816 -0.4192  0.3105
 8315SOL    HW236582   1.238   0.001   8.103  0.2904 -0.7285 -0.9639
 8316SOL     OW36583   1.401   4.030   8.158  0.5623  0.1694 -0.1570
 8316SOL    HW136584   1.309   4.024   8.134  0.5661 -1.3592  0.2231
 8316SOL    HW236585   1.417   3.951   8.208 -0.5073  0.6351  0.9115
 8317SOL     OW36586   0.672   0.515   5.242  0.0645 -0.0310 -0.2455
 8317SOL    HW136587   0.616   0.467   5.304  0.0696  1.8503  1.2380
 8317SOL    HW236588   0.721   0.443   5.203 -0.6787 -1.4997  1.5295
 8318SOL     OW36589   1.732   1.856   9.956  0.1274  0.2251  0.0068
 8318SOL    HW136590   1.756   1.885   9.869  0.9378  1.4310  0.6340
 8318SOL    HW236591   1.657   1.914   9.967 -0.7024 -0.9579  0.6958
 8319SOL     OW36592   0.360   3.560   2.497  0.2547 -0.1710  0.3177
 8319SOL    HW136593   0.294   3.528   2.557 -0.7480  2.9561  0.8814
 8319SOL    HW236594   0.303   3.577   2.422  2.0287  0.8927 -0.8170
 8320SOL     OW36595   0.183   1.975  16.801  0.1059  0.2989 -0.6408
 8320SOL    HW136596   0.203   1.995  16.893 -0.0661 -0.0113 -0.5388
 8320SOL    HW236597   0.267   1.967  16.757  0.1531  1.0294 -0.6920
 8321SOL     OW36598   1.358   3.225   3.589 -0.3576 -0.5842  0.3782
 8321SOL    HW136599   1.296   3.242   3.518 -0.4161 -3.0064 -0.1428
 8321SOL    HW236600   1.302   3.211   3.665 -1.0366 -1.0183 -0.2010
 8322SOL     OW36601   1.658   0.422   7.322 -0.2256 -0.4042 -0.5748
 8322SOL    HW136602   1.616   0.451   7.241 -1.1586  2.2907  0.8573
 8322SOL    HW236603   1.744   0.407   7.283 -0.6785  0.0659 -1.7621
 8323SOL     OW36604   4.577   3.809   8.456 -0.1893  0.2769 -0.2408
 8323SOL    HW136605   4.527   3.769   8.527 -1.1058 -2.8118 -2.6166
 8323SOL    HW236606   4.665   3.779   8.477  1.1364  2.8349 -2.0133
 8324SOL     OW36607   2.432   2.133   5.156  0.5600  0.9250 -0.3726
 8324SOL    HW136608   2.368   2.100   5.093  0.6415  0.9356 -0.4608
 8324SOL    HW236609   2.500   2.067   5.144 -0.8806 -0.0091 -3.4074
 8325SOL     OW36610   4.225   3.047   4.513  0.5052  0.0850  0.0285
 8325SOL    HW136611   4.178   2.964   4.504 -0.4819  0.5604  0.8392
 8325SOL    HW236612   4.185   3.097   4.443  0.6106  1.1087  0.7018
 8326SOL     OW36613   2.656   0.540   2.604  0.3806 -0.5415  0.7735
 8326SOL    HW136614   2.587   0.475   2.617 -1.9534  1.2291 -2.6388
 8326SOL    HW236615   2.618   0.620   2.568  0.3272 -0.1766  1.6506
 8327SOL     OW36616   0.464   0.472   4.480  0.1593 -0.3533 -0.3481
 8327SOL    HW136617   0.388   0.445   4.531 -0.2787  0.1793 -0.7284
 8327SOL    HW236618   0.425   0.468   4.393  2.6626  0.7843 -1.5291
 8328SOL     OW36619   3.819   0.001   1.312 -0.1898 -0.5223 -0.1482
 8328SOL    HW136620   3.724   0.004   1.308 -0.1720  2.2152  1.4306
 8328SOL    HW236621   3.839   0.073   1.372  3.6617 -1.6732 -0.0045
 8329SOL     OW36622   4.146   3.388  13.074  0.1280 -0.1385 -0.0752
 8329SOL    HW136623   4.202   3.425  13.005  0.7094 -1.6358 -0.4143
 8329SOL    HW236624   4.101   3.463  13.111  1.0402  0.2309  0.2858
 8330SOL     OW36625   3.516   1.358  14.917  0.2705  0.3079  0.1245
 8330SOL    HW136626   3.583   1.329  14.978 -0.4033  0.0449  0.7402
 8330SOL    HW236627   3.494   1.439  14.962 -0.7156  0.2907 -0.3281
 8331SOL     OW36628   3.279   0.852   4.346 -0.0987 -0.2866 -0.0173
 8331SOL    HW136629   3.256   0.934   4.389 -0.5087  0.1117 -1.0203
 8331SOL    HW236630   3.275   0.883   4.256  0.5162  0.6473  0.2837
 8332SOL     OW36631   0.515   3.953   9.639  0.9730  0.1500  0.0169
 8332SOL    HW136632   0.484   3.917   9.556 -0.9937 -0.1513  0.9029
 8332SOL    HW236633   0.461   3.896   9.694  1.2765 -0.9017 -0.7762
 8333SOL     OW36634   4.105   1.110  14.250  0.2093 -0.1817  0.5016
 8333SOL    HW136635   4.102   1.041  14.316 -1.2967  1.8325  2.5155
 8333SOL    HW236636   4.114   1.188  14.304 -1.6984  1.6746 -1.8576
 8334SOL     OW36637   4.009   0.792   8.091  0.2062 -0.1582  0.2462
 8334SOL    HW136638   4.104   0.780   8.088  0.1719 -0.3315 -0.1135
 8334SOL    HW236639   3.990   0.766   8.182 -0.2142  1.4122  0.5980
 8335SOL     OW36640   3.089   0.539   6.304 -0.4114  0.1823  0.4268
 8335SOL    HW136641   3.136   0.595   6.365 -2.4276  1.5827  0.6992
 8335SOL    HW236642   3.163   0.501   6.256 -1.2350 -1.2365  0.2814
 8336SOL     OW36643   0.924   3.901  10.360 -0.2640  0.1041 -0.1111
 8336SOL    HW136644   0.833   3.889  10.388 -0.4636  0.9905 -0.3811
 8336SOL    HW236645   0.945   3.963  10.430 -0.1318  0.5818 -0.5780
 8337SOL     OW36646   2.548   3.470   5.445  0.7354  0.1716 -0.1950
 8337SOL    HW136647   2.593   3.388   5.464  1.0305  0.6915  1.4107
 8337SOL    HW236648   2.472   3.439   5.397  1.2133  0.3820 -1.0866
 8338SOL     OW36649   2.431   2.510  10.358 -0.3722  1.0237 -0.0232
 8338SOL    HW136650   2.455   2.595  10.395 -0.4529  1.5008 -1.0721
 8338SOL    HW236651   2.512   2.460  10.369 -1.0357  0.1615  0.9331
 8339SOL     OW36652   1.074   4.310   0.059 -0.4299  0.3402  0.4166
 8339SOL    HW136653   1.075   4.372   0.132 -0.8999  2.2274 -1.1817
 8339SOL    HW236654   1.106   4.360  17.734 -0.5748 -0.0107  0.1213
 8340SOL     OW36655   1.578   3.513   5.715  0.3385 -0.0958  0.4745
 8340SOL    HW136656   1.483   3.512   5.723  0.2410  0.9447 -0.5835
 8340SOL    HW236657   1.600   3.549   5.801  1.6821  0.0149  0.0822
 8341SOL     OW36658   0.520   1.115  15.245  0.1503  0.0644 -0.1718
 8341SOL    HW136659   0.563   1.101  15.329  1.2869 -1.2556 -0.9679
 8341SOL    HW236660   0.533   1.208  15.229  0.5708  0.2044  1.0243
 8342SOL     OW36661   1.434   2.495   2.008 -0.1794  0.1069  0.1980
 8342SOL    HW136662   1.507   2.524   2.061  0.2918  0.5976 -0.7190
 8342SOL    HW236663   1.479   2.436   1.947  0.1291 -2.4530  2.8983
 8343SOL     OW36664   3.106   4.447   2.919  0.2544 -0.0949 -0.5303
 8343SOL    HW136665   3.139   4.387   2.986  0.2719  1.9397  1.2695
 8343SOL    HW236666   3.171   4.516   2.932 -1.9098  1.8347  0.0923
 8344SOL     OW36667   2.611   2.569   3.981 -0.4161 -0.1140 -0.1598
 8344SOL    HW136668   2.554   2.603   4.050  0.2855  1.1194 -0.1912
 8344SOL    HW236669   2.693   2.550   4.026 -0.4052 -2.8034 -1.2998
 8345SOL     OW36670   2.806   4.732   6.278 -0.3961 -0.5414  0.3413
 8345SOL    HW136671   2.887   0.020   6.235 -1.8173  1.6019 -1.0241
 8345SOL    HW236672   2.776   0.079   6.313 -1.5763 -0.5793 -0.5887
 8346SOL     OW36673   2.414   2.110   7.864  0.7668 -0.6856  0.6271
 8346SOL    HW136674   2.497   2.140   7.900 -0.7846  2.6079  1.4135
 8346SOL    HW236675   2.454   2.083   7.780  3.6760  0.7251  1.5621
 8347SOL     OW36676   0.921   2.698   5.738 -0.2339 -0.3609  0.0705
 8347SOL    HW136677   0.838   2.720   5.696 -0.8254 -0.6055  1.1251
 8347SOL    HW236678   0.926   2.603   5.726  0.5786 -0.1969 -0.9614
 8348SOL     OW36679   0.073   4.681   6.210 -0.0676  0.0331  0.1978
 8348SOL    HW136680   0.095   4.704   6.120  1.5148  2.0026  1.0974
 8348SOL    HW236681   0.135   4.611   6.234 -0.7569 -0.7207 -0.2228
 8349SOL     OW36682   4.207   0.206   8.246 -0.3276 -0.5166 -0.0233
 8349SOL    HW136683   4.239   0.160   8.324 -1.9786  1.5657  1.9052
 8349SOL    HW236684   4.275   0.192   8.181 -0.4291 -0.3106 -0.1729
 8350SOL     OW36685   3.770   0.439   1.597 -0.5472  0.0198 -0.4465
 8350SOL    HW136686   3.847   0.488   1.624 -0.0455 -1.5591  1.0059
 8350SOL    HW236687   3.690   0.483   1.626 -0.4544  1.1331 -1.8321
 8351SOL     OW36688   4.177   3.026   3.601 -0.1055 -0.2093  0.6746
 8351SOL    HW136689   4.111   2.998   3.538  0.1707  2.6110 -0.8593
 8351SOL    HW236690   4.142   2.972   3.672 -1.1269  1.3260  1.3322
 8352SOL     OW36691   0.331   0.581   9.024 -0.5025  0.2404 -0.1140
 8352SOL    HW136692   0.266   0.510   9.023 -1.5224  1.1597  1.7942
 8352SOL    HW236693   0.417   0.541   9.032  0.5852  3.0078  2.0329
 8353SOL     OW36694   2.675   2.072   8.820  0.4387  0.2773 -0.1953
 8353SOL    HW136695   2.708   2.128   8.750  3.1262 -0.0971  0.7916
 8353SOL    HW236696   2.645   2.001   8.762  0.2789  1.7890 -1.9720
 8354SOL     OW36697   0.116   3.872   7.989 -0.0996 -0.1648 -0.3928
 8354SOL    HW136698   0.211   3.879   7.979 -0.1573  1.0990 -0.1166
 8354SOL    HW236699   0.096   3.784   7.957  0.4102 -0.1577 -0.7274
 8355SOL     OW36700   4.167   0.472   4.913 -0.4536 -0.5600 -0.3243
 8355SOL    HW136701   4.092   0.526   4.939  0.3416  0.2699  0.2631
 8355SOL    HW236702   4.135   0.406   4.852 -0.5998 -1.3778  0.6217
 8356SOL     OW36703   2.472   3.369   9.100  0.0613  0.3601  0.3223
 8356SOL    HW136704   2.471   3.336   9.010  1.9275  2.0028 -0.3039
 8356SOL    HW236705   2.490   3.461   9.080  2.1739 -0.4256 -1.4212
 8357SOL     OW36706   4.547   2.988   6.926  0.5050 -0.5242  0.1022
 8357SOL    HW136707   4.511   2.899   6.934 -1.5912  0.0969 -2.3559
 8357SOL    HW236708   4.632   2.974   6.886  0.8645 -1.3472  1.1385
 8358SOL     OW36709   0.986   2.570   7.861 -0.1516  0.2165 -0.4700
 8358SOL    HW136710   1.006   2.478   7.876  3.2621  1.0943  0.4983
 8358SOL    HW236711   1.076   2.599   7.875 -0.8768  1.0201  2.4042
 8359SOL     OW36712   1.889   3.215  13.256  0.2880 -0.2610  0.0393
 8359SOL    HW136713   1.827   3.237  13.187 -1.5100  0.7257  2.0040
 8359SOL    HW236714   1.912   3.302  13.287  2.8721 -1.7554  2.4228
 8360SOL     OW36715   2.158   0.435   6.808  0.0962 -0.2180 -0.1233
 8360SOL    HW136716   2.064   0.423   6.817 -0.2584 -0.4806 -4.2876
 8360SOL    HW236717   2.181   0.390   6.726  0.8735  0.5518 -0.3370
 8361SOL     OW36718   4.468   2.128   6.540  0.1649  0.3260 -0.2939
 8361SOL    HW136719   4.553   2.098   6.509  0.1296 -2.0058  1.8602
 8361SOL    HW236720   4.466   2.218   6.506 -1.6179  0.8001  1.0281
 8362SOL     OW36721   2.424   0.970   8.426  0.2553 -0.3320 -0.8203
 8362SOL    HW136722   2.460   0.908   8.363  0.0166 -2.6639  1.3503
 8362SOL    HW236723   2.419   0.925   8.510  0.1456 -1.4707 -1.4381
 8363SOL     OW36724   2.361   1.589   7.365  0.2734  0.6581 -0.5908
 8363SOL    HW136725   2.441   1.641   7.365  0.5469  0.2398  0.1027
 8363SOL    HW236726   2.357   1.565   7.458  1.6595 -0.9084 -0.9227
 8364SOL     OW36727   1.188   4.233  11.743 -0.1874 -0.3547  0.5787
 8364SOL    HW136728   1.120   4.290  11.709  1.9399  0.7898 -1.7546
 8364SOL    HW236729   1.246   4.288  11.796 -0.6096 -0.0331  0.7101
 8365SOL     OW36730   1.418   1.401   7.008  0.2900  0.3860 -0.1005
 8365SOL    HW136731   1.410   1.496   7.000  0.9508  0.3138 -1.6841
 8365SOL    HW236732   1.509   1.394   7.037 -0.1122  0.4282  1.1852
 8366SOL     OW36733   4.098   4.643   0.853 -0.0025 -0.1314 -0.7524
 8366SOL    HW136734   4.170   4.685   0.899 -0.9502  1.3243 -0.5678
 8366SOL    HW236735   4.026   4.690   0.895 -0.1828 -2.1815  1.2134
 8367SOL     OW36736   1.863   4.087   6.817 -0.6362 -0.0853  0.0183
 8367SOL    HW136737   1.882   4.007   6.866  2.1347 -0.5962 -1.8795
 8367SOL    HW236738   1.952   4.120   6.833 -0.0610  0.0933 -3.6635
 8368SOL     OW36739   1.331   0.800   6.148  0.3044  0.1579  0.2484
 8368SOL    HW136740   1.395   0.760   6.206  1.1164  0.6680 -0.3062
 8368SOL    HW236741   1.263   0.832   6.208 -2.6059 -1.6775 -2.0360
 8369SOL     OW36742   1.024   3.081   3.231 -0.1365 -0.3712  0.2989
 8369SOL    HW136743   0.981   3.013   3.283  0.8830 -0.4137  1.0838
 8369SOL    HW236744   1.069   3.134   3.297  0.7726 -2.0049  0.9993
 8370SOL     OW36745   2.808   0.779   3.814  0.2522  0.4798  0.0258
 8370SOL    HW136746   2.896   0.764   3.850 -1.1677 -0.9293  2.8994
 8370SOL    HW236747   2.823   0.836   3.739  0.8188 -2.1407 -1.8531
 8371SOL     OW36748   4.511   1.082   9.781 -0.0910  0.4159  0.4573
 8371SOL    HW136749   4.533   1.021   9.711 -1.4243  0.7108 -0.2307
 8371SOL    HW236750   4.415   1.087   9.772  0.0047 -2.2090 -1.5922
 8372SOL     OW36751   0.076   1.054   2.626  1.1173  0.1764 -0.1752
 8372SOL    HW136752   0.037   1.125   2.575 -0.5484 -1.4990 -1.2268
 8372SOL    HW236753   0.041   1.069   2.714  1.0715 -0.1714 -0.1359
 8373SOL     OW36754   4.271   2.794   3.030 -0.3584 -0.6714  0.1384
 8373SOL    HW136755   4.290   2.738   3.105  1.3140 -1.0766 -0.5963
 8373SOL    HW236756   4.187   2.759   2.999  0.2844 -0.7195 -1.5302
 8374SOL     OW36757   0.106   3.845   2.525  0.0208 -0.9720  0.1360
 8374SOL    HW136758   0.011   3.847   2.509  0.0782  1.5377  0.0991
 8374SOL    HW236759   0.115   3.908   2.596 -1.2246 -1.8182  1.0539
 8375SOL     OW36760   1.307   4.196   3.560  0.3902 -0.3012  0.5375
 8375SOL    HW136761   1.373   4.261   3.583  1.7503 -0.9407 -1.5803
 8375SOL    HW236762   1.361   4.117   3.568  0.2649 -0.5526 -1.2098
 8376SOL     OW36763   1.829   1.266   4.281  0.1494  0.5725 -0.1266
 8376SOL    HW136764   1.915   1.234   4.255 -0.2346  0.0379 -0.7333
 8376SOL    HW236765   1.834   1.362   4.273 -0.4665  0.6347  0.2492
 8377SOL     OW36766   4.630   2.321   9.434  0.6153  0.0050 -0.3113
 8377SOL    HW136767   4.660   2.368   9.356 -0.2120  1.1142  0.0388
 8377SOL    HW236768   4.575   2.387   9.478 -0.8982 -1.3393 -0.1688
 8378SOL     OW36769   1.129   2.956  12.331 -0.2366 -0.4290 -0.4993
 8378SOL    HW136770   1.148   3.024  12.267 -1.3786  0.4758  0.1166
 8378SOL    HW236771   1.080   3.007  12.396  2.1057  2.3208 -0.9355
 8379SOL     OW36772   3.192   4.125   2.828 -0.0257  0.8117  0.3801
 8379SOL    HW136773   3.127   4.082   2.884 -1.2239  2.9975  0.6466
 8379SOL    HW236774   3.265   4.128   2.890 -0.3621  2.5633  0.6950
 8380SOL     OW36775   0.950   0.587   4.065 -0.0166 -0.2694 -0.1388
 8380SOL    HW136776   0.881   0.643   4.102 -0.6062 -1.2460  0.2357
 8380SOL    HW236777   0.918   0.593   3.975 -0.0962  0.6919 -0.0563
 8381SOL     OW36778   4.167   0.166   5.861 -0.0887  0.0996  0.7293
 8381SOL    HW136779   4.095   0.136   5.917 -1.5224 -1.0300 -1.7015
 8381SOL    HW236780   4.207   0.221   5.928  1.6287 -0.2914  0.0420
 8382SOL     OW36781   3.366   2.586  10.429  0.1663  0.2754 -0.5786
 8382SOL    HW136782   3.348   2.517  10.493  2.2729 -1.1838 -1.5529
 8382SOL    HW236783   3.337   2.671  10.464 -0.4430 -1.3515  2.9444
 8383SOL     OW36784   2.994   3.019   3.633  0.0745  0.8214  0.0980
 8383SOL    HW136785   2.916   2.964   3.640  0.5956  0.2655  1.5716
 8383SOL    HW236786   2.965   3.089   3.575 -1.6130 -1.9965 -2.4095
 8384SOL     OW36787   1.604   3.360  12.635 -0.4035 -0.4270  0.0847
 8384SOL    HW136788   1.581   3.387  12.546 -0.5657 -0.8279  0.0061
 8384SOL    HW236789   1.575   3.269  12.635 -0.1753 -0.5035 -0.6732
 8385SOL     OW36790   0.986   4.289   6.011 -0.3290  0.1329  0.5506
 8385SOL    HW136791   1.039   4.324   6.083  0.7008 -0.7201  0.2140
 8385SOL    HW236792   1.033   4.324   5.935 -1.2840  1.1403  0.4383
 8386SOL     OW36793   1.889   2.502   1.276 -0.2840  0.2148 -0.2206
 8386SOL    HW136794   1.919   2.415   1.250  1.0270  0.5010  0.3048
 8386SOL    HW236795   1.918   2.548   1.197 -0.9930 -0.6573 -0.9837
 8387SOL     OW36796   2.684   2.341   9.992 -0.1494 -0.1279  0.1117
 8387SOL    HW136797   2.744   2.341   9.917  1.3256  2.6294  1.3269
 8387SOL    HW236798   2.673   2.248  10.012 -0.9608 -0.1148 -0.2559
 8388SOL     OW36799   4.457   4.703   3.587  0.2445  0.7991 -0.0387
 8388SOL    HW136800   4.488   0.039   3.534  2.5384 -1.0924 -1.2903
 8388SOL    HW236801   4.490   4.626   3.542  0.1937  1.0030 -0.4243
 8389SOL     OW36802   4.311   1.639   9.252 -0.6443 -0.5586  0.1407
 8389SOL    HW136803   4.368   1.703   9.210 -0.5387  0.0836  1.2482
 8389SOL    HW236804   4.278   1.687   9.328 -0.2980 -0.2302  0.0821
 8390SOL     OW36805   2.362   1.846   8.081 -1.1599  0.1523 -0.1568
 8390SOL    HW136806   2.404   1.782   8.139  0.2684 -0.6609 -2.0755
 8390SOL    HW236807   2.279   1.801   8.065 -2.0344  1.9595 -0.6428
 8391SOL     OW36808   0.451   3.718   4.407 -0.0842  0.5498  0.0580
 8391SOL    HW136809   0.449   3.633   4.450  0.0743  0.6841  0.3309
 8391SOL    HW236810   0.479   3.696   4.318 -2.4227  1.7148 -0.9861
 8392SOL     OW36811   1.383   2.704   3.107 -0.0879  0.3406  0.1374
 8392SOL    HW136812   1.297   2.741   3.125 -0.3143  0.6424 -1.6341
 8392SOL    HW236813   1.444   2.777   3.111  1.3941 -0.8276 -1.1741
 8393SOL     OW36814   2.068   0.550  17.726  0.2759  0.1220  0.4737
 8393SOL    HW136815   2.141   0.532  17.666 -1.2893 -3.3553 -0.3961
 8393SOL    HW236816   2.084   0.637   0.011 -0.6646  0.4536  0.0612
 8394SOL     OW36817   2.826   3.576   9.260 -0.1102  0.3001 -0.3518
 8394SOL    HW136818   2.774   3.579   9.180 -2.1928 -0.4572  0.9830
 8394SOL    HW236819   2.788   3.504   9.311 -0.4907 -0.3973 -1.6253
 8395SOL     OW36820   4.482   2.720   6.922 -0.0503 -0.1605 -0.0888
 8395SOL    HW136821   4.498   2.636   6.967 -1.5267 -1.6254 -2.3272
 8395SOL    HW236822   4.392   2.708   6.892 -0.2607  3.0469 -0.7192
 8396SOL     OW36823   4.460   3.314   9.016 -0.0481 -0.2614 -0.7486
 8396SOL    HW136824   4.398   3.334   8.947  0.4738  0.0488 -1.1288
 8396SOL    HW236825   4.542   3.352   8.986  0.3831  0.6572  1.5953
 8397SOL     OW36826   4.089   0.642   2.491  0.4274 -0.7794 -0.6125
 8397SOL    HW136827   3.999   0.618   2.511  0.6166  0.8002  2.2500
 8397SOL    HW236828   4.140   0.568   2.523  1.6145 -0.2936 -1.3394
 8398SOL     OW36829   0.700   3.085   3.364  0.5005 -0.7661  0.4254
 8398SOL    HW136830   0.703   3.105   3.270 -1.9692 -1.8861  0.1072
 8398SOL    HW236831   0.713   2.990   3.367  2.2123 -0.6113 -1.8081
 8399SOL     OW36832   0.379   4.442   2.855 -0.1779  0.3293  0.5667
 8399SOL    HW136833   0.401   4.420   2.764  2.0762  0.1908  1.1547
 8399SOL    HW236834   0.292   4.402   2.861 -1.8868  3.7623 -1.8284
 8400SOL     OW36835   3.597   3.212   1.562  0.2884  0.1209 -0.0510
 8400SOL    HW136836   3.662   3.230   1.494 -1.1474  2.0148 -0.9245
 8400SOL    HW236837   3.635   3.270   1.627 -1.5339 -1.0384  2.0542
 8401SOL     OW36838   3.290   0.633   3.350 -0.2052  0.3961 -1.0767
 8401SOL    HW136839   3.226   0.588   3.294 -1.4313  0.8003 -0.0103
 8401SOL    HW236840   3.309   0.699   3.283 -0.2226  1.5693  0.0690
 8402SOL     OW36841   3.214   4.442  10.060 -0.4778 -0.0917 -0.1915
 8402SOL    HW136842   3.251   4.450   9.972  2.9388  0.3544  1.2792
 8402SOL    HW236843   3.287   4.411  10.114 -1.9493 -1.5474  0.9569
 8403SOL     OW36844   1.912   1.432   8.507  0.4121 -0.4794  0.0638
 8403SOL    HW136845   1.990   1.410   8.557  0.5974 -1.2810 -0.5953
 8403SOL    HW236846   1.863   1.470   8.581 -0.3596 -0.5106 -0.4286
 8404SOL     OW36847   4.216   1.688   2.980 -0.2297 -0.2534  0.6691
 8404SOL    HW136848   4.252   1.601   2.997 -0.7776 -1.2327 -3.2104
 8404SOL    HW236849   4.252   1.710   2.894 -2.2852 -0.4047 -0.2313
 8405SOL     OW36850   1.902   1.914   9.280 -0.4347 -0.1455 -0.8247
 8405SOL    HW136851   1.995   1.936   9.278 -0.6490  0.7268 -1.0332
 8405SOL    HW236852   1.893   1.889   9.188  1.2148 -1.9802 -0.4785
 8406SOL     OW36853   2.555   3.871  16.029  0.2338 -0.1996  0.7144
 8406SOL    HW136854   2.501   3.869  16.108 -2.2860 -1.3613 -1.0142
 8406SOL    HW236855   2.646   3.881  16.056  1.0161 -0.5724 -1.7682
 8407SOL     OW36856   2.490   2.481   9.621 -0.0658  0.1117 -0.0689
 8407SOL    HW136857   2.528   2.545   9.680 -0.8942  0.3737  0.1743
 8407SOL    HW236858   2.419   2.533   9.582 -0.8532 -0.5227  0.5103
 8408SOL     OW36859   3.796   2.761   0.823 -0.3100 -0.4909 -0.5315
 8408SOL    HW136860   3.726   2.763   0.758 -0.9599  1.0622  0.2103
 8408SOL    HW236861   3.739   2.750   0.899 -1.2867 -1.9772 -1.4864
 8409SOL     OW36862   2.074   0.827   8.971 -0.2714  0.2361  0.2192
 8409SOL    HW136863   1.992   0.843   9.017 -0.2473 -0.4776  0.5030
 8409SOL    HW236864   2.062   0.869   8.886 -0.3364 -1.3898 -0.5652
 8410SOL     OW36865   0.325   2.264   5.439 -0.5602  0.3789 -0.0292
 8410SOL    HW136866   0.335   2.199   5.370 -0.0929 -0.9352  1.2858
 8410SOL    HW236867   0.413   2.301   5.439 -0.5350  0.3236 -0.4274
 8411SOL     OW36868   4.408   1.379   0.032  0.0303  0.1955 -0.3479
 8411SOL    HW136869   4.313   1.364   0.032 -0.2046  1.5462 -3.5275
 8411SOL    HW236870   4.426   1.314   0.100 -2.1808  2.3621  2.3434
 8412SOL     OW36871   3.368   3.574   5.904 -0.5709 -0.5994  0.5667
 8412SOL    HW136872   3.414   3.635   5.961 -1.0816  2.3477 -2.2085
 8412SOL    HW236873   3.433   3.506   5.885  0.6091  0.6265  0.2288
 8413SOL     OW36874   1.443   3.777   0.993  0.4314  0.3229 -0.4590
 8413SOL    HW136875   1.430   3.835   1.068  3.4854  0.3344  0.0662
 8413SOL    HW236876   1.444   3.841   0.922 -3.2283  1.2960  0.3608
 8414SOL     OW36877   2.162   3.376  15.421 -0.4467  0.0592  0.4903
 8414SOL    HW136878   2.178   3.423  15.339 -1.5797  0.9261  0.7594
 8414SOL    HW236879   2.112   3.302  15.387 -0.1023  0.1641 -0.2629
 8415SOL     OW36880   0.123   2.317   7.348  0.0628  0.0966 -0.5783
 8415SOL    HW136881   0.168   2.253   7.403 -0.3030 -0.1376 -0.5465
 8415SOL    HW236882   0.188   2.325   7.279  1.9153  0.4261  1.1987
 8416SOL     OW36883   2.182   4.647   9.145 -0.3674 -0.3630  0.1443
 8416SOL    HW136884   2.223   4.724   9.185 -1.3629 -1.2002  2.7378
 8416SOL    HW236885   2.104   4.689   9.110  0.3357 -0.1924 -1.2196
 8417SOL     OW36886   0.838   2.407   4.607 -0.0486 -0.1259  0.1158
 8417SOL    HW136887   0.830   2.312   4.598 -0.7944  0.1525 -1.9521
 8417SOL    HW236888   0.914   2.424   4.664 -0.6688  1.5815  0.4400
 8418SOL     OW36889   3.438   0.915   3.608  0.5848 -0.1271  0.2036
 8418SOL    HW136890   3.344   0.929   3.599  0.4395 -1.2224 -0.0567
 8418SOL    HW236891   3.469   0.999   3.576 -0.2976  0.8236  1.8767
 8419SOL     OW36892   4.254   4.156  15.865  0.4193 -0.4082 -0.1379
 8419SOL    HW136893   4.234   4.211  15.789  0.5381 -0.9384 -0.5545
 8419SOL    HW236894   4.282   4.221  15.929 -0.5972 -0.0892 -0.0045
 8420SOL     OW36895   0.170   4.212   3.679  0.2171 -0.1428 -0.1443
 8420SOL    HW136896   0.092   4.161   3.656 -0.8194  1.0807  0.6570
 8420SOL    HW236897   0.212   4.144   3.732 -1.5746 -0.0971  1.3501
 8421SOL     OW36898   4.288   4.041   4.979  0.2423  0.5273  0.3440
 8421SOL    HW136899   4.373   4.069   4.944  0.4797 -0.6723 -0.0139
 8421SOL    HW236900   4.280   3.950   4.952 -1.1186  0.6398  0.3519
 8422SOL     OW36901   3.890   4.355   5.408 -0.1257 -0.8532 -0.2871
 8422SOL    HW136902   3.838   4.404   5.471  0.9378 -0.2971  0.1702
 8422SOL    HW236903   3.860   4.265   5.420  1.8139 -1.2263  1.7471
 8423SOL     OW36904   3.877   0.831   2.750 -0.4408  0.3219  0.0699
 8423SOL    HW136905   3.870   0.736   2.761  0.4341  0.2372 -0.0929
 8423SOL    HW236906   3.818   0.831   2.674  3.2572 -0.0389 -2.7627
 8424SOL     OW36907   1.135   2.357   5.090  0.4756 -0.2231 -0.0910
 8424SOL    HW136908   1.073   2.422   5.124  1.5682  1.4793 -1.3453
 8424SOL    HW236909   1.217   2.381   5.134  0.2941 -1.5379  0.9828
 8425SOL     OW36910   4.666   4.195  11.608 -0.4267  0.6675  0.2226
 8425SOL    HW136911   0.001   4.252  11.632 -0.7495  1.8217 -1.5430
 8425SOL    HW236912   4.630   4.237  11.530 -2.5406 -1.7526 -0.1096
 8426SOL     OW36913   1.957   1.727   2.346  0.1005 -0.5750  0.6390
 8426SOL    HW136914   1.951   1.634   2.371  0.2931 -0.5228  0.8806
 8426SOL    HW236915   1.906   1.769   2.415  1.9304  1.3370  0.8370
 8427SOL     OW36916   1.818   4.282   8.743 -0.1062 -0.3624  0.6149
 8427SOL    HW136917   1.780   4.251   8.661  3.1348 -0.4480 -0.8754
 8427SOL    HW236918   1.748   4.266   8.806  0.9811 -2.0743  1.3749
 8428SOL     OW36919   3.200   1.624   2.950  0.3840 -0.0003  0.7316
 8428SOL    HW136920   3.143   1.548   2.936 -1.5643  1.1685  2.3655
 8428SOL    HW236921   3.145   1.700   2.933  0.5447 -0.7217 -2.8569
 8429SOL     OW36922   3.266   3.973   2.576  0.2237  0.2502 -0.7271
 8429SOL    HW136923   3.182   3.962   2.530 -0.1192  0.1688 -0.0802
 8429SOL    HW236924   3.240   4.028   2.650  1.1054 -0.4084  0.0667
 8430SOL     OW36925   0.380   4.416   7.947 -0.1679  0.0896  0.2255
 8430SOL    HW136926   0.335   4.416   8.031 -1.0262 -0.5340 -0.2329
 8430SOL    HW236927   0.464   4.455   7.972  0.1970 -0.6548  0.1889
 8431SOL     OW36928   2.333   2.528   6.255  0.2939 -0.6828  0.1244
 8431SOL    HW136929   2.273   2.456   6.234  0.9900 -1.0905 -0.4784
 8431SOL    HW236930   2.390   2.485   6.319  0.0182  0.7615  1.3427
 8432SOL     OW36931   4.276   2.243   8.870 -0.3581 -0.0928 -0.6894
 8432SOL    HW136932   4.215   2.314   8.889  0.3177  0.5942 -1.0808
 8432SOL    HW236933   4.312   2.264   8.784 -2.3610  0.6400 -1.3384
 8433SOL     OW36934   0.070   1.102   9.174  0.5604 -0.2057  0.0853
 8433SOL    HW136935   0.082   1.099   9.079  1.4203  0.5361  0.1690
 8433SOL    HW236936   0.067   1.197   9.182 -0.0508 -0.2525  0.3935
 8434SOL     OW36937   2.935   2.361  10.464  0.0162 -0.1435  0.3255
 8434SOL    HW136938   2.963   2.413  10.539 -0.9764 -1.0325  1.3057
 8434SOL    HW236939   2.975   2.414  10.395 -1.8799 -0.0984 -0.7281
 8435SOL     OW36940   0.922   1.485   7.209  0.2782 -0.0588  0.0879
 8435SOL    HW136941   0.869   1.405   7.209 -1.7029  1.2531 -0.8456
 8435SOL    HW236942   0.999   1.455   7.257  2.1071  1.3281 -1.9945
 8436SOL     OW36943   1.511   0.943   4.364  0.3458 -0.0966 -0.2550
 8436SOL    HW136944   1.417   0.937   4.380  0.1246  0.1587 -1.4676
 8436SOL    HW236945   1.505   0.879   4.293 -1.4355  1.1068 -1.1843
 8437SOL     OW36946   0.960   0.317   6.762  0.5057 -0.6059 -0.2306
 8437SOL    HW136947   0.901   0.377   6.715 -0.2685 -1.0325  0.1955
 8437SOL    HW236948   0.921   0.231   6.746 -1.3829  0.3956 -1.1366
 8438SOL     OW36949   1.218   1.213   7.069 -0.0723  0.0523 -0.0253
 8438SOL    HW136950   1.289   1.278   7.066 -0.3322  0.3163 -0.3944
 8438SOL    HW236951   1.148   1.268   7.105 -0.1403  0.0518 -0.1574
 8439SOL     OW36952   3.286   0.586   5.094  0.0683  0.1079 -0.4947
 8439SOL    HW136953   3.326   0.596   5.180 -1.5690 -3.0910  0.6176
 8439SOL    HW236954   3.359   0.575   5.032  0.8372  0.8574  0.2735
 8440SOL     OW36955   0.814   3.288   8.645  0.5734 -0.5204 -0.2512
 8440SOL    HW136956   0.837   3.215   8.703 -1.0673 -0.2996  0.6605
 8440SOL    HW236957   0.904   3.321   8.644  0.1347  0.6003 -3.7600
 8441SOL     OW36958   2.954   1.853   3.830  0.0956  0.8025  0.3732
 8441SOL    HW136959   2.897   1.930   3.827  1.4389  1.6721 -2.8441
 8441SOL    HW236960   2.888   1.791   3.862 -1.2433  1.7277 -0.5959
 8442SOL     OW36961   1.651   2.599   0.238 -0.0693  0.4932  0.0767
 8442SOL    HW136962   1.562   2.622   0.264 -0.5239 -0.4868 -0.6454
 8442SOL    HW236963   1.639   2.507   0.216 -0.2404  1.0218 -2.0026
 8443SOL     OW36964   2.708   1.257   9.277  0.1116  0.2728  0.0244
 8443SOL    HW136965   2.697   1.165   9.254 -0.8962  0.4277 -0.1049
 8443SOL    HW236966   2.679   1.262   9.368 -1.2299  3.5266 -0.5726
 8444SOL     OW36967   3.008   0.709  16.662 -0.1350 -0.5289  0.2074
 8444SOL    HW136968   2.967   0.741  16.581 -1.9595  0.9614  1.7156
 8444SOL    HW236969   2.988   0.616  16.654 -0.4636 -0.3364 -1.3010
 8445SOL     OW36970   3.331   3.449  10.100  0.1027 -0.1419 -0.0482
 8445SOL    HW136971   3.382   3.394  10.040  1.0486 -0.1296  0.7524
 8445SOL    HW236972   3.244   3.409  10.099  0.9846 -2.0626  0.0929
 8446SOL     OW36973   1.948   1.962  11.656  0.5985 -0.0869  0.3655
 8446SOL    HW136974   2.030   1.979  11.702  0.1735 -1.7757  1.7450
 8446SOL    HW236975   1.927   2.043  11.611 -0.6664 -1.4727 -1.5646
 8447SOL     OW36976   3.132   1.534   3.785  0.4350 -0.0461  0.1197
 8447SOL    HW136977   3.186   1.463   3.752 -0.1825 -0.2097 -0.5470
 8447SOL    HW236978   3.044   1.513   3.753  1.5389 -3.8052 -0.3610
 8448SOL     OW36979   2.687   0.074   5.424 -0.0902 -0.1711 -0.4988
 8448SOL    HW136980   2.757   0.079   5.490 -0.3537  1.2072 -0.3309
 8448SOL    HW236981   2.701   0.152   5.371 -0.0760  1.3765  1.7665
 8449SOL     OW36982   0.659   2.500   7.426 -0.0225  0.3344  0.5065
 8449SOL    HW136983   0.726   2.565   7.402 -0.4094  0.3233 -0.5963
 8449SOL    HW236984   0.607   2.486   7.347  2.0464  1.6430 -1.1210
 8450SOL     OW36985   1.219   1.410  12.816  0.1542  0.0503  0.0722
 8450SOL    HW136986   1.225   1.352  12.892  0.3356  1.9131  1.4606
 8450SOL    HW236987   1.298   1.378  12.772 -0.7280 -1.0735 -0.7124
 8451SOL     OW36988   3.999   3.979  12.014 -0.0557  0.4806  0.2866
 8451SOL    HW136989   3.951   4.060  12.001  2.6448  1.9434 -0.5743
 8451SOL    HW236990   3.987   3.937  11.928 -0.2406  0.9170  0.0981
 8452SOL     OW36991   3.943   2.570   5.151  0.0848 -0.5162 -0.7819
 8452SOL    HW136992   4.010   2.561   5.083  1.0420 -1.3942  0.2828
 8452SOL    HW236993   3.972   2.516   5.224  0.2639 -1.1147 -1.3059
 8453SOL     OW36994   2.833   0.471   3.290  0.5842  0.2282  0.3903
 8453SOL    HW136995   2.756   0.432   3.249  0.4776  0.3428  0.4808
 8453SOL    HW236996   2.821   0.559   3.254 -1.9674 -0.6138 -0.8412
 8454SOL     OW36997   3.047   2.915   0.299  0.0930 -0.4018  0.8564
 8454SOL    HW136998   3.103   2.855   0.348  0.6924 -0.6363 -0.1055
 8454SOL    HW236999   2.966   2.921   0.349 -0.4346  3.5191 -0.4903
 8455SOL     OW37000   0.198   1.188   5.469 -0.1956 -0.3940 -0.4176
 8455SOL    HW137001   0.136   1.181   5.541  0.3202 -2.2159 -0.1656
 8455SOL    HW237002   0.145   1.182   5.389 -0.2355 -0.7759 -0.3621
 8456SOL     OW37003   0.007   0.384   7.636 -0.0095  0.2899  0.0690
 8456SOL    HW137004   4.726   0.447   7.705  2.9173 -0.3695  1.4757
 8456SOL    HW237005   0.008   0.299   7.681 -3.4479  0.5984  0.7735
 8457SOL     OW37006   1.449   0.826   2.875 -0.5016  0.2066 -0.2528
 8457SOL    HW137007   1.385   0.773   2.922 -2.2908  0.4710 -2.3840
 8457SOL    HW237008   1.428   0.905   2.925  2.1328 -0.1418  1.3877
 8458SOL     OW37009   2.063   3.789   7.939  0.1414  0.1877  0.4246
 8458SOL    HW137010   2.152   3.762   7.962  0.1107  0.8324  1.2823
 8458SOL    HW237011   2.032   3.713   7.889  1.3805 -1.5556  2.3106
 8459SOL     OW37012   1.006   3.489   0.006  0.1788 -0.4549  0.0007
 8459SOL    HW137013   0.963   3.406   0.026  1.0699 -0.3046  2.5660
 8459SOL    HW237014   1.000   3.493  17.661 -0.8440  0.4405  0.1107
 8460SOL     OW37015   3.600   0.040   3.141 -0.3813  0.6285 -1.0152
 8460SOL    HW137016   3.657   0.008   3.211 -0.0263  0.2814 -1.4659
 8460SOL    HW237017   3.515   0.050   3.184 -1.2770  1.0236 -2.9052
 8461SOL     OW37018   1.273   1.802  16.373  0.5288  0.2658  0.4397
 8461SOL    HW137019   1.226   1.882  16.396  0.7772  0.1231  1.4407
 8461SOL    HW237020   1.236   1.775  16.289 -0.4535 -0.9697  1.2595
 8462SOL     OW37021   1.840   2.732   8.200  0.1114  0.3152 -0.3276
 8462SOL    HW137022   1.920   2.754   8.247 -0.3074  1.7251 -0.2653
 8462SOL    HW237023   1.789   2.670   8.252  0.6396 -0.0179 -0.2155
 8463SOL     OW37024   4.013   4.372   3.871 -0.3174  0.1264  0.2351
 8463SOL    HW137025   4.038   4.405   3.957 -2.1629 -0.1497  0.8941
 8463SOL    HW237026   3.931   4.420   3.857  0.7444  0.8668 -3.4261
 8464SOL     OW37027   3.495   0.628  10.767  0.3618 -0.1511 -0.4639
 8464SOL    HW137028   3.564   0.694  10.764 -0.6837  0.9608 -0.2267
 8464SOL    HW237029   3.486   0.613  10.861 -3.1048 -1.5522 -1.0203
 8465SOL     OW37030   3.777   2.376   3.367 -0.0178 -0.1488 -0.1782
 8465SOL    HW137031   3.731   2.460   3.362 -2.9208 -1.5461  2.8250
 8465SOL    HW237032   3.715   2.315   3.327  0.7965 -1.3270  0.3287
 8466SOL     OW37033   4.300   4.621   8.277 -0.0077  0.6531  0.4187
 8466SOL    HW137034   4.356   4.651   8.349 -2.5764  3.7475  1.1510
 8466SOL    HW237035   4.361   4.622   8.203  0.3917  2.9015  0.7741
 8467SOL     OW37036   1.595   0.504   5.496 -0.0763  0.3983  0.0809
 8467SOL    HW137037   1.569   0.478   5.584  0.5763  0.1352  0.1930
 8467SOL    HW237038   1.581   0.599   5.503  1.2026  0.6193 -0.2734
 8468SOL     OW37039   1.286   2.916   7.586 -0.1154  0.0158  0.6655
 8468SOL    HW137040   1.279   3.009   7.564 -1.2269  0.1139  1.4623
 8468SOL    HW237041   1.359   2.914   7.648  0.9289  0.2088 -0.5697
 8469SOL     OW37042   1.034   2.078   5.517  0.0568 -0.1079  0.6062
 8469SOL    HW137043   0.982   2.120   5.585  0.6671  0.6451  0.6046
 8469SOL    HW237044   1.063   1.998   5.561  0.3389 -1.2280 -1.5794
 8470SOL     OW37045   1.441   0.966   6.857 -0.2849 -0.6798  0.0738
 8470SOL    HW137046   1.506   0.980   6.925  0.8862  2.4987 -1.7007
 8470SOL    HW237047   1.358   0.958   6.904 -1.4041  2.7090 -1.3439
 8471SOL     OW37048   3.223   1.815   5.571  0.1036  0.4337 -0.0495
 8471SOL    HW137049   3.185   1.892   5.527  0.3572 -0.6491 -2.1928
 8471SOL    HW237050   3.206   1.832   5.663  1.8430  0.2689  0.2840
 8472SOL     OW37051   1.449   3.849  10.597  0.1972 -0.3891  0.4518
 8472SOL    HW137052   1.372   3.806  10.560 -0.7554  0.9663  0.8536
 8472SOL    HW237053   1.409   3.886  10.676 -0.3122 -0.3933  0.1915
 8473SOL     OW37054   4.274   4.157   6.674  0.3594  0.2473  0.1796
 8473SOL    HW137055   4.229   4.073   6.683  1.7968 -0.7919 -2.3455
 8473SOL    HW237056   4.195   4.211   6.668 -0.4423 -0.8086  1.2918
 8474SOL     OW37057   2.927   3.728  13.388 -0.1008  1.1451  0.3691
 8474SOL    HW137058   2.949   3.693  13.475 -4.5301 -0.4338  0.8355
 8474SOL    HW237059   3.012   3.739  13.345  0.1942  0.2525  0.7394
 8475SOL     OW37060   2.740   4.293   1.416 -0.3481  0.4254  0.5103
 8475SOL    HW137061   2.670   4.353   1.441 -2.3834 -3.0452  3.1099
 8475SOL    HW237062   2.734   4.269   1.323 -1.0833 -0.8642  0.8972
 8476SOL     OW37063   4.235   0.392   9.198  0.5592 -0.6689  0.2260
 8476SOL    HW137064   4.201   0.442   9.272  1.8338 -3.1033  2.4340
 8476SOL    HW237065   4.325   0.379   9.226  1.3730 -0.6845 -2.3848
 8477SOL     OW37066   2.347   0.671   4.531  0.1652  0.1063 -0.3441
 8477SOL    HW137067   2.344   0.622   4.449 -2.4082 -0.5654  0.1442
 8477SOL    HW237068   2.423   0.627   4.568 -0.0931  0.9158  1.1797
 8478SOL     OW37069   3.031   4.407   7.693 -0.0755  0.3828 -0.3562
 8478SOL    HW137070   2.950   4.451   7.668 -2.0873 -3.2053 -0.1209
 8478SOL    HW237071   3.014   4.385   7.785  0.5129 -0.7893 -0.5259
 8479SOL     OW37072   1.768   4.626   0.067 -0.1644  0.2511  0.0279
 8479SOL    HW137073   1.689   4.675   0.089  0.4498  1.7967 -1.2094
 8479SOL    HW237074   1.820   4.663   0.138  0.4818  0.0964 -0.3608
 8480SOL     OW37075   4.459   3.951   7.619  0.1584  0.3201 -0.2679
 8480SOL    HW137076   4.424   3.973   7.706 -1.2317  2.3801 -1.3339
 8480SOL    HW237077   4.434   3.859   7.627 -1.3117  1.0773  3.8981
 8481SOL     OW37078   2.812   2.072   1.878 -0.3920 -0.0299  0.1513
 8481SOL    HW137079   2.763   2.079   1.796  1.2410 -1.4957 -0.9539
 8481SOL    HW237080   2.824   1.978   1.891  2.3319  0.2242 -0.6643
 8482SOL     OW37081   1.965   2.972   7.345 -0.5515 -0.1559  0.3078
 8482SOL    HW137082   2.033   3.015   7.397 -0.5252 -0.4340  0.5026
 8482SOL    HW237083   1.912   2.941   7.418 -0.1041 -1.2149  0.1803
 8483SOL     OW37084   0.410   3.065  17.460 -0.3059 -0.5049 -0.5007
 8483SOL    HW137085   0.471   3.106  17.399  0.3615  1.7171  1.6856
 8483SOL    HW237086   0.390   2.985  17.411 -0.4594 -0.1238 -1.0560
 8484SOL     OW37087   1.733   2.509   3.894 -0.3732  0.2072  0.2839
 8484SOL    HW137088   1.820   2.515   3.934  0.5093 -0.6140 -1.5197
 8484SOL    HW237089   1.764   2.489   3.806  0.3569  1.2182  0.3087
 8485SOL     OW37090   0.602   1.899   6.350  0.0410  0.6889  0.4023
 8485SOL    HW137091   0.638   1.976   6.307 -2.4568  0.4227 -2.1647
 8485SOL    HW237092   0.560   1.942   6.425  1.1636  0.6878  1.0445
 8486SOL     OW37093   0.049   2.946   1.652 -0.5253 -0.7651 -0.4546
 8486SOL    HW137094   0.022   2.872   1.597 -1.0695 -1.8530  1.2515
 8486SOL    HW237095   0.126   2.907   1.693 -0.2583  0.8877  0.5962
 8487SOL     OW37096   1.896   0.974   5.778 -0.2689  0.3293 -0.0116
 8487SOL    HW137097   1.864   1.064   5.774 -3.0285 -0.6607 -0.2295
 8487SOL    HW237098   1.961   0.991   5.846  0.1449  1.1206 -0.6052
 8488SOL     OW37099   0.320   3.201   2.650  0.0872 -0.1706  0.5506
 8488SOL    HW137100   0.292   3.115   2.617 -1.8981  1.0901 -1.0154
 8488SOL    HW237101   0.414   3.182   2.642  0.1443  1.4620 -2.4722
 8489SOL     OW37102   0.054   0.914  11.832  0.3779 -0.0777 -0.5692
 8489SOL    HW137103   0.118   0.883  11.896  0.4609 -0.2511 -0.7343
 8489SOL    HW237104   4.722   0.946  11.889  0.8202  0.0309 -0.0856
 8490SOL     OW37105   2.865   1.138   6.926  0.5383 -0.3547  0.4993
 8490SOL    HW137106   2.774   1.112   6.937 -0.5506  2.7998 -1.1550
 8490SOL    HW237107   2.856   1.185   6.843 -1.1530  0.4729  1.1435
 8491SOL     OW37108   4.191   0.929  10.296  0.0624  0.4719  0.4784
 8491SOL    HW137109   4.211   1.003  10.353 -0.7402  0.5331  0.6842
 8491SOL    HW237110   4.238   0.862  10.345 -0.5382 -0.6475 -0.4929
 8492SOL     OW37111   1.980   0.194  13.674 -0.5220 -0.0274 -0.1373
 8492SOL    HW137112   1.954   0.259  13.740  1.8636  1.1327 -0.3318
 8492SOL    HW237113   1.944   0.227  13.592  2.7313  1.6332 -0.8949
 8493SOL     OW37114   4.643   3.161   5.289 -0.0611  0.3529 -0.4850
 8493SOL    HW137115   4.570   3.221   5.305  0.1628  0.5838 -0.3380
 8493SOL    HW237116   4.628   3.146   5.195  0.0408 -1.8254 -0.1394
 8494SOL     OW37117   0.585   3.009   4.488 -0.4373  0.4058 -0.4343
 8494SOL    HW137118   0.556   3.056   4.410  0.3140  0.2181 -0.8313
 8494SOL    HW237119   0.502   3.003   4.534 -0.9914 -0.0746 -1.4911
 8495SOL     OW37120   2.968   2.927   6.253 -0.0352  0.1487 -0.5690
 8495SOL    HW137121   3.033   2.861   6.226 -1.4667 -1.2323 -0.6355
 8495SOL    HW237122   3.006   2.964   6.333 -1.3676 -0.6375  0.4381
 8496SOL     OW37123   3.696   0.487  15.916 -0.7126  0.0250 -0.0823
 8496SOL    HW137124   3.641   0.423  15.870  0.3588 -0.0853 -1.2003
 8496SOL    HW237125   3.649   0.486  15.999 -2.1173 -0.9724 -0.8805
 8497SOL     OW37126   0.531   0.409   5.442  0.1588 -0.5618  0.4713
 8497SOL    HW137127   0.508   0.380   5.531  0.0870 -1.9088  0.0013
 8497SOL    HW237128   0.514   0.326   5.397  0.9461 -1.5576  1.9940
 8498SOL     OW37129   2.209   0.061  15.334 -0.7017 -0.1209 -0.1706
 8498SOL    HW137130   2.199   0.105  15.249 -0.9314 -0.1024 -0.1343
 8498SOL    HW237131   2.244   4.717  15.299  0.6282 -0.1336  1.2011
 8499SOL     OW37132   1.196   4.615   5.417 -0.6105 -0.0170  0.5816
 8499SOL    HW137133   1.101   4.619   5.424 -0.5431 -1.2300  2.2424
 8499SOL    HW237134   1.207   4.520   5.410  0.6065  0.2164 -0.5952
 8500SOL     OW37135   1.093   4.004   8.525  0.2994  0.4067 -0.6072
 8500SOL    HW137136   1.021   4.063   8.505  0.6174  0.9607 -0.0850
 8500SOL    HW237137   1.098   4.011   8.620  1.0972  1.3621 -0.7183
 8501SOL     OW37138   4.242   0.642   8.741  0.3831 -0.6814 -0.0864
 8501SOL    HW137139   4.276   0.559   8.772 -1.3153 -1.3862 -0.0843
 8501SOL    HW237140   4.257   0.697   8.817 -0.2683 -0.9537  0.2350
 8502SOL     OW37141   4.296   3.539   6.156 -0.2450  0.6049 -0.3989
 8502SOL    HW137142   4.318   3.507   6.244  0.9492 -0.9207 -1.2551
 8502SOL    HW237143   4.384   3.569   6.132  0.9439 -1.1127  1.8694
 8503SOL     OW37144   0.144   1.030   0.790 -0.1396 -0.1908  0.2688
 8503SOL    HW137145   0.132   0.940   0.822 -0.4129 -0.5551 -0.8712
 8503SOL    HW237146   0.203   1.067   0.856  0.8116  3.0691 -2.4427
 8504SOL     OW37147   4.197   3.642   1.682  0.4418  0.2920  0.0287
 8504SOL    HW137148   4.288   3.664   1.704  0.7559 -0.8222 -0.1507
 8504SOL    HW237149   4.162   3.731   1.693  1.6403  1.1428 -3.3072
 8505SOL     OW37150   1.395   2.358   4.272  0.4841  0.4438  0.1035
 8505SOL    HW137151   1.468   2.361   4.209  0.5208 -0.4602  0.1112
 8505SOL    HW237152   1.437   2.397   4.349 -1.1442  2.2390  0.0778
 8506SOL     OW37153   2.063   3.633   9.000 -0.0907  0.6533  0.2034
 8506SOL    HW137154   1.990   3.663   8.945 -1.5999 -0.4516  1.5896
 8506SOL    HW237155   2.072   3.540   8.981 -0.3425  0.2682  1.9353
 8507SOL     OW37156   2.969   0.319   3.954  0.3113 -0.0193 -0.0479
 8507SOL    HW137157   3.002   0.365   3.877 -2.6662  2.3523  0.1270
 8507SOL    HW237158   2.888   0.280   3.921  0.6776  1.0829 -2.2079
 8508SOL     OW37159   4.634   0.824   4.247  0.1598 -0.0288  0.1776
 8508SOL    HW137160   4.626   0.755   4.181  2.1068 -0.1308  0.0424
 8508SOL    HW237161   4.602   0.772   4.321  0.5010 -0.2372  0.1799
 8509SOL     OW37162   3.670   2.222   5.686  0.2643 -0.7627 -0.0721
 8509SOL    HW137163   3.697   2.211   5.777  1.7118 -0.7411 -0.4891
 8509SOL    HW237164   3.719   2.149   5.648  0.2529 -0.7757 -0.0621
 8510SOL     OW37165   0.074   3.292   7.368  0.2965 -0.2843  0.1404
 8510SOL    HW137166   0.094   3.339   7.287  0.0749  1.4904  1.1273
 8510SOL    HW237167   0.090   3.363   7.429  2.0317  0.7505 -1.5244
 8511SOL     OW37168   4.538   3.608   7.489  0.0217 -0.6387 -0.2182
 8511SOL    HW137169   4.536   3.516   7.514 -0.7058 -0.4109  0.5877
 8511SOL    HW237170   4.457   3.624   7.536  0.2104  0.4109 -0.2454
 8512SOL     OW37171   1.474   3.692   5.110 -0.2929 -0.2060  0.5284
 8512SOL    HW137172   1.568   3.678   5.115 -0.0476  0.8489 -1.1106
 8512SOL    HW237173   1.435   3.625   5.054 -0.1631 -0.6385  0.9530
 8513SOL     OW37174   3.381   1.228   7.947  0.4380 -0.1270 -0.2174
 8513SOL    HW137175   3.434   1.170   7.891  1.0445  1.2704 -1.0985
 8513SOL    HW237176   3.289   1.206   7.937  0.3147  0.1829  0.2352
 8514SOL     OW37177   1.197   1.243   4.819 -0.0468 -0.5036  0.0792
 8514SOL    HW137178   1.179   1.336   4.834  1.1970 -0.2327 -0.0400
 8514SOL    HW237179   1.188   1.238   4.724  1.2309 -1.0998 -0.0182
 8515SOL     OW37180   0.999   3.709   7.627  0.0311 -0.3191 -0.7602
 8515SOL    HW137181   1.077   3.705   7.571  1.2074 -0.4983  0.8810
 8515SOL    HW237182   0.974   3.620   7.652  0.0377 -0.1976 -0.3170
 8516SOL     OW37183   2.848   2.847   7.733  0.2284 -0.3621 -0.7750
 8516SOL    HW137184   2.876   2.910   7.800 -0.3851 -0.5635 -0.3241
 8516SOL    HW237185   2.874   2.896   7.655 -0.2083 -1.1449 -1.4009
 8517SOL     OW37186   3.535   2.464   7.403  0.5909  0.2386 -0.0832
 8517SOL    HW137187   3.529   2.399   7.473  0.6283 -1.2784 -1.4916
 8517SOL    HW237188   3.629   2.477   7.388  0.6954 -0.3361  0.0769
 8518SOL     OW37189   0.086   3.442   6.649 -0.1105  0.1404  0.6199
 8518SOL    HW137190   0.116   3.459   6.560 -2.6179 -0.6306 -0.3896
 8518SOL    HW237191   0.111   3.525   6.691  2.5303 -0.0243 -0.6402
 8519SOL     OW37192   0.430   3.125  15.806  0.4863 -0.7129  0.1402
 8519SOL    HW137193   0.522   3.134  15.785  0.1241  1.0613 -0.6532
 8519SOL    HW237194   0.413   3.182  15.881  0.9901  0.7169 -0.8536
 8520SOL     OW37195   2.599   1.773   7.356  0.0568  0.0481 -0.3661
 8520SOL    HW137196   2.669   1.709   7.368  1.4682  1.4361 -1.2839
 8520SOL    HW237197   2.657   1.847   7.342  0.1945 -0.0356 -0.2367
 8521SOL     OW37198   2.613   2.236   7.974  0.6571 -0.0210  0.1351
 8521SOL    HW137199   2.590   2.318   8.018 -0.2477 -0.5538  0.6343
 8521SOL    HW237200   2.708   2.243   7.961  0.5595 -0.3729 -0.7897
 8522SOL     OW37201   2.876   1.243   6.666 -0.2563 -0.4953 -0.1235
 8522SOL    HW137202   2.810   1.279   6.607  0.3465  1.2901  0.2735
 8522SOL    HW237203   2.953   1.272   6.618 -0.8804 -1.9063 -1.9716
 8523SOL     OW37204   1.449   4.152   7.663  0.1819  0.0769  0.3981
 8523SOL    HW137205   1.443   4.245   7.684  3.3701  0.5734 -0.7943
 8523SOL    HW237206   1.361   4.140   7.628  0.3297 -3.5575  1.2073
 8524SOL     OW37207   2.433   0.278   8.166 -0.6271 -0.2054  0.1272
 8524SOL    HW137208   2.426   0.217   8.240  0.6334  0.6990  1.0048
 8524SOL    HW237209   2.342   0.295   8.143 -0.2508  0.2269 -1.0293
 8525SOL     OW37210   0.165   2.717   5.539 -0.3040  0.2781 -0.2161
 8525SOL    HW137211   0.110   2.762   5.474 -1.8925 -2.2061 -0.5737
 8525SOL    HW237212   0.254   2.739   5.512 -0.3854  1.7433  0.7036
 8526SOL     OW37213   3.867   3.192   7.267  0.2907  0.3720  0.1474
 8526SOL    HW137214   3.957   3.225   7.268  0.2835  0.5384 -2.6547
 8526SOL    HW237215   3.878   3.112   7.216 -2.9669 -1.1509  1.8059
 8527SOL     OW37216   2.650   3.471   6.691 -0.8210  0.0980 -0.0448
 8527SOL    HW137217   2.592   3.517   6.752  1.1464 -0.2227  2.0791
 8527SOL    HW237218   2.685   3.411   6.757  0.7954  0.7792 -0.2773
 8528SOL     OW37219   2.574   3.720   4.079  0.7084 -0.2014 -0.0718
 8528SOL    HW137220   2.646   3.782   4.072 -0.3185  1.1013  0.8653
 8528SOL    HW237221   2.629   3.642   4.081  0.5516 -0.3123 -0.0527
 8529SOL     OW37222   3.777   4.522   5.202  0.5067 -0.0377 -0.1257
 8529SOL    HW137223   3.689   4.485   5.200  0.2676  0.5324 -0.3455
 8529SOL    HW237224   3.819   4.471   5.271 -2.0833 -2.8787 -0.6694
 8530SOL     OW37225   3.227   0.391   7.888 -0.2906 -0.6811  0.1746
 8530SOL    HW137226   3.287   0.354   7.824 -1.0752  0.9472 -1.5081
 8530SOL    HW237227   3.140   0.385   7.850 -0.2764  1.2091 -0.1852
 8531SOL     OW37228   4.705   0.777   6.706 -0.0544  0.3818 -0.4198
 8531SOL    HW137229   4.677   0.816   6.622 -2.0824 -1.7271 -0.7368
 8531SOL    HW237230   4.728   0.692   6.668  1.7401  0.5695  0.2865
 8532SOL     OW37231   4.197   2.499   0.510 -0.5312 -0.1132 -0.0772
 8532SOL    HW137232   4.171   2.587   0.482  1.6049  0.7268  0.6417
 8532SOL    HW237233   4.230   2.476   0.423  1.1469 -1.4059  0.9043
 8533SOL     OW37234   0.223   1.753   6.997 -0.1679 -0.5247  0.5382
 8533SOL    HW137235   0.241   1.671   7.043  1.2981 -0.5749 -0.1437
 8533SOL    HW237236   0.130   1.739   6.976  0.6195 -1.3858 -2.3194
 8534SOL     OW37237   4.737   1.257   3.399  0.3411  0.0663  0.2918
 8534SOL    HW137238   0.012   1.181   3.456  1.2322  1.2033  1.6207
 8534SOL    HW237239   4.646   1.244   3.373 -0.7691  0.7178  3.8598
 8535SOL     OW37240   0.781   0.832  16.682 -0.5344  0.1324  0.5514
 8535SOL    HW137241   0.697   0.826  16.728  0.3989  0.5217  2.3197
 8535SOL    HW237242   0.762   0.780  16.604  0.7538 -0.2949  0.5198
 8536SOL     OW37243   0.692   2.972   5.101  0.3297 -0.0712  0.0971
 8536SOL    HW137244   0.653   2.943   5.019  3.0780 -0.8167 -0.9416
 8536SOL    HW237245   0.751   2.902   5.128 -1.3497 -1.3572  0.4258
 8537SOL     OW37246   2.330   0.533   7.008  0.6799  0.2066  0.2756
 8537SOL    HW137247   2.399   0.581   6.962  0.1800 -0.7528 -1.4766
 8537SOL    HW237248   2.260   0.522   6.943  1.1183  2.4809 -0.5982
 8538SOL     OW37249   3.637   4.275   4.995  0.1192  0.1959  0.3407
 8538SOL    HW137250   3.621   4.318   5.079 -1.3761  4.0334 -1.9009
 8538SOL    HW237251   3.573   4.321   4.941  0.6613 -2.0132 -2.1702
 8539SOL     OW37252   0.968   4.030   6.124  0.0328 -0.6249  0.1088
 8539SOL    HW137253   0.891   4.006   6.073  0.3235 -1.3696  0.0237
 8539SOL    HW237254   0.982   4.121   6.095 -0.3031 -0.4377  0.5387
 8540SOL     OW37255   4.437   3.962   7.360 -0.2082  0.2903  0.3174
 8540SOL    HW137256   4.381   4.040   7.351  0.1232  0.5232  0.2878
 8540SOL    HW237257   4.464   3.959   7.452  0.3499  1.9775  0.2012
 8541SOL     OW37258   4.548   1.315   7.751  0.4059  0.4118 -0.5014
 8541SOL    HW137259   4.482   1.330   7.683  0.6792  2.0957 -0.3932
 8541SOL    HW237260   4.581   1.403   7.769 -0.2882  0.5889 -0.0679
 8542SOL     OW37261   2.981   0.002   2.929 -0.2929 -0.2113  0.2969
 8542SOL    HW137262   2.959   4.690   3.008 -0.5939  0.2362  0.4933
 8542SOL    HW237263   2.915   4.696   2.876 -1.3781  0.9799  0.6621
 8543SOL     OW37264   3.603   0.073   8.525  0.1876  0.0643  0.0694
 8543SOL    HW137265   3.698   0.080   8.516  0.4554 -2.1370  1.2096
 8543SOL    HW237266   3.593   4.716   8.517  0.1600 -0.1666  2.8501
 8544SOL     OW37267   0.522   1.234   6.477 -0.1397 -0.2547  0.5092
 8544SOL    HW137268   0.430   1.253   6.497 -1.3953 -3.6886 -2.0499
 8544SOL    HW237269   0.517   1.182   6.397 -0.4993  1.7797 -0.8076
 8545SOL     OW37270   0.123   1.003   7.037 -0.2788 -0.0804 -0.0874
 8545SOL    HW137271   0.208   0.961   7.034  0.3289  1.1446 -0.0077
 8545SOL    HW237272   0.076   0.938   7.090  1.2286 -1.1351 -0.0534
 8546SOL     OW37273   1.173   4.234   2.251 -0.2417 -0.3536 -0.2369
 8546SOL    HW137274   1.112   4.303   2.225  0.9156  0.9498  0.5070
 8546SOL    HW237275   1.126   4.155   2.226  0.8550 -1.2893  0.6565
 8547SOL     OW37276   2.415   0.888  16.816  0.4271  0.1627 -0.1678
 8547SOL    HW137277   2.335   0.873  16.765 -0.8285  0.6944  1.6508
 8547SOL    HW237278   2.377   0.904  16.902 -1.4082  0.2682 -0.9784
 8548SOL     OW37279   3.510   1.708   8.623  0.5238 -0.3343 -0.2951
 8548SOL    HW137280   3.514   1.752   8.538 -1.3607 -0.7865 -0.6256
 8548SOL    HW237281   3.441   1.642   8.619  0.0119  0.2293 -0.9201
 8549SOL     OW37282   2.676   1.460   7.163  0.7261  0.1905 -0.0996
 8549SOL    HW137283   2.744   1.405   7.126  1.1868  3.0430 -3.5065
 8549SOL    HW237284   2.725   1.505   7.232 -1.4498 -0.8280  2.1287
 8550SOL     OW37285   0.772   3.104   3.100  0.5598 -0.4264 -0.5063
 8550SOL    HW137286   0.855   3.093   3.145 -0.9814 -0.7436  2.2910
 8550SOL    HW237287   0.807   3.122   3.013 -1.5441  0.3124 -1.2194
 8551SOL     OW37288   2.951   3.948  11.978 -0.2343 -0.7770  0.2578
 8551SOL    HW137289   2.862   3.982  11.970  0.5202  0.6514 -2.1590
 8551SOL    HW237290   2.939   3.859  11.946  0.1080 -1.2217  1.3810
 8552SOL     OW37291   2.415   1.614   8.252  0.3766  0.1417  0.0507
 8552SOL    HW137292   2.337   1.594   8.303 -1.2661  0.9520 -2.0957
 8552SOL    HW237293   2.420   1.532   8.203  0.9953  0.5901 -0.6528
 8553SOL     OW37294   3.442   3.917   0.214  0.0367 -0.4544 -0.5245
 8553SOL    HW137295   3.432   4.010   0.192 -2.1482 -0.5969 -0.2127
 8553SOL    HW237296   3.496   3.887   0.142 -0.2099  0.4010 -1.0737
 8554SOL     OW37297   3.224   2.885   7.195 -0.5220  0.2466 -0.9249
 8554SOL    HW137298   3.245   2.810   7.250  1.8268  0.1358 -1.9839
 8554SOL    HW237299   3.269   2.865   7.113 -0.3223 -0.1665 -0.7121
 8555SOL     OW37300   3.843   1.435   3.473  0.2772  0.2292  0.1922
 8555SOL    HW137301   3.879   1.515   3.512  0.8389 -0.1552  0.4505
 8555SOL    HW237302   3.833   1.455   3.380 -2.2887  0.0321  0.4217
 8556SOL     OW37303   2.260   2.166   2.040  0.4148  0.5406 -0.6182
 8556SOL    HW137304   2.194   2.101   2.017  1.7258 -1.3561  1.0854
 8556SOL    HW237305   2.230   2.228   1.973 -1.3851  0.6364  0.2622
 8557SOL     OW37306   3.917   1.171   4.692  0.3006  0.2750 -0.0757
 8557SOL    HW137307   3.999   1.203   4.729 -0.7329  0.7631  1.8030
 8557SOL    HW237308   3.919   1.198   4.600  1.4058 -0.2803 -0.2006
 8558SOL     OW37309   0.692   4.723   3.614 -0.3313  0.7739  0.1902
 8558SOL    HW137310   0.769   0.035   3.642 -0.5963  1.6003 -0.5611
 8558SOL    HW237311   0.662   4.699   3.702 -1.4662  0.5671 -0.2549
 8559SOL     OW37312   2.833   0.389  13.503  0.0218 -0.3148  0.8715
 8559SOL    HW137313   2.886   0.437  13.567  0.6712 -1.0242  0.8730
 8559SOL    HW237314   2.744   0.399  13.534 -0.0213 -1.4926  1.1409
 8560SOL     OW37315   1.409   3.270   6.445  0.0101  0.0633  0.6458
 8560SOL    HW137316   1.476   3.206   6.421 -0.5795 -0.3167 -0.0203
 8560SOL    HW237317   1.455   3.351   6.462  0.3611  0.3294 -1.5062
 8561SOL     OW37318   2.259   2.319   0.689 -0.6416  0.3622  0.0398
 8561SOL    HW137319   2.212   2.358   0.763  0.1701  0.7442  0.3478
 8561SOL    HW237320   2.228   2.359   0.608  0.8844 -2.4399 -1.9136
 8562SOL     OW37321   1.856   4.515   5.175 -0.4063  0.7787 -0.3753
 8562SOL    HW137322   1.884   4.598   5.215 -1.3892  0.2639  1.3701
 8562SOL    HW237323   1.837   4.465   5.254  0.7027  0.3359 -0.4005
 8563SOL     OW37324   4.573   2.609   8.821 -0.1249  0.6700 -0.1549
 8563SOL    HW137325   4.610   2.667   8.887 -0.7820  1.9769 -0.9340
 8563SOL    HW237326   4.648   2.557   8.793  1.1272  1.6958  1.3178
 8564SOL     OW37327   3.127   3.977   4.135 -0.2942 -0.4611  0.2437
 8564SOL    HW137328   3.159   4.025   4.211  0.1122 -0.9291  0.3647
 8564SOL    HW237329   3.155   4.031   4.061 -0.1048 -0.4648  0.3132
 8565SOL     OW37330   0.456   1.948   4.874 -0.0155 -0.3495 -0.0572
 8565SOL    HW137331   0.412   2.029   4.898 -1.2826 -1.2312  0.5895
 8565SOL    HW237332   0.386   1.884   4.858  0.0199 -0.7143  1.2458
 8566SOL     OW37333   2.461   3.195   2.177  0.4578 -0.0587  0.3444
 8566SOL    HW137334   2.549   3.184   2.142  0.8787  0.6264  1.1808
 8566SOL    HW237335   2.419   3.248   2.110  0.5550 -1.1571 -0.5819
 8567SOL     OW37336   4.134   4.388   1.680 -1.0779 -0.3747  0.0429
 8567SOL    HW137337   4.081   4.315   1.647 -1.4709 -0.8939  1.8104
 8567SOL    HW237338   4.127   4.456   1.613  2.0107  0.1759  0.2552
 8568SOL     OW37339   2.295   2.017   4.919  0.1846  0.3796 -0.2737
 8568SOL    HW137340   2.297   1.938   4.866  1.3035  0.8904 -1.0087
 8568SOL    HW237341   2.275   2.084   4.853  0.9695  1.3514  0.4615
 8569SOL     OW37342   2.792   1.067   5.512  0.0021 -0.4364  0.1767
 8569SOL    HW137343   2.884   1.090   5.522  0.0172 -1.1337  1.6421
 8569SOL    HW237344   2.810   1.016   5.433  1.0635  1.6916 -0.9577
 8570SOL     OW37345   4.205   2.502   6.636  0.0058  0.2619 -0.1754
 8570SOL    HW137346   4.272   2.566   6.613 -1.1027  1.7667  0.7389
 8570SOL    HW237347   4.254   2.438   6.687  0.5983  0.7369 -0.1537
 8571SOL     OW37348   4.440   0.317  17.328 -0.0134  0.1100  0.0070
 8571SOL    HW137349   4.440   0.256  17.402  0.0485  0.2969  0.1608
 8571SOL    HW237350   4.365   0.276  17.284 -0.8795  1.6510  0.0489
 8572SOL     OW37351   3.366   4.116  10.049  0.3900 -0.7108  0.0113
 8572SOL    HW137352   3.386   4.037  10.099 -0.8995 -1.8125 -1.1749
 8572SOL    HW237353   3.283   4.089  10.008 -0.6116 -0.7364  2.0646
 8573SOL     OW37354   3.719   3.386   1.766  0.1572 -0.7344  0.0381
 8573SOL    HW137355   3.801   3.424   1.734 -0.1927 -0.5673 -0.6574
 8573SOL    HW237356   3.658   3.458   1.757 -0.6225 -1.2968  0.7688
 8574SOL     OW37357   4.302   2.981   5.444 -0.2700 -0.8345  0.4646
 8574SOL    HW137358   4.213   2.989   5.477  0.5553  0.6704  2.3300
 8574SOL    HW237359   4.296   2.977   5.349 -1.9228 -1.2174  0.5909
 8575SOL     OW37360   1.562   0.577   5.779  0.0780  0.2485  0.6602
 8575SOL    HW137361   1.592   0.667   5.787 -0.2110  0.4364 -0.3596
 8575SOL    HW237362   1.473   0.589   5.812 -1.2816 -2.2309 -2.1098
 8576SOL     OW37363   2.364   0.168   3.061  0.1221 -0.0666  0.4097
 8576SOL    HW137364   2.360   0.263   3.050  1.5681 -0.1845 -0.9347
 8576SOL    HW237365   2.459   0.163   3.067  0.1208  0.8758  1.3368
 8577SOL     OW37366   1.617   1.573  11.764  0.0843 -0.3720  0.1704
 8577SOL    HW137367   1.577   1.655  11.793 -2.0148 -1.0368 -0.8266
 8577SOL    HW237368   1.709   1.600  11.754 -0.2137  1.4338  2.3132
 8578SOL     OW37369   2.559   3.279  15.703 -0.7841 -0.3322  0.0225
 8578SOL    HW137370   2.510   3.332  15.640 -2.3054 -2.9524 -0.9684
 8578SOL    HW237371   2.494   3.276  15.774  1.1533 -1.3994  1.7697
 8579SOL     OW37372   3.614   3.414   6.556 -0.5569  0.0818 -0.0102
 8579SOL    HW137373   3.583   3.504   6.564  0.3069  0.4061 -0.3249
 8579SOL    HW237374   3.689   3.410   6.615 -1.6766 -3.9361  1.1216
 8580SOL     OW37375   3.003   2.709   8.097 -0.9823 -0.5879 -0.2517
 8580SOL    HW137376   2.925   2.675   8.054 -1.1103  1.0340 -1.3071
 8580SOL    HW237377   3.060   2.712   8.020  0.8908 -1.5988  1.0751
 8581SOL     OW37378   4.238   1.481   2.426  0.0283 -0.7962  0.4301
 8581SOL    HW137379   4.302   1.420   2.463  1.6624  0.0738 -0.9144
 8581SOL    HW237380   4.192   1.418   2.370 -1.4601 -0.0996  0.8948
 8582SOL     OW37381   4.247   1.989   8.963 -0.0666  0.0207 -0.0968
 8582SOL    HW137382   4.259   2.004   9.056 -0.5461 -1.7966  0.2737
 8582SOL    HW237383   4.233   2.075   8.923  1.4871  0.1685 -0.3290
 8583SOL     OW37384   1.768   0.745   2.256  0.5157  0.1911  0.0482
 8583SOL    HW137385   1.823   0.823   2.247  0.4079  0.1323 -1.0996
 8583SOL    HW237386   1.681   0.785   2.257  0.9128  1.0594 -0.2465
 8584SOL     OW37387   2.136   0.557   8.945 -0.2415  0.1252  0.3722
 8584SOL    HW137388   2.109   0.638   8.902  1.0417  0.3437 -0.0196
 8584SOL    HW237389   2.217   0.595   8.978 -1.2337 -0.5012  3.5787
 8585SOL     OW37390   1.274   1.355  14.758 -0.3529 -0.0310 -0.4445
 8585SOL    HW137391   1.220   1.298  14.813  2.5524 -0.1845  2.2268
 8585SOL    HW237392   1.353   1.302  14.750  0.0353  0.7133 -1.5574
 8586SOL     OW37393   0.239   2.176   8.508 -0.4696  0.3623  0.0615
 8586SOL    HW137394   0.176   2.206   8.442 -2.2060 -0.2918  1.4023
 8586SOL    HW237395   0.183   2.148   8.580 -2.3458 -1.1738 -1.9940
 8587SOL     OW37396   3.034   2.270   6.165 -0.4546 -0.2630 -0.1939
 8587SOL    HW137397   3.091   2.343   6.140 -0.5080  0.1822  1.0108
 8587SOL    HW237398   3.005   2.245   6.077 -0.6895 -1.5988  0.2691
 8588SOL     OW37399   4.435   1.909   6.295  0.6372  0.1446  0.1180
 8588SOL    HW137400   4.482   1.971   6.239 -1.0657  1.0256 -0.3301
 8588SOL    HW237401   4.345   1.918   6.262  0.8702  1.7389 -0.1146
 8589SOL     OW37402   1.349   1.412   3.436  0.1885  0.6617 -0.1654
 8589SOL    HW137403   1.386   1.500   3.436  1.8461 -0.0279 -0.7961
 8589SOL    HW237404   1.262   1.432   3.472 -0.1787  2.2037 -1.9196
 8590SOL     OW37405   0.571   4.700   8.632  0.2137 -0.2815  0.5303
 8590SOL    HW137406   0.664   4.694   8.655  1.0699  0.9992 -2.6095
 8590SOL    HW237407   0.533   4.613   8.619 -0.8812 -0.0614  2.3499
 8591SOL     OW37408   4.334   4.373  14.401 -0.0738  0.1693  0.2173
 8591SOL    HW137409   4.348   4.467  14.394 -1.8640  0.3579 -0.6389
 8591SOL    HW237410   4.415   4.326  14.380 -1.5411 -3.0680  1.8980
 8592SOL     OW37411   4.524   3.378  15.832  0.2508  0.4311  0.2896
 8592SOL    HW137412   4.590   3.308  15.825 -2.5613 -2.2608  0.5816
 8592SOL    HW237413   4.581   3.431  15.887  1.4171  0.0944 -0.5886
 8593SOL     OW37414   3.486   1.237  17.018 -0.2859  0.7297 -0.2401
 8593SOL    HW137415   3.503   1.329  16.998 -0.7011  0.3785 -2.1817
 8593SOL    HW237416   3.409   1.213  16.967  1.1938 -1.6710 -1.3856
 8594SOL     OW37417   0.365   1.781  12.706  0.4110  0.7908  0.7639
 8594SOL    HW137418   0.398   1.733  12.629 -0.2623  0.3942  0.7211
 8594SOL    HW237419   0.362   1.720  12.779  1.6739  0.0025  0.1582
 8595SOL     OW37420   3.729   0.680   0.583  0.3173  0.1340 -0.5023
 8595SOL    HW137421   3.740   0.771   0.611 -2.5925  0.6611 -1.0617
 8595SOL    HW237422   3.635   0.685   0.563  0.2615  2.3867  0.2972
 8596SOL     OW37423   1.899   2.531   4.726 -0.2757  0.5202 -0.1166
 8596SOL    HW137424   1.865   2.460   4.671 -2.0076  1.0989  0.2051
 8596SOL    HW237425   1.932   2.493   4.807 -0.5321  0.9728  0.1951
 8597SOL     OW37426   4.564   1.715  13.100 -0.2671  0.0276 -0.4089
 8597SOL    HW137427   4.538   1.632  13.060  2.9926 -0.6800 -1.1232
 8597SOL    HW237428   4.655   1.698  13.124 -0.1691  0.9430 -0.1512
 8598SOL     OW37429   0.373   4.291   1.625  0.3557  0.6339 -0.0554
 8598SOL    HW137430   0.346   4.213   1.673 -2.6833  2.1409  0.7048
 8598SOL    HW237431   0.424   4.242   1.560 -0.7295 -0.7460  0.1369
 8599SOL     OW37432   2.061   3.515   4.256 -0.6912  0.7637  0.0293
 8599SOL    HW137433   2.064   3.561   4.172  0.2775  1.1608  0.2802
 8599SOL    HW237434   2.055   3.585   4.322  0.6238  0.0180  0.9421
 8600SOL     OW37435   1.140   2.134   9.185  0.0252 -0.3706  0.6815
 8600SOL    HW137436   1.121   2.040   9.189  0.1099 -0.3890  0.6459
 8600SOL    HW237437   1.076   2.158   9.252  0.2037  0.8087  0.4247
 8601SOL     OW37438   3.805   3.905  15.457  0.2396 -0.5937 -0.4267
 8601SOL    HW137439   3.803   3.999  15.476  0.4103 -0.8177  0.7108
 8601SOL    HW237440   3.888   3.877  15.495  0.2979 -2.4819 -1.9673
 8602SOL     OW37441   1.256   2.585   8.875  0.1230  0.6584 -0.1457
 8602SOL    HW137442   1.346   2.581   8.842 -0.2921  0.5565 -1.2665
 8602SOL    HW237443   1.215   2.521   8.817  1.6735 -0.6589  0.2072
 8603SOL     OW37444   3.813   3.720   7.979  0.9412  0.0231  0.1918
 8603SOL    HW137445   3.882   3.669   8.020 -0.9356 -3.3165 -0.8138
 8603SOL    HW237446   3.812   3.675   7.895  0.8743  1.4133 -0.5671
 8604SOL     OW37447   2.953   1.132   4.534 -0.5519  0.3641 -0.0243
 8604SOL    HW137448   2.879   1.131   4.473  0.5630  1.4747 -1.3975
 8604SOL    HW237449   2.936   1.064   4.598 -1.5374 -1.0422 -1.7680
 8605SOL     OW37450   0.272   2.076   5.231 -0.1196  0.5103  0.3637
 8605SOL    HW137451   0.204   2.055   5.167  0.1489  1.8933 -0.3962
 8605SOL    HW237452   0.314   1.990   5.239 -0.6006  0.1632 -0.7316
 8606SOL     OW37453   0.753   1.614  12.429  0.0158 -0.3210  0.1952
 8606SOL    HW137454   0.702   1.534  12.435  1.0277 -1.1265 -1.9730
 8606SOL    HW237455   0.729   1.650  12.343 -2.9132 -0.3815  0.9913
 8607SOL     OW37456   0.489   0.497   6.664  0.6116  0.8396 -0.4834
 8607SOL    HW137457   0.420   0.438   6.634  2.0102 -1.5387  1.0404
 8607SOL    HW237458   0.448   0.584   6.664  0.6520  0.8625 -1.9660
 8608SOL     OW37459   1.792   2.345   4.519  0.4664 -0.2713  0.5374
 8608SOL    HW137460   1.813   2.406   4.448  0.1662 -2.3669 -1.3432
 8608SOL    HW237461   1.805   2.262   4.473  0.5307 -0.5350  1.0307
 8609SOL     OW37462   2.738   2.994  10.596 -0.4197  0.3369 -0.2708
 8609SOL    HW137463   2.827   2.961  10.583  0.1512  1.5305  0.6072
 8609SOL    HW237464   2.695   2.917  10.632 -0.3792  0.7395  0.6396
 8610SOL     OW37465   0.668   4.356   2.956  0.1485 -0.5362 -0.1998
 8610SOL    HW137466   0.622   4.436   2.931 -0.2661 -0.2414  1.4878
 8610SOL    HW237467   0.758   4.388   2.956 -0.4683  1.1990  0.6048
 8611SOL     OW37468   1.082   2.320   5.712  0.0611  0.4249  0.0952
 8611SOL    HW137469   1.133   2.283   5.784  1.1011 -0.2147 -0.9608
 8611SOL    HW237470   1.151   2.345   5.650  0.1736 -0.8750 -0.2985
 8612SOL     OW37471   0.377   1.701   3.947 -0.4419 -0.5247  0.3499
 8612SOL    HW137472   0.456   1.647   3.943  0.1526  0.2336  1.8888
 8612SOL    HW237473   0.340   1.683   4.033 -0.3934 -0.0128  0.4772
 8613SOL     OW37474   2.361   1.456   4.787 -0.0788  0.0197 -0.5043
 8613SOL    HW137475   2.396   1.515   4.720  1.6507 -0.0449  0.3415
 8613SOL    HW237476   2.424   1.384   4.790 -2.1650 -1.7977 -1.0396
 8614SOL     OW37477   1.436   3.487   4.949 -0.6179 -0.3656  0.5729
 8614SOL    HW137478   1.353   3.469   4.904 -1.3866  0.1487  1.8035
 8614SOL    HW237479   1.463   3.398   4.972  0.3132  0.0233  1.0083
 8615SOL     OW37480   2.699   3.933  15.121 -0.4917 -0.2522  0.0743
 8615SOL    HW137481   2.738   3.939  15.208  1.7353 -0.0854 -0.9463
 8615SOL    HW237482   2.745   4.009  15.086 -0.6958 -0.7876 -1.3758
 8616SOL     OW37483   1.185   3.045  13.465 -0.0170 -0.3811  0.0562
 8616SOL    HW137484   1.279   3.034  13.450 -0.1751 -0.3026 -1.0097
 8616SOL    HW237485   1.187   3.141  13.466  0.6560 -0.3917 -0.3346
 8617SOL     OW37486   1.690   2.134  14.637  0.2213  0.7584 -1.2424
 8617SOL    HW137487   1.619   2.109  14.696  1.9850  0.9058  0.9239
 8617SOL    HW237488   1.649   2.101  14.557 -0.6815  0.6849 -0.7541
 8618SOL     OW37489   4.507   0.623  12.635 -0.1254  0.3433  0.2279
 8618SOL    HW137490   4.599   0.605  12.657 -0.2369 -1.5266 -0.8324
 8618SOL    HW237491   4.509   0.702  12.581 -1.0035  1.3480  1.6586
 8619SOL     OW37492   0.908   3.608   9.783 -0.2018  0.1156  0.0006
 8619SOL    HW137493   0.977   3.598   9.717  1.1566 -2.1267  1.7788
 8619SOL    HW237494   0.940   3.544   9.846 -0.7886  1.7662  1.9695
 8620SOL     OW37495   0.378   0.434   3.510 -0.2865  0.0750 -0.0343
 8620SOL    HW137496   0.417   0.452   3.424 -1.5992  0.7786 -0.4750
 8620SOL    HW237497   0.457   0.428   3.564 -0.4858 -0.9958  0.1337
 8621SOL     OW37498   0.409   2.911   6.361  0.5298 -0.1456 -0.5074
 8621SOL    HW137499   0.464   2.867   6.297  1.4491 -2.1732  1.6673
 8621SOL    HW237500   0.475   2.904   6.431  1.2085 -0.1057 -1.1428
 8622SOL     OW37501   0.625   3.601   2.633  0.0480  0.4624 -0.4625
 8622SOL    HW137502   0.560   3.602   2.563 -2.1625  0.0643  1.5690
 8622SOL    HW237503   0.685   3.667   2.598 -1.6782  1.5157 -1.4482
 8623SOL     OW37504   4.234   0.829   3.959 -0.6560  0.3268 -0.2905
 8623SOL    HW137505   4.158   0.797   3.911 -0.6478  1.3433 -0.9634
 8623SOL    HW237506   4.196   0.898   4.013 -0.0149  0.6095 -0.1968
 8624SOL     OW37507   1.158   4.023   6.842  0.1397 -0.4510 -0.4946
 8624SOL    HW137508   1.112   4.107   6.832  1.1431  0.1685  0.0803
 8624SOL    HW237509   1.079   3.969   6.841 -0.7695  0.9139 -1.8160
 8625SOL     OW37510   2.680   0.211  16.741 -0.5821 -0.2826 -0.0596
 8625SOL    HW137511   2.662   0.290  16.690 -1.3809 -1.5937 -1.8113
 8625SOL    HW237512   2.706   0.250  16.825  1.8279 -0.2223 -0.8168
 8626SOL     OW37513   0.121   3.732   1.858 -0.3813  0.3357  0.1722
 8626SOL    HW137514   0.058   3.661   1.868 -0.1938 -0.0757 -1.4572
 8626SOL    HW237515   0.166   3.698   1.780 -0.1033 -0.3184  0.6278
 8627SOL     OW37516   4.499   0.367   4.798  0.1284  0.0046 -0.2289
 8627SOL    HW137517   4.511   0.386   4.891 -0.5302 -0.4630 -0.0494
 8627SOL    HW237518   4.408   0.395   4.792  0.5047  1.3514  0.3457
 8628SOL     OW37519   0.570   0.991   8.050 -0.6987 -0.9534 -0.6758
 8628SOL    HW137520   0.555   1.043   7.971 -1.6030  1.5946  1.1764
 8628SOL    HW237521   0.599   1.048   8.121 -3.7950  0.9016 -0.8975
 8629SOL     OW37522   0.728   1.452   8.380  0.8481 -0.1746  0.4566
 8629SOL    HW137523   0.634   1.460   8.399  0.7064 -0.1320 -0.2699
 8629SOL    HW237524   0.768   1.438   8.466  1.3308  1.9154  0.5528
 8630SOL     OW37525   4.299   0.846  16.045  0.2855  0.1040 -0.0371
 8630SOL    HW137526   4.346   0.783  16.100 -0.7995 -0.9411 -0.2873
 8630SOL    HW237527   4.363   0.916  16.035  0.0266  0.1300 -1.5829
 8631SOL     OW37528   0.781   4.401   3.970  0.4139  0.3966  0.5993
 8631SOL    HW137529   0.839   4.332   3.938  0.8010  1.1649 -0.3378
 8631SOL    HW237530   0.731   4.397   3.889  0.3537  0.1707  0.6468
 8632SOL     OW37531   2.436   1.363   1.387 -0.4671 -0.6693 -0.1029
 8632SOL    HW137532   2.417   1.443   1.338 -0.6039 -0.8045 -0.2733
 8632SOL    HW237533   2.355   1.330   1.426 -0.0686 -0.7574  0.6350
 8633SOL     OW37534   4.643   2.912  16.902  0.2445  0.6403  0.4179
 8633SOL    HW137535   4.685   2.994  16.876 -1.2242  0.4331 -2.5787
 8633SOL    HW237536   4.723   2.859  16.908  0.5463  0.8073 -2.2510
 8634SOL     OW37537   4.568   1.252   0.474  0.2676 -0.1253 -0.5325
 8634SOL    HW137538   4.493   1.306   0.501  1.5660  0.6895  1.4756
 8634SOL    HW237539   4.635   1.270   0.541 -2.2797 -2.0568  2.5712
 8635SOL     OW37540   2.113   1.575   8.336  0.4147 -1.0143 -0.2004
 8635SOL    HW137541   2.160   1.604   8.414 -0.9704 -0.9313  0.6004
 8635SOL    HW237542   2.049   1.515   8.373  1.5687  0.1222  3.6366
 8636SOL     OW37543   2.462   2.982   1.631  0.4022 -0.1040 -0.6920
 8636SOL    HW137544   2.462   3.075   1.610 -1.9893  0.5413  2.1955
 8636SOL    HW237545   2.512   2.948   1.557  1.9858  1.6844 -0.4153
 8637SOL     OW37546   0.881   3.947   9.521 -0.0467 -0.4308 -0.1773
 8637SOL    HW137547   0.847   3.977   9.605  0.7276  1.9846 -0.7049
 8637SOL    HW237548   0.922   4.026   9.485  0.8878 -1.4891 -1.4262
 8638SOL     OW37549   4.615   0.523   5.047  0.0951  0.7026  0.3874
 8638SOL    HW137550   4.674   0.512   4.972  0.6672 -0.3942  0.9930
 8638SOL    HW237551   4.673   0.536   5.122  0.9312  0.3809 -0.1898
 8639SOL     OW37552   4.469   4.719   9.521 -0.0390 -0.5656  0.0416
 8639SOL    HW137553   4.401   0.045   9.500  0.6836  0.5507  1.0762
 8639SOL    HW237554   4.453   4.652   9.455 -1.7064 -0.3448  0.2204
 8640SOL     OW37555   4.662   2.708  12.908 -0.7313  0.6567  0.5368
 8640SOL    HW137556   4.625   2.796  12.898  0.9111  1.0840 -1.7812
 8640SOL    HW237557   0.011   2.737  12.936  0.6333 -0.8870 -2.1377
 8641SOL     OW37558   3.084   1.265   8.990 -0.1189  0.3726 -0.1890
 8641SOL    HW137559   3.066   1.320   9.066 -1.4687 -0.2666 -0.0415
 8641SOL    HW237560   3.071   1.325   8.917  0.8715  1.9773  0.9558
 8642SOL     OW37561   2.803   2.360   2.297  0.2666  0.2424  0.6204
 8642SOL    HW137562   2.895   2.337   2.311  0.2234 -0.6177 -0.5101
 8642SOL    HW237563   2.779   2.307   2.221 -0.2640  2.3187 -0.6743
 8643SOL     OW37564   1.446   3.321   4.171 -0.1080  0.6460 -0.4738
 8643SOL    HW137565   1.372   3.282   4.125 -0.0814  0.5490 -0.4335
 8643SOL    HW237566   1.482   3.238   4.201  1.4561  2.2819  2.0772
 8644SOL     OW37567   2.811   0.577  15.714  0.6686 -0.1136  0.2052
 8644SOL    HW137568   2.769   0.522  15.781  0.8319 -2.4746 -1.5989
 8644SOL    HW237569   2.858   0.508  15.668  1.9268  0.7829  0.1582
 8645SOL     OW37570   2.259   1.653   4.473 -0.6825 -0.3456  0.1236
 8645SOL    HW137571   2.180   1.626   4.519 -1.2538 -1.1242 -1.3061
 8645SOL    HW237572   2.220   1.719   4.416  1.5400  0.7518 -0.1265
 8646SOL     OW37573   4.494   0.926  10.019 -0.2340 -0.2584  0.0353
 8646SOL    HW137574   4.584   0.900  10.035 -0.4307 -0.4258  0.8534
 8646SOL    HW237575   4.516   0.968   9.936  1.0742  2.3025  1.6985
 8647SOL     OW37576   4.728   0.347   6.047 -0.5068 -0.4340 -0.1283
 8647SOL    HW137577   4.672   0.320   5.973  0.7835  2.2961 -2.1006
 8647SOL    HW237578   4.657   0.376   6.104 -0.9624 -0.0472 -0.8766
 8648SOL     OW37579   4.261   1.249   0.791 -0.1254  0.4667  0.0200
 8648SOL    HW137580   4.329   1.313   0.812  0.6590 -0.4757  0.3264
 8648SOL    HW237581   4.196   1.316   0.810 -1.2732 -0.7356  0.3442
 8649SOL     OW37582   0.702   1.768   9.680  0.6208 -0.4521  0.2056
 8649SOL    HW137583   0.655   1.850   9.670  0.3522 -0.7321 -0.7602
 8649SOL    HW237584   0.730   1.747   9.591 -0.6852 -0.4596 -0.1940
 8650SOL     OW37585   3.424   1.171   5.998  0.8047  0.1545 -0.0950
 8650SOL    HW137586   3.364   1.242   6.019 -0.0829 -1.1095  1.6504
 8650SOL    HW237587   3.494   1.177   6.064 -1.2446 -0.2218  2.1247
 8651SOL     OW37588   1.507   3.035  16.250 -0.4358  0.4960  0.0578
 8651SOL    HW137589   1.505   3.013  16.343  1.2334  2.0968  0.4660
 8651SOL    HW237590   1.462   2.956  16.220 -0.7919  0.5766  0.3800
 8652SOL     OW37591   1.617   2.168   8.358  0.2243  0.5465 -0.5718
 8652SOL    HW137592   1.529   2.140   8.383 -0.5053  1.3154 -2.3368
 8652SOL    HW237593   1.649   2.103   8.295  0.4753  1.6723 -1.6039
 8653SOL     OW37594   2.541   3.444   6.438  0.3774 -0.5827  0.2171
 8653SOL    HW137595   2.600   3.452   6.514  1.0900 -0.9695 -0.2888
 8653SOL    HW237596   2.467   3.391   6.467  0.2508 -1.7403 -2.1636
 8654SOL     OW37597   1.994   0.027   0.213  0.1089 -0.6432  0.2489
 8654SOL    HW137598   2.042   4.715   0.147 -0.3914  0.6735 -1.0973
 8654SOL    HW237599   1.985   4.694   0.277 -0.7653 -0.4196  0.3649
 8655SOL     OW37600   1.970   0.437  16.477  0.4653  0.1516 -0.5786
 8655SOL    HW137601   2.039   0.468  16.537 -1.6885 -2.0870  3.0597
 8655SOL    HW237602   1.934   0.356  16.512 -0.9260  1.5595  1.2692
 8656SOL     OW37603   1.052   1.307   1.694  0.3144 -0.1538  0.1496
 8656SOL    HW137604   0.983   1.277   1.754  0.3212 -1.2595 -0.3968
 8656SOL    HW237605   1.101   1.346   1.766  0.2379  0.0314  0.1006
 8657SOL     OW37606   3.193   4.582  11.162  0.0200 -0.2046 -0.1514
 8657SOL    HW137607   3.128   4.644  11.195  1.7990  0.6174  1.8862
 8657SOL    HW237608   3.180   4.586  11.068 -0.0832  0.9635 -0.0837
 8658SOL     OW37609   4.273   3.941   8.461 -0.2663 -0.3822  1.1224
 8658SOL    HW137610   4.239   3.853   8.445 -0.1957 -0.3029  0.5273
 8658SOL    HW237611   4.367   3.927   8.450 -0.3146  0.3755 -0.2856
 8659SOL     OW37612   2.650   0.786   1.142  0.3948  0.0833 -0.2026
 8659SOL    HW137613   2.727   0.831   1.108 -0.3571  0.6930 -1.1003
 8659SOL    HW237614   2.676   0.697   1.117  1.1776  0.3851 -0.4496
 8660SOL     OW37615   3.942   3.936   6.857  0.2391 -0.2676  0.3456
 8660SOL    HW137616   3.891   3.857   6.878  0.0217  0.0664  1.0761
 8660SOL    HW237617   3.872   3.982   6.810  0.9283 -2.0222 -2.3502
 8661SOL     OW37618   4.407   1.144  17.493 -0.0319 -0.0949 -0.3614
 8661SOL    HW137619   4.335   1.207  17.496  0.1267  0.0160  0.9695
 8661SOL    HW237620   4.372   1.077  17.434  0.3679  1.1689 -2.0444
 8662SOL     OW37621   3.106   4.323   3.949 -0.4296 -0.0087 -0.2032
 8662SOL    HW137622   3.173   4.369   3.899 -0.2988 -0.9317 -0.8823
 8662SOL    HW237623   3.088   4.385   4.019 -0.5340 -1.0550  0.6979
 8663SOL     OW37624   4.559   4.223   0.456  0.2317  0.3514  0.1362
 8663SOL    HW137625   4.574   4.317   0.446  0.0948  0.1594 -1.8720
 8663SOL    HW237626   4.474   4.230   0.500 -0.3815 -0.0921 -0.9702
 8664SOL     OW37627   2.735   3.057   3.222 -0.0720 -0.4887  0.1022
 8664SOL    HW137628   2.697   3.049   3.135 -0.4907 -0.6669  0.2985
 8664SOL    HW237629   2.720   2.970   3.258 -0.2886 -0.8795 -0.9364
 8665SOL     OW37630   1.532   2.053   4.639 -0.1574  0.1947  0.9973
 8665SOL    HW137631   1.502   2.059   4.548 -3.4723  0.2149  2.0762
 8665SOL    HW237632   1.592   1.978   4.638 -0.6444 -0.2077  1.8640
 8666SOL     OW37633   0.837   1.755  12.694  0.5663  0.4349 -0.1667
 8666SOL    HW137634   0.762   1.738  12.751  0.8197 -0.4874 -0.0973
 8666SOL    HW237635   0.814   1.707  12.615 -0.8684 -0.4111  0.7663
 8667SOL     OW37636   2.491   0.663   5.962 -0.6499 -0.0121 -0.5308
 8667SOL    HW137637   2.464   0.752   5.938 -0.3551 -0.1251 -1.2522
 8667SOL    HW237638   2.488   0.664   6.058  0.2161  2.4222 -0.5197
 8668SOL     OW37639   2.804   3.219   6.591  0.4385  0.1534 -0.4579
 8668SOL    HW137640   2.781   3.254   6.505  0.1773  2.2748  0.4828
 8668SOL    HW237641   2.753   3.284   6.640 -2.5565 -0.6874 -2.4209
 8669SOL     OW37642   3.117   3.699  12.230 -0.1141 -0.1877  0.0381
 8669SOL    HW137643   3.120   3.609  12.197 -0.9576 -1.0786  2.3975
 8669SOL    HW237644   3.160   3.742  12.156  0.4603 -1.6403 -0.4756
 8670SOL     OW37645   3.958   0.117   2.101  0.8346 -0.5880 -0.2223
 8670SOL    HW137646   3.994   0.115   2.190  1.1551  2.0199 -0.2941
 8670SOL    HW237647   3.988   0.040   2.054  1.4103 -0.5759  0.1136
 8671SOL     OW37648   1.738   2.047   9.736  0.5663 -0.5329 -0.3526
 8671SOL    HW137649   1.744   2.005   9.650  0.6193 -1.0252 -0.1129
 8671SOL    HW237650   1.690   2.127   9.717  2.1336  0.6136  0.4683
 8672SOL     OW37651   1.203   1.299   8.448  0.4768 -0.1276  0.0008
 8672SOL    HW137652   1.135   1.360   8.421  1.2220  1.6799  2.2736
 8672SOL    HW237653   1.168   1.219   8.409 -0.4961  0.0733  0.4654
 8673SOL     OW37654   1.740   0.711   2.939  0.2168 -0.1994  0.0661
 8673SOL    HW137655   1.724   0.617   2.935  0.1655 -0.1191 -1.5399
 8673SOL    HW237656   1.653   0.752   2.937  0.5752  0.5711  0.4448
 8674SOL     OW37657   4.047   1.029  11.484  0.4185  0.1429 -0.0906
 8674SOL    HW137658   4.017   1.105  11.435  1.2054 -0.2795 -1.2320
 8674SOL    HW237659   4.137   1.010  11.456  0.0634 -1.8591  0.0859
 8675SOL     OW37660   0.741   1.333  16.806 -0.0470 -0.4843 -0.2679
 8675SOL    HW137661   0.804   1.275  16.850 -1.0708 -0.9464  0.5748
 8675SOL    HW237662   0.705   1.385  16.878  1.1434 -1.6486  1.1700
 8676SOL     OW37663   2.089   0.628  12.668  0.1720 -0.6273  0.0063
 8676SOL    HW137664   2.059   0.717  12.651 -1.3735 -1.4748 -1.7666
 8676SOL    HW237665   2.091   0.621  12.763  1.9769  1.8519  0.1424
 8677SOL     OW37666   3.205   0.149   5.810  0.8131 -0.4793  0.0791
 8677SOL    HW137667   3.195   0.175   5.902  3.0404 -2.2396  0.8272
 8677SOL    HW237668   3.299   0.130   5.804  0.8054 -0.9810  1.4447
 8678SOL     OW37669   1.226   0.630   7.590 -0.0249 -0.6539  0.2740
 8678SOL    HW137670   1.203   0.633   7.683 -0.0572 -1.7654  0.3004
 8678SOL    HW237671   1.224   0.535   7.585 -1.2483 -0.4075 -3.7310
 8679SOL     OW37672   4.290   0.989   0.851 -0.2984  0.0076  0.3674
 8679SOL    HW137673   4.266   1.077   0.823 -0.8069  0.2413  1.5239
 8679SOL    HW237674   4.236   0.932   0.796  0.9747 -0.1565 -0.7159
 8680SOL     OW37675   0.354   2.003   6.572  0.1435 -0.2184 -0.3638
 8680SOL    HW137676   0.361   1.910   6.593  2.0112 -0.2011 -0.9203
 8680SOL    HW237677   0.396   2.039   6.650  4.3257 -2.2398 -1.7146
 8681SOL     OW37678   4.722   1.484   3.670 -0.2774 -0.2127  0.0547
 8681SOL    HW137679   0.074   1.497   3.700 -0.5452 -0.4224  0.9396
 8681SOL    HW237680   0.003   1.462   3.579 -0.0814 -0.1794  0.0869
 8682SOL     OW37681   3.591   2.758   0.625 -0.1458  0.3120 -0.0063
 8682SOL    HW137682   3.527   2.697   0.661 -0.1781  0.4665  0.2015
 8682SOL    HW237683   3.578   2.754   0.531 -0.5279 -1.7907  0.1427
 8683SOL     OW37684   1.479   1.438   5.998 -0.3307 -0.1560 -0.7896
 8683SOL    HW137685   1.478   1.449   6.094  0.6023 -0.9510 -0.6935
 8683SOL    HW237686   1.519   1.521   5.973  1.7444 -1.1005 -0.6419
 8684SOL     OW37687   2.105   3.389   7.163  1.0253 -0.6136 -0.7329
 8684SOL    HW137688   2.040   3.376   7.233  0.6993  0.7226 -0.7877
 8684SOL    HW237689   2.080   3.321   7.101 -1.5924 -0.5923  0.3175
 8685SOL     OW37690   0.369   3.941   7.783 -0.2369  0.3966  0.6159
 8685SOL    HW137691   0.380   3.959   7.876 -0.5207 -1.3043  0.9819
 8685SOL    HW237692   0.458   3.964   7.755 -0.9859 -0.4608 -2.4679
 8686SOL     OW37693   4.502   1.754   4.400  0.0176 -0.1475 -0.1256
 8686SOL    HW137694   4.434   1.817   4.425  1.7521  2.4845 -2.0424
 8686SOL    HW237695   4.568   1.820   4.380 -0.5168  0.9715  1.8053
 8687SOL     OW37696   4.105   1.468   0.830  0.4307 -0.1577  0.0866
 8687SOL    HW137697   4.132   1.512   0.750 -0.1019 -0.0518 -0.0362
 8687SOL    HW237698   4.021   1.503   0.860 -0.4736 -1.1351 -1.2625
 8688SOL     OW37699   3.882   3.100   4.703  0.0950 -0.2490 -0.0753
 8688SOL    HW137700   3.852   3.150   4.627 -0.3788  0.7116  0.7466
 8688SOL    HW237701   3.797   3.069   4.735  0.0082  0.4537  0.3783
 8689SOL     OW37702   0.546   3.700   8.702  0.0764 -0.3655 -0.0778
 8689SOL    HW137703   0.592   3.615   8.701 -2.2449 -1.6040 -0.5822
 8689SOL    HW237704   0.487   3.703   8.776  0.7512 -1.6656  0.5281
 8690SOL     OW37705   2.606   0.242   2.328  0.7858 -0.2178 -0.0536
 8690SOL    HW137706   2.624   0.324   2.373 -0.6078 -0.9175  1.8264
 8690SOL    HW237707   2.530   0.208   2.377  1.6935 -0.1458  1.4027
 8691SOL     OW37708   0.771   4.082   2.430 -0.3053  0.3264  0.5837
 8691SOL    HW137709   0.819   4.161   2.456  0.8264 -0.0674 -0.2863
 8691SOL    HW237710   0.757   4.100   2.337 -0.7518 -0.0739  0.5744
 8692SOL     OW37711   1.186   2.586   1.373 -0.4621  0.1714 -0.1962
 8692SOL    HW137712   1.158   2.503   1.334  2.1419 -0.7586 -0.0418
 8692SOL    HW237713   1.275   2.597   1.341 -0.5410  0.1639 -0.4192
 8693SOL     OW37714   1.642   2.339   4.088  0.1351  0.4152 -0.2455
 8693SOL    HW137715   1.655   2.382   4.003 -3.4025  1.6658 -0.1583
 8693SOL    HW237716   1.723   2.371   4.126  0.0089 -0.5330  0.8255
 8694SOL     OW37717   2.787   3.544   7.767  0.4149  0.2143 -0.0976
 8694SOL    HW137718   2.753   3.530   7.679 -1.7392 -0.7522  0.8869
 8694SOL    HW237719   2.874   3.574   7.743  1.0627 -2.0300 -0.5863
 8695SOL     OW37720   4.573   0.416   4.042  0.4824 -0.1983 -0.2329
 8695SOL    HW137721   4.507   0.478   4.011  0.6141  0.1116  0.1113
 8695SOL    HW237722   4.523   0.335   4.055 -0.4317  0.8472  2.6284
 8696SOL     OW37723   1.760   2.321  12.589  0.7414  0.4302 -0.1727
 8696SOL    HW137724   1.684   2.374  12.568  2.1436  2.0726 -1.0761
 8696SOL    HW237725   1.794   2.364  12.667 -1.4704  2.4263 -0.3264
 8697SOL     OW37726   4.035   1.819   4.158 -0.0739 -0.4810 -0.0518
 8697SOL    HW137727   4.015   1.738   4.111  0.8056 -0.8932  0.2664
 8697SOL    HW237728   4.124   1.825   4.122  0.7787 -1.0836  1.9089
 8698SOL     OW37729   0.147   1.740   6.251  0.1261 -0.1654  0.0887
 8698SOL    HW137730   0.181   1.711   6.336 -0.8461 -0.6591  0.3153
 8698SOL    HW237731   0.178   1.830   6.251  0.9107 -0.4376  3.3730
 8699SOL     OW37732   0.241   2.034   6.309  0.2590 -0.0419 -0.2732
 8699SOL    HW137733   0.295   2.068   6.381  1.7209  0.4290 -1.5827
 8699SOL    HW237734   0.303   2.007   6.241 -0.1644  0.9180 -1.0477
 8700SOL     OW37735   3.004   2.985   6.939 -0.3739  0.0453 -0.2612
 8700SOL    HW137736   2.998   3.063   6.884  1.5618  1.3823  1.4004
 8700SOL    HW237737   3.068   3.032   6.993  0.2562 -2.6158  1.2849
 8701SOL     OW37738   4.485   1.258   9.056 -0.3802  0.6279 -0.3297
 8701SOL    HW137739   4.569   1.302   9.063  1.0501 -1.9919 -1.3187
 8701SOL    HW237740   4.429   1.310   9.114  0.3590  1.0780 -0.0195
 8702SOL     OW37741   1.362   2.534  15.473  0.1594 -0.1548 -0.3530
 8702SOL    HW137742   1.282   2.585  15.466 -0.4174 -1.1081 -0.6199
 8702SOL    HW237743   1.427   2.602  15.491 -2.0395  0.6223  4.4378
 8703SOL     OW37744   1.683   0.869   9.188 -0.0146 -0.2473 -0.3618
 8703SOL    HW137745   1.676   0.828   9.274  0.4140  3.5921  1.5128
 8703SOL    HW237746   1.762   0.923   9.189 -0.2260  0.0440  0.3006
 8704SOL     OW37747   3.997   0.547   3.808  0.1057 -0.0550  0.0669
 8704SOL    HW137748   4.067   0.579   3.752  1.2490  0.0634  1.5615
 8704SOL    HW237749   4.055   0.513   3.876  0.9497  0.4816 -0.3942
 8705SOL     OW37750   4.410   0.701   7.988 -0.3027 -0.0252  0.0607
 8705SOL    HW137751   4.475   0.744   8.043  1.6434 -1.1909 -1.3254
 8705SOL    HW237752   4.332   0.708   8.042 -0.8401 -0.3265 -0.6697
 8706SOL     OW37753   0.158   0.558   3.663  0.2728 -0.6449 -0.1138
 8706SOL    HW137754   0.217   0.545   3.737 -2.4508 -0.0511  2.1557
 8706SOL    HW237755   0.210   0.517   3.594 -1.0512 -1.1760 -0.7920
 8707SOL     OW37756   3.300   2.834   4.523 -0.0409  0.6618 -0.1171
 8707SOL    HW137757   3.222   2.883   4.499  0.4842  1.5641 -0.0055
 8707SOL    HW237758   3.285   2.821   4.617 -0.5351 -0.2509 -0.3293
 8708SOL     OW37759   0.920   4.462   6.359  0.9470 -0.1238 -0.1377
 8708SOL    HW137760   0.937   4.542   6.309  2.2097 -0.1969  0.1606
 8708SOL    HW237761   0.989   4.402   6.330 -0.7989 -1.1617 -2.1014
 8709SOL     OW37762   3.414   3.192  10.234 -0.4648  0.2715  0.0365
 8709SOL    HW137763   3.441   3.268  10.285 -0.0780 -1.5338  2.4705
 8709SOL    HW237764   3.496   3.146  10.215  0.1571  1.3668  0.0667
 8710SOL     OW37765   1.252   2.455   5.504  0.5472  0.3916 -0.3015
 8710SOL    HW137766   1.300   2.519   5.558 -0.3984  1.1796 -0.3970
 8710SOL    HW237767   1.325   2.400   5.476 -0.2137 -0.9130  0.3055
 8711SOL     OW37768   0.282   0.851   9.064 -0.7085 -0.1382  0.2715
 8711SOL    HW137769   0.350   0.885   9.006  0.5951 -0.4463  1.6358
 8711SOL    HW237770   0.297   0.757   9.069 -0.6406 -0.2392 -2.2661
 8712SOL     OW37771   1.289   2.881   6.513 -0.5031  0.0380  0.0398
 8712SOL    HW137772   1.215   2.826   6.538 -0.0982 -0.7556 -0.5213
 8712SOL    HW237773   1.295   2.936   6.592  0.4199 -1.9198  1.3255
 8713SOL     OW37774   1.613   1.163   3.411 -0.1322 -0.1654 -0.4243
 8713SOL    HW137775   1.554   1.237   3.396  0.4436  0.4569  0.3478
 8713SOL    HW237776   1.582   1.114   3.487  0.0599  1.2245  0.5591
 8714SOL     OW37777   0.992   2.895  13.582 -0.3150  0.1535  0.5776
 8714SOL    HW137778   1.054   2.956  13.543 -1.0540 -0.1479 -1.0489
 8714SOL    HW237779   1.044   2.835  13.636  3.5553  1.4001 -1.8458
 8715SOL     OW37780   2.475   4.470   2.884 -1.1484  0.1822 -0.1022
 8715SOL    HW137781   2.485   4.470   2.789  0.7251 -0.0185  0.0852
 8715SOL    HW237782   2.384   4.450   2.904 -0.9341 -0.5791  0.1180
 8716SOL     OW37783   2.172   0.313   0.054  0.5625 -0.3998  0.1650
 8716SOL    HW137784   2.118   0.391   0.069 -0.4108 -0.9008 -0.6861
 8716SOL    HW237785   2.188   0.314  17.710  3.1293 -2.3592  0.6006
 8717SOL     OW37786   3.076   1.746   1.913  0.0135  1.1095  0.0870
 8717SOL    HW137787   3.056   1.686   1.984 -0.6662 -1.5062 -2.3199
 8717SOL    HW237788   3.121   1.694   1.847  1.3723  0.1233  1.7782
 8718SOL     OW37789   3.353   4.568   5.862 -0.3269 -0.1710 -0.3696
 8718SOL    HW137790   3.390   4.606   5.782 -2.0148 -1.4091 -1.7316
 8718SOL    HW237791   3.368   4.642   5.922  1.0527 -0.2103 -0.6712
 8719SOL     OW37792   4.660   2.566   8.216 -0.2861 -0.0203  0.2731
 8719SOL    HW137793   4.728   2.627   8.189  0.0448 -0.4316  0.1809
 8719SOL    HW237794   4.642   2.517   8.136 -1.8366  0.8888  0.0702
 8720SOL     OW37795   2.106   2.545  17.137  0.2659  0.4267  0.3415
 8720SOL    HW137796   2.076   2.543  17.045  2.4854  1.7665 -0.4043
 8720SOL    HW237797   2.019   2.539  17.177  0.6458 -0.7490  0.9896
 8721SOL     OW37798   4.269   3.965   2.083  0.0678 -0.3867 -0.4295
 8721SOL    HW137799   4.187   4.007   2.057  0.4316  0.0157 -0.9242
 8721SOL    HW237800   4.246   3.872   2.090  0.2025 -0.4647 -0.9966
 8722SOL     OW37801   4.152   3.113   6.028 -0.2909 -0.0289  0.1040
 8722SOL    HW137802   4.168   3.097   5.936 -2.7603  2.8385 -0.8354
 8722SOL    HW237803   4.161   3.208   6.015 -0.9589  0.1865  1.1759
 8723SOL     OW37804   3.672   3.067  10.233  0.7098  0.5348  0.1174
 8723SOL    HW137805   3.649   3.033  10.320 -1.6107 -1.4153 -1.2606
 8723SOL    HW237806   3.766   3.080  10.245  0.5154  2.3479 -0.3578
 8724SOL     OW37807   1.422   1.921   2.559 -0.6349 -0.3073 -0.2761
 8724SOL    HW137808   1.384   1.833   2.557 -1.4714  0.0353  0.7329
 8724SOL    HW237809   1.349   1.980   2.542 -1.7937 -1.7423 -0.3090
 8725SOL     OW37810   4.544   0.127   9.165  0.1951  0.0277 -0.4731
 8725SOL    HW137811   4.609   0.058   9.148 -0.4938 -0.9393  0.8400
 8725SOL    HW237812   4.560   0.138   9.259  0.2840 -1.5153 -0.3040
 8726SOL     OW37813   1.610   4.003   4.175  0.0897  0.4284  0.3594
 8726SOL    HW137814   1.699   4.019   4.206  0.1690  0.3383  0.1793
 8726SOL    HW237815   1.592   3.926   4.229 -0.9505  0.4050 -0.0242
 8727SOL     OW37816   1.158   4.032   3.216 -0.6609  0.1731  0.0141
 8727SOL    HW137817   1.209   4.087   3.156 -0.5639 -0.6350 -0.6364
 8727SOL    HW237818   1.115   4.089   3.280  0.8423  0.7089  0.5632
 8728SOL     OW37819   0.332   2.410   9.137  0.5935 -0.2717 -0.1488
 8728SOL    HW137820   0.421   2.423   9.169  0.9336 -0.5588 -0.9871
 8728SOL    HW237821   0.272   2.442   9.204 -0.4720 -0.9386 -0.7833
 8729SOL     OW37822   3.941   3.672   2.844 -0.0373 -1.0457 -0.3960
 8729SOL    HW137823   3.955   3.594   2.791  1.9871 -0.4677 -0.7405
 8729SOL    HW237824   3.995   3.636   2.914  0.0197  0.0423  0.1182
 8730SOL     OW37825   3.401   3.333   4.592 -0.0902  0.2756  0.1507
 8730SOL    HW137826   3.401   3.403   4.526  2.9645  1.1016  1.0142
 8730SOL    HW237827   3.470   3.367   4.649  0.7159  0.8483 -1.1768
 8731SOL     OW37828   2.409   1.350  16.761  0.3627  0.0650 -0.2309
 8731SOL    HW137829   2.504   1.339  16.755  0.5546  2.0031 -0.6649
 8731SOL    HW237830   2.376   1.293  16.692  0.3073  0.9482 -0.9246
 8732SOL     OW37831   2.344   0.088   9.268  0.4331 -0.9654 -0.0108
 8732SOL    HW137832   2.403   0.146   9.316  0.5529 -0.5640 -0.6416
 8732SOL    HW237833   2.346   0.011   9.324 -0.5461  0.6194  2.2242
 8733SOL     OW37834   1.365   1.011  17.276  0.0631 -0.5212 -0.3199
 8733SOL    HW137835   1.333   0.941  17.333  1.6332 -1.9174 -1.1784
 8733SOL    HW237836   1.279   1.052  17.263 -0.6277 -1.0192  2.4759
 8734SOL     OW37837   2.744   1.132   4.328  0.5983 -0.0503 -0.5634
 8734SOL    HW137838   2.670   1.185   4.298  0.4164  1.0336  1.8569
 8734SOL    HW237839   2.705   1.045   4.333  2.4474 -0.7620  1.4311
 8735SOL     OW37840   0.300   3.483   3.747 -0.1762  0.2221  0.3601
 8735SOL    HW137841   0.290   3.401   3.700  0.6671  0.4317 -0.1868
 8735SOL    HW237842   0.374   3.469   3.806 -0.4199  1.5675  0.9876
 8736SOL     OW37843   1.138   4.337   6.552 -0.1558  0.5473 -1.1597
 8736SOL    HW137844   1.113   4.415   6.503 -1.8984  1.6086  1.3698
 8736SOL    HW237845   1.226   4.327   6.518  0.3285  1.1614 -0.1000
 8737SOL     OW37846   1.771   2.197   3.605  0.0797  0.7018  0.3742
 8737SOL    HW137847   1.769   2.102   3.588 -1.6924  0.2417  3.0998
 8737SOL    HW237848   1.847   2.220   3.552  0.7570 -1.8874  0.2162
 8738SOL     OW37849   3.378   2.549   4.711 -0.1691  0.2532  0.2793
 8738SOL    HW137850   3.395   2.620   4.773 -2.3057  0.0094  1.1625
 8738SOL    HW237851   3.449   2.485   4.716 -0.0811  0.2664 -0.7836
 8739SOL     OW37852   3.896   2.282  12.406  0.1234 -0.6460  0.2035
 8739SOL    HW137853   3.907   2.236  12.489  0.5749 -0.5009  0.2246
 8739SOL    HW237854   3.868   2.215  12.343 -1.9177  1.7031 -1.4148
 8740SOL     OW37855   0.712   3.853   4.124 -0.4975 -0.1548 -0.2447
 8740SOL    HW137856   0.769   3.869   4.199 -1.9967  0.3405  0.7984
 8740SOL    HW237857   0.759   3.881   4.046 -2.2395 -0.6971 -1.4876
 8741SOL     OW37858   2.125   2.644   7.485  0.1244 -0.3962  0.2106
 8741SOL    HW137859   2.037   2.637   7.523 -0.4111 -1.3127 -1.2138
 8741SOL    HW237860   2.171   2.625   7.567  0.9766  0.9512  0.0421
 8742SOL     OW37861   2.112   1.997   7.355 -0.1517  0.2912  0.1039
 8742SOL    HW137862   2.189   1.990   7.299  2.6997  2.8954  3.6935
 8742SOL    HW237863   2.119   1.911   7.397 -0.0467  0.3364  0.1775
 8743SOL     OW37864   1.903   0.121  16.291 -0.1649 -0.1135 -0.7124
 8743SOL    HW137865   1.936   0.039  16.255 -0.5801  0.0956 -1.5635
 8743SOL    HW237866   1.891   0.087  16.380 -0.9389  2.1236  0.0318
 8744SOL     OW37867   4.498   2.406   8.976  0.0893  0.4568  0.1510
 8744SOL    HW137868   4.498   2.321   8.932 -0.6058  1.7215 -2.2832
 8744SOL    HW237869   4.493   2.467   8.903 -0.0477  0.6404  0.3129
 8745SOL     OW37870   3.429   0.499   4.626 -0.5049  0.1653 -0.2994
 8745SOL    HW137871   3.444   0.553   4.548  1.1865 -1.1621 -0.8841
 8745SOL    HW237872   3.374   0.428   4.593  1.1848 -1.3295  0.1124
 8746SOL     OW37873   4.495   1.881   5.323  0.2082 -0.7851 -0.1356
 8746SOL    HW137874   4.565   1.824   5.354  0.4145 -0.3840  0.1497
 8746SOL    HW237875   4.422   1.819   5.321 -1.8704  1.6308 -0.7527
 8747SOL     OW37876   1.196   0.284   8.400 -0.1632  0.0205  0.4053
 8747SOL    HW137877   1.269   0.261   8.343  0.0371  0.5569  0.4459
 8747SOL    HW237878   1.233   0.257   8.485 -1.1434 -1.0191  0.5017
 8748SOL     OW37879   3.866   2.653   3.701 -0.2742  0.1284 -0.2074
 8748SOL    HW137880   3.936   2.616   3.754 -0.0793  1.1550  0.2411
 8748SOL    HW237881   3.871   2.743   3.731  2.9762 -0.7077  1.7219
 8749SOL     OW37882   3.385   3.222   8.501  0.1925  0.0207 -0.6472
 8749SOL    HW137883   3.466   3.251   8.460  1.0912 -0.1917  0.9642
 8749SOL    HW237884   3.373   3.147   8.443 -0.8142  1.9284 -2.8956
 8750SOL     OW37885   1.101   0.494  14.790  0.0382 -0.3298 -0.0396
 8750SOL    HW137886   1.123   0.586  14.779 -3.7735  0.5862 -0.0562
 8750SOL    HW237887   1.156   0.469  14.864 -0.3311 -3.3769 -0.7785
 8751SOL     OW37888   4.069   4.719   3.210 -0.3834 -0.1514  0.3153
 8751SOL    HW137889   4.053   0.037   3.135 -3.2158 -1.7834 -0.2963
 8751SOL    HW237890   4.065   0.050   3.276  0.1315 -1.7767  2.0576
 8752SOL     OW37891   2.974   0.225   7.988  0.1375 -0.1435  0.5768
 8752SOL    HW137892   2.891   0.239   8.033  0.4876 -0.5485  1.3454
 8752SOL    HW237893   3.025   0.165   8.043 -0.6849  0.6864  2.2186
 8753SOL     OW37894   0.344   1.453   6.189  0.2971  0.5971 -0.1355
 8753SOL    HW137895   0.275   1.513   6.160  0.9994  1.7532  0.5982
 8753SOL    HW237896   0.407   1.516   6.223  0.3746  0.6914 -0.4493
 8754SOL     OW37897   1.684   2.888   9.082 -0.3605  0.7133 -0.4371
 8754SOL    HW137898   1.775   2.887   9.053 -0.6050  0.6101 -1.2010
 8754SOL    HW237899   1.647   2.853   9.001 -0.0305 -0.8091  0.0701
 8755SOL     OW37900   3.428   3.944   8.083 -0.1705  0.5190  0.4398
 8755SOL    HW137901   3.421   3.954   7.988  0.4876 -0.0705  0.3239
 8755SOL    HW237902   3.405   3.852   8.092 -1.5950  0.6420 -1.9660
 8756SOL     OW37903   1.363   3.967   2.210  0.4715  0.0759 -0.8140
 8756SOL    HW137904   1.332   3.931   2.293  0.3426 -0.4266 -1.0769
 8756SOL    HW237905   1.403   3.892   2.166  3.8701  2.8982 -2.5036
 8757SOL     OW37906   1.767   4.212   3.974  0.1768 -0.4505 -0.1158
 8757SOL    HW137907   1.838   4.150   3.992  0.7794  0.2190 -0.1850
 8757SOL    HW237908   1.685   4.167   3.992 -0.1263 -0.6614 -2.0184
 8758SOL     OW37909   2.809   2.637   7.921  0.2599 -0.2139  0.3753
 8758SOL    HW137910   2.810   2.542   7.910 -0.3608  0.0025 -1.4380
 8758SOL    HW237911   2.747   2.674   7.858  0.4207 -0.1460  0.2589
 8759SOL     OW37912   4.037   0.148   9.510 -0.5827 -0.0766 -0.4769
 8759SOL    HW137913   3.972   0.212   9.481 -0.5735  0.7123  1.2857
 8759SOL    HW237914   4.043   0.157   9.605  1.4669  2.1827 -0.8168
 8760SOL     OW37915   4.273   2.180  14.066  0.0324 -0.3937  0.0788
 8760SOL    HW137916   4.185   2.215  14.052  0.6361  0.7191 -0.9103
 8760SOL    HW237917   4.291   2.145  13.979  2.8633 -0.0005  0.5048
 8761SOL     OW37918   1.534   1.108   4.034 -0.0512 -0.2115  0.6086
 8761SOL    HW137919   1.561   1.128   4.124 -2.9119  1.9747  0.9698
 8761SOL    HW237920   1.440   1.123   4.034  0.2927  1.8629 -0.7992
 8762SOL     OW37921   2.973   1.828   2.914  0.3535 -0.9064  0.0678
 8762SOL    HW137922   2.892   1.792   2.950  0.4031 -1.6361 -0.5471
 8762SOL    HW237923   2.933   1.887   2.850  0.2281  1.5238  2.3649
 8763SOL     OW37924   0.262   1.393   0.875 -0.6543 -0.3186 -0.3456
 8763SOL    HW137925   0.255   1.327   0.944  0.1754  1.5107  1.4791
 8763SOL    HW237926   0.355   1.400   0.856 -0.9399  2.4745 -0.6669
 8764SOL     OW37927   1.595   1.321   1.182  0.0891 -0.2199  0.4688
 8764SOL    HW137928   1.627   1.240   1.144 -0.0459 -0.1365  0.1794
 8764SOL    HW237929   1.510   1.292   1.214  0.2065 -2.6304 -1.4201
 8765SOL     OW37930   1.277   0.092   7.079  0.1916  0.0015  0.3322
 8765SOL    HW137931   1.366   0.126   7.076  0.5492 -0.9919 -0.3751
 8765SOL    HW237932   1.287   4.736   7.095 -1.3720 -0.2892 -0.3925
 8766SOL     OW37933   2.770   2.125  13.376  0.0136  0.6535 -0.7700
 8766SOL    HW137934   2.815   2.162  13.452  1.0771 -3.0977  0.4353
 8766SOL    HW237935   2.695   2.183  13.358  0.0114  0.6230 -0.8583
 8767SOL     OW37936   4.100   0.606   6.992  0.2202 -0.7931  0.1725
 8767SOL    HW137937   4.102   0.702   6.997  1.3092 -0.8181  0.4356
 8767SOL    HW237938   4.064   0.573   7.074  0.5781  1.2339  1.1472
 8768SOL     OW37939   0.231   1.146   7.924  0.1827  0.1983  0.2348
 8768SOL    HW137940   0.195   1.100   8.000 -0.2534 -2.8454 -1.7968
 8768SOL    HW237941   0.174   1.122   7.851  0.8629 -0.7773  0.0157
 8769SOL     OW37942   0.165   4.332  11.645  0.1771 -0.0775  0.2386
 8769SOL    HW137943   0.232   4.332  11.577 -0.0240  2.8966  0.0260
 8769SOL    HW237944   0.194   4.393  11.713 -1.0674 -1.2019  1.7805
 8770SOL     OW37945   4.552   3.062  11.333  0.7545 -1.1417  0.0743
 8770SOL    HW137946   4.594   3.022  11.257  1.1240 -1.9705  0.7164
 8770SOL    HW237947   4.593   3.015  11.406 -3.9637 -0.9720  2.8090
 8771SOL     OW37948   2.906   3.210   2.519 -0.1458  0.2902 -0.1748
 8771SOL    HW137949   2.863   3.126   2.510 -0.8478  0.5179  1.0938
 8771SOL    HW237950   2.907   3.246   2.430 -2.3462 -0.7812 -0.6152
 8772SOL     OW37951   4.300   4.202  12.606 -0.0274 -0.3954  0.7250
 8772SOL    HW137952   4.346   4.223  12.525 -0.2519 -0.5871  0.5488
 8772SOL    HW237953   4.228   4.264  12.619 -1.4061 -1.7099 -0.6138
 8773SOL     OW37954   1.405   3.159   8.338  0.3775 -0.4136  1.2419
 8773SOL    HW137955   1.478   3.099   8.328  0.1202 -0.4548 -0.3899
 8773SOL    HW237956   1.364   3.178   8.253 -1.6132 -0.3546  2.1962
 8774SOL     OW37957   2.001   0.914  14.619 -0.2096  0.4722  0.0929
 8774SOL    HW137958   2.056   0.983  14.583 -0.0078  0.8502  1.1224
 8774SOL    HW237959   1.915   0.950  14.598  1.6098  2.7273 -3.3438
 8775SOL     OW37960   0.813   1.252   1.528  0.1846  0.3450 -0.2343
 8775SOL    HW137961   0.738   1.312   1.527  0.0595  0.1679 -1.0660
 8775SOL    HW237962   0.838   1.250   1.621  0.8357  3.3673 -0.3207
 8776SOL     OW37963   1.719   1.708   5.269 -0.5169  0.0235 -0.0293
 8776SOL    HW137964   1.723   1.764   5.347  1.4048  0.6816 -0.6119
 8776SOL    HW237965   1.664   1.761   5.211 -0.2703 -0.1197 -0.3910
 8777SOL     OW37966   4.105   2.829   6.020  0.3919 -0.1779  0.3950
 8777SOL    HW137967   4.185   2.879   6.011 -0.2045  1.0977  2.1230
 8777SOL    HW237968   4.113   2.756   5.959 -0.1756  0.3490 -0.3021
 8778SOL     OW37969   2.850   4.237   9.087  0.2330  0.2646 -0.3914
 8778SOL    HW137970   2.870   4.166   9.026 -1.5570 -1.0431  0.5671
 8778SOL    HW237971   2.889   4.206   9.169  0.0756  0.5236 -0.2206
 8779SOL     OW37972   3.910   3.754  10.154  0.3050  0.0037  0.6192
 8779SOL    HW137973   3.869   3.771  10.070  0.3000 -2.3459  0.1510
 8779SOL    HW237974   3.990   3.806  10.150  0.3927 -0.3612 -2.1868
 8780SOL     OW37975   0.073   2.855   8.063  0.0860  0.4151 -0.4527
 8780SOL    HW137976   0.127   2.861   8.142 -2.9504 -0.1686  1.6352
 8780SOL    HW237977   0.126   2.903   7.999  0.6537 -0.5181 -0.6953
 8781SOL     OW37978   4.436   2.494   7.058 -0.4835  0.5755 -0.0396
 8781SOL    HW137979   4.349   2.455   7.047 -0.7976  1.9108 -2.3170
 8781SOL    HW237980   4.436   2.470   7.151  1.2122 -2.4277 -0.8364
 8782SOL     OW37981   3.746   0.326   3.971 -0.3325  0.2638  0.4493
 8782SOL    HW137982   3.731   0.283   3.887 -1.0575 -2.2811  1.8769
 8782SOL    HW237983   3.756   0.418   3.945  0.7592 -0.0916 -0.3864
 8783SOL     OW37984   2.295   1.888   5.838 -0.2024 -0.0963  0.4535
 8783SOL    HW137985   2.372   1.925   5.882  0.2503 -0.6807  0.1663
 8783SOL    HW237986   2.238   1.964   5.834  0.2821  0.2174 -0.4504
 8784SOL     OW37987   1.720   4.217  13.570 -0.5229 -0.1939 -0.0383
 8784SOL    HW137988   1.658   4.162  13.619 -0.6668 -0.2696 -0.3006
 8784SOL    HW237989   1.694   4.304  13.598  0.3176 -0.6926  2.2886
 8785SOL     OW37990   4.263   0.971   7.882  0.1462  0.5308 -0.1494
 8785SOL    HW137991   4.327   1.017   7.829 -0.3572  1.5201  0.1101
 8785SOL    HW237992   4.283   0.999   7.972  1.7885 -1.2180  0.0450
 8786SOL     OW37993   3.633   0.822   0.977 -0.7420 -0.2270 -0.6002
 8786SOL    HW137994   3.607   0.849   0.889  0.0771  3.5534  0.3325
 8786SOL    HW237995   3.557   0.831   1.034 -1.1037  0.9344 -1.2683
 8787SOL     OW37996   0.208   0.887   5.703 -0.0189  0.6748 -0.1252
 8787SOL    HW137997   0.170   0.856   5.785 -0.0985  0.3751 -0.2760
 8787SOL    HW237998   0.166   0.972   5.687  0.3952  0.9133  0.0405
 8788SOL     OW37999   2.340   0.452   3.056 -0.1651 -0.1172 -0.1581
 8788SOL    HW138000   2.306   0.480   3.141 -1.4288  0.2295 -0.7647
 8788SOL    HW238001   2.290   0.514   3.002 -1.4346 -1.5731 -0.6326
 8789SOL     OW38002   2.921   4.408   8.419 -0.5920 -0.2878  0.0050
 8789SOL    HW138003   3.008   4.385   8.387 -0.0668 -0.1370  1.3087
 8789SOL    HW238004   2.948   4.493   8.456 -0.8589 -0.3369  0.3215
 8790SOL     OW38005   1.260   0.003   5.089 -0.6171  0.0813  0.1762
 8790SOL    HW138006   1.306   0.029   5.168  1.4787 -1.3789 -0.5781
 8790SOL    HW238007   1.209   4.669   5.126  0.2313 -0.4014  0.3996
 8791SOL     OW38008   3.844   2.869   7.387  0.0644  0.3256 -0.1941
 8791SOL    HW138009   3.878   2.825   7.310  1.0974  1.0018 -0.1271
 8791SOL    HW238010   3.751   2.846   7.386  0.2378 -0.3776 -0.0551
 8792SOL     OW38011   0.038   4.335   0.091 -0.0932 -0.4796 -0.2109
 8792SOL    HW138012   0.072   4.268   0.149 -0.8065  0.1901  0.9802
 8792SOL    HW238013   0.086   4.408   0.131  0.6968 -0.3230 -1.4233
 8793SOL     OW38014   2.301   0.282  12.726  0.3657 -0.2793 -0.3216
 8793SOL    HW138015   2.303   0.305  12.819 -1.0413  1.0821 -0.6218
 8793SOL    HW238016   2.209   0.296  12.703  0.1553 -0.6790  0.2783
 8794SOL     OW38017   1.844   1.657   5.994  0.2215 -0.1871  0.0607
 8794SOL    HW138018   1.853   1.581   5.936 -1.8659  0.1080 -0.6480
 8794SOL    HW238019   1.869   1.717   5.924  0.0763  1.1814  1.2020
 8795SOL     OW38020   3.913   4.153   5.201 -0.5769  0.5743 -0.0866
 8795SOL    HW138021   3.960   4.222   5.249 -1.6335  2.6371 -2.0019
 8795SOL    HW238022   3.848   4.132   5.268  0.5037 -3.0184 -0.1646
 8796SOL     OW38023   2.876   4.587  11.577  0.0708 -0.0734 -0.1273
 8796SOL    HW138024   2.781   4.571  11.585 -0.1795  0.7483 -1.5588
 8796SOL    HW238025   2.882   4.637  11.658  1.0110 -1.2860  0.5495
 8797SOL     OW38026   0.101   4.702  11.806 -0.8999  0.4392  0.0275
 8797SOL    HW138027   0.090   0.037  11.745  0.6507 -0.7878 -1.7190
 8797SOL    HW238028   0.014   4.661  11.800 -1.0947  0.9563 -0.6955
 8798SOL     OW38029   4.495   0.030   6.050 -0.0177 -0.2877  0.7316
 8798SOL    HW138030   4.443   4.708   5.997 -1.4845  0.1017  1.7447
 8798SOL    HW238031   4.516   0.102   5.991  1.9801 -0.2984  1.4238
 8799SOL     OW38032   1.134   3.549   8.330  0.5179 -0.2165 -0.0627
 8799SOL    HW138033   1.109   3.641   8.319 -2.0375 -0.8539  0.2836
 8799SOL    HW238034   1.168   3.533   8.242  1.1964  1.7461 -0.1478
 8800SOL     OW38035   1.938   0.561   3.151  0.2909  0.1027 -0.4832
 8800SOL    HW138036   1.925   0.466   3.155  0.4018  0.2597  2.9942
 8800SOL    HW238037   1.961   0.578   3.059  0.0219 -2.4884 -1.0360
 8801SOL     OW38038   0.861   4.004   5.095  0.1626  0.4469 -0.0390
 8801SOL    HW138039   0.857   4.019   5.190  1.0913 -0.9968  0.2393
 8801SOL    HW238040   0.772   3.976   5.073 -0.0547  0.7221  0.4797
 8802SOL     OW38041   3.639   2.250   8.599  0.3902  0.0516  0.0560
 8802SOL    HW138042   3.708   2.313   8.622 -3.2640  4.0053  0.2652
 8802SOL    HW238043   3.680   2.165   8.609  0.4362  0.1912  1.0526
 8803SOL     OW38044   4.206   2.436   3.500 -0.2712 -0.0025  0.0081
 8803SOL    HW138045   4.205   2.341   3.510 -1.5931  0.0823  0.6685
 8803SOL    HW238046   4.153   2.450   3.422  0.0432  0.6739 -0.0838
 8804SOL     OW38047   3.740   3.358   0.813 -0.3463 -0.1242 -0.0861
 8804SOL    HW138048   3.780   3.311   0.740 -3.4183  0.2060 -1.9731
 8804SOL    HW238049   3.652   3.323   0.806 -0.9581  1.3158  0.4619
 8805SOL     OW38050   4.219   3.051   8.363 -0.0213 -0.0182  0.0275
 8805SOL    HW138051   4.228   3.035   8.269  0.4120 -0.1929  0.1003
 8805SOL    HW238052   4.245   3.143   8.371 -3.6888  0.8811  1.4953
 8806SOL     OW38053   3.810   0.349   6.902  0.1930 -0.0959  0.2743
 8806SOL    HW138054   3.823   0.427   6.849 -0.9391  0.2934  0.5602
 8806SOL    HW238055   3.790   0.284   6.835  1.9089  0.4896 -0.7921
 8807SOL     OW38056   0.697   2.336   7.991 -0.3702  0.1687  0.5124
 8807SOL    HW138057   0.700   2.268   8.059  1.2221 -3.5449 -3.3143
 8807SOL    HW238058   0.741   2.284   7.924  1.4490  0.7420  1.2494
 8808SOL     OW38059   0.723   1.774   8.684  0.3381 -0.2857  0.2255
 8808SOL    HW138060   0.683   1.697   8.726  1.2218 -1.6298 -1.3853
 8808SOL    HW238061   0.670   1.782   8.604 -0.6865  0.4626  0.9717
 8809SOL     OW38062   2.322   2.927  14.560  0.0198  0.4266 -0.1596
 8809SOL    HW138063   2.358   2.889  14.641 -1.4629 -1.4007 -0.3444
 8809SOL    HW238064   2.337   3.020  14.579  4.1861 -0.6002  1.5737
 8810SOL     OW38065   1.587   0.022   0.641  0.2045  0.0320 -0.3559
 8810SOL    HW138066   1.558   0.046   0.553 -0.1734 -0.6755 -0.4197
 8810SOL    HW238067   1.678   0.049   0.641  0.7155 -1.6897 -1.1609
 8811SOL     OW38068   1.421   0.030   2.276  0.2636  0.0429  0.3113
 8811SOL    HW138069   1.418   0.107   2.219  1.6390 -0.7922 -0.8613
 8811SOL    HW238070   1.337   4.723   2.263  0.0100  0.5418  0.2113
 8812SOL     OW38071   1.377   0.413   3.144  0.2993 -0.4943  0.2665
 8812SOL    HW138072   1.376   0.451   3.231 -0.3486  3.4934 -1.4856
 8812SOL    HW238073   1.467   0.379   3.142  1.3582  2.4201 -0.7067
 8813SOL     OW38074   3.863   2.946   6.509  0.0711  0.2406 -0.2966
 8813SOL    HW138075   3.779   2.980   6.478  0.0842 -0.6823 -1.3436
 8813SOL    HW238076   3.896   2.944   6.419  1.3312  2.2436  0.1305
 8814SOL     OW38077   2.303   3.158   9.288 -0.0535  0.0241 -0.0370
 8814SOL    HW138078   2.356   3.233   9.262 -0.3305 -0.0726 -0.8797
 8814SOL    HW238079   2.220   3.202   9.308 -0.2373  0.9244 -2.7873
 8815SOL     OW38080   2.503   4.582   2.543 -0.3193 -0.3232 -0.2421
 8815SOL    HW138081   2.482   4.605   2.452 -0.8178  1.4740  0.3286
 8815SOL    HW238082   2.527   4.662   2.590 -0.0730 -0.5731  0.0539
 8816SOL     OW38083   0.068   3.595  10.797 -0.2651  0.4290 -0.2686
 8816SOL    HW138084   0.018   3.573  10.718 -2.4805 -0.1904  1.3485
 8816SOL    HW238085   0.150   3.546  10.789  1.7157  3.4592  1.4249
 8817SOL     OW38086   2.166   0.171   0.724 -0.3640 -0.1317 -0.0770
 8817SOL    HW138087   2.091   0.227   0.745  0.1347 -0.5759  2.8528
 8817SOL    HW238088   2.132   0.087   0.753 -0.0491 -0.4896 -0.7598
 8818SOL     OW38089   0.594   0.133   4.798  0.3614 -0.2310 -0.0098
 8818SOL    HW138090   0.518   0.141   4.739  0.1385 -2.9378 -0.0580
 8818SOL    HW238091   0.665   0.174   4.749  1.6215 -0.8217  1.3333
 8819SOL     OW38092   2.291   3.901   6.014 -0.6119 -0.3778 -0.3440
 8819SOL    HW138093   2.362   3.894   6.077  0.6643  0.0462 -1.7361
 8819SOL    HW238094   2.243   3.818   6.021  0.7952 -1.2027 -0.4666
 8820SOL     OW38095   2.702   1.437   5.555  0.3930  0.5169 -0.2828
 8820SOL    HW138096   2.789   1.406   5.526  0.3789  1.2336 -1.0930
 8820SOL    HW238097   2.660   1.354   5.575 -0.0259  0.1850 -2.5478
 8821SOL     OW38098   3.377   2.243   0.677 -0.4541 -0.0218 -0.4110
 8821SOL    HW138099   3.410   2.160   0.712  1.0443 -0.3274 -2.5864
 8821SOL    HW238100   3.386   2.300   0.754 -0.6930 -1.4088  0.6375
 8822SOL     OW38101   3.377   0.134   3.247 -0.1078  0.5961  0.5727
 8822SOL    HW138102   3.360   0.191   3.323 -1.7979  1.8297 -0.7266
 8822SOL    HW238103   3.317   0.166   3.179  0.7637 -1.3180 -1.0867
 8823SOL     OW38104   3.451   0.474   0.066  0.1517 -0.4840 -0.1278
 8823SOL    HW138105   3.439   0.558   0.020  1.1831  0.2808  1.0002
 8823SOL    HW238106   3.437   0.412  17.745  1.3292 -1.5042  0.5310
 8824SOL     OW38107   4.540   2.347   0.396 -0.2821 -0.1946 -0.0531
 8824SOL    HW138108   4.570   2.419   0.341  1.3627 -1.0785 -0.3318
 8824SOL    HW238109   4.447   2.345   0.374 -0.1938  0.6425 -0.5082
 8825SOL     OW38110   3.942   3.143  10.158 -0.0056 -0.2653 -0.1670
 8825SOL    HW138111   3.912   3.161  10.069 -0.9930 -0.7354  0.0632
 8825SOL    HW238112   3.973   3.230  10.180  0.3820 -0.1136 -1.3389
 8826SOL     OW38113   3.685   2.266  14.610 -0.8065 -0.0500  0.1372
 8826SOL    HW138114   3.715   2.244  14.522  0.6070  1.4130  0.2445
 8826SOL    HW238115   3.733   2.198  14.657  1.1266  1.3569  0.2144
 8827SOL     OW38116   0.517   0.779   4.519  0.1569 -0.3172 -0.0043
 8827SOL    HW138117   0.544   0.775   4.611 -1.9179  0.3094  0.6573
 8827SOL    HW238118   0.515   0.685   4.501 -0.5901 -0.3799  0.3855
 8828SOL     OW38119   4.349   2.720   8.199 -0.1930  0.0605  0.2351
 8828SOL    HW138120   4.292   2.797   8.202  1.3388  1.1935  0.8848
 8828SOL    HW238121   4.433   2.762   8.217 -0.9490  1.1887  1.1251
 8829SOL     OW38122   2.365   3.513  15.641 -0.3060  0.1506  0.2954
 8829SOL    HW138123   2.321   3.594  15.615  1.9105  1.0769 -0.5500
 8829SOL    HW238124   2.416   3.540  15.717  0.7325 -0.7051 -0.0877
 8830SOL     OW38125   3.828   2.120   1.904  0.4766 -0.1663  0.4962
 8830SOL    HW138126   3.793   2.199   1.864  0.0074  0.3684  1.9516
 8830SOL    HW238127   3.760   2.120   1.972  0.6627 -1.2561  0.6771
 8831SOL     OW38128   0.106   2.381   3.117 -0.5622 -0.1526  0.3377
 8831SOL    HW138129   0.018   2.405   3.090 -0.3293 -0.8165 -1.0037
 8831SOL    HW238130   0.125   2.303   3.065 -1.7515 -0.3373  0.1988
 8832SOL     OW38131   4.252   1.021   9.481 -0.2891  0.2093 -0.2582
 8832SOL    HW138132   4.337   1.063   9.465  0.9784 -1.3616  2.1666
 8832SOL    HW238133   4.294   0.945   9.523  1.0677  1.3041  0.3724
 8833SOL     OW38134   3.690   0.093   6.168 -0.7362 -0.0303 -0.6248
 8833SOL    HW138135   3.642   0.014   6.193  1.1053 -0.8569  0.2588
 8833SOL    HW238136   3.720   0.117   6.256  0.6770 -0.2156 -1.0612
 8834SOL     OW38137   4.120   0.561   5.634  0.1199  0.1323  0.1210
 8834SOL    HW138138   4.026   0.579   5.634  0.1210  0.0970 -2.1907
 8834SOL    HW238139   4.126   0.473   5.597  1.2269 -0.5658  1.9649
 8835SOL     OW38140   1.559   0.714   4.081 -0.4732  0.3763  0.5832
 8835SOL    HW138141   1.620   0.684   4.148  0.0673  1.2024  0.4528
 8835SOL    HW238142   1.477   0.708   4.131 -1.6605  0.9571 -1.3149
 8836SOL     OW38143   0.735   3.617  13.616 -0.0072  0.1350  0.0797
 8836SOL    HW138144   0.758   3.531  13.650 -2.9400  0.0333  1.8963
 8836SOL    HW238145   0.639   3.609  13.613 -0.0180  0.1612  0.2987
 8837SOL     OW38146   2.586   2.111   2.336 -0.4240 -0.2071 -0.0154
 8837SOL    HW138147   2.526   2.178   2.368  0.9737  1.4305 -0.7948
 8837SOL    HW238148   2.544   2.097   2.251  1.1659  0.9592 -1.0023
 8838SOL     OW38149   2.770   1.343   3.369 -0.9326  0.0528  0.4223
 8838SOL    HW138150   2.772   1.439   3.367  0.2803  0.0105 -0.5144
 8838SOL    HW238151   2.713   1.322   3.443  0.3134 -0.6539  1.1914
 8839SOL     OW38152   2.568   4.057   3.224  0.2203  0.1155  0.3367
 8839SOL    HW138153   2.591   4.071   3.316  0.2328 -1.9264  0.6471
 8839SOL    HW238154   2.577   4.146   3.189 -0.0698  0.1270  0.2921
 8840SOL     OW38155   1.961   3.246   4.178 -0.3095 -0.2913 -0.2480
 8840SOL    HW138156   1.969   3.336   4.208 -3.4668  0.3177 -1.1696
 8840SOL    HW238157   1.904   3.263   4.103 -0.3005  2.2528  0.3160
 8841SOL     OW38158   1.499   3.743   9.670 -0.1158  0.2432 -0.8979
 8841SOL    HW138159   1.544   3.789   9.600  1.5501 -2.1506 -1.3938
 8841SOL    HW238160   1.455   3.669   9.628 -1.3308  0.0141  0.7464
 8842SOL     OW38161   4.522   2.202  16.849 -0.1396  0.0519  0.1600
 8842SOL    HW138162   4.574   2.172  16.923 -1.4909 -1.3276  0.5602
 8842SOL    HW238163   4.478   2.120  16.826 -0.7802 -0.4229  3.0920
 8843SOL     OW38164   1.973   3.510   2.558  0.1844  0.2191 -0.2820
 8843SOL    HW138165   1.977   3.605   2.545 -0.0325 -0.0141 -2.0509
 8843SOL    HW238166   2.063   3.481   2.546  0.8215  1.8866  0.3234
 8844SOL     OW38167   4.677   0.523   9.945 -0.0563 -0.2362 -0.0116
 8844SOL    HW138168   4.723   0.598   9.982  0.4297 -0.5975  0.1167
 8844SOL    HW238169   4.589   0.548   9.973 -0.2289 -0.9709  0.0948
 8845SOL     OW38170   3.157   0.700  14.501 -0.3805 -0.4997  0.0303
 8845SOL    HW138171   3.096   0.641  14.544 -0.2821  0.0151  0.8819
 8845SOL    HW238172   3.206   0.742  14.572 -1.4137  0.0460  0.4114
 8846SOL     OW38173   4.639   3.997   6.689 -0.2533  0.3871 -0.1630
 8846SOL    HW138174   4.577   3.925   6.684  0.1109  0.0251  0.5330
 8846SOL    HW238175   4.601   4.044   6.764 -0.9055  0.4609 -0.5351
 8847SOL     OW38176   1.950   3.114   5.955  0.0093  0.0453  0.0442
 8847SOL    HW138177   2.041   3.124   5.927 -0.3395 -0.1355 -1.1122
 8847SOL    HW238178   1.958   3.142   6.047 -1.7966 -2.7832  1.0526
 8848SOL     OW38179   0.158   3.655   6.796  0.0228  0.2470 -0.6890
 8848SOL    HW138180   0.129   3.734   6.841 -2.1338 -0.4536 -0.8091
 8848SOL    HW238181   0.240   3.632   6.838  0.4262  2.6402 -0.1817
 8849SOL     OW38182   4.218   2.428   3.927  0.2122 -0.1352  0.7812
 8849SOL    HW138183   4.309   2.446   3.906 -0.3301  0.3709 -1.1283
 8849SOL    HW238184   4.175   2.514   3.922  1.4939  0.2451 -3.7662
 8850SOL     OW38185   4.664   0.130   2.677  0.1544 -0.1991 -0.1006
 8850SOL    HW138186   4.677   0.144   2.771 -2.7038  2.6235 -0.1180
 8850SOL    HW238187   4.637   0.039   2.666  1.0457 -0.2808 -1.6463
 8851SOL     OW38188   4.708   1.530   0.291  0.2162 -0.1156 -0.8447
 8851SOL    HW138189   0.009   1.559   0.209 -0.3646 -0.8624 -1.3839
 8851SOL    HW238190   4.727   1.437   0.281 -2.5429 -0.6438 -1.2564
 8852SOL     OW38191   0.609   2.108  12.226  0.1980  0.2219 -0.5955
 8852SOL    HW138192   0.656   2.064  12.155 -0.3403 -2.0461  0.4306
 8852SOL    HW238193   0.672   2.091  12.295  1.0145  0.8802 -1.1920
 8853SOL     OW38194   1.560   0.818   2.621  0.3315  0.5107 -0.4200
 8853SOL    HW138195   1.467   0.820   2.598 -0.0038 -2.2266  0.7286
 8853SOL    HW238196   1.555   0.821   2.717  1.8031  2.2798 -0.4062
 8854SOL     OW38197   3.505   2.085  17.541 -0.5334 -0.3743 -0.2567
 8854SOL    HW138198   3.566   2.023  17.501  1.8899  0.7819  1.6190
 8854SOL    HW238199   3.499   2.042  17.627 -0.8253  0.3468  0.0844
 8855SOL     OW38200   1.892   2.435   8.434 -0.0861  0.0626 -0.1154
 8855SOL    HW138201   1.859   2.407   8.349 -0.9542  3.9520 -1.0472
 8855SOL    HW238202   1.882   2.347   8.469 -0.1683  0.0631 -0.1392
 8856SOL     OW38203   0.575   2.753   7.697  0.1573 -0.4747 -0.1521
 8856SOL    HW138204   0.592   2.759   7.791  0.8439  0.1067 -0.3108
 8856SOL    HW238205   0.568   2.658   7.685  2.7688 -0.7886  1.0040
 8857SOL     OW38206   0.794   1.259   6.302  0.4821 -0.1704  0.2399
 8857SOL    HW138207   0.866   1.318   6.323 -0.3409  0.8039  0.3627
 8857SOL    HW238208   0.744   1.276   6.382  0.7122  1.2873  0.0795
 8858SOL     OW38209   3.448   3.058   9.301 -0.4418 -0.4915 -0.7660
 8858SOL    HW138210   3.367   3.030   9.345  0.3904  0.1801  1.1835
 8858SOL    HW238211   3.454   2.990   9.233 -1.6849 -3.1206  1.7241
 8859SOL     OW38212   3.602   3.802   2.179  0.2144 -0.0795 -0.1931
 8859SOL    HW138213   3.508   3.803   2.198  0.4270  2.4497  0.7230
 8859SOL    HW238214   3.618   3.892   2.150  0.2826 -0.3811 -1.0947
 8860SOL     OW38215   0.392   2.076  13.293 -0.1432  0.0519  0.6094
 8860SOL    HW138216   0.366   1.994  13.335 -2.2095  1.6258  2.4061
 8860SOL    HW238217   0.458   2.046  13.231  0.1539  1.3439  0.3137
 8861SOL     OW38218   4.645   3.358   8.596  0.6284 -0.2062  0.0185
 8861SOL    HW138219   4.658   3.268   8.565 -0.8123 -0.6806  0.8282
 8861SOL    HW238220   4.649   3.402   8.511  1.8044  1.4106  0.9114
 8862SOL     OW38221   2.794   3.635   8.228  0.3182 -0.3099  0.3027
 8862SOL    HW138222   2.786   3.725   8.259  2.0374 -1.0154  2.7367
 8862SOL    HW238223   2.839   3.591   8.299 -0.6160  0.1320  1.1704
 8863SOL     OW38224   2.059   2.614   5.515 -0.0021 -0.0812 -0.3556
 8863SOL    HW138225   2.053   2.575   5.428 -2.0833 -0.4190 -0.0437
 8863SOL    HW238226   2.001   2.690   5.506 -1.9878 -1.6073 -0.1907
 8864SOL     OW38227   4.413   0.155   9.925  0.1062  0.1796  0.0824
 8864SOL    HW138228   4.389   0.246   9.911 -1.5885 -0.2300  0.3174
 8864SOL    HW238229   4.495   0.157   9.974 -0.9354  0.7202  1.8111
 8865SOL     OW38230   2.723   2.419   5.126 -0.1640 -0.4479 -0.0338
 8865SOL    HW138231   2.708   2.410   5.032  0.8204  0.9911 -0.3265
 8865SOL    HW238232   2.770   2.502   5.125 -0.9175 -0.0376 -0.9040
 8866SOL     OW38233   0.053   0.074   7.694  0.4544  0.1154  0.4828
 8866SOL    HW138234   0.087   0.106   7.611 -1.9879  0.2780 -0.4490
 8866SOL    HW238235   0.102   4.731   7.709 -1.2825 -1.1163 -0.4909
 8867SOL     OW38236   3.407   4.082   6.654  0.0893 -0.7909 -0.0157
 8867SOL    HW138237   3.345   4.012   6.673  2.1067 -3.0353 -1.6118
 8867SOL    HW238238   3.415   4.123   6.740  0.0373  0.2185 -0.4929
 8868SOL     OW38239   4.479   3.754   1.771  0.1123 -0.6372  0.2689
 8868SOL    HW138240   4.478   3.839   1.728 -1.1011 -0.7860 -0.0175
 8868SOL    HW238241   4.504   3.694   1.700  1.2272  0.3100 -0.1292
 8869SOL     OW38242   1.289   0.913  12.501  0.2846  0.7752 -0.2223
 8869SOL    HW138243   1.381   0.904  12.475 -0.2138 -1.8209 -1.1371
 8869SOL    HW238244   1.305   0.956  12.585 -2.0559  0.5512  0.3304
 8870SOL     OW38245   0.603   0.436   7.547 -0.0077  0.0562  1.2087
 8870SOL    HW138246   0.552   0.358   7.526 -2.6864  2.1025  0.0213
 8870SOL    HW238247   0.549   0.505   7.508 -1.0305  1.3623  4.9775
 8871SOL     OW38248   0.658   1.543   5.980  0.0931 -0.1852 -0.8366
 8871SOL    HW138249   0.593   1.516   5.916 -1.6321 -3.0643  2.1826
 8871SOL    HW238250   0.682   1.456   6.010  2.5157  0.5531 -0.6195
 8872SOL     OW38251   1.268   0.228   6.118 -0.2751 -0.4549 -0.3415
 8872SOL    HW138252   1.194   0.252   6.062 -0.0009  0.6676 -0.2115
 8872SOL    HW238253   1.232   0.251   6.203  3.6874 -1.4503  1.5798
 8873SOL     OW38254   4.234   4.180   9.740  0.2738  0.4628  0.0345
 8873SOL    HW138255   4.212   4.258   9.690  0.1518 -0.0085 -0.6438
 8873SOL    HW238256   4.329   4.176   9.729 -0.0033  0.9574 -2.5358
 8874SOL     OW38257   4.387   1.807   7.609 -0.0197  0.5298  0.1416
 8874SOL    HW138258   4.348   1.888   7.642 -2.6642  0.4068 -2.5530
 8874SOL    HW238259   4.439   1.855   7.545 -0.8196  0.7114 -0.3844
 8875SOL     OW38260   2.508   1.741   9.047  0.5314 -0.1382  0.2363
 8875SOL    HW138261   2.505   1.722   9.140  0.6552  0.5305  0.3806
 8875SOL    HW238262   2.603   1.742   9.039  0.4814  1.5380 -0.2150
 8876SOL     OW38263   4.551   3.780   1.295  0.0319  0.4214  0.6943
 8876SOL    HW138264   4.613   3.771   1.223  1.7093 -0.7003  2.2578
 8876SOL    HW238265   4.487   3.716   1.266  2.2151 -1.2303 -0.4772
 8877SOL     OW38266   4.734   2.671   2.202  0.6707 -0.2172 -0.4735
 8877SOL    HW138267   0.032   2.730   2.268 -1.7706 -1.0237  1.5913
 8877SOL    HW238268   0.045   2.691   2.122  2.1668 -1.3268  0.1626
 8878SOL     OW38269   0.353   4.579   5.569 -0.1154  0.6400  0.2763
 8878SOL    HW138270   0.310   4.496   5.588  1.5951 -0.3755 -0.1938
 8878SOL    HW238271   0.421   4.543   5.511 -1.6546 -0.1958 -1.0132
 8879SOL     OW38272   2.844   4.072   1.524  0.3812 -0.3370 -0.8315
 8879SOL    HW138273   2.826   4.109   1.610 -4.2831 -2.2165 -0.9642
 8879SOL    HW238274   2.807   4.141   1.468  2.1036  0.3941 -1.0571
 8880SOL     OW38275   1.249   1.824   6.269  0.1943 -0.2491 -0.0681
 8880SOL    HW138276   1.327   1.822   6.325  0.2356  1.5933 -0.0584
 8880SOL    HW238277   1.288   1.880   6.202 -1.6327  1.7153  0.5273
 8881SOL     OW38278   1.274   2.027  16.053  0.4864  0.4596  0.6408
 8881SOL    HW138279   1.341   2.062  15.994  2.0015  1.0609  2.7454
 8881SOL    HW238280   1.204   2.019  15.988  0.6414 -1.0331  0.6589
 8882SOL     OW38281   1.854   2.769   4.350 -0.2627 -0.0621 -0.2968
 8882SOL    HW138282   1.848   2.842   4.289  0.4768 -0.1660 -0.4905
 8882SOL    HW238283   1.829   2.813   4.431  0.2405 -0.4102  0.0412
 8883SOL     OW38284   0.930   2.604   9.045  0.5096 -0.4226 -0.9669
 8883SOL    HW138285   1.017   2.632   9.016  0.8118 -3.4274 -2.9107
 8883SOL    HW238286   0.949   2.538   9.111  1.6819 -1.3098 -2.1972
 8884SOL     OW38287   3.678   3.510  11.685  0.6299 -0.4041  0.1836
 8884SOL    HW138288   3.645   3.595  11.654 -1.0566  0.3208  3.8832
 8884SOL    HW238289   3.690   3.528  11.779 -2.8541  0.0967  0.5230
 8885SOL     OW38290   1.872   3.729  14.947 -0.3492 -0.0663  0.2361
 8885SOL    HW138291   1.789   3.753  14.905  0.6925  0.5431 -1.4696
 8885SOL    HW238292   1.882   3.810  14.997 -1.8489  0.4255 -0.2558
 8886SOL     OW38293   3.424   2.388   0.908 -0.0633  0.2361 -0.1505
 8886SOL    HW138294   3.510   2.391   0.951  0.2375 -3.6012 -0.4828
 8886SOL    HW238295   3.363   2.411   0.978  0.2907 -0.3961  0.3602
 8887SOL     OW38296   3.358   1.791   1.512  0.0036 -0.0111 -0.0170
 8887SOL    HW138297   3.451   1.766   1.509 -0.3368 -1.1044 -1.3085
 8887SOL    HW238298   3.331   1.748   1.432  0.1369  0.4980 -0.3343
 8888SOL     OW38299   2.558   3.636   9.092  0.5702  0.2261  0.0958
 8888SOL    HW138300   2.595   3.725   9.092  0.7253  0.1618  0.0991
 8888SOL    HW238301   2.468   3.668   9.088  0.2577 -0.8709 -1.5421
 8889SOL     OW38302   2.155   0.640   8.397 -0.3058 -0.3526 -0.5297
 8889SOL    HW138303   2.071   0.595   8.390 -0.3546  0.1831 -3.1591
 8889SOL    HW238304   2.181   0.607   8.483 -0.9485  0.9714  0.1837
 8890SOL     OW38305   3.855   0.619   5.660 -0.2055  0.1798 -0.2207
 8890SOL    HW138306   3.820   0.596   5.746  0.9380 -1.4382 -0.1934
 8890SOL    HW238307   3.775   0.653   5.620 -0.3352  1.3171  0.9999
 8891SOL     OW38308   4.548   1.255  11.868 -0.7299 -0.9575  0.7650
 8891SOL    HW138309   4.608   1.300  11.809 -1.0495  0.0685  1.2069
 8891SOL    HW238310   4.603   1.202  11.926  1.9355 -0.3561 -1.2141
 8892SOL     OW38311   0.262   4.236   6.905  0.1282 -0.5202  0.6132
 8892SOL    HW138312   0.344   4.218   6.953  1.3314  2.0531 -0.4778
 8892SOL    HW238313   0.276   4.327   6.878 -2.1106  0.3041  2.2357
 8893SOL     OW38314   3.142   3.642   0.557 -0.0135 -0.3112 -0.1962
 8893SOL    HW138315   3.192   3.570   0.595 -0.0861  0.6841  1.8201
 8893SOL    HW238316   3.053   3.619   0.583  0.3692  0.4609  1.8048
 8894SOL     OW38317   3.475   1.984   7.904 -0.5769  0.7270  0.0704
 8894SOL    HW138318   3.473   2.037   7.983 -1.1531 -1.7559  1.7040
 8894SOL    HW238319   3.495   1.895   7.934 -1.0917  0.7731  0.5359
 8895SOL     OW38320   0.833   0.288   5.126 -0.2607  0.3788 -0.4046
 8895SOL    HW138321   0.840   0.201   5.087 -0.6178 -0.4566  1.4211
 8895SOL    HW238322   0.878   0.281   5.210 -0.8892  0.3327 -0.0743
 8896SOL     OW38323   0.779   0.085  10.980  0.2201 -0.2398 -0.4756
 8896SOL    HW138324   0.847   0.117  11.040 -1.6343 -0.1415  1.5899
 8896SOL    HW238325   0.811   0.119  10.896 -1.4114 -1.4336 -1.5886
 8897SOL     OW38326   1.406   3.789   1.443  0.0507  0.3828 -0.3244
 8897SOL    HW138327   1.459   3.862   1.476  0.0945 -0.2177  0.9141
 8897SOL    HW238328   1.467   3.715   1.447 -2.0047 -1.2908 -0.2372
 8898SOL     OW38329   2.867   0.044   4.081  0.1606  0.1883 -0.2112
 8898SOL    HW138330   2.819   0.103   4.023 -0.4588 -1.3762 -1.2844
 8898SOL    HW238331   2.792   4.726   4.102 -0.4805  0.4089 -1.9611
 8899SOL     OW38332   4.013   0.244  17.447  0.1306  0.0402 -0.3618
 8899SOL    HW138333   3.996   0.173  17.385 -1.4346  0.4590 -0.4173
 8899SOL    HW238334   4.014   0.206  17.535 -0.3109  1.7695  0.3939
 8900SOL     OW38335   2.765   3.275  12.898 -0.1799  0.3473 -0.7774
 8900SOL    HW138336   2.836   3.224  12.858 -1.2281 -0.0322 -2.1528
 8900SOL    HW238337   2.682   3.229  12.886  1.5976 -3.2144  0.6946
 8901SOL     OW38338   4.657   3.167   9.248 -0.5894 -0.1272  0.1404
 8901SOL    HW138339   0.002   3.207   9.276 -1.0865  0.2053  1.1270
 8901SOL    HW238340   4.593   3.237   9.261  0.9243  1.1435  0.8813
 8902SOL     OW38341   1.397   1.151   2.529 -0.2180  0.6397  0.0373
 8902SOL    HW138342   1.360   1.111   2.450 -0.7558  3.6173 -1.2014
 8902SOL    HW238343   1.323   1.158   2.589  1.5443  1.8756  2.0446
 8903SOL     OW38344   0.558   0.598   2.876  0.1995  0.3991 -0.0799
 8903SOL    HW138345   0.494   0.589   2.806 -0.5465  2.0711  0.3951
 8903SOL    HW238346   0.520   0.675   2.918  0.9731  0.3656  0.6832
 8904SOL     OW38347   4.148   1.093   0.507 -0.9235  0.2573 -0.2001
 8904SOL    HW138348   4.208   1.168   0.505  0.1977 -0.6139  1.0084
 8904SOL    HW238349   4.073   1.137   0.547 -0.5633  0.6234  0.0792
 8905SOL     OW38350   3.411   2.128   3.443  0.1252 -0.1588 -0.2202
 8905SOL    HW138351   3.464   2.187   3.496  0.0528 -1.2599  1.0788
 8905SOL    HW238352   3.328   2.119   3.491  0.9065  0.1414  1.1687
 8906SOL     OW38353   1.350   4.098   1.918 -0.3280 -0.4078 -0.5231
 8906SOL    HW138354   1.347   4.063   2.007  2.3622  2.4190  0.6847
 8906SOL    HW238355   1.376   4.020   1.869 -2.4005 -3.1093  2.6735
 8907SOL     OW38356   3.050   2.023   8.236  0.2436 -0.0877  0.0600
 8907SOL    HW138357   3.014   2.109   8.212  0.9580  0.2672  0.2685
 8907SOL    HW238358   2.978   1.961   8.244  0.5824 -0.4821  0.0461
 8908SOL     OW38359   4.143   4.551   7.520 -0.1388 -0.2448 -0.5950
 8908SOL    HW138360   4.092   4.601   7.584  2.1072 -1.9224  2.4953
 8908SOL    HW238361   4.190   4.622   7.476 -0.2711 -0.9714 -1.9007
 8909SOL     OW38362   2.869   2.000   7.423  0.3850 -0.1266  0.0813
 8909SOL    HW138363   2.906   1.944   7.491 -1.0147  1.0956  1.8457
 8909SOL    HW238364   2.938   2.019   7.360  0.8415  2.6580  1.4176
 8910SOL     OW38365   1.045   3.105   1.126 -0.2373  0.6902  0.9246
 8910SOL    HW138366   1.133   3.067   1.125 -0.2502  0.6586  1.2580
 8910SOL    HW238367   1.058   3.199   1.115 -0.5733  0.5850 -0.4453
 8911SOL     OW38368   4.181   0.623  11.408  0.1682  0.0071  0.5539
 8911SOL    HW138369   4.208   0.573  11.485  0.7848  2.6604  2.0331
 8911SOL    HW238370   4.264   0.612  11.361 -0.8791 -1.7175 -0.9266
 8912SOL     OW38371   3.225   3.720  12.975  0.3619  0.1113  0.8620
 8912SOL    HW138372   3.172   3.761  13.044  0.8290  0.7187  0.8630
 8912SOL    HW238373   3.195   3.629  12.976 -0.5711  0.3726 -2.0585
 8913SOL     OW38374   3.005   2.076  16.507  0.3050 -0.1733  0.8841
 8913SOL    HW138375   2.974   1.987  16.525 -0.7039  0.1625  0.8023
 8913SOL    HW238376   3.003   2.079  16.412 -0.7868 -2.1698  0.8534
 8914SOL     OW38377   2.325   1.578   1.218 -0.2655 -0.3598  0.3717
 8914SOL    HW138378   2.306   1.670   1.199 -0.3473  0.0686  2.5058
 8914SOL    HW238379   2.373   1.537   1.145 -1.9529  1.0346 -1.5124
 8915SOL     OW38380   0.752   3.781   1.616 -0.1484 -0.4228 -0.9268
 8915SOL    HW138381   0.755   3.831   1.534 -1.8915  1.4501  0.1521
 8915SOL    HW238382   0.826   3.724   1.595  1.2502  0.4732  1.5505
 8916SOL     OW38383   0.144   3.273  16.154  0.0565  0.4445  0.0697
 8916SOL    HW138384   0.204   3.309  16.088 -0.6506  1.1437 -0.1878
 8916SOL    HW238385   0.192   3.191  16.170 -1.3377 -0.5187 -0.6508
 8917SOL     OW38386   1.822   4.643   4.141  0.0846  0.2618 -0.4303
 8917SOL    HW138387   1.754   4.629   4.076  0.5857 -0.8398 -0.7258
 8917SOL    HW238388   1.874   4.714   4.104  1.5485 -1.2141 -1.1924
 8918SOL     OW38389   3.486   0.700   4.834 -0.2459 -0.4684  0.1900
 8918SOL    HW138390   3.564   0.736   4.792 -1.3327  2.1412  0.3719
 8918SOL    HW238391   3.463   0.625   4.780 -1.2842  0.1339 -0.2136
 8919SOL     OW38392   4.123   4.476  12.379 -0.0844  0.4927 -0.7828
 8919SOL    HW138393   4.175   4.510  12.306 -1.1752  1.2247 -1.2186
 8919SOL    HW238394   4.179   4.485  12.456 -0.5828  0.3440 -0.4012
 8920SOL     OW38395   3.254   0.139   9.133  0.1372  0.1201  0.1294
 8920SOL    HW138396   3.298   0.064   9.174  5.0905  2.5641 -0.6404
 8920SOL    HW238397   3.189   0.105   9.073 -0.4573  1.5334 -0.0187
 8921SOL     OW38398   3.008   0.456   8.943 -0.2285 -0.2155 -0.4258
 8921SOL    HW138399   2.966   0.460   9.029  0.8967  0.5487  0.0833
 8921SOL    HW238400   2.938   0.415   8.892 -1.6535  1.8213 -0.0973
 8922SOL     OW38401   1.517   0.144   3.904 -0.2772  0.6288 -0.2967
 8922SOL    HW138402   1.462   0.067   3.890  0.8666 -0.2987  0.3044
 8922SOL    HW238403   1.553   0.137   3.992 -0.9548  3.0600  0.1772
 8923SOL     OW38404   4.296   2.107   4.194  0.2582  0.5391 -0.2107
 8923SOL    HW138405   4.356   2.056   4.140  0.0560  2.2846 -2.0566
 8923SOL    HW238406   4.293   2.058   4.276 -0.1574 -0.4821 -0.8400
 8924SOL     OW38407   3.552   4.124   9.504 -0.0064  0.8688 -0.4663
 8924SOL    HW138408   3.531   4.078   9.422 -0.5050 -1.9779  1.2721
 8924SOL    HW238409   3.526   4.063   9.572  0.9642 -0.2350 -1.0917
 8925SOL     OW38410   2.770   0.064   8.848 -0.2137 -0.4721  0.0017
 8925SOL    HW138411   2.761   0.084   8.941 -1.0300 -0.3098 -0.1180
 8925SOL    HW238412   2.790   0.151   8.815  1.6695 -1.6598 -1.9630
 8926SOL     OW38413   0.613   0.824  14.352  0.3346  0.5761  0.3377
 8926SOL    HW138414   0.668   0.886  14.305  1.5328  0.5895  1.7734
 8926SOL    HW238415   0.528   0.839  14.310 -1.1009 -1.2478  2.6031
 8927SOL     OW38416   0.908   4.080   7.860 -0.3859  0.5625  0.1390
 8927SOL    HW138417   0.817   4.087   7.831  0.1368  0.1684 -1.5929
 8927SOL    HW238418   0.954   4.060   7.779  1.8036  3.7440  0.6075
 8928SOL     OW38419   2.655   4.267   3.774  0.6647  0.6564 -0.4119
 8928SOL    HW138420   2.673   4.179   3.741  2.4744  0.7231  0.3985
 8928SOL    HW238421   2.712   4.265   3.851 -2.2766  1.4920  1.7648
 8929SOL     OW38422   0.167   0.126   7.469  0.3290  0.1553  0.0157
 8929SOL    HW138423   0.144   0.199   7.412  0.3569 -1.1631 -1.6736
 8929SOL    HW238424   0.262   0.138   7.467  0.1776  1.4048  0.0639
 8930SOL     OW38425   1.873   0.140   2.575  0.2299 -0.2471  0.3340
 8930SOL    HW138426   1.946   0.187   2.534 -0.2746  0.8953  0.7560
 8930SOL    HW238427   1.817   0.120   2.500  0.3732  0.0474  0.1461
 8931SOL     OW38428   3.455   3.039   1.199  0.2767  0.5220  0.2163
 8931SOL    HW138429   3.454   3.007   1.109 -0.5569  0.7300  0.1519
 8931SOL    HW238430   3.518   2.977   1.236  1.1538  0.6282 -1.1113
 8932SOL     OW38431   3.730   0.587   3.867 -0.0042 -0.3243 -0.5772
 8932SOL    HW138432   3.703   0.568   3.777  0.3254 -0.1723 -0.7112
 8932SOL    HW238433   3.815   0.620   3.837  0.4852 -0.2742  0.8787
 8933SOL     OW38434   2.364   3.641   4.243  0.4390  0.3818  0.0229
 8933SOL    HW138435   2.370   3.548   4.223 -1.3090 -0.1463  2.0427
 8933SOL    HW238436   2.432   3.683   4.190 -1.1490 -0.3877 -2.6732
 8934SOL     OW38437   3.084   2.534  10.298  0.3690 -0.3844  0.1252
 8934SOL    HW138438   3.169   2.574  10.317  0.0787 -0.5475  1.7141
 8934SOL    HW238439   3.094   2.531  10.203  3.0851 -1.0503  0.4373
 8935SOL     OW38440   0.101   1.341   2.952  0.3213  0.2083  0.5677
 8935SOL    HW138441   0.045   1.416   2.933  0.4104  0.4305  1.1644
 8935SOL    HW238442   0.136   1.372   3.036 -1.3509  2.1993  0.5158
 8936SOL     OW38443   0.766   4.503  12.844 -0.1404  0.7573 -0.3482
 8936SOL    HW138444   0.846   4.545  12.813 -0.2770 -0.1828 -2.0175
 8936SOL    HW238445   0.771   4.533  12.934 -0.7621 -1.4321  0.4277
 8937SOL     OW38446   0.112   0.930  14.891  0.5625 -0.4174  0.3092
 8937SOL    HW138447   0.020   0.946  14.875  0.5279  0.4769  1.3821
 8937SOL    HW238448   0.137   0.901  14.803 -0.7623  0.9234 -0.4976
 8938SOL     OW38449   3.767   4.611   1.764 -0.0759 -0.3619  0.0579
 8938SOL    HW138450   3.858   4.632   1.746 -0.3941  1.3906  0.4214
 8938SOL    HW238451   3.745   4.546   1.697 -1.0180  0.7186 -0.7019
 8939SOL     OW38452   0.135   3.447   7.596 -0.6038  0.5172 -0.2332
 8939SOL    HW138453   0.143   3.524   7.539 -1.4501  0.1924 -0.7871
 8939SOL    HW238454   0.229   3.427   7.602 -0.3517  2.2878  1.5553
 8940SOL     OW38455   3.934   4.669   5.944  0.3318 -0.2797 -0.2053
 8940SOL    HW138456   3.972   4.626   6.020  1.9850  1.9209  0.2124
 8940SOL    HW238457   3.965   4.610   5.876  0.5521  0.6187 -0.8876
 8941SOL     OW38458   2.179   0.873   7.960 -0.5594  0.3032  0.1849
 8941SOL    HW138459   2.204   0.924   8.037  1.5475 -1.3584  0.5868
 8941SOL    HW238460   2.255   0.819   7.942 -0.5151  1.3643 -3.0109
 8942SOL     OW38461   1.150   0.291   3.682 -0.2685  0.1584 -0.1174
 8942SOL    HW138462   1.208   0.312   3.609  0.4754 -0.2151  0.3624
 8942SOL    HW238463   1.189   0.330   3.760  0.3024 -0.2258 -0.2094
 8943SOL     OW38464   3.193   3.203  15.884  0.7792 -0.4897 -0.0313
 8943SOL    HW138465   3.281   3.235  15.904  0.7388  0.5226 -1.4695
 8943SOL    HW238466   3.166   3.252  15.806  1.5201 -0.7784 -0.4738
 8944SOL     OW38467   4.553   0.304   5.850 -0.0409  0.0030 -0.5018
 8944SOL    HW138468   4.504   0.380   5.821 -1.9045 -0.6134  0.9973
 8944SOL    HW238469   4.550   0.249   5.772  2.2145 -1.4707  0.4353
 8945SOL     OW38470   3.586   1.692  15.269 -0.1397  0.4975 -0.1660
 8945SOL    HW138471   3.569   1.683  15.363  2.0261 -0.3357  0.1537
 8945SOL    HW238472   3.676   1.659  15.267 -0.7245 -1.0764 -0.6660
 8946SOL     OW38473   0.644   0.800   1.800 -0.3611 -0.5086  0.5334
 8946SOL    HW138474   0.692   0.744   1.739  1.9253  0.5064  1.3963
 8946SOL    HW238475   0.591   0.742   1.855  0.7916 -1.1025  1.0268
 8947SOL     OW38476   1.356   4.139   4.116 -0.2279  0.3186 -0.7450
 8947SOL    HW138477   1.336   4.188   4.196  1.7350 -1.6113  0.9344
 8947SOL    HW238478   1.427   4.084   4.149 -0.5200  0.3336 -0.0962
 8948SOL     OW38479   1.717   2.950   4.715  0.0755  0.4964 -0.0305
 8948SOL    HW138480   1.807   2.935   4.686 -0.1051  0.7512 -0.7267
 8948SOL    HW238481   1.716   2.915   4.804 -1.4497  0.6836  0.0284
 8949SOL     OW38482   2.327   2.199   6.968 -0.0654  0.6199  0.0448
 8949SOL    HW138483   2.269   2.125   6.988  0.4592 -0.0772 -0.9886
 8949SOL    HW238484   2.256   2.263   6.975  0.5045  1.1956  0.4506
 8950SOL     OW38485   3.182   3.308   3.242 -0.1137  0.0455 -0.2930
 8950SOL    HW138486   3.211   3.334   3.154  0.1454 -1.6314 -0.7091
 8950SOL    HW238487   3.162   3.214   3.237  4.0418 -0.8088 -0.5592
 8951SOL     OW38488   0.900   4.379   7.443  0.2329 -0.2923  0.2441
 8951SOL    HW138489   0.992   4.391   7.424  0.1320 -0.6462 -0.4520
 8951SOL    HW238490   0.887   4.297   7.396  0.2710  0.4611 -1.0823
 8952SOL     OW38491   4.416   2.534   5.854  0.2784 -0.0030  0.0059
 8952SOL    HW138492   4.502   2.505   5.825 -0.0803 -1.1175  0.0648
 8952SOL    HW238493   4.438   2.614   5.903  0.4449  0.5870 -1.0397
 8953SOL     OW38494   4.233   0.199  17.172 -0.1235  0.0911 -0.0915
 8953SOL    HW138495   4.271   0.146  17.102  2.7155  0.4794  1.1838
 8953SOL    HW238496   4.142   0.206  17.143 -0.1141  0.7061  0.0271
 8954SOL     OW38497   3.979   1.593   4.016  0.0546  0.1530  0.3424
 8954SOL    HW138498   3.923   1.541   4.073  0.6041 -1.9733 -1.0577
 8954SOL    HW238499   4.023   1.517   3.979  0.8698 -0.4130  2.4727
 8955SOL     OW38500   2.651   4.368   4.143 -0.3844 -0.1685  0.0606
 8955SOL    HW138501   2.572   4.313   4.153 -0.6043  0.1028 -0.1823
 8955SOL    HW238502   2.708   4.306   4.097  0.7323  0.2038  0.9609
 8956SOL     OW38503   2.467   1.105   5.347 -0.3536  0.1907 -0.1178
 8956SOL    HW138504   2.407   1.043   5.388  0.0324 -0.6318 -0.8079
 8956SOL    HW238505   2.520   1.147   5.416  0.1102  0.3750 -0.5855
 8957SOL     OW38506   3.377   4.118   3.768 -0.0260 -0.2237 -0.7170
 8957SOL    HW138507   3.359   4.064   3.846  2.6284  0.3559  0.3014
 8957SOL    HW238508   3.457   4.160   3.800  1.1221 -1.6169 -1.7841
 8958SOL     OW38509   3.658   4.607   5.956  0.0281  0.1220 -0.0763
 8958SOL    HW138510   3.745   4.645   5.950  0.2625 -0.3544  0.3163
 8958SOL    HW238511   3.594   4.678   5.959  0.1320  0.2511 -0.9410
 8959SOL     OW38512   4.615   2.996   6.132  0.0505  0.6351  0.2248
 8959SOL    HW138513   4.644   2.937   6.062 -0.4243  2.5692 -1.6367
 8959SOL    HW238514   4.557   3.061   6.092  1.4067  1.9842  0.4460
 8960SOL     OW38515   4.151   3.884  10.017 -0.0136 -0.4809 -0.1162
 8960SOL    HW138516   4.245   3.900  10.006  0.0097 -1.0792 -0.7959
 8960SOL    HW238517   4.131   3.930  10.099  2.9727 -1.0749  0.9305
 8961SOL     OW38518   3.342   4.236   0.648  0.4442  0.3336  0.1900
 8961SOL    HW138519   3.310   4.148   0.629  0.2628  1.2182 -3.4839
 8961SOL    HW238520   3.355   4.223   0.742  0.1442  1.0973  0.3316
 8962SOL     OW38521   1.297   3.001   4.894 -0.3259 -0.2468 -0.5998
 8962SOL    HW138522   1.274   2.970   4.981  1.5238 -1.1918 -0.4453
 8962SOL    HW238523   1.332   2.923   4.851  0.9115  0.0624 -0.1274
 8963SOL     OW38524   1.393   3.000   9.359 -0.1302  0.7694 -0.1191
 8963SOL    HW138525   1.388   2.909   9.328  1.4387  0.4484  0.5523
 8963SOL    HW238526   1.453   3.039   9.296  0.7806 -1.6221 -0.7537
 8964SOL     OW38527   1.432   0.412  11.813  0.5796 -0.1865 -0.6832
 8964SOL    HW138528   1.485   0.486  11.782 -0.7259  1.2804  0.6116
 8964SOL    HW238529   1.417   0.356  11.737  0.7246  0.2456 -1.0345
 8965SOL     OW38530   1.286   1.522  14.520 -0.2499  0.1323 -0.0440
 8965SOL    HW138531   1.283   1.607  14.564 -0.4295  0.3038 -0.3814
 8965SOL    HW238532   1.294   1.469  14.599  1.4599 -0.1263 -0.3755
 8966SOL     OW38533   3.308   1.964  13.038  0.6901 -0.2622 -0.1684
 8966SOL    HW138534   3.249   1.997  13.106  0.5742 -0.7445 -0.0351
 8966SOL    HW238535   3.254   1.968  12.959 -0.3214  0.6963  0.5717
 8967SOL     OW38536   4.337   1.469   2.752  0.2174  0.2292  0.3183
 8967SOL    HW138537   4.352   1.412   2.828  1.6410 -0.4753 -0.4934
 8967SOL    HW238538   4.268   1.418   2.708  0.2239  0.1112  0.4419
 8968SOL     OW38539   1.439   0.176   2.559 -0.2730 -0.0547  0.4441
 8968SOL    HW138540   1.392   0.128   2.491 -0.6049  1.0639 -0.1194
 8968SOL    HW238541   1.507   0.116   2.587 -1.5475 -0.8993  1.7705
 8969SOL     OW38542   1.003   3.832  10.955 -0.9604 -0.6093  0.3857
 8969SOL    HW138543   1.009   3.917  10.913  0.1963 -0.6531  0.4644
 8969SOL    HW238544   1.041   3.775  10.888 -1.7523 -0.4786 -0.1744
 8970SOL     OW38545   0.551   0.436   4.862 -0.9971  0.7562  0.5696
 8970SOL    HW138546   0.631   0.473   4.900  0.1754 -0.5293 -0.6684
 8970SOL    HW238547   0.592   0.354   4.835 -0.8367  1.6144 -1.8043
 8971SOL     OW38548   0.654   2.797   3.322  0.4772 -0.0448 -0.0204
 8971SOL    HW138549   0.602   2.828   3.248 -0.5641 -0.5570  0.4994
 8971SOL    HW238550   0.587   2.774   3.386  0.2967 -0.8288 -0.4887
 8972SOL     OW38551   1.551   0.185  13.820  0.0310 -0.0497 -0.0727
 8972SOL    HW138552   1.603   0.265  13.824 -0.8548  0.5520 -0.6849
 8972SOL    HW238553   1.602   0.135  13.883 -1.0447 -0.9827  0.0601
 8973SOL     OW38554   2.713   4.137   5.598  0.7710  0.4068  0.1242
 8973SOL    HW138555   2.751   4.134   5.686 -0.5723 -0.7838  0.6722
 8973SOL    HW238556   2.660   4.058   5.610  0.0319  0.8937  0.0207
 8974SOL     OW38557   1.032   4.186   8.820 -0.2137 -0.4102  0.4298
 8974SOL    HW138558   1.052   4.253   8.754 -1.5384 -2.2117 -1.8143
 8974SOL    HW238559   0.963   4.236   8.863 -0.4065 -0.0885 -0.2419
 8975SOL     OW38560   4.264   1.661   4.984 -0.0788  0.4779  0.0500
 8975SOL    HW138561   4.345   1.707   4.961 -0.1146  0.1877 -0.6785
 8975SOL    HW238562   4.287   1.593   5.047  0.2865  1.9811  1.5314
 8976SOL     OW38563   1.785   4.611   6.019  0.7276  0.4270 -0.5213
 8976SOL    HW138564   1.697   4.633   5.988  1.9957  1.6749 -3.2747
 8976SOL    HW238565   1.764   4.526   6.057 -0.4988  0.5422 -0.9552
 8977SOL     OW38566   2.788   1.241  12.707 -0.5626  0.3582  0.3883
 8977SOL    HW138567   2.741   1.266  12.628  2.1633  2.6567 -0.5211
 8977SOL    HW238568   2.870   1.290  12.695 -0.3887  0.0359  0.2729
 8978SOL     OW38569   2.595   3.034   7.940 -0.5118  0.1517 -0.1954
 8978SOL    HW138570   2.681   2.992   7.939 -0.3394  0.5086 -1.1357
 8978SOL    HW238571   2.625   3.123   7.918 -0.1892  0.0043 -0.3489
 8979SOL     OW38572   3.165   0.966  16.693  0.6100  0.1909  0.1994
 8979SOL    HW138573   3.083   0.916  16.700  0.2890  0.6497 -0.3182
 8979SOL    HW238574   3.194   0.937  16.607  0.1697 -1.1830  0.5063
 8980SOL     OW38575   2.387   1.544   7.652 -0.1275  0.1880 -0.4154
 8980SOL    HW138576   2.477   1.550   7.684 -0.7195 -0.5603  1.3676
 8980SOL    HW238577   2.332   1.530   7.728  0.8945  1.4111  0.5558
 8981SOL     OW38578   3.238   0.831   7.462 -0.1214  0.3846  0.1028
 8981SOL    HW138579   3.293   0.879   7.399  0.6871 -1.1879 -0.3927
 8981SOL    HW238580   3.303   0.782   7.512 -0.2616 -2.5791 -2.6087
 8982SOL     OW38581   4.351   0.342   7.157  0.1241 -0.4777 -0.4053
 8982SOL    HW138582   4.280   0.360   7.095  0.1232 -1.9867 -0.8442
 8982SOL    HW238583   4.333   0.384   7.242  1.4128 -0.5353 -0.0982
 8983SOL     OW38584   3.604   1.661   3.583 -0.7171  1.0457 -0.0620
 8983SOL    HW138585   3.596   1.566   3.589  0.2066  1.1919  3.2930
 8983SOL    HW238586   3.668   1.691   3.648  0.7467 -0.5255 -0.7875
 8984SOL     OW38587   4.638   4.666  17.337  0.5348  0.2637  0.1351
 8984SOL    HW138588   4.642   0.010  17.386  0.1808 -0.8229  1.9874
 8984SOL    HW238589   4.668   4.607  17.407 -3.2287 -0.5689  1.0702
 8985SOL     OW38590   3.956   2.098  17.512  0.3585  0.0512 -0.0023
 8985SOL    HW138591   4.002   2.020  17.483 -1.5056 -1.7406  1.8686
 8985SOL    HW238592   3.867   2.065  17.495  0.3681  0.3045 -0.5491
 8986SOL     OW38593   2.323   3.743   5.598 -0.3001  0.6588 -0.9378
 8986SOL    HW138594   2.246   3.796   5.619 -1.8710 -2.5403  1.3288
 8986SOL    HW238595   2.301   3.706   5.513 -0.2721 -1.3926 -0.0377
 8987SOL     OW38596   2.170   0.271   7.121  0.2604 -0.2472  0.1359
 8987SOL    HW138597   2.161   0.246   7.029 -2.4288  0.2519  0.2506
 8987SOL    HW238598   2.151   0.185   7.156  0.1658 -0.4432 -0.3962
 8988SOL     OW38599   2.535   3.468   5.902  0.5364  0.0396  0.0425
 8988SOL    HW138600   2.566   3.546   5.948 -1.6122  0.8203  0.1814
 8988SOL    HW238601   2.614   3.414   5.910  0.5782  0.1727  0.5249
 8989SOL     OW38602   4.498   1.102   8.556 -0.2061 -0.5317  0.0785
 8989SOL    HW138603   4.555   1.046   8.610  0.4313 -0.0531 -0.1006
 8989SOL    HW238604   4.410   1.066   8.566  0.0254 -0.3792  2.7193
 8990SOL     OW38605   3.016   2.422   1.889  0.2676 -0.2087 -0.2157
 8990SOL    HW138606   2.931   2.448   1.922  0.0896 -1.0457 -0.0115
 8990SOL    HW238607   3.074   2.464   1.952  1.2051  0.1373 -1.2957
 8991SOL     OW38608   4.532   4.072   2.052  0.1121 -0.0446 -0.0218
 8991SOL    HW138609   4.543   4.092   1.959 -1.5155 -0.0893 -0.2385
 8991SOL    HW238610   4.449   4.024   2.056  0.5411 -0.7240  0.8536
 8992SOL     OW38611   0.076   1.062   7.711  0.0305 -0.1696 -0.0957
 8992SOL    HW138612   0.029   0.996   7.659  0.3860 -0.0694 -0.5485
 8992SOL    HW238613   0.014   1.134   7.720  0.3690 -0.2343  2.7403
 8993SOL     OW38614   3.868   2.026   2.888  0.1175 -0.1347  0.3116
 8993SOL    HW138615   3.882   1.964   2.960  2.8050 -0.0664 -0.1514
 8993SOL    HW238616   3.958   2.052   2.869 -0.4366  0.4565 -1.4723
 8994SOL     OW38617   0.755   0.899   9.160 -0.1506  0.1485  0.4443
 8994SOL    HW138618   0.704   0.819   9.162  1.8921 -1.1025  2.7873
 8994SOL    HW238619   0.691   0.968   9.173 -1.1462 -0.6697 -0.1579
 8995SOL     OW38620   1.720   0.443   2.899  0.0043 -0.2565  0.4011
 8995SOL    HW138621   1.648   0.409   2.845 -0.4087 -0.2468  0.9523
 8995SOL    HW238622   1.695   0.404   2.982 -0.1233 -1.8284 -0.3702
 8996SOL     OW38623   0.042   1.754   2.246  0.5696  0.0990  0.1527
 8996SOL    HW138624   0.042   1.691   2.318 -0.0080  1.0495  0.9796
 8996SOL    HW238625   4.713   1.814   2.278 -0.1203 -0.5101 -0.1407
 8997SOL     OW38626   2.927   4.669   3.487  0.5178 -0.0182  0.6016
 8997SOL    HW138627   2.835   4.693   3.481  0.5797 -0.3015 -1.2041
 8997SOL    HW238628   2.928   4.617   3.407  0.8392 -1.2425  1.3896
 8998SOL     OW38629   1.187   3.688   0.037  0.3264  0.2980  0.2065
 8998SOL    HW138630   1.257   3.627   0.013  0.1951  0.0891  0.3565
 8998SOL    HW238631   1.109   3.635   0.023 -1.5368  3.0740  0.1097
 8999SOL     OW38632   1.209   0.880  16.670  0.3990 -0.3607 -0.2905
 8999SOL    HW138633   1.282   0.881  16.608  0.3228  0.8715 -0.3556
 8999SOL    HW238634   1.142   0.927  16.621 -0.5749  1.7920  3.1246
 9000SOL     OW38635   0.296   0.771   5.474 -0.0508  0.3726  0.1898
 9000SOL    HW138636   0.276   0.680   5.499 -0.2939  0.5175  0.5279
 9000SOL    HW238637   0.253   0.806   5.553 -0.0689  0.2976  0.2133
 9001SOL     OW38638   1.784   1.907   3.560  0.1532 -0.3933  0.3884
 9001SOL    HW138639   1.749   1.854   3.489 -1.0372  1.3630 -0.3315
 9001SOL    HW238640   1.706   1.927   3.611  0.1895  1.7361 -0.3776
 9002SOL     OW38641   0.617   3.612   9.577  0.0108 -0.1208 -0.1276
 9002SOL    HW138642   0.524   3.588   9.568 -0.3002  1.0448  0.0018
 9002SOL    HW238643   0.627   3.602   9.671 -1.5621 -0.8229 -0.0251
 9003SOL     OW38644   3.996   1.279   8.374 -0.2692 -0.4163  0.1082
 9003SOL    HW138645   4.090   1.294   8.377 -0.8190  2.4893  3.7287
 9003SOL    HW238646   3.987   1.202   8.319 -1.1897 -2.4747  3.1751
 9004SOL     OW38647   1.397   3.514   3.586 -0.4767 -0.0011 -0.2888
 9004SOL    HW138648   1.346   3.529   3.665  0.7324  0.7778  0.3389
 9004SOL    HW238649   1.386   3.421   3.567 -0.1005 -0.0075 -0.4769
 9005SOL     OW38650   2.094   1.845   5.462 -0.5810  0.0993 -0.0815
 9005SOL    HW138651   2.179   1.886   5.477 -0.1909 -0.7657  0.0559
 9005SOL    HW238652   2.121   1.779   5.398 -2.3464  0.8961 -1.6450
 9006SOL     OW38653   4.477   4.306   6.530 -0.1723  0.0300  0.2793
 9006SOL    HW138654   4.455   4.274   6.443  0.6690  1.2263 -0.3719
 9006SOL    HW238655   4.434   4.243   6.589 -0.3262 -0.5617 -0.4745
 9007SOL     OW38656   4.599   2.531   6.624  0.1592 -0.3798  0.9827
 9007SOL    HW138657   4.517   2.559   6.583  0.2780 -1.0429  0.2871
 9007SOL    HW238658   4.641   2.614   6.646  1.0183 -0.2196 -1.2936
 9008SOL     OW38659   4.657   3.552   7.080  0.0516 -0.1587 -0.4225
 9008SOL    HW138660   4.606   3.535   7.159  0.4738  0.2768 -0.0550
 9008SOL    HW238661   0.010   3.536   7.107  0.3219  2.0850 -0.0348
 9009SOL     OW38662   0.818   4.585   0.140  0.3572  0.0558  0.2033
 9009SOL    HW138663   0.911   4.580   0.163  0.5638 -0.7783 -0.8021
 9009SOL    HW238664   0.796   4.507   0.090 -0.6022  0.0614  0.6266
 9010SOL     OW38665   1.726   0.329  17.057  0.0344  0.3156  0.1720
 9010SOL    HW138666   1.774   0.402  17.096 -0.2364  0.2683  0.5901
 9010SOL    HW238667   1.788   0.258  17.069  1.3941  1.0086 -2.6522
 9011SOL     OW38668   0.005   1.908  14.286  0.0766  0.2106 -0.4652
 9011SOL    HW138669   4.724   2.002  14.280  0.0310  0.3071  1.3396
 9011SOL    HW238670   4.727   1.880  14.376 -0.8639  0.2619 -0.6132
 9012SOL     OW38671   0.662   1.103  13.961 -0.1994  0.0939  0.1030
 9012SOL    HW138672   0.751   1.075  13.984 -1.0262 -3.8120 -1.5793
 9012SOL    HW238673   0.629   1.022  13.924  1.9087 -0.3528 -0.8118
 9013SOL     OW38674   3.379   1.364   0.214  0.9285 -0.0348  0.0719
 9013SOL    HW138675   3.412   1.365   0.303 -1.1544  1.9226  0.8304
 9013SOL    HW238676   3.426   1.282   0.196  0.0943 -1.0728  2.7204
 9014SOL     OW38677   4.055   4.637   1.960 -0.5604 -0.6952 -0.5454
 9014SOL    HW138678   4.083   4.546   1.957 -1.7889 -1.2052  2.8756
 9014SOL    HW238679   4.070   4.660   1.869 -0.5796 -1.3547 -0.7125
 9015SOL     OW38680   1.814   3.259   6.769  0.2949  0.0428  0.1890
 9015SOL    HW138681   1.806   3.351   6.742 -1.4290  0.0134  0.5960
 9015SOL    HW238682   1.731   3.254   6.815  0.4517  0.7788  0.5602
 9016SOL     OW38683   4.182   1.726   9.467  0.4020  0.5733  0.0758
 9016SOL    HW138684   4.212   1.809   9.507 -0.9516  1.2089 -0.2518
 9016SOL    HW238685   4.112   1.756   9.409 -1.9624  0.0356  2.6563
 9017SOL     OW38686   3.078   2.088   2.983 -0.5063  0.1683  0.1403
 9017SOL    HW138687   3.114   2.094   3.072 -0.1271 -0.7299  0.0426
 9017SOL    HW238688   3.070   1.993   2.973  1.6580 -0.0572  0.6105
 9018SOL     OW38689   2.214   3.435   8.535  0.0838 -0.5201  0.0671
 9018SOL    HW138690   2.272   3.383   8.480 -0.6186  0.0009 -1.1843
 9018SOL    HW238691   2.219   3.386   8.617 -0.7861 -0.0971  0.3732
 9019SOL     OW38692   4.554   3.584   3.528 -0.9291  0.1488  0.3193
 9019SOL    HW138693   4.605   3.625   3.597 -0.0634  0.7390 -0.6662
 9019SOL    HW238694   4.623   3.529   3.490 -0.6487  0.4885  0.3380
 9020SOL     OW38695   1.816   2.860   7.523  0.6042  0.0379 -0.4385
 9020SOL    HW138696   1.816   2.767   7.544 -0.3689  0.5780  1.9430
 9020SOL    HW238697   1.793   2.906   7.604 -2.4720 -1.7723 -0.2702
 9021SOL     OW38698   0.305   3.947   3.823  0.4145 -0.4366 -0.3633
 9021SOL    HW138699   0.260   3.866   3.802 -2.7186  0.7117  1.9209
 9021SOL    HW238700   0.309   3.930   3.917  3.7361 -1.5522 -0.7339
 9022SOL     OW38701   1.748   3.792   7.158  0.5222  0.1231  0.0332
 9022SOL    HW138702   1.735   3.698   7.170 -0.9395  0.3459  0.2152
 9022SOL    HW238703   1.763   3.812   7.250 -0.3809 -1.7708  0.5915
 9023SOL     OW38704   3.570   0.875  13.554  0.2448 -0.3407  0.4024
 9023SOL    HW138705   3.488   0.923  13.569  1.2006  1.2887  0.3509
 9023SOL    HW238706   3.624   0.945  13.517 -1.3250 -0.1459 -1.5271
 9024SOL     OW38707   4.030   3.230   8.204 -0.3966 -0.3567  0.2362
 9024SOL    HW138708   4.085   3.220   8.126  1.6785 -0.3683  1.7005
 9024SOL    HW238709   3.955   3.263   8.154 -0.6540 -0.2530  0.6881
 9025SOL     OW38710   4.525   1.845   3.208 -0.2256  0.4146  1.2578
 9025SOL    HW138711   4.501   1.902   3.135  0.9597  0.7689  1.1501
 9025SOL    HW238712   4.542   1.915   3.271 -0.8676 -0.2146  2.1397
 9026SOL     OW38713   2.059   1.211   4.178  0.7520 -0.2939  0.3803
 9026SOL    HW138714   2.122   1.284   4.177 -0.3740  0.6755  0.6549
 9026SOL    HW238715   2.123   1.140   4.172  1.6370  0.5426 -0.0142
 9027SOL     OW38716   1.892   0.006   9.784 -0.0865 -0.4713  0.3937
 9027SOL    HW138717   1.809   0.006   9.831  0.0508  0.8537  0.6486
 9027SOL    HW238718   1.938   0.080   9.824  0.5615 -0.5704 -0.1772
 9028SOL     OW38719   3.022   0.891   4.743 -0.6300  0.1467  0.0496
 9028SOL    HW138720   3.051   0.853   4.659 -1.0311 -1.2022  0.5265
 9028SOL    HW238721   3.108   0.894   4.785 -0.1917 -0.3294 -0.8156
 9029SOL     OW38722   2.742   2.108  12.141  0.2194 -0.3596 -0.2710
 9029SOL    HW138723   2.746   2.037  12.205  2.5330 -0.5218 -0.6070
 9029SOL    HW238724   2.650   2.116  12.114  0.6910 -0.7565 -1.9303
 9030SOL     OW38725   3.821   1.472   6.507  0.2063 -0.2281  0.1100
 9030SOL    HW138726   3.859   1.484   6.594 -3.2163  1.2939  1.3884
 9030SOL    HW238727   3.738   1.520   6.497 -0.7339 -2.0917 -0.9893
 9031SOL     OW38728   2.897   2.793  16.129  0.0887  0.4336 -0.1014
 9031SOL    HW138729   2.842   2.785  16.052 -0.0091  2.9501 -0.2850
 9031SOL    HW238730   2.883   2.706  16.168  1.8375  0.3241  0.3119
 9032SOL     OW38731   1.064   0.615   4.979  0.0601  0.0239 -0.2171
 9032SOL    HW138732   1.014   0.658   5.047  0.0682  1.0628 -0.8724
 9032SOL    HW238733   1.096   0.540   5.031 -1.1396 -0.7003 -0.5242
 9033SOL     OW38734   4.471   4.402   3.936  0.4218 -0.2531  0.4499
 9033SOL    HW138735   4.508   4.434   3.854 -0.9262 -0.9158 -0.4180
 9033SOL    HW238736   4.413   4.337   3.898  0.4757  0.5844 -1.0825
 9034SOL     OW38737   2.318   0.206   2.752 -0.1614  0.4623 -0.0011
 9034SOL    HW138738   2.252   0.275   2.739  0.0773  0.8446  0.8343
 9034SOL    HW238739   2.272   0.123   2.736  0.8764 -0.4997  2.0231
 9035SOL     OW38740   4.504   4.595   5.514  0.2894  0.1322  0.5405
 9035SOL    HW138741   4.516   4.502   5.536 -2.2364 -0.1824  0.6203
 9035SOL    HW238742   4.422   4.608   5.563 -0.0004  3.0536 -0.7235
 9036SOL     OW38743   2.453   2.862  14.795 -0.2566 -0.2479  0.0039
 9036SOL    HW138744   2.408   2.806  14.857 -0.0377 -2.3778 -1.7568
 9036SOL    HW238745   2.448   2.953  14.826 -1.4582 -0.2829 -0.0847
 9037SOL     OW38746   2.412   2.089   8.196 -0.5239 -0.1706  0.2139
 9037SOL    HW138747   2.486   2.139   8.160 -1.3903  1.1702  0.2881
 9037SOL    HW238748   2.412   2.007   8.148 -4.6577 -0.6360  1.0003
 9038SOL     OW38749   0.260   0.061  16.986 -0.2930 -0.2049  0.4006
 9038SOL    HW138750   0.209   0.042  17.065 -0.9027  3.2733  0.8519
 9038SOL    HW238751   0.192   0.103  16.933  0.3944  2.0192  1.2877
 9039SOL     OW38752   1.459   3.100   5.830 -0.1157 -0.4833 -0.1540
 9039SOL    HW138753   1.457   3.132   5.920  0.8008  1.1422 -0.7137
 9039SOL    HW238754   1.389   3.153   5.792  0.5461  1.1073  0.8734
 9040SOL     OW38755   2.227   0.878  14.395 -0.0010 -0.3577 -0.0737
 9040SOL    HW138756   2.257   0.959  14.436 -0.6797 -0.4264  0.5537
 9040SOL    HW238757   2.134   0.899  14.384  0.0799  0.7532  1.3548
 9041SOL     OW38758   1.780   0.542   0.013 -0.2733  0.2245 -0.2046
 9041SOL    HW138759   1.740   0.458  17.743 -0.5246  0.7199 -1.7591
 9041SOL    HW238760   1.872   0.532  17.738 -0.4265 -0.9377 -0.2773
 9042SOL     OW38761   2.038   2.969  13.597  0.3092  0.7080  0.1723
 9042SOL    HW138762   1.968   2.920  13.639  0.4250  0.2361 -0.1872
 9042SOL    HW238763   1.988   3.013  13.528 -3.5899 -1.3047  1.7445
 9043SOL     OW38764   4.574   3.051  12.447 -0.1574 -0.0417 -0.1943
 9043SOL    HW138765   4.600   2.987  12.513 -0.4513 -0.0170 -0.0525
 9043SOL    HW238766   4.480   3.048  12.466  0.3128  0.7271  2.2107
 9044SOL     OW38767   4.168   1.486   6.375 -0.1953  0.9292  0.0143
 9044SOL    HW138768   4.146   1.579   6.372  0.9489  1.2124  0.2850
 9044SOL    HW238769   4.196   1.469   6.465 -1.7392 -1.1049  0.1208
 9045SOL     OW38770   2.233   2.539   7.742 -0.3130  0.2252  0.0381
 9045SOL    HW138771   2.277   2.534   7.827  0.5421 -1.2976 -0.4981
 9045SOL    HW238772   2.158   2.486   7.767 -1.0305  1.0293 -0.4307
 9046SOL     OW38773   0.873   2.920   2.367 -0.0693  0.5919 -1.2462
 9046SOL    HW138774   0.857   2.939   2.459  1.1020 -0.0310 -0.9209
 9046SOL    HW238775   0.805   2.977   2.329 -0.7285  1.7913  1.7560
 9047SOL     OW38776   2.697   4.524   8.315 -0.0477 -0.1501 -0.1572
 9047SOL    HW138777   2.771   4.468   8.337 -1.1921 -0.9481  1.6630
 9047SOL    HW238778   2.741   4.602   8.281  0.5893 -0.5263 -0.1908
 9048SOL     OW38779   3.842   0.418   5.149  0.4702 -0.6104 -0.0650
 9048SOL    HW138780   3.932   0.390   5.161 -0.3243 -2.8151  0.6693
 9048SOL    HW238781   3.798   0.358   5.209 -2.7276 -0.8390 -2.6340
 9049SOL     OW38782   4.223   2.874   2.054 -0.1642 -0.1089  0.6091
 9049SOL    HW138783   4.158   2.869   1.984  1.2897  2.0911 -0.9177
 9049SOL    HW238784   4.297   2.833   2.008  1.2169  1.4703  1.4021
 9050SOL     OW38785   0.861   3.391  10.600 -0.5908  0.0111 -0.3554
 9050SOL    HW138786   0.783   3.436  10.631  0.5486  1.1617  0.8554
 9050SOL    HW238787   0.842   3.300  10.620  2.2718 -0.5664 -0.1644
 9051SOL     OW38788   3.610   4.348   2.509 -0.1705 -0.0501 -0.5835
 9051SOL    HW138789   3.616   4.323   2.601  1.1101 -0.4083 -0.7753
 9051SOL    HW238790   3.586   4.261   2.478 -1.8432 -0.4534  1.8019
 9052SOL     OW38791   1.279   1.677  14.151 -0.0683  0.0591  0.1009
 9052SOL    HW138792   1.310   1.587  14.160 -0.1598 -0.1791 -2.0355
 9052SOL    HW238793   1.221   1.673  14.075  0.1311 -1.8616  0.0613
 9053SOL     OW38794   3.321   2.060   7.691 -0.2476  0.1909  0.4298
 9053SOL    HW138795   3.254   2.106   7.742  0.3161  1.8702 -0.3235
 9053SOL    HW238796   3.384   2.038   7.759 -0.1640 -2.5811 -0.5433
 9054SOL     OW38797   0.195   2.650   7.179  0.5472  0.6773 -0.5171
 9054SOL    HW138798   0.198   2.622   7.088  0.7060  1.0325 -0.6202
 9054SOL    HW238799   0.106   2.624   7.205  1.7338 -0.8917  2.0038
 9055SOL     OW38800   3.182   0.615   8.809  0.4535  0.4810  0.2422
 9055SOL    HW138801   3.254   0.557   8.784 -0.8556 -0.5240 -1.2645
 9055SOL    HW238802   3.111   0.562   8.846 -1.2118  2.3765 -0.2208
 9056SOL     OW38803   1.590   0.346   6.919  0.1788 -0.9686  1.0519
 9056SOL    HW138804   1.550   0.357   6.833 -0.4412 -0.1129  1.4456
 9056SOL    HW238805   1.572   0.417   6.980 -1.4605  0.0829 -0.6748
 9057SOL     OW38806   1.013   3.536   6.672 -0.0124 -0.1623 -0.6948
 9057SOL    HW138807   1.108   3.530   6.684 -0.0488 -3.0171 -1.9754
 9057SOL    HW238808   1.006   3.572   6.584 -1.4218 -2.4135 -1.4980
 9058SOL     OW38809   1.273   2.678  13.426 -1.0506 -0.2163  0.0670
 9058SOL    HW138810   1.221   2.731  13.366 -0.4018 -0.2041 -0.4787
 9058SOL    HW238811   1.292   2.613  13.359 -2.5118  0.2327 -0.7759
 9059SOL     OW38812   3.528   2.026   6.726  0.0173  0.1512 -0.3056
 9059SOL    HW138813   3.506   2.058   6.639 -1.2883 -0.0746 -0.0570
 9059SOL    HW238814   3.469   1.953   6.741 -0.0545  0.4356  0.8061
 9060SOL     OW38815   0.128   0.865  15.664 -0.4664 -0.3369  0.1433
 9060SOL    HW138816   0.181   0.788  15.684  0.2349  0.3718  1.0253
 9060SOL    HW238817   0.040   0.831  15.650 -0.7908  1.0489 -1.3160
 9061SOL     OW38818   1.498   3.670  17.100 -0.2773  0.2218  0.2998
 9061SOL    HW138819   1.542   3.591  17.070  0.4656 -0.1313  2.3504
 9061SOL    HW238820   1.438   3.676  17.025  0.5805 -4.9760 -0.8153
 9062SOL     OW38821   0.694   4.063   7.475 -0.1702 -0.1029  0.2176
 9062SOL    HW138822   0.630   3.995   7.455  0.7552 -0.5870 -1.1038
 9062SOL    HW238823   0.656   4.144   7.440  0.3401  0.0751  0.0742
 9063SOL     OW38824   1.674   1.649   7.531 -0.1305 -0.2320  0.0688
 9063SOL    HW138825   1.709   1.716   7.590  0.7865  0.2841 -1.0755
 9063SOL    HW238826   1.680   1.567   7.579 -0.0804 -1.0798 -1.3956
 9064SOL     OW38827   2.612   4.079   8.897 -0.4892 -0.0157 -0.3025
 9064SOL    HW138828   2.670   4.077   8.821  4.1063  0.2005  3.2472
 9064SOL    HW238829   2.533   4.031   8.869 -1.0369  0.0507  1.0983
 9065SOL     OW38830   0.800   2.792   0.354 -0.1234 -0.0973 -0.5594
 9065SOL    HW138831   0.730   2.836   0.306  1.1458  2.6089  0.0515
 9065SOL    HW238832   0.859   2.779   0.279 -1.0792  1.6038 -1.5993
 9066SOL     OW38833   2.332   0.634  13.086 -0.1953  0.2277  0.2864
 9066SOL    HW138834   2.312   0.551  13.129 -0.0827 -0.4598 -0.9979
 9066SOL    HW238835   2.262   0.691  13.119 -0.6385  0.3812 -0.9208
 9067SOL     OW38836   2.059   1.324  13.614  0.0535  0.0627  0.5032
 9067SOL    HW138837   2.148   1.337  13.646  1.1891 -1.3973 -2.0116
 9067SOL    HW238838   2.019   1.386  13.674  1.9965  2.8354 -1.0538
 9068SOL     OW38839   1.634   0.689   0.182  0.0848  0.0968 -0.8974
 9068SOL    HW138840   1.556   0.713   0.131 -1.0356 -1.5227  0.0707
 9068SOL    HW238841   1.695   0.643   0.125 -1.4720 -0.4952 -2.0658
 9069SOL     OW38842   0.651   3.444  11.510  0.5387 -0.6631  0.0314
 9069SOL    HW138843   0.692   3.529  11.494 -1.0735 -0.0531 -0.8611
 9069SOL    HW238844   0.664   3.431  11.604 -0.9137 -1.8026  0.0868
 9070SOL     OW38845   2.564   0.932   6.154 -0.2670  0.1351 -0.0499
 9070SOL    HW138846   2.536   0.848   6.189  1.8375 -0.7127 -0.4474
 9070SOL    HW238847   2.513   0.936   6.073  1.5258 -1.6061 -1.2549
 9071SOL     OW38848   4.719   0.518   7.901 -0.5855 -0.7060 -0.0852
 9071SOL    HW138849   0.038   0.477   7.966 -1.8720 -2.3206  0.0363
 9071SOL    HW238850   0.027   0.600   7.886 -3.4562  0.8417 -0.3799
 9072SOL     OW38851   2.668   3.748  14.844 -0.1609  0.0425 -0.2921
 9072SOL    HW138852   2.662   3.811  14.917 -0.1268 -0.1408 -0.1316
 9072SOL    HW238853   2.741   3.692  14.870  0.0614 -0.8082 -2.7733
 9073SOL     OW38854   4.602   3.219   2.346 -0.1126 -0.2301  0.5051
 9073SOL    HW138855   4.684   3.210   2.394  0.9566  2.1447 -0.8473
 9073SOL    HW238856   4.603   3.311   2.317 -0.7190 -0.0036  1.2026
 9074SOL     OW38857   3.712   3.035  10.697  0.6398 -0.1595 -0.5325
 9074SOL    HW138858   3.651   3.009  10.767  0.1005 -0.3622 -1.0843
 9074SOL    HW238859   3.744   3.118  10.732 -1.8803  0.6920 -0.2147
 9075SOL     OW38860   1.663   1.541   2.745  0.3076  0.3762 -0.1732
 9075SOL    HW138861   1.750   1.513   2.771 -0.4105 -0.7772  1.0129
 9075SOL    HW238862   1.646   1.600   2.818 -1.2667 -0.4319  0.1198
 9076SOL     OW38863   0.837   0.797   6.505  0.3466  0.5027 -0.8136
 9076SOL    HW138864   0.782   0.771   6.431 -1.7024  0.8118  0.5964
 9076SOL    HW238865   0.878   0.713   6.527  1.6170  1.2361 -0.3863
 9077SOL     OW38866   3.766   0.876   5.365  0.4597 -0.2220 -0.0389
 9077SOL    HW138867   3.860   0.893   5.364  0.1120  1.6946 -1.0788
 9077SOL    HW238868   3.747   0.828   5.284  0.7123 -1.1192  0.4261
 9078SOL     OW38869   4.654   2.368   4.791  0.1150  0.7810 -0.0346
 9078SOL    HW138870   4.635   2.454   4.754 -0.8492  0.4039 -0.4214
 9078SOL    HW238871   4.591   2.369   4.862  0.4113 -0.8109  0.2513
 9079SOL     OW38872   3.046   1.919   7.191 -0.2289  0.3482  0.3889
 9079SOL    HW138873   3.035   1.837   7.240 -2.0192  0.4187  0.0979
 9079SOL    HW238874   3.142   1.926   7.191 -0.1069 -1.2382 -2.5316
 9080SOL     OW38875   1.489   4.391   3.680  0.4658 -0.2266 -0.0071
 9080SOL    HW138876   1.473   4.356   3.768  1.2222 -2.9382 -0.9492
 9080SOL    HW238877   1.581   4.382   3.659 -0.3061 -3.2061 -2.0541
 9081SOL     OW38878   2.437   3.458   0.731  0.2964  0.6371 -0.2641
 9081SOL    HW138879   2.351   3.453   0.690 -1.0278  1.3220  2.4444
 9081SOL    HW238880   2.421   3.435   0.823  1.0282 -0.2599 -0.3581
 9082SOL     OW38881   3.508   3.125   2.950 -0.1535  0.5041  0.5414
 9082SOL    HW138882   3.570   3.179   2.901  0.5701 -1.0342 -0.2558
 9082SOL    HW238883   3.527   3.162   3.036  2.3120 -1.1518  0.7202
 9083SOL     OW38884   1.912   1.527   5.352  0.1471  0.7989 -0.0924
 9083SOL    HW138885   1.863   1.608   5.339 -1.5361  0.0627  1.7314
 9083SOL    HW238886   2.001   1.552   5.328  0.0840  0.6484 -0.4823
 9084SOL     OW38887   2.334   3.076   8.681  0.1274  0.1329  0.3966
 9084SOL    HW138888   2.374   3.081   8.767 -0.2263  1.0662  0.5070
 9084SOL    HW238889   2.398   3.127   8.631 -0.2006  1.3869  1.2699
 9085SOL     OW38890   0.870   2.449  10.407  0.2463  0.1741 -0.3979
 9085SOL    HW138891   0.947   2.443  10.350  0.2709  1.6996 -0.5156
 9085SOL    HW238892   0.802   2.419  10.348 -1.3193  0.9145  1.0209
 9086SOL     OW38893   3.596   0.859   2.891 -0.0591 -0.4956 -0.3099
 9086SOL    HW138894   3.663   0.807   2.936  2.4511  1.1714 -2.1432
 9086SOL    HW238895   3.579   0.797   2.819 -0.9821 -1.9265  1.1377
 9087SOL     OW38896   4.617   3.475  17.729  0.5041 -0.2045  0.1704
 9087SOL    HW138897   4.674   3.403  17.704 -1.3326 -0.2033 -4.0306
 9087SOL    HW238898   4.529   3.450  17.701  1.4301 -2.7632 -0.4216
 9088SOL     OW38899   1.254   2.286   7.045  0.3540 -0.5141 -0.0328
 9088SOL    HW138900   1.188   2.256   6.983 -0.0422  0.5717 -0.1377
 9088SOL    HW238901   1.328   2.238   7.007  1.1468  2.5391 -2.3802
 9089SOL     OW38902   3.079   2.646   8.589  0.4072  0.5425 -0.0748
 9089SOL    HW138903   3.123   2.561   8.585 -0.6505  0.0065 -0.3387
 9089SOL    HW238904   3.077   2.659   8.494  0.9812 -0.0847 -0.1784
 9090SOL     OW38905   2.795   0.908   5.890 -0.2718 -0.5331  0.5909
 9090SOL    HW138906   2.859   0.942   5.952 -1.2553 -0.1984  1.4201
 9090SOL    HW238907   2.734   0.981   5.882  1.1762  0.4057 -1.9157
 9091SOL     OW38908   1.927   2.782   4.627 -0.4361  0.1889  0.4033
 9091SOL    HW138909   1.983   2.829   4.689  1.5814 -0.5362 -0.8892
 9091SOL    HW238910   1.940   2.692   4.657  0.0845  0.3144  0.5473
 9092SOL     OW38911   1.196   3.744   1.594  0.3565  0.4189 -0.1730
 9092SOL    HW138912   1.241   3.759   1.677  0.2043  2.1519 -0.4065
 9092SOL    HW238913   1.267   3.735   1.530 -0.2651  0.9380 -0.9469
 9093SOL     OW38914   0.942   4.612  14.631 -0.4215  0.0105  0.5765
 9093SOL    HW138915   0.918   4.622  14.723 -2.0259 -0.1913  0.1704
 9093SOL    HW238916   1.005   4.683  14.625  0.5212 -0.7283  1.5141
 9094SOL     OW38917   0.675   1.276   4.333 -0.3120 -0.4111 -0.0873
 9094SOL    HW138918   0.648   1.297   4.423 -1.7142  0.0856 -0.6259
 9094SOL    HW238919   0.674   1.180   4.332 -3.8215 -0.3665 -0.2335
 9095SOL     OW38920   0.199   0.358   2.631 -0.0894 -0.2125 -0.1932
 9095SOL    HW138921   0.136   0.411   2.680  0.5875  0.6218 -0.2158
 9095SOL    HW238922   0.170   0.271   2.657  0.7368 -0.5259 -0.3236
 9096SOL     OW38923   4.714   1.218   8.260  0.0102  0.6214 -0.4621
 9096SOL    HW138924   0.055   1.185   8.303 -1.1321 -1.7283 -0.1249
 9096SOL    HW238925   4.656   1.142   8.262 -1.1754  1.5326 -0.2042
 9097SOL     OW38926   2.350   2.368   8.700  0.2926  0.0903 -0.5789
 9097SOL    HW138927   2.417   2.431   8.726  0.0219  0.1303  0.0115
 9097SOL    HW238928   2.407   2.303   8.659 -1.0311 -0.9317 -0.7967
 9098SOL     OW38929   2.397   1.628   5.975  0.1944 -0.0111 -0.2989
 9098SOL    HW138930   2.323   1.578   6.010  1.0123  0.6827  2.4347
 9098SOL    HW238931   2.373   1.618   5.883 -0.5538 -1.0897  0.0022
 9099SOL     OW38932   0.855   1.926   3.299  0.1050  0.2515  0.2620
 9099SOL    HW138933   0.814   1.912   3.384 -1.4329  0.6333 -0.4162
 9099SOL    HW238934   0.945   1.919   3.330 -0.4114 -1.0065  1.4622
 9100SOL     OW38935   2.037   4.187   8.501 -0.0316 -0.0152 -0.0426
 9100SOL    HW138936   1.983   4.110   8.521  0.0205  0.4217  1.7580
 9100SOL    HW238937   1.963   4.237   8.469 -1.0394 -2.0858 -0.9773
 9101SOL     OW38938   3.031   0.306  10.748 -0.0151  0.6319 -0.0776
 9101SOL    HW138939   3.058   0.305  10.839 -0.8789 -0.1468  0.1790
 9101SOL    HW238940   3.034   0.400  10.736 -2.0738  0.9997  2.1584
 9102SOL     OW38941   2.175   3.420   3.962  0.6501 -0.1445 -0.1718
 9102SOL    HW138942   2.199   3.358   3.893  0.2266  0.5484 -0.9396
 9102SOL    HW238943   2.241   3.403   4.030 -0.2252 -3.0195 -0.0509
 9103SOL     OW38944   3.799   3.233   3.655  0.1693  0.2667  0.1590
 9103SOL    HW138945   3.833   3.322   3.659 -1.5117  0.8840  0.2916
 9103SOL    HW238946   3.792   3.224   3.750 -3.0726  0.1348 -0.0921
 9104SOL     OW38947   0.971   0.297   4.393  0.4619  0.5313 -0.2433
 9104SOL    HW138948   0.925   0.381   4.394 -0.1547  0.1666  1.6909
 9104SOL    HW238949   1.015   0.303   4.477  1.2683  0.1786 -0.6478
 9105SOL     OW38950   3.236   0.227   3.976  0.1958  0.1099 -0.2849
 9105SOL    HW138951   3.145   0.257   3.990  0.5996  0.8226  0.8542
 9105SOL    HW238952   3.286   0.285   4.034 -1.4506  1.3224 -0.0652
 9106SOL     OW38953   0.707   4.306   6.341 -0.2737 -0.3779  0.2670
 9106SOL    HW138954   0.751   4.391   6.340 -0.2479 -0.3961 -0.2919
 9106SOL    HW238955   0.785   4.252   6.337 -0.9693 -1.5082  2.1479
 9107SOL     OW38956   2.609   1.303   3.583 -0.6862 -0.2944 -0.0127
 9107SOL    HW138957   2.610   1.331   3.675 -1.9606 -1.3174  0.3081
 9107SOL    HW238958   2.519   1.271   3.571 -1.7546  2.2616  1.1342
 9108SOL     OW38959   4.592   1.678   1.044  0.1256 -0.4491  0.4417
 9108SOL    HW138960   4.565   1.725   0.966  0.4999  1.4596  1.4697
 9108SOL    HW238961   4.687   1.680   1.037  0.0375  0.7874 -0.2345
 9109SOL     OW38962   1.984   2.619   1.795 -0.4179 -0.0164 -0.2773
 9109SOL    HW138963   1.961   2.667   1.715 -0.1319  1.6519  0.6297
 9109SOL    HW238964   1.931   2.541   1.779  0.6781 -1.7658  4.4810
 9110SOL     OW38965   2.888   3.177   3.914  0.4747  0.1886  0.5364
 9110SOL    HW138966   2.863   3.253   3.861 -1.8464 -1.3586 -0.5880
 9110SOL    HW238967   2.919   3.119   3.845 -0.5477  0.9323 -0.5360
 9111SOL     OW38968   3.351   1.820   3.643  0.2043  0.5477  0.1804
 9111SOL    HW138969   3.420   1.754   3.638  0.1996  0.4915  0.8132
 9111SOL    HW238970   3.362   1.855   3.555  3.6053 -1.3037 -0.1045
 9112SOL     OW38971   2.736   3.839   6.736  0.4410  0.1143 -0.0268
 9112SOL    HW138972   2.660   3.890   6.768  1.1911  0.0800  1.7939
 9112SOL    HW238973   2.745   3.869   6.645  0.1548 -2.3241 -0.8528
 9113SOL     OW38974   4.047   3.674  12.451  0.1977  0.6828 -0.3152
 9113SOL    HW138975   4.032   3.760  12.411  0.1890  0.5937 -0.5052
 9113SOL    HW238976   3.959   3.674  12.490  0.2581 -0.0220 -0.1687
 9114SOL     OW38977   2.937   3.628   2.414  0.1689 -0.2426  0.8310
 9114SOL    HW138978   2.974   3.605   2.500 -0.5551 -1.6482  0.7752
 9114SOL    HW238979   2.851   3.662   2.439  0.4386  0.9550  0.0571
 9115SOL     OW38980   2.250   0.855  12.136  0.1040  0.7305 -0.2945
 9115SOL    HW138981   2.314   0.791  12.105 -0.9231  0.8863 -2.6861
 9115SOL    HW238982   2.306   0.926  12.167 -2.7520  1.4166  3.3087
 9116SOL     OW38983   2.502   2.047   7.640 -0.3552  0.1771 -0.0673
 9116SOL    HW138984   2.435   2.104   7.600 -0.8050 -1.5448 -1.7946
 9116SOL    HW238985   2.473   1.959   7.617  0.1544  0.5663 -2.2591
 9117SOL     OW38986   3.029   3.255  17.611  0.0772  0.3365  0.0279
 9117SOL    HW138987   3.050   3.181  17.668  0.5400  1.4980  1.3547
 9117SOL    HW238988   2.981   3.208  17.543 -0.9369  1.6143 -0.1217
 9118SOL     OW38989   3.927   2.368   1.187 -0.6352  0.1592  0.4028
 9118SOL    HW138990   3.875   2.438   1.226  0.0581  1.7866 -1.6197
 9118SOL    HW238991   4.007   2.377   1.238  0.2705  2.7628 -1.4838
 9119SOL     OW38992   3.698   4.143   1.353  0.2699  0.0116 -0.3133
 9119SOL    HW138993   3.681   4.156   1.447  1.8689  2.3695 -0.3505
 9119SOL    HW238994   3.775   4.199   1.343  0.6851  0.1413  3.2895
 9120SOL     OW38995   0.009   1.969   8.407  0.5274  0.2403  0.3930
 9120SOL    HW138996   4.677   2.024   8.442  1.1889  0.0167  2.0536
 9120SOL    HW238997   0.035   2.002   8.321  1.5803 -1.3769  0.0919
 9121SOL     OW38998   3.087   4.161   1.964 -0.3557 -0.2437  0.7257
 9121SOL    HW138999   2.997   4.195   1.961  0.1233  0.9733 -0.0261
 9121SOL    HW239000   3.091   4.114   2.047  0.6077 -0.1267  0.7441
 9122SOL     OW39001   3.961   0.443   8.059  0.2071  0.2640  0.3413
 9122SOL    HW139002   4.011   0.508   8.011 -0.0746 -1.1548 -1.8802
 9122SOL    HW239003   3.876   0.457   8.018 -0.2534  2.1320  1.9414
 9123SOL     OW39004   0.081   1.150  12.980  0.1736  0.3206 -0.1029
 9123SOL    HW139005   0.146   1.123  13.045  0.9387  0.3079 -0.8718
 9123SOL    HW239006   0.054   1.072  12.933  1.1783 -0.3995  0.5234
 9124SOL     OW39007   1.664   0.659   4.316  0.1222 -0.3326 -0.2640
 9124SOL    HW139008   1.708   0.574   4.317  2.1242  0.7067 -0.5474
 9124SOL    HW239009   1.657   0.669   4.411 -0.8827 -2.2391 -0.1338
 9125SOL     OW39010   1.394   2.767   4.574 -0.2020 -0.7356 -0.5983
 9125SOL    HW139011   1.435   2.852   4.563 -0.1914 -0.2380  3.1080
 9125SOL    HW239012   1.308   2.798   4.600  1.0301  1.5017  0.8026
 9126SOL     OW39013   4.481   2.336   2.311 -0.8018 -0.0606 -0.0799
 9126SOL    HW139014   4.455   2.421   2.276 -1.3604  0.3359  1.2769
 9126SOL    HW239015   4.455   2.285   2.235  1.3024 -1.3481  0.0759
 9127SOL     OW39016   1.268   0.376   2.490  0.0945 -0.1665  0.3970
 9127SOL    HW139017   1.197   0.362   2.553  0.6104  2.1278  1.5036
 9127SOL    HW239018   1.341   0.326   2.527  1.2993  0.3415 -1.2970
 9128SOL     OW39019   3.330   4.122   3.297  0.4043 -0.3712 -0.2379
 9128SOL    HW139020   3.407   4.140   3.351 -0.0529 -2.8475  1.2526
 9128SOL    HW239021   3.313   4.044   3.349 -0.6052  0.4366  0.6411
 9129SOL     OW39022   1.892   1.216   3.116 -0.4360 -0.5380 -0.5601
 9129SOL    HW139023   1.822   1.204   3.053 -0.4329  0.7170 -0.8197
 9129SOL    HW239024   1.938   1.295   3.085  0.2424 -1.7933 -2.7627
 9130SOL     OW39025   1.065   1.505   4.832 -0.2129  0.0868  0.1404
 9130SOL    HW139026   1.071   1.567   4.905 -2.1336  1.1255 -0.5533
 9130SOL    HW239027   1.051   1.570   4.763  3.1306  0.8265  0.1692
 9131SOL     OW39028   4.333   3.548   2.192  0.1922 -0.0564 -0.4420
 9131SOL    HW139029   4.275   3.613   2.152 -0.3944  0.2279  0.8893
 9131SOL    HW239030   4.414   3.565   2.143  1.2205 -1.3981  0.7860
 9132SOL     OW39031   2.812   0.150   2.589  0.3136 -0.0278  0.1469
 9132SOL    HW139032   2.733   0.099   2.607 -0.7513  0.7228 -2.5252
 9132SOL    HW239033   2.865   0.072   2.571 -1.1280 -1.2888  1.4043
 9133SOL     OW39034   2.795   4.653   1.184 -0.1184  0.3178 -0.0545
 9133SOL    HW139035   2.867   4.644   1.246  0.9147  1.9155 -1.0315
 9133SOL    HW239036   2.818   4.584   1.122 -0.7120 -1.1224  1.3234
 9134SOL     OW39037   3.907   1.206   9.198 -0.2116  0.2334  0.5155
 9134SOL    HW139038   3.957   1.130   9.229  0.8973  0.2616 -1.2752
 9134SOL    HW239039   3.834   1.162   9.155 -0.6028  2.3770 -0.9825
 9135SOL     OW39040   0.299   1.001  11.272 -0.1363  0.2085 -0.2270
 9135SOL    HW139041   0.366   0.996  11.204  0.6051 -0.3031  0.5506
 9135SOL    HW239042   0.318   1.080  11.321  2.9245 -1.1563  0.8073
 9136SOL     OW39043   4.545   1.718   0.723  0.2407  0.7012  0.0648
 9136SOL    HW139044   4.637   1.745   0.720  0.7633 -1.0336 -0.0144
 9136SOL    HW239045   4.537   1.709   0.628  0.5335 -1.3303  0.2107
 9137SOL     OW39046   1.248   1.323   3.186  0.4627 -0.0727  0.1183
 9137SOL    HW139047   1.194   1.247   3.209 -1.0885  0.8561 -0.4259
 9137SOL    HW239048   1.297   1.343   3.266 -1.6286  2.1412  0.8623
 9138SOL     OW39049   4.456   3.735   4.056  0.3819 -0.3457  0.6652
 9138SOL    HW139050   4.366   3.722   4.025  0.9106  0.4075 -1.1606
 9138SOL    HW239051   4.468   3.819   4.011  0.0709  0.0625  1.3404
 9139SOL     OW39052   3.167   2.423   7.630  0.2382  0.0314  0.5215
 9139SOL    HW139053   3.137   2.365   7.699 -1.6766 -0.5497 -0.7712
 9139SOL    HW239054   3.087   2.466   7.599  1.5837  1.3846 -1.0861
 9140SOL     OW39055   3.854   2.392   9.217  0.2645  0.4216  0.0908
 9140SOL    HW139056   3.933   2.428   9.258  1.7365 -2.4521 -0.2545
 9140SOL    HW239057   3.898   2.327   9.163  1.2598  0.7116  0.5531
 9141SOL     OW39058   1.918   4.634   6.729  0.0055 -0.4675 -0.0727
 9141SOL    HW139059   1.936   4.642   6.635  0.4560  1.4833  0.1684
 9141SOL    HW239060   1.923   4.539   6.735 -2.8589 -0.5096  1.5986
 9142SOL     OW39061   3.935   1.169   0.662 -0.1998 -0.1601  0.3667
 9142SOL    HW139062   3.879   1.244   0.681  0.4463  0.6958 -1.1092
 9142SOL    HW239063   3.939   1.116   0.741  0.7875  0.2068  0.5566
 9143SOL     OW39064   2.553   3.921   5.638 -0.0279  0.0407  0.1452
 9143SOL    HW139065   2.466   3.880   5.638 -0.1531  0.3570 -2.1743
 9143SOL    HW239066   2.606   3.845   5.615  1.6129  1.1466  0.3219
 9144SOL     OW39067   4.208   0.562   3.423  0.0461  0.1139 -0.2947
 9144SOL    HW139068   4.175   0.584   3.510  1.1150 -1.6179  0.5510
 9144SOL    HW239069   4.203   0.466   3.418  2.3435  0.0546 -1.6989
 9145SOL     OW39070   0.786   2.953   3.993  0.4477 -0.6074 -0.3068
 9145SOL    HW139071   0.857   2.931   4.054 -0.8685 -1.0506  1.0754
 9145SOL    HW239072   0.713   2.899   4.025 -0.1617  0.4345  0.0604
 9146SOL     OW39073   1.349   0.613   4.240 -0.3885 -0.0291  0.0063
 9146SOL    HW139074   1.389   0.594   4.325  0.9788 -3.7641 -1.4596
 9146SOL    HW239075   1.370   0.530   4.196  0.0646  0.6592 -1.0861
 9147SOL     OW39076   0.230   0.674   3.052  0.3299 -0.4056  0.8845
 9147SOL    HW139077   0.254   0.664   3.144  1.9186 -0.3821  0.4737
 9147SOL    HW239078   0.309   0.719   3.025 -0.0877 -0.1232  0.1310
 9148SOL     OW39079   1.601   3.578   5.983  0.6333 -0.3698  0.0889
 9148SOL    HW139080   1.654   3.657   5.972  1.0261 -0.4298  1.4436
 9148SOL    HW239081   1.554   3.603   6.063  0.9149 -1.6986  0.6786
 9149SOL     OW39082   0.906   1.208   3.116  0.2189  0.2195  0.0652
 9149SOL    HW139083   0.858   1.268   3.059  0.5824 -1.9374 -2.5051
 9149SOL    HW239084   0.916   1.254   3.199 -1.2594  0.1942  0.2677
 9150SOL     OW39085   4.506   0.830   3.435  0.6461 -0.1310 -0.1553
 9150SOL    HW139086   4.439   0.848   3.501 -0.4124  0.3089 -1.3419
 9150SOL    HW239087   4.453   0.799   3.361  2.2058 -2.5367 -0.2433
 9151SOL     OW39088   3.033   0.807   8.388  0.2818 -0.0262 -0.3716
 9151SOL    HW139089   2.975   0.770   8.455  0.8914  0.2246  0.2892
 9151SOL    HW239090   3.058   0.718   8.367 -1.0258 -0.5036  0.0737
 9152SOL     OW39091   3.343   3.668   1.030  0.4053 -0.0797 -0.5212
 9152SOL    HW139092   3.372   3.581   1.003  0.1977 -0.2572 -0.1862
 9152SOL    HW239093   3.280   3.644   1.099  1.0904 -0.5258 -0.0568
 9153SOL     OW39094   3.056   3.494   8.915 -0.3618 -0.7122 -0.8036
 9153SOL    HW139095   3.136   3.471   8.962 -0.2241  1.0546 -0.1687
 9153SOL    HW239096   3.011   3.552   8.976 -1.5693  0.3608 -2.7293
 9154SOL     OW39097   3.021   2.554  10.650  0.4596 -0.1881 -0.4506
 9154SOL    HW139098   3.087   2.612  10.689  0.9884  1.0729 -3.2495
 9154SOL    HW239099   3.023   2.485  10.716 -1.0578 -0.1677 -0.3925
 9155SOL     OW39100   3.545   2.284   4.064  0.2785 -0.0999  0.1716
 9155SOL    HW139101   3.594   2.270   3.983 -1.6553 -1.5507 -0.7228
 9155SOL    HW239102   3.625   2.291   4.116  0.7743  0.2629 -0.6316
 9156SOL     OW39103   4.565   0.240   8.260 -0.1575  0.0764 -0.5706
 9156SOL    HW139104   4.550   0.334   8.248  2.3923  0.5636  0.1226
 9156SOL    HW239105   4.498   0.207   8.200  0.8130  0.4538 -1.8670
 9157SOL     OW39106   4.365   1.663   6.004  0.9681 -0.1404  0.3898
 9157SOL    HW139107   4.416   1.671   6.085  0.7457  2.7790  0.2227
 9157SOL    HW239108   4.394   1.578   5.970 -3.3231 -1.7557  0.7111
 9158SOL     OW39109   3.773   3.525  15.704 -0.3320 -0.3977  0.7369
 9158SOL    HW139110   3.699   3.490  15.654  0.6516  1.4265 -1.9536
 9158SOL    HW239111   3.745   3.516  15.795  0.7788 -0.8580  1.0295
 9159SOL     OW39112   3.500   1.905   5.501  0.5333  0.2375 -0.4299
 9159SOL    HW139113   3.408   1.887   5.479  0.8242 -0.1902 -1.2946
 9159SOL    HW239114   3.524   1.821   5.541  1.2530  0.3131 -0.7097
 9160SOL     OW39115   4.724   2.885   4.751  0.2166 -0.1557 -0.1109
 9160SOL    HW139116   4.693   2.976   4.747  0.7147  0.1834  3.2173
 9160SOL    HW239117   0.029   2.870   4.667  1.7499 -1.7703  0.9487
 9161SOL     OW39118   0.762   2.493   3.862 -0.2070  0.0784  0.0486
 9161SOL    HW139119   0.803   2.407   3.871 -0.1066  0.2313  1.0186
 9161SOL    HW239120   0.841   2.546   3.850  0.5884 -0.7920  1.4015
 9162SOL     OW39121   0.962   4.509   7.698  0.1407  0.9112 -0.1803
 9162SOL    HW139122   1.015   4.463   7.763 -0.3143  0.1521 -0.3427
 9162SOL    HW239123   0.973   4.447   7.626 -2.4268 -0.5443  0.7053
 9163SOL     OW39124   2.710   2.792  15.022  0.0912 -0.1090 -0.3468
 9163SOL    HW139125   2.650   2.828  15.087 -0.7656 -1.2334 -0.5173
 9163SOL    HW239126   2.715   2.699  15.044 -0.3805  0.2678  1.3203
 9164SOL     OW39127   3.711   1.980   5.870 -0.7436  0.0675 -0.3345
 9164SOL    HW139128   3.766   1.907   5.898 -1.4450  1.0303  3.5306
 9164SOL    HW239129   3.627   1.938   5.892  0.9093 -2.1772  1.6492
 9165SOL     OW39130   1.505   3.726   4.298  0.1973 -0.3038  0.5443
 9165SOL    HW139131   1.444   3.716   4.371  0.7808 -0.8179  0.9676
 9165SOL    HW239132   1.583   3.713   4.353  1.7016 -1.9277 -1.9357
 9166SOL     OW39133   1.612   4.129  13.960  0.3520 -0.4316 -0.5890
 9166SOL    HW139134   1.564   4.114  13.879 -0.1319 -0.7754 -0.2378
 9166SOL    HW239135   1.543   4.110  14.024  1.1294  1.1254  0.7139
 9167SOL     OW39136   4.370   1.761   8.563 -0.0724  0.0144  0.0829
 9167SOL    HW139137   4.454   1.715   8.567 -0.1563 -0.2618 -1.4820
 9167SOL    HW239138   4.333   1.691   8.616 -1.1588  0.8821  0.4739
 9168SOL     OW39139   2.998   0.549  12.662  0.1069  0.1719 -0.5060
 9168SOL    HW139140   2.984   0.571  12.570  0.4822  1.4992 -0.2573
 9168SOL    HW239141   3.045   0.629  12.687  0.7788 -1.1208  2.3265
 9169SOL     OW39142   4.592   0.527   8.295 -0.0281  0.6530 -0.0951
 9169SOL    HW139143   4.587   0.609   8.245  2.9156  0.5797 -0.5169
 9169SOL    HW239144   4.576   0.565   8.382 -0.0518  1.6152 -0.5169
 9170SOL     OW39145   1.493   3.350  13.463 -0.3037  0.3987  0.2319
 9170SOL    HW139146   1.547   3.413  13.415  0.3911  0.0244  0.5206
 9170SOL    HW239147   1.521   3.372  13.551  1.5266  3.2372 -1.0578
 9171SOL     OW39148   2.252   4.206   7.178  0.5134 -0.0546 -0.1256
 9171SOL    HW139149   2.264   4.186   7.271 -1.9819  0.7831  0.3592
 9171SOL    HW239150   2.306   4.285   7.166  0.6317 -0.0652  0.3243
 9172SOL     OW39151   4.645   2.344   6.343 -0.0386  0.1958  0.0219
 9172SOL    HW139152   4.659   2.348   6.248 -0.2028 -1.8447 -0.0764
 9172SOL    HW239153   4.597   2.425   6.357  0.6210  0.8171 -1.2621
 9173SOL     OW39154   0.364   4.023  16.715 -0.0806  0.0774 -0.3139
 9173SOL    HW139155   0.277   4.061  16.701 -0.7867 -1.5587 -0.3696
 9173SOL    HW239156   0.385   4.054  16.803  0.5143  0.3169 -0.5423
 9174SOL     OW39157   3.842   1.116   2.884  0.1024 -0.0861  0.0853
 9174SOL    HW139158   3.834   1.103   2.979 -0.4594 -0.9105 -0.0763
 9174SOL    HW239159   3.826   1.030   2.846 -1.0876  0.4831 -0.6773
 9175SOL     OW39160   2.702   3.557   4.368  0.5352 -0.5308  0.5236
 9175SOL    HW139161   2.784   3.602   4.348  0.3316  0.0730  1.0495
 9175SOL    HW239162   2.741   3.488   4.422 -0.5540 -3.0265 -1.8818
 9176SOL     OW39163   0.703   2.565   6.466  0.2916  0.2887 -0.4861
 9176SOL    HW139164   0.723   2.561   6.372 -0.8944  1.0265 -0.7758
 9176SOL    HW239165   0.632   2.502   6.480 -1.5759  2.5024  0.0164
 9177SOL     OW39166   0.376   3.977   4.353 -0.4121 -0.0713  0.4314
 9177SOL    HW139167   0.414   3.890   4.368 -0.4828  0.2532  2.5447
 9177SOL    HW239168   0.343   4.012   4.436 -0.3874 -1.2471  0.9405
 9178SOL     OW39169   2.696   0.476  10.575 -0.0839  0.2649 -0.1199
 9178SOL    HW139170   2.781   0.471  10.531  0.4231  0.2966  0.8404
 9178SOL    HW239171   2.638   0.440  10.508 -0.6012 -1.2809  1.1579
 9179SOL     OW39172   4.011   0.114   5.144 -0.6062 -0.5407  0.6709
 9179SOL    HW139173   4.094   0.158   5.127 -0.1633 -1.4038  0.6045
 9179SOL    HW239174   4.011   0.126   5.239 -1.4044 -0.3481  0.6467
 9180SOL     OW39175   2.065   2.266  13.677 -0.0770 -0.0897  0.3087
 9180SOL    HW139176   2.043   2.261  13.584 -0.0375  1.0224  0.2369
 9180SOL    HW239177   1.988   2.306  13.717  1.3784  2.1743  0.8428
 9181SOL     OW39178   0.998   0.795  15.044 -0.2074  0.5551 -0.0175
 9181SOL    HW139179   0.942   0.802  14.967 -1.8879  1.3755  1.2559
 9181SOL    HW239180   0.965   0.870  15.095 -1.2903 -0.0479  0.1821
 9182SOL     OW39181   4.612   4.061   8.361 -0.3743 -0.1415 -0.2486
 9182SOL    HW139182   4.536   4.118   8.348  0.2767  0.8961  0.5669
 9182SOL    HW239183   4.577   3.972   8.373  2.2467 -1.1797 -0.2530
 9183SOL     OW39184   0.498   3.371   5.897 -0.1941  0.0251  0.1052
 9183SOL    HW139185   0.457   3.418   5.969 -1.5657  2.4889 -2.2484
 9183SOL    HW239186   0.485   3.279   5.919  1.8123 -0.4276 -0.5581
 9184SOL     OW39187   3.241   2.806  14.734  0.0290  0.4538 -0.8058
 9184SOL    HW139188   3.238   2.737  14.668  1.4309 -0.1430 -0.2384
 9184SOL    HW239189   3.329   2.839  14.719  0.1404  0.7615  0.5358
 9185SOL     OW39190   1.864   3.331   6.140  0.1574 -0.1708  0.2284
 9185SOL    HW139191   1.778   3.304   6.107  1.3606 -1.1303 -2.0909
 9185SOL    HW239192   1.870   3.425   6.124  1.9764 -0.4367 -0.5929
 9186SOL     OW39193   4.091   1.887  17.422 -0.7629  0.3755 -0.6716
 9186SOL    HW139194   4.065   1.796  17.409  0.3639 -0.3735  2.3484
 9186SOL    HW239195   4.182   1.878  17.393 -0.8994  1.2060 -1.3795
 9187SOL     OW39196   3.336   0.014  17.031 -0.1661  0.2992  0.5978
 9187SOL    HW139197   3.409   4.708  16.988 -0.7991  0.8648 -1.0636
 9187SOL    HW239198   3.372   0.096  17.066 -1.1566  0.6688  0.7595
 9188SOL     OW39199   2.120   1.115   3.015  0.3109 -0.1923 -0.8493
 9188SOL    HW139200   2.025   1.125   3.015  0.4189  0.7791 -0.1884
 9188SOL    HW239201   2.146   1.186   2.956 -0.9504 -1.0041 -2.3763
 9189SOL     OW39202   4.724   2.778   9.002 -0.2290 -0.1010  0.1150
 9189SOL    HW139203   4.660   2.830   9.049  0.7015  2.4054 -1.3767
 9189SOL    HW239204   0.056   2.780   9.067 -1.0750 -0.3071  1.0178
 9190SOL     OW39205   2.597   2.704   3.746 -0.8025  0.1336  0.2719
 9190SOL    HW139206   2.604   2.669   3.835 -0.8066  1.8740  0.9650
 9190SOL    HW239207   2.533   2.774   3.756  0.2132  0.9788  0.8559
 9191SOL     OW39208   3.865   4.183   4.917  0.0574  0.2348  0.0363
 9191SOL    HW139209   3.785   4.230   4.943  0.4308  1.0871 -0.3399
 9191SOL    HW239210   3.903   4.167   5.003  0.9418 -1.4620 -0.6889
 9192SOL     OW39211   0.337   4.467   8.235  0.7822 -0.1465  0.3568
 9192SOL    HW139212   0.303   4.553   8.208  1.0633  0.6424  2.4847
 9192SOL    HW239213   0.284   4.447   8.312 -0.3933 -0.3480 -0.5197
 9193SOL     OW39214   1.392   2.377   2.357  0.0973 -0.0943  0.0922
 9193SOL    HW139215   1.365   2.299   2.308 -0.9031  1.9387 -2.5656
 9193SOL    HW239216   1.482   2.400   2.331  0.0434 -2.0137 -1.7824
 9194SOL     OW39217   2.080   4.157  13.720  0.1690  0.2821  0.0616
 9194SOL    HW139218   2.080   4.245  13.684  0.6891 -0.0874 -0.8592
 9194SOL    HW239219   1.997   4.167  13.766 -0.8044  2.9869 -2.2577
 9195SOL     OW39220   1.776   1.598  10.286 -0.1701  0.5410 -0.5928
 9195SOL    HW139221   1.735   1.681  10.307 -1.1344 -0.4077  1.2751
 9195SOL    HW239222   1.766   1.585  10.192  3.5118  0.0584 -0.9278
 9196SOL     OW39223   4.228   2.802   7.873  0.0173 -0.6024 -0.0986
 9196SOL    HW139224   4.262   2.843   7.953 -1.6037  0.4957  0.0056
 9196SOL    HW239225   4.144   2.771   7.905 -0.7364  2.2993  0.7408
 9197SOL     OW39226   0.241   0.620  11.003  0.5235  0.7704 -0.2491
 9197SOL    HW139227   0.331   0.637  11.033 -0.1142  1.6200  1.1901
 9197SOL    HW239228   0.250   0.626  10.908 -0.4077  1.9507 -0.2566
 9198SOL     OW39229   0.600   3.885  12.547  0.7220  0.9623  0.7590
 9198SOL    HW139230   0.617   3.862  12.455 -1.1726 -1.2513  0.9571
 9198SOL    HW239231   0.669   3.951  12.550 -0.2691  2.1391 -2.1890
 9199SOL     OW39232   0.998   3.108   1.419 -0.3012 -0.0533  0.4248
 9199SOL    HW139233   0.988   3.087   1.326  0.4804 -0.6495  0.4785
 9199SOL    HW239234   1.033   3.195   1.405 -0.4740 -0.2740 -1.3539
 9200SOL     OW39235   3.624   0.973  16.476 -0.2482  0.0203 -0.3985
 9200SOL    HW139236   3.676   0.960  16.555  0.1973 -0.6977 -0.8087
 9200SOL    HW239237   3.615   1.068  16.471 -0.5009  0.0546  0.7807
 9201SOL     OW39238   3.072   3.164   9.121  0.1460 -0.3797  0.6998
 9201SOL    HW139239   3.075   3.085   9.173  1.1549  0.0872  1.3348
 9201SOL    HW239240   3.011   3.134   9.053 -0.7337  2.4196  0.2058
 9202SOL     OW39241   3.174   3.157  10.124 -0.1032  0.0546 -0.2052
 9202SOL    HW139242   3.202   3.126  10.038  0.1812 -0.3084  0.0188
 9202SOL    HW239243   3.261   3.185  10.152 -0.1687 -0.0504  0.1041
 9203SOL     OW39244   1.869   2.635   7.890  0.0044 -0.3274  0.3299
 9203SOL    HW139245   1.869   2.688   7.970 -0.0791 -0.1817  0.2331
 9203SOL    HW239246   1.936   2.566   7.897 -0.3059 -0.6206  0.3948
 9204SOL     OW39247   4.719   0.061   8.112 -0.2195 -0.0306  0.0201
 9204SOL    HW139248   4.709   0.115   8.191  0.6210 -2.3809  1.7218
 9204SOL    HW239249   4.652   0.098   8.055  0.6959 -0.0361 -1.0580
 9205SOL     OW39250   0.857   2.337  11.169  0.0862  0.0362  0.0766
 9205SOL    HW139251   0.863   2.413  11.112  0.8131 -1.1378 -1.4387
 9205SOL    HW239252   0.819   2.272  11.109 -0.0796  0.1303  0.0816
 9206SOL     OW39253   3.493   3.556   7.193 -0.0158 -0.7475  0.2402
 9206SOL    HW139254   3.511   3.473   7.238  0.1187 -0.9941 -0.2638
 9206SOL    HW239255   3.458   3.613   7.262  1.8426 -0.1564  0.6861
 9207SOL     OW39256   2.003   3.310   8.289 -0.0454 -0.0364  0.6787
 9207SOL    HW139257   2.098   3.303   8.272 -0.0087  3.1032 -0.3989
 9207SOL    HW239258   1.996   3.221   8.324 -1.4052 -0.0894  0.2451
 9208SOL     OW39259   0.944   0.766   9.011 -0.3826 -0.6656  0.2238
 9208SOL    HW139260   0.892   0.793   9.086 -1.3826 -0.1625 -0.6389
 9208SOL    HW239261   1.030   0.765   9.052 -1.0884  2.3069  1.8009
 9209SOL     OW39262   0.838   1.768   5.468  0.0062  0.2092  0.3109
 9209SOL    HW139263   0.801   1.689   5.429 -1.4671  0.4270  1.2460
 9209SOL    HW239264   0.914   1.791   5.415 -0.1597 -1.5120 -0.6770
 9210SOL     OW39265   4.656   2.953  11.540 -0.1805  0.0728  0.0151
 9210SOL    HW139266   4.659   3.039  11.583 -0.6393 -0.2033  0.6001
 9210SOL    HW239267   4.643   2.893  11.613 -2.7629 -1.2421 -1.5266
 9211SOL     OW39268   0.297   2.432   8.405 -0.0511  0.5790  0.0613
 9211SOL    HW139269   0.288   2.364   8.472 -0.0211  0.5933  0.0801
 9211SOL    HW239270   0.326   2.379   8.331 -0.7318 -0.2163  0.3687
 9212SOL     OW39271   4.232   2.951   7.149  0.0668  0.5503 -0.3680
 9212SOL    HW139272   4.158   3.007   7.124 -1.5086 -0.8733  1.0826
 9212SOL    HW239273   4.219   2.873   7.094 -1.1088  1.6747 -1.6898
 9213SOL     OW39274   2.096   4.272   6.473  0.4254 -0.7242  0.5024
 9213SOL    HW139275   2.026   4.298   6.414  0.1817 -0.1782  1.0425
 9213SOL    HW239276   2.077   4.181   6.497 -0.6112 -0.8304 -0.7085
 9214SOL     OW39277   3.428   0.239  17.151 -0.4840 -0.7216  0.2562
 9214SOL    HW139278   3.380   0.317  17.126  0.8892  0.3563  0.9842
 9214SOL    HW239279   3.395   0.227  17.240 -2.1279  0.6503 -0.1765
 9215SOL     OW39280   3.756   0.459  11.154 -0.2182  0.3434  0.4035
 9215SOL    HW139281   3.803   0.538  11.184 -0.9847  1.1098 -0.4186
 9215SOL    HW239282   3.723   0.417  11.234 -0.8274 -1.4229 -0.7885
 9216SOL     OW39283   2.899   4.502   5.272 -0.1015 -0.4108  0.1102
 9216SOL    HW139284   2.944   4.586   5.274  1.1968 -1.1777  3.0575
 9216SOL    HW239285   2.924   4.470   5.359  2.4427 -1.7089 -1.0933
 9217SOL     OW39286   2.765   0.673  17.442  0.6311  0.0563 -0.0066
 9217SOL    HW139287   2.764   0.766  17.466 -3.8673 -0.1262  0.3826
 9217SOL    HW239288   2.843   0.681  17.386  0.0664  2.5007 -0.4511
 9218SOL     OW39289   3.033   2.775  13.991 -0.1378 -0.0997  0.0448
 9218SOL    HW139290   2.995   2.722  13.920 -1.2159  2.8542 -1.5962
 9218SOL    HW239291   3.108   2.798  13.937 -0.4929 -0.7218 -0.7260
 9219SOL     OW39292   1.497   3.846   9.024  0.2969 -0.0163  0.2930
 9219SOL    HW139293   1.472   3.845   9.117  1.6305  1.5325  0.6812
 9219SOL    HW239294   1.584   3.885   9.030 -0.3227  1.2810  0.9206
 9220SOL     OW39295   1.407   0.697  15.592 -0.8796  0.6597 -0.1109
 9220SOL    HW139296   1.364   0.761  15.648 -2.2789 -0.7846  0.4393
 9220SOL    HW239297   1.448   0.640  15.658  0.5690 -0.3300 -1.8511
 9221SOL     OW39298   1.001   0.791  17.336  0.2394  0.1149  0.2719
 9221SOL    HW139299   0.996   0.856  17.266  1.4324  0.2829  0.3480
 9221SOL    HW239300   1.017   0.706  17.293 -0.4301 -0.7218  1.6695
 9222SOL     OW39301   0.265   4.294  10.336  0.7827  0.0751 -0.3868
 9222SOL    HW139302   0.296   4.298  10.427 -0.7036  1.3307  0.0469
 9222SOL    HW239303   0.255   4.199  10.346  0.7453  0.3528  2.2194
 9223SOL     OW39304   4.373   0.669   4.120  0.5418  0.0809 -0.3130
 9223SOL    HW139305   4.315   0.647   4.194  3.2580  1.3372  2.1789
 9223SOL    HW239306   4.324   0.729   4.063  2.2155  1.3121 -0.4513
 9224SOL     OW39307   1.582   4.093   8.682  0.2326  0.0882 -0.3661
 9224SOL    HW139308   1.518   4.046   8.629 -2.7435  1.1732  2.2346
 9224SOL    HW239309   1.632   4.019   8.717  0.3800  0.4434  0.1757
 9225SOL     OW39310   3.409   0.148   2.285 -0.4730  0.0221 -0.1753
 9225SOL    HW139311   3.400   0.166   2.192 -1.9963  0.0712 -0.0254
 9225SOL    HW239312   3.395   0.053   2.277  0.7417 -0.2382  0.7290
 9226SOL     OW39313   1.906   0.108  12.532  0.3839  0.1103  0.1252
 9226SOL    HW139314   1.953   0.178  12.577  0.1526  1.3009 -1.4820
 9226SOL    HW239315   1.827   0.110  12.585 -0.4463  2.6577 -1.2111
 9227SOL     OW39316   3.304   2.495   2.246  0.6963  0.3601  0.0375
 9227SOL    HW139317   3.395   2.519   2.263  1.3856 -1.5609 -1.0383
 9227SOL    HW239318   3.305   2.500   2.150 -3.3111  0.2715 -0.0152
 9228SOL     OW39319   1.040   1.870   9.391 -0.1448 -0.6845  0.2111
 9228SOL    HW139320   0.983   1.878   9.315 -1.7104  0.4637  1.5024
 9228SOL    HW239321   1.103   1.803   9.365 -2.2381 -2.4952 -0.2668
 9229SOL     OW39322   1.268   0.707  13.052 -0.1841 -0.0531 -0.0246
 9229SOL    HW139323   1.283   0.627  13.002 -0.7265 -0.0855 -0.1395
 9229SOL    HW239324   1.269   0.779  12.988  0.3405  0.2692  0.3406
 9230SOL     OW39325   2.648   3.727   5.884  0.6243  0.0023  0.2741
 9230SOL    HW139326   2.616   3.707   5.796  2.5924 -2.3502  0.0927
 9230SOL    HW239327   2.732   3.768   5.866  0.5386  0.7603  1.6306
 9231SOL     OW39328   0.131   0.856   4.531 -0.1204 -0.0447  0.2125
 9231SOL    HW139329   0.136   0.772   4.484 -1.1179 -0.4473  0.8225
 9231SOL    HW239330   0.038   0.874   4.513 -0.6614  0.0942  3.2565
 9232SOL     OW39331   1.361   3.901  12.263 -0.7094  0.4133  0.7521
 9232SOL    HW139332   1.367   3.934  12.352  2.6872 -1.0644  1.0765
 9232SOL    HW239333   1.267   3.884  12.257 -1.1493  3.0402  0.0705
 9233SOL     OW39334   0.762   0.542   8.278 -0.5355 -0.3953 -0.0286
 9233SOL    HW139335   0.826   0.483   8.317  1.4891  1.3461 -0.7153
 9233SOL    HW239336   0.691   0.529   8.340 -0.9819 -0.1678 -0.4897
 9234SOL     OW39337   4.351   2.716  11.835 -0.8726 -0.5543 -0.0500
 9234SOL    HW139338   4.314   2.629  11.852  0.7371 -1.0307  0.9277
 9234SOL    HW239339   4.431   2.674  11.805  0.0616  1.2938 -0.1389
 9235SOL     OW39340   3.764   1.719   3.343  0.1833 -0.3393  0.4281
 9235SOL    HW139341   3.688   1.720   3.400  0.1271 -0.0785  0.3500
 9235SOL    HW239342   3.739   1.790   3.284  0.2470 -0.4861  0.2242
 9236SOL     OW39343   1.193   0.176  15.431 -0.5678  0.5120 -0.5484
 9236SOL    HW139344   1.194   0.115  15.357  2.4461  0.8138 -0.7361
 9236SOL    HW239345   1.238   0.132  15.503 -0.2991  1.5896 -0.0672
 9237SOL     OW39346   0.234   3.200   4.825 -0.9009  0.0491  0.1928
 9237SOL    HW139347   0.239   3.189   4.920 -2.1712  0.6342  0.3387
 9237SOL    HW239348   0.157   3.258   4.822  0.9876  2.6050  1.2493
 9238SOL     OW39349   1.566   3.738   8.449  0.4587  0.4529 -0.2304
 9238SOL    HW139350   1.644   3.688   8.475  0.4270 -1.2763 -3.4037
 9238SOL    HW239351   1.525   3.743   8.535 -0.0374  1.7605 -0.5520
 9239SOL     OW39352   4.205   4.732  17.357  0.1505  0.2266  0.0477
 9239SOL    HW139353   4.205   0.062  17.290  1.6127  0.3481  0.1700
 9239SOL    HW239354   4.224   4.646  17.320  0.6704 -0.0015  0.8419
 9240SOL     OW39355   3.071   2.438   0.239 -0.0752  0.0038  0.3652
 9240SOL    HW139356   3.029   2.353   0.221  0.3928  0.4093 -2.5945
 9240SOL    HW239357   3.005   2.499   0.208 -0.5640  0.6443  2.6444
 9241SOL     OW39358   2.891   2.406   6.386  0.0935  0.2401  0.1301
 9241SOL    HW139359   2.897   2.369   6.298  0.9636  1.0445 -0.1458
 9241SOL    HW239360   2.932   2.492   6.383  0.9867 -0.2089 -0.5841
 9242SOL     OW39361   4.437   4.271   8.577 -0.2505 -0.4778  0.3719
 9242SOL    HW139362   4.350   4.255   8.615 -0.5568  0.4690  0.0670
 9242SOL    HW239363   4.431   4.353   8.529  3.4486  0.9276  2.3328
 9243SOL     OW39364   2.546   4.186   7.718 -0.0216  0.0153 -0.1075
 9243SOL    HW139365   2.466   4.135   7.736 -1.1090  1.2866 -1.3722
 9243SOL    HW239366   2.576   4.203   7.807 -0.0167  0.3217 -0.1696
 9244SOL     OW39367   0.139   2.122  12.692  0.3212 -0.4109 -0.1879
 9244SOL    HW139368   0.078   2.177  12.642  1.2372  0.2922 -0.5250
 9244SOL    HW239369   0.175   2.071  12.620 -0.4501  0.0492 -0.9023
 9245SOL     OW39370   1.481   4.190  15.413  0.0392 -0.2187 -0.1476
 9245SOL    HW139371   1.569   4.169  15.444  0.0812  1.9870  1.2062
 9245SOL    HW239372   1.495   4.234  15.329  1.5483  1.2149  0.8494
 9246SOL     OW39373   4.087   2.846   8.691 -0.0651  0.2800 -0.5697
 9246SOL    HW139374   4.163   2.795   8.664  0.2361 -0.1658  1.1685
 9246SOL    HW239375   4.062   2.798   8.770 -0.6632  0.7205 -0.4871
 9247SOL     OW39376   2.905   0.433  10.383 -0.3062 -0.7023  0.0745
 9247SOL    HW139377   2.997   0.450  10.400 -0.0181 -1.9333 -0.2630
 9247SOL    HW239378   2.895   0.378  10.306  0.1902 -0.9497  0.1936
 9248SOL     OW39379   0.106   4.541   3.930 -0.0198 -0.2462 -0.1947
 9248SOL    HW139380   0.178   4.483   3.955 -2.4063 -2.6810  1.0012
 9248SOL    HW239381   0.077   4.579   4.013 -2.0080  2.0788 -1.9493
 9249SOL     OW39382   2.050   3.502   4.652  0.4529 -0.6672 -0.4817
 9249SOL    HW139383   2.100   3.456   4.585 -0.2105 -0.5583 -1.0531
 9249SOL    HW239384   2.116   3.559   4.693 -0.6222  1.3068 -1.5324
 9250SOL     OW39385   4.683   1.452  10.410 -0.6807  0.7081 -0.0974
 9250SOL    HW139386   4.711   1.436  10.499  1.2398  0.6208 -0.7158
 9250SOL    HW239387   0.000   1.523  10.375  1.3242 -0.4442  0.7875
 9251SOL     OW39388   3.560   1.284   8.398 -0.0982 -0.5406  0.5361
 9251SOL    HW139389   3.556   1.317   8.488 -1.4847  0.6660  0.0483
 9251SOL    HW239390   3.652   1.306   8.385 -0.3446  1.7794  2.5898
 9252SOL     OW39391   1.262   1.428   2.916 -0.2878 -0.3681  0.0202
 9252SOL    HW139392   1.356   1.413   2.914  0.0670  1.6230  1.7767
 9252SOL    HW239393   1.249   1.376   2.995 -0.0806 -1.2009 -0.4999
 9253SOL     OW39394   1.866   0.664   3.744 -0.0665 -0.0186  0.0162
 9253SOL    HW139395   1.853   0.693   3.654 -1.4217 -0.3243  0.1191
 9253SOL    HW239396   1.858   0.743   3.798  0.2347  0.0171  0.0092
 9254SOL     OW39397   3.995   0.531   8.732 -0.3480  0.3300  0.1120
 9254SOL    HW139398   4.002   0.473   8.808 -1.3638 -0.2533 -0.2288
 9254SOL    HW239399   4.078   0.578   8.735  1.1224 -2.2033 -1.1194
 9255SOL     OW39400   0.471   0.739   8.694 -0.3538  0.0560 -0.0590
 9255SOL    HW139401   0.524   0.746   8.773  0.6179  1.2734 -0.8201
 9255SOL    HW239402   0.495   0.650   8.668  0.4558 -0.0080  0.8921
 9256SOL     OW39403   1.055   0.307   4.668  0.7230 -0.4181 -0.1604
 9256SOL    HW139404   1.090   0.394   4.688  0.4078 -0.7450  1.8563
 9256SOL    HW239405   1.112   0.254   4.725  0.8461  1.3475  1.3594
 9257SOL     OW39406   2.015   0.924  11.642  0.0035 -0.3833 -0.0352
 9257SOL    HW139407   2.090   0.916  11.584 -1.3195  0.8741 -1.9097
 9257SOL    HW239408   1.982   1.009  11.613 -1.5020 -0.5558  1.1733
 9258SOL     OW39409   1.608   1.037   6.247  0.3573 -0.5984 -0.2164
 9258SOL    HW139410   1.629   1.090   6.324  1.4739 -0.3756 -0.6825
 9258SOL    HW239411   1.570   0.956   6.281  2.3191 -1.2171  0.4805
 9259SOL     OW39412   1.148   1.851   0.285 -0.0496 -0.4426 -0.0699
 9259SOL    HW139413   1.180   1.763   0.305 -1.1199 -0.7301  0.3805
 9259SOL    HW239414   1.096   1.858   0.365 -0.8501  1.2554 -0.7430
 9260SOL     OW39415   1.505   0.827   2.265 -0.0208  0.0713 -0.0930
 9260SOL    HW139416   1.460   0.906   2.293  0.7279  0.1961  0.7661
 9260SOL    HW239417   1.445   0.767   2.309  0.3433  0.4736  0.9604
 9261SOL     OW39418   0.914   3.889   3.101  0.2420  0.0572  0.1094
 9261SOL    HW139419   0.996   3.937   3.112  0.0463  0.9651 -2.3050
 9261SOL    HW239420   0.911   3.894   3.005 -0.2662  0.1626  0.1331
 9262SOL     OW39421   0.426   2.112   5.748  0.5062  0.0355 -0.3852
 9262SOL    HW139422   0.427   2.019   5.772 -0.0254  0.7109  2.1976
 9262SOL    HW239423   0.371   2.107   5.669  1.1668 -0.0147 -0.8459
 9263SOL     OW39424   2.122   1.565  11.832  0.0910 -0.1534 -0.1655
 9263SOL    HW139425   2.164   1.536  11.913 -0.1197 -0.4644 -0.1669
 9263SOL    HW239426   2.124   1.661  11.828  2.1623 -0.1260  2.0821
 9264SOL     OW39427   0.117   0.289   0.430 -0.5332  0.5188 -0.5141
 9264SOL    HW139428   0.028   0.273   0.462  1.0793  0.2639  3.8616
 9264SOL    HW239429   0.166   0.310   0.509 -0.7190 -0.6971 -0.0777
 9265SOL     OW39430   1.349   3.936   2.796  0.4086  0.4118 -0.5275
 9265SOL    HW139431   1.293   3.863   2.824 -0.4873  1.1237 -0.4478
 9265SOL    HW239432   1.281   3.983   2.748 -0.2016  0.4741  0.3938
 9266SOL     OW39433   2.113   2.005   6.786 -0.3205  0.1052  0.0150
 9266SOL    HW139434   2.108   2.099   6.766  0.3601  0.1274 -0.0228
 9266SOL    HW239435   2.196   2.000   6.832  0.6794  2.4507 -1.5491
 9267SOL     OW39436   2.308   1.348   5.727 -0.4756 -0.6641  0.1275
 9267SOL    HW139437   2.231   1.349   5.670  0.5822  0.9761 -1.2674
 9267SOL    HW239438   2.333   1.441   5.726  1.3288 -1.1304  1.7536
 9268SOL     OW39439   4.422   1.132   1.072 -0.2847 -0.0772  0.0421
 9268SOL    HW139440   4.383   1.074   1.007 -0.4722 -1.1596  1.1082
 9268SOL    HW239441   4.509   1.131   1.033 -0.8345 -0.1620 -1.1806
 9269SOL     OW39442   2.946   3.641   4.307 -0.2061  0.6727 -0.0035
 9269SOL    HW139443   2.954   3.667   4.215  0.0685  0.2015 -0.1109
 9269SOL    HW239444   3.035   3.623   4.339  0.1788 -0.1910 -1.5628
 9270SOL     OW39445   4.223   1.055   8.510 -0.0924  0.0928  0.9151
 9270SOL    HW139446   4.147   1.071   8.566  1.3262  3.1173  1.9655
 9270SOL    HW239447   4.211   0.961   8.499 -0.2896 -0.0239  2.0791
 9271SOL     OW39448   2.943   0.771   3.488  0.4383 -0.1261  0.0178
 9271SOL    HW139449   2.970   0.694   3.439 -0.1660 -1.2205  1.4172
 9271SOL    HW239450   3.006   0.835   3.454 -0.2191 -0.4706 -1.8641
 9272SOL     OW39451   3.608   2.105   5.276 -0.9104 -0.3999 -0.0098
 9272SOL    HW139452   3.692   2.068   5.302 -0.7942  0.2077  0.4930
 9272SOL    HW239453   3.544   2.053   5.325 -0.2405 -1.8102 -0.6332
 9273SOL     OW39454   2.582   4.537  16.523  0.0188  0.4970  0.0856
 9273SOL    HW139455   2.589   4.613  16.466 -0.9494 -0.6269 -1.5183
 9273SOL    HW239456   2.625   4.584  16.595 -0.1591 -0.2606  0.6820
 9274SOL     OW39457   4.505   3.068  17.273 -0.3113 -0.6346 -0.0519
 9274SOL    HW139458   4.496   2.976  17.245  1.7736 -0.7420 -0.3361
 9274SOL    HW239459   4.422   3.112  17.255 -0.3728 -1.0240 -0.7485
 9275SOL     OW39460   0.955   1.137  14.061 -0.6555  0.3110 -0.6201
 9275SOL    HW139461   0.930   1.229  14.075 -0.9701 -0.0357  1.0398
 9275SOL    HW239462   1.049   1.152  14.071 -0.6359  0.1277 -0.5316
 9276SOL     OW39463   1.180   4.485   7.860  0.1417  0.0582  0.0768
 9276SOL    HW139464   1.195   4.463   7.952 -3.5911 -1.0176  0.4301
 9276SOL    HW239465   1.211   4.576   7.860  0.2132  0.0308 -1.6462
 9277SOL     OW39466   2.213   2.353  13.432 -0.3234  0.2196 -0.1841
 9277SOL    HW139467   2.119   2.335  13.433 -0.1582 -0.4941  2.3180
 9277SOL    HW239468   2.237   2.266  13.402  1.0081  1.2437 -2.0899
 9278SOL     OW39469   0.274   3.405   4.020  0.4424 -0.1581  0.1552
 9278SOL    HW139470   0.193   3.383   3.973 -0.5063  0.5771  1.4552
 9278SOL    HW239471   0.310   3.317   4.026 -1.8765 -1.0538  0.6617
 9279SOL     OW39472   3.962   4.727  12.688  0.0847  0.4550 -0.8617
 9279SOL    HW139473   3.901   4.727  12.614 -0.6995  0.9299 -0.2121
 9279SOL    HW239474   3.984   0.080  12.707 -1.2966  0.9307 -1.5012
 9280SOL     OW39475   2.402   0.928   5.883  0.0098  0.2973 -0.0192
 9280SOL    HW139476   2.442   0.966   5.805 -1.4710  0.7874 -0.5378
 9280SOL    HW239477   2.344   0.999   5.912 -1.1110 -0.5872 -0.1066
 9281SOL     OW39478   0.981   4.368   4.176 -0.4870 -0.2591 -0.4238
 9281SOL    HW139479   0.894   4.380   4.138  0.7734  1.0681 -2.8441
 9281SOL    HW239480   0.967   4.303   4.245 -1.0953  0.5314  0.1989
 9282SOL     OW39481   1.846   1.577  12.376 -0.1619 -0.4129 -0.0548
 9282SOL    HW139482   1.816   1.595  12.465 -2.5547 -2.1881 -0.5060
 9282SOL    HW239483   1.843   1.482  12.376 -0.4948 -0.4011  0.8542
 9283SOL     OW39484   0.456   4.346  10.016  0.9253 -0.5281  0.2192
 9283SOL    HW139485   0.549   4.360  10.033  0.7815  1.0293 -0.2641
 9283SOL    HW239486   0.412   4.417  10.063  0.7993 -1.8265  2.0732
 9284SOL     OW39487   4.697   4.647   9.024  0.4830 -0.5454  0.3069
 9284SOL    HW139488   0.053   4.666   9.023  0.4855 -0.6442 -0.9268
 9284SOL    HW239489   4.704   4.554   9.045  2.3737 -0.8717 -1.8097
 9285SOL     OW39490   2.135   2.015   4.111  0.7603 -0.4838 -0.0637
 9285SOL    HW139491   2.225   1.986   4.097  1.0733  0.6932 -0.4852
 9285SOL    HW239492   2.084   1.945   4.069 -0.2859 -0.5643  1.3187
 9286SOL     OW39493   2.128   3.932  15.817 -0.2917 -0.0996  0.3315
 9286SOL    HW139494   2.111   3.861  15.879 -0.5533 -0.7237 -0.4485
 9286SOL    HW239495   2.215   3.905  15.786  0.8741  2.3494  1.5639
 9287SOL     OW39496   4.541   0.206  15.615 -0.5797 -0.3490 -0.1216
 9287SOL    HW139497   4.451   0.195  15.584 -1.4012  0.0083  2.1479
 9287SOL    HW239498   4.579   0.276  15.562  0.7547 -0.3135  0.8962
 9288SOL     OW39499   2.868   1.723   6.784  0.0122  0.9730 -0.3591
 9288SOL    HW139500   2.861   1.783   6.858  0.2743 -1.1655  1.4169
 9288SOL    HW239501   2.837   1.781   6.715  3.7954  2.2676 -0.9661
 9289SOL     OW39502   3.062   1.559  17.748  0.3745  0.4388  0.5527
 9289SOL    HW139503   3.049   1.532  17.657 -2.5939 -2.2524  1.7645
 9289SOL    HW239504   3.080   1.652  17.732 -0.3470  0.5719  0.5197
 9290SOL     OW39505   3.169   0.405   7.610 -0.0005 -0.5459  0.0971
 9290SOL    HW139506   3.111   0.473   7.645  0.3059 -0.2398  0.0075
 9290SOL    HW239507   3.197   0.448   7.529 -0.2908 -1.3250 -0.4188
 9291SOL     OW39508   4.557   4.594  15.766  0.2021  0.3987  0.1076
 9291SOL    HW139509   4.638   4.637  15.740  0.2958 -0.4971 -1.1108
 9291SOL    HW239510   4.526   4.664  15.823 -1.0059  1.9678 -2.4333
 9292SOL     OW39511   0.661   4.391  11.715 -0.3639  0.0694 -1.3737
 9292SOL    HW139512   0.689   4.467  11.766  0.7762  0.0847 -2.0305
 9292SOL    HW239513   0.595   4.440  11.665  0.6156  1.0162 -1.7393
 9293SOL     OW39514   1.065   4.528   0.222 -0.2661 -0.2123  0.1228
 9293SOL    HW139515   1.132   4.586   0.187  1.1021 -1.4124  0.7449
 9293SOL    HW239516   1.097   4.496   0.306  1.3875  1.7553  0.2247
 9294SOL     OW39517   3.383   1.216  11.668  0.3106  1.2627  0.2306
 9294SOL    HW139518   3.296   1.219  11.629 -0.2469 -1.4929  1.2980
 9294SOL    HW239519   3.420   1.303  11.653  1.0741  1.2831  2.1385
 9295SOL     OW39520   3.733   0.435  15.109  0.1341  0.7971  0.1056
 9295SOL    HW139521   3.712   0.350  15.072  1.6620 -0.0022  1.0590
 9295SOL    HW239522   3.642   0.457  15.089 -0.1628  0.3153  0.9164
 9296SOL     OW39523   0.993   0.979  12.592 -0.0803 -0.6737 -0.1831
 9296SOL    HW139524   1.014   1.071  12.610  1.3878 -0.9058 -0.6605
 9296SOL    HW239525   1.073   0.959  12.544  1.2414 -0.8077  2.0567
 9297SOL     OW39526   0.249   4.139  17.528  0.6942 -0.2441 -0.1975
 9297SOL    HW139527   0.315   4.169  17.592 -0.0919 -0.7318  0.8489
 9297SOL    HW239528   0.217   4.221  17.493 -0.3903 -1.1110 -1.1989
 9298SOL     OW39529   0.416   2.686   2.599  0.4353 -0.0509  0.0525
 9298SOL    HW139530   0.369   2.604   2.582  1.7130  0.0404 -3.8009
 9298SOL    HW239531   0.502   2.653   2.626 -0.2560 -2.9132 -1.2490
 9299SOL     OW39532   0.453   2.076   7.980  0.7880  0.4365  0.1299
 9299SOL    HW139533   0.532   2.105   8.026  0.3356 -2.5416  2.7518
 9299SOL    HW239534   0.390   2.063   8.051  0.6017  0.9832  0.0654
 9300SOL     OW39535   0.947   1.126   1.159  0.0479  0.2471  0.1103
 9300SOL    HW139536   0.926   1.044   1.114  0.6154  0.6519 -0.8952
 9300SOL    HW239537   0.879   1.119   1.225  0.1641  3.1596  0.5433
 9301SOL     OW39538   3.185   3.769   7.403 -0.1606  0.0839 -0.7566
 9301SOL    HW139539   3.174   3.858   7.436 -0.0665  0.1535 -0.9098
 9301SOL    HW239540   3.118   3.763   7.335  0.6090 -0.9989 -1.4177
 9302SOL     OW39541   3.571   0.862   9.223 -0.2967 -0.1892  0.7591
 9302SOL    HW139542   3.616   0.938   9.186 -1.5719  1.2464  2.1895
 9302SOL    HW239543   3.558   0.824   9.137  1.2552 -0.2431  0.5387
 9303SOL     OW39544   1.090   3.195   7.735  0.6866 -0.1411  0.4003
 9303SOL    HW139545   1.059   3.270   7.685 -3.3133 -2.2562 -0.2894
 9303SOL    HW239546   1.008   3.173   7.779  1.7109 -2.4889  1.1753
 9304SOL     OW39547   3.462   2.426   3.382 -0.3224 -0.6728  0.2668
 9304SOL    HW139548   3.536   2.485   3.366  1.0916 -1.9581  1.9815
 9304SOL    HW239549   3.470   2.407   3.476 -1.3848 -3.2507 -0.1464
 9305SOL     OW39550   4.242   2.618   4.185  0.1201 -0.1447  0.2053
 9305SOL    HW139551   4.307   2.607   4.116 -2.5948 -0.4208 -2.3520
 9305SOL    HW239552   4.267   2.695   4.237 -1.0599  0.7326 -0.5184
 9306SOL     OW39553   2.103   0.174   2.984 -0.6982  0.6796  0.1198
 9306SOL    HW139554   2.192   0.168   3.018  0.0090  0.6277 -1.7314
 9306SOL    HW239555   2.116   0.241   2.917 -0.4997 -0.8394 -1.3516
 9307SOL     OW39556   2.657   4.443   6.855 -0.6792  0.5263 -0.0603
 9307SOL    HW139557   2.642   4.533   6.828 -1.4297 -0.6731 -3.5464
 9307SOL    HW239558   2.568   4.406   6.847  0.1419 -1.1320 -1.4635
 9308SOL     OW39559   4.343   3.381   1.103  0.4401 -0.2406  0.4504
 9308SOL    HW139560   4.416   3.346   1.052  0.9370  0.6782  0.5390
 9308SOL    HW239561   4.379   3.468   1.120 -0.8467  0.3505  0.2198
 9309SOL     OW39562   0.310   2.330   6.024 -0.2238  0.3849 -0.1956
 9309SOL    HW139563   0.275   2.384   6.094 -0.9253  0.0250 -0.2656
 9309SOL    HW239564   0.382   2.291   6.074 -0.0699 -0.0555 -0.7543
 9310SOL     OW39565   1.753   2.021   2.834  0.3683 -0.3150  0.0997
 9310SOL    HW139566   1.803   1.952   2.877  1.0994 -0.0538 -0.3317
 9310SOL    HW239567   1.782   2.100   2.880  1.3461 -0.3490 -0.4507
 9311SOL     OW39568   2.966   0.599  12.396 -0.4924 -0.5692 -0.5657
 9311SOL    HW139569   2.884   0.648  12.399  0.3130  0.6957  0.7956
 9311SOL    HW239570   3.029   0.647  12.342  0.5017  1.1665  2.1332
 9312SOL     OW39571   0.522   2.491   7.660  0.6253  0.0101  0.1889
 9312SOL    HW139572   0.569   2.492   7.576 -0.0203 -1.9357 -0.2136
 9312SOL    HW239573   0.549   2.402   7.683 -0.0437 -0.6852 -1.6519
 9313SOL     OW39574   1.260   1.000  16.914  0.4824  0.4642  0.1084
 9313SOL    HW139575   1.275   0.974  16.823  1.4824  1.6023 -0.0365
 9313SOL    HW239576   1.286   1.091  16.911 -3.6101  1.6574 -0.0268
 9314SOL     OW39577   2.807   3.557   7.084  0.2672  0.1549  0.4400
 9314SOL    HW139578   2.845   3.639   7.052 -2.5671  1.7469  1.1115
 9314SOL    HW239579   2.837   3.565   7.175  2.2835 -1.1653 -0.1074
 9315SOL     OW39580   1.717   3.416   8.810 -0.1162 -0.3901 -0.0602
 9315SOL    HW139581   1.765   3.382   8.734  2.2785  1.5984  0.5619
 9315SOL    HW239582   1.711   3.336   8.863  1.2148 -0.3394  0.1559
 9316SOL     OW39583   1.268   0.239   9.876  0.2355  0.4720  0.3635
 9316SOL    HW139584   1.229   0.175   9.816  0.1268  1.1542 -0.2908
 9316SOL    HW239585   1.278   0.189   9.957  1.1310 -0.0121 -0.0470
 9317SOL     OW39586   1.657   2.469  16.943 -0.3845  0.0214  0.0003
 9317SOL    HW139587   1.737   2.495  16.896 -0.1826  1.1433  0.9869
 9317SOL    HW239588   1.698   2.405  17.001  0.6291  1.0814  0.4523
 9318SOL     OW39589   2.023   1.336  16.792 -0.6134 -0.8987  0.0245
 9318SOL    HW139590   1.971   1.353  16.871  1.4740 -1.2188  1.4709
 9318SOL    HW239591   2.000   1.414  16.742  1.0864  1.5563  3.0374
 9319SOL     OW39592   4.616   4.587   2.571  1.1350  0.0478  0.1770
 9319SOL    HW139593   4.687   4.588   2.507  0.7598 -0.7431 -0.2526
 9319SOL    HW239594   4.631   4.510   2.625 -2.5442 -0.4993  0.4152
 9320SOL     OW39595   1.298   2.469   4.889 -0.2758  0.3942 -0.0189
 9320SOL    HW139596   1.242   2.439   4.960 -0.1027 -0.6126 -0.3180
 9320SOL    HW239597   1.382   2.480   4.934 -0.0972 -3.6217  0.6025
 9321SOL     OW39598   0.297   4.096  11.435 -0.6469 -0.3757 -0.3181
 9321SOL    HW139599   0.329   4.130  11.351 -0.2324 -0.1633 -0.0726
 9321SOL    HW239600   0.354   4.145  11.494  0.4592 -2.3868  0.2699
 9322SOL     OW39601   4.030   3.544   8.674 -0.4952 -0.8263  0.0984
 9322SOL    HW139602   4.123   3.523   8.674  0.0263  1.5875 -2.4054
 9322SOL    HW239603   4.011   3.522   8.583  0.7657  0.0613 -0.3738
 9323SOL     OW39604   2.482   4.291   9.261  0.2151 -0.1455 -0.3287
 9323SOL    HW139605   2.490   4.209   9.311  1.6756 -0.2070 -0.6645
 9323SOL    HW239606   2.388   4.292   9.243  0.2423 -0.2691 -0.4843
 9324SOL     OW39607   3.121   2.088  13.259  0.3073  0.6785  0.5965
 9324SOL    HW139608   3.157   2.124  13.340  0.6987  0.8210  0.3600
 9324SOL    HW239609   3.092   2.168  13.214 -1.2869 -1.2413 -1.8250
 9325SOL     OW39610   4.315   4.315   4.793 -0.2443 -0.6642 -0.1762
 9325SOL    HW139611   4.391   4.313   4.851 -0.1925 -1.0335 -0.2624
 9325SOL    HW239612   4.354   4.317   4.706  1.7724  1.5674  0.7796
 9326SOL     OW39613   4.092   4.235   3.367  0.1877 -0.1289  0.8246
 9326SOL    HW139614   4.186   4.216   3.370 -0.1139 -1.6766  0.6587
 9326SOL    HW239615   4.094   4.289   3.287  1.2309  1.0297  1.6298
 9327SOL     OW39616   2.819   2.038   4.871  0.0179 -0.1096  0.2604
 9327SOL    HW139617   2.820   1.942   4.870 -1.1710 -0.1066 -0.4284
 9327SOL    HW239618   2.910   2.063   4.851 -0.4561  1.0924 -0.3473
 9328SOL     OW39619   0.467   1.611   4.530  0.1445  0.9523  0.5219
 9328SOL    HW139620   0.410   1.536   4.544 -0.7321  1.3797 -0.7281
 9328SOL    HW239621   0.554   1.571   4.531  0.0530  0.7786  1.2654
 9329SOL     OW39622   3.215   1.959   1.969 -0.3407 -0.2201 -0.3111
 9329SOL    HW139623   3.193   2.031   1.910  1.2059 -0.7560 -1.5391
 9329SOL    HW239624   3.146   1.895   1.953 -1.9665  1.0305  1.7020
 9330SOL     OW39625   4.093   3.880   1.822  0.2312 -0.3242 -0.0616
 9330SOL    HW139626   4.071   3.970   1.797 -0.7600 -0.5314  0.0384
 9330SOL    HW239627   4.041   3.867   1.902  0.8420 -0.5483  0.2949
 9331SOL     OW39628   0.701   2.112   8.151  0.1659 -0.6774 -0.2989
 9331SOL    HW139629   0.714   2.116   8.246 -1.2019 -0.6789 -0.1085
 9331SOL    HW239630   0.707   2.018   8.133  0.2768 -1.1137  1.9922
 9332SOL     OW39631   4.549   0.215   5.603  0.1223 -0.2179 -0.3805
 9332SOL    HW139632   4.482   0.198   5.537 -3.1684 -0.4161  2.9594
 9332SOL    HW239633   4.623   0.252   5.556  0.6922 -2.5391 -1.3150
 9333SOL     OW39634   0.852   2.129   9.869  0.6306 -0.0714 -0.3114
 9333SOL    HW139635   0.884   2.066   9.933  0.2877  0.7762  0.6808
 9333SOL    HW239636   0.829   2.202   9.926  1.7248  0.4007 -0.4938
 9334SOL     OW39637   0.743   3.428   7.460 -0.6156  0.2416  0.5629
 9334SOL    HW139638   0.741   3.363   7.530  0.8184 -1.6775 -1.1714
 9334SOL    HW239639   0.702   3.370   7.396  0.0637  1.8660 -1.3212
 9335SOL     OW39640   4.626   4.142   8.727 -0.1998 -0.1227  0.1062
 9335SOL    HW139641   4.591   4.223   8.766  1.3696  1.6355 -2.1316
 9335SOL    HW239642   4.553   4.113   8.673  0.0650  0.4922 -0.5838
 9336SOL     OW39643   1.706   3.193  13.039  0.0278  0.2568 -0.3371
 9336SOL    HW139644   1.645   3.253  12.996  0.2707 -0.1256 -1.2040
 9336SOL    HW239645   1.682   3.104  13.013 -1.4990  0.7919 -0.7000
 9337SOL     OW39646   0.971   1.730   9.998 -0.0299 -0.5063 -0.5091
 9337SOL    HW139647   1.008   1.780  10.071 -0.8969 -0.0699 -0.3659
 9337SOL    HW239648   0.989   1.790   9.925  1.8800 -1.2231 -0.6263
 9338SOL     OW39649   4.120   3.812   9.482  0.3573  0.2644 -0.4055
 9338SOL    HW139650   4.111   3.801   9.577  4.0225  2.6298  0.2273
 9338SOL    HW239651   4.026   3.815   9.463  0.2260 -1.4766 -0.0525
 9339SOL     OW39652   1.658   0.219   9.308 -0.2869 -0.1104 -0.2939
 9339SOL    HW139653   1.676   0.305   9.268 -0.8976 -0.2504 -0.8605
 9339SOL    HW239654   1.738   0.180   9.273 -0.5628 -1.3936  0.5027
 9340SOL     OW39655   0.292   0.954   9.310  0.5325  0.2378 -0.0473
 9340SOL    HW139656   0.254   1.035   9.275  0.9679  0.2135 -0.5794
 9340SOL    HW239657   0.278   0.908   9.227  0.7607 -0.4949  0.3231
 9341SOL     OW39658   0.358   0.617   7.700 -0.5861  0.3484 -0.4249
 9341SOL    HW139659   0.346   0.678   7.773  0.7745 -1.3557  1.2022
 9341SOL    HW239660   0.415   0.667   7.641  0.9369 -0.5238  0.3197
 9342SOL     OW39661   2.829   3.561   4.069 -0.3509  0.0097 -0.6268
 9342SOL    HW139662   2.832   3.573   3.974  0.8181 -0.3568 -0.6452
 9342SOL    HW239663   2.891   3.488   4.080 -2.1968 -1.2601  1.3450
 9343SOL     OW39664   3.567   0.028  11.506 -0.0206 -0.3450 -0.7959
 9343SOL    HW139665   3.542   4.725  11.589 -1.1746  0.5017 -0.7141
 9343SOL    HW239666   3.617   4.692  11.473 -1.0082 -2.3728  2.1949
 9344SOL     OW39667   3.895   3.187  16.681  0.1482 -0.0253 -0.0843
 9344SOL    HW139668   3.956   3.176  16.608  1.5785 -0.0873  1.0984
 9344SOL    HW239669   3.911   3.280  16.700  0.1362 -0.4003  1.7485
 9345SOL     OW39670   3.099   0.757  11.098  0.7418  0.0202  0.2318
 9345SOL    HW139671   3.103   0.664  11.120 -0.0537 -0.8436 -3.2531
 9345SOL    HW239672   3.159   0.773  11.026  1.4773 -0.4536  0.7430
 9346SOL     OW39673   0.330   2.023   7.012 -0.1438 -0.1749 -0.1588
 9346SOL    HW139674   0.407   2.010   7.068 -0.7447 -1.0825  0.4740
 9346SOL    HW239675   0.285   1.938   7.013  0.6121 -0.5599  1.3762
 9347SOL     OW39676   4.037   2.463   3.281 -0.2314  0.1589 -0.3959
 9347SOL    HW139677   3.953   2.420   3.298  1.5755 -2.9818  0.3933
 9347SOL    HW239678   4.070   2.426   3.200  2.0234 -0.0383  0.6278
 9348SOL     OW39679   2.927   3.878   7.539  0.3819  0.2134 -0.8221
 9348SOL    HW139680   2.834   3.899   7.544  0.1857 -0.3378 -2.2640
 9348SOL    HW239681   2.954   3.944   7.476  1.9627  0.7000  0.3744
 9349SOL     OW39682   2.225   2.536   5.722 -0.2690 -0.1891 -0.1445
 9349SOL    HW139683   2.215   2.610   5.782  0.6784 -0.6559  0.5989
 9349SOL    HW239684   2.147   2.542   5.668  0.7314  0.2713 -1.5384
 9350SOL     OW39685   3.774   2.622   5.569  0.0115 -0.3586 -0.3792
 9350SOL    HW139686   3.695   2.569   5.582 -0.3754  0.4025  0.3162
 9350SOL    HW239687   3.837   2.575   5.514 -1.4625 -1.9422 -0.7083
 9351SOL     OW39688   2.723   1.032  16.165  0.3569  0.4366 -0.4484
 9351SOL    HW139689   2.719   0.945  16.125  0.6377 -0.6814  1.9084
 9351SOL    HW239690   2.649   1.078  16.126  0.1671  1.5702  1.2742
 9352SOL     OW39691   2.492   1.208   2.713  0.5452 -0.8272 -0.0971
 9352SOL    HW139692   2.495   1.159   2.796 -0.1793 -3.3276 -1.5527
 9352SOL    HW239693   2.567   1.162   2.675 -0.3054 -1.5724 -0.8695
 9353SOL     OW39694   2.804   0.824   4.937 -0.5468  0.0825 -0.0950
 9353SOL    HW139695   2.828   0.733   4.918 -0.9242  0.1244 -0.7932
 9353SOL    HW239696   2.889   0.867   4.922 -1.4231  0.6917 -3.2749
 9354SOL     OW39697   0.729   3.744   2.234  0.5238 -0.0579  0.6089
 9354SOL    HW139698   0.665   3.672   2.238 -0.0390  0.4634  0.9767
 9354SOL    HW239699   0.664   3.815   2.231  0.4042 -0.2181 -0.7212
 9355SOL     OW39700   1.034   0.308   6.000  0.1224 -0.2005 -0.3692
 9355SOL    HW139701   1.028   0.239   5.934 -1.6906  1.0665 -1.5288
 9355SOL    HW239702   1.051   0.386   5.947  1.9275 -0.4584 -0.1384
 9356SOL     OW39703   1.077   0.502   8.165 -0.1237  0.5764  1.0099
 9356SOL    HW139704   1.146   0.436   8.153  0.5610  1.2127  1.4321
 9356SOL    HW239705   1.076   0.499   8.260  2.0958 -0.7476  0.9920
 9357SOL     OW39706   1.550   1.588  12.512  0.0304  1.1132  0.4968
 9357SOL    HW139707   1.534   1.621  12.601  0.5726  0.8093  0.7071
 9357SOL    HW239708   1.562   1.493  12.521  2.3939  1.2886 -1.0544
 9358SOL     OW39709   0.033   3.189  16.563 -0.4084  0.1546 -0.1116
 9358SOL    HW139710   0.020   3.095  16.574  1.3190 -0.1243 -0.4679
 9358SOL    HW239711   4.708   3.210  16.632  0.1785 -0.3244  0.5753
 9359SOL     OW39712   3.085   3.839  11.307  0.2191 -0.1994 -0.2386
 9359SOL    HW139713   3.165   3.788  11.312  1.6602  2.1322  0.5275
 9359SOL    HW239714   3.025   3.769  11.334  1.2218 -1.1459 -0.4790
 9360SOL     OW39715   0.640   4.672   7.157 -0.2089 -0.6446  0.6216
 9360SOL    HW139716   0.621   4.580   7.140  0.9869 -1.0375  1.4909
 9360SOL    HW239717   0.578   4.714   7.096 -0.6968  0.6510  2.0161
 9361SOL     OW39718   1.580   1.445  10.725 -0.0725 -0.0313  0.1916
 9361SOL    HW139719   1.613   1.524  10.769  3.1023 -1.1416 -0.1502
 9361SOL    HW239720   1.591   1.470  10.633  1.2590 -0.4290  0.2419
 9362SOL     OW39721   1.819   4.492   2.819  0.1230 -0.2227 -0.3898
 9362SOL    HW139722   1.796   4.488   2.912  0.9620  0.4697 -0.1435
 9362SOL    HW239723   1.747   4.441   2.783 -0.1654 -1.3825  1.8233
 9363SOL     OW39724   4.165   1.591  12.413 -0.3327  0.1509  0.1669
 9363SOL    HW139725   4.158   1.658  12.481  1.2196  0.5503 -0.0698
 9363SOL    HW239726   4.122   1.624  12.334  0.5253  2.8172  0.8451
 9364SOL     OW39727   2.853   3.820   8.011  0.2415 -0.4819  0.5206
 9364SOL    HW139728   2.907   3.743   8.027  1.2690  0.6940  2.7771
 9364SOL    HW239729   2.893   3.846   7.928  1.3971  0.2312  1.2797
 9365SOL     OW39730   3.846   2.178   6.100 -0.5666  0.6506  0.6181
 9365SOL    HW139731   3.897   2.218   6.030  0.8215 -0.3546  1.0564
 9365SOL    HW239732   3.921   2.151   6.153 -0.0665  0.8247 -0.0018
 9366SOL     OW39733   3.817   1.845   6.375  0.5353  0.2368  0.0511
 9366SOL    HW139734   3.829   1.779   6.443 -0.1838 -1.8309 -1.8100
 9366SOL    HW239735   3.822   1.785   6.300 -1.5195  0.3286 -0.1640
 9367SOL     OW39736   0.248   0.370   4.656  0.5279 -0.6689  0.4082
 9367SOL    HW139737   0.163   0.343   4.623  0.1863 -0.5695  1.2077
 9367SOL    HW239738   0.287   0.282   4.657  0.9281 -0.4950  0.0877
 9368SOL     OW39739   3.483   0.211   8.072 -0.1387  0.5847 -0.1437
 9368SOL    HW139740   3.563   0.215   8.125 -0.0948 -1.1404 -0.0734
 9368SOL    HW239741   3.413   0.238   8.131 -1.2633 -0.7292 -0.8673
 9369SOL     OW39742   3.339   0.007   4.894  0.2130  0.4826  0.2362
 9369SOL    HW139743   3.352   0.101   4.911 -2.4468  0.7738  0.7165
 9369SOL    HW239744   3.327   4.718   4.985  0.0099  2.3114  0.7630
 9370SOL     OW39745   3.962   2.525  15.639 -0.1034 -0.3785 -0.5709
 9370SOL    HW139746   3.912   2.564  15.568 -1.1355  0.9221  0.8480
 9370SOL    HW239747   3.973   2.600  15.698  0.7623 -1.4263  0.6036
 9371SOL     OW39748   0.647   1.546   3.513  0.6274 -0.3756  0.1365
 9371SOL    HW139749   0.699   1.626   3.523 -1.1284  1.1158 -2.3601
 9371SOL    HW239750   0.567   1.575   3.468  2.0645 -0.7572 -2.6267
 9372SOL     OW39751   2.346   0.411   0.697  0.1734 -0.0479  0.6562
 9372SOL    HW139752   2.284   0.341   0.675 -0.7104  1.3761 -1.3732
 9372SOL    HW239753   2.317   0.463   0.623 -1.3056  1.7028  2.4638
 9373SOL     OW39754   1.846   0.532   9.948 -0.2664 -0.1602 -0.3179
 9373SOL    HW139755   1.882   0.475   9.879 -0.8209 -0.4338 -0.3799
 9373SOL    HW239756   1.766   0.490   9.980  0.4201 -0.2278  1.3219
 9374SOL     OW39757   2.000   0.662   4.035  0.0068 -0.7245  0.0027
 9374SOL    HW139758   1.932   0.602   4.005 -1.5486  0.3064  1.4595
 9374SOL    HW239759   2.011   0.644   4.129  1.0423  1.3319  0.2684
 9375SOL     OW39760   3.665   0.990   0.431  0.4543  0.4245 -0.0408
 9375SOL    HW139761   3.686   0.933   0.357 -3.4032 -1.3935  0.2975
 9375SOL    HW239762   3.752   1.028   0.443  0.8915 -0.2608 -0.9851
 9376SOL     OW39763   0.264   0.100   3.116  0.0085  0.3137  0.6296
 9376SOL    HW139764   0.305   0.016   3.135  2.0304  1.1895  0.0836
 9376SOL    HW239765   0.299   0.118   3.028 -1.0913  1.5191  0.4315
 9377SOL     OW39766   2.548   1.439   5.125  0.1303  0.2751 -0.2705
 9377SOL    HW139767   2.627   1.385   5.116 -0.3579 -0.7908  1.8117
 9377SOL    HW239768   2.558   1.516   5.069  1.5165 -1.1768 -2.0373
 9378SOL     OW39769   0.769   3.255   2.692 -0.2270  0.2978 -0.4219
 9378SOL    HW139770   0.727   3.182   2.646  0.6151 -0.7798  0.5149
 9378SOL    HW239771   0.837   3.225   2.752  1.2944  0.1510 -2.2324
 9379SOL     OW39772   0.698   2.725  13.603  0.0671  0.0416 -0.2179
 9379SOL    HW139773   0.713   2.648  13.657  0.4600  1.3388  1.5232
 9379SOL    HW239774   0.759   2.787  13.643 -1.2740 -0.0761  2.0485
 9380SOL     OW39775   0.139   1.645   0.996  0.2435 -0.1906  0.0277
 9380SOL    HW139776   0.116   1.552   0.987 -2.1406  0.5221 -1.1938
 9380SOL    HW239777   0.205   1.653   0.927  0.5585 -0.4362  0.2989
 9381SOL     OW39778   0.777   2.119   9.597 -0.4638  0.5719  0.6995
 9381SOL    HW139779   0.698   2.065   9.605 -2.0290  2.6413 -0.6571
 9381SOL    HW239780   0.794   2.147   9.687  0.9967  0.2376  0.5260
 9382SOL     OW39781   2.994   2.888   1.852 -0.2988 -0.1772 -0.2575
 9382SOL    HW139782   2.986   2.947   1.776  0.3525 -0.8102 -0.8191
 9382SOL    HW239783   2.908   2.872   1.890 -0.2639 -0.6896 -0.3982
 9383SOL     OW39784   2.367   3.683   7.674  0.1843  0.1789 -0.2788
 9383SOL    HW139785   2.455   3.713   7.653  1.1196 -1.6821  1.0010
 9383SOL    HW239786   2.377   3.712   7.764  0.4058 -1.3550  0.1910
 9384SOL     OW39787   3.368   2.451   2.940 -0.3780 -0.9705  0.1475
 9384SOL    HW139788   3.458   2.449   2.908 -0.1058 -1.2414  0.9544
 9384SOL    HW239789   3.379   2.410   3.026  1.4437 -0.7921 -0.0084
 9385SOL     OW39790   4.137   1.421   5.876 -0.1095  0.1977 -0.4003
 9385SOL    HW139791   4.088   1.349   5.836  0.0769 -0.3578  0.3846
 9385SOL    HW239792   4.138   1.397   5.968 -1.1959 -1.1027 -0.7294
 9386SOL     OW39793   4.093   2.113   1.358 -0.3293  0.2264 -0.3408
 9386SOL    HW139794   4.144   2.032   1.352 -1.7273 -0.5905 -0.9779
 9386SOL    HW239795   4.070   2.132   1.268  0.0814 -1.5858 -0.8284
 9387SOL     OW39796   3.084   4.103   7.981  0.5113 -0.4304 -0.5636
 9387SOL    HW139797   3.124   4.017   7.996  0.3735 -0.5517 -0.8987
 9387SOL    HW239798   3.159   4.162   7.988  0.4593 -0.3579 -0.6186
 9388SOL     OW39799   4.590   4.665   4.195 -0.5273  0.3130  0.5733
 9388SOL    HW139800   4.530   4.621   4.134  0.9398  0.2175 -0.8157
 9388SOL    HW239801   4.664   4.605   4.210 -0.7378  0.6125  2.7397
 9389SOL     OW39802   1.750   4.564   2.318 -0.3131 -0.1888 -0.0016
 9389SOL    HW139803   1.671   4.540   2.366  0.9189 -1.6142  1.3369
 9389SOL    HW239804   1.770   4.652   2.348 -1.1000 -0.6418  1.8533
 9390SOL     OW39805   3.647   3.786   8.188  0.6053  0.5240  0.6992
 9390SOL    HW139806   3.622   3.870   8.148  4.0110  1.9481  1.5604
 9390SOL    HW239807   3.699   3.752   8.115 -2.3805  2.1912 -2.2591
 9391SOL     OW39808   4.645   4.305   7.410  0.2700 -0.1392 -0.0625
 9391SOL    HW139809   4.609   4.375   7.464  0.0667  1.1081 -1.8224
 9391SOL    HW239810   4.661   4.237   7.475 -0.1670 -0.5682 -0.4035
 9392SOL     OW39811   0.576   1.097   9.249  0.1278 -0.2070 -0.3382
 9392SOL    HW139812   0.507   1.033   9.233  0.1953 -0.3473 -0.0605
 9392SOL    HW239813   0.523   1.152   9.306  2.4431 -1.2081  2.7852
 9393SOL     OW39814   1.978   0.143  15.956  0.5657 -0.1131  0.6114
 9393SOL    HW139815   1.953   0.066  16.007  0.5237 -1.0196 -0.7550
 9393SOL    HW239816   2.072   0.126  15.944  0.6257  0.1905  0.6500
 9394SOL     OW39817   0.926   3.445  17.490  0.1178  0.2660  0.1005
 9394SOL    HW139818   0.967   3.424  17.406 -1.4981  1.1731 -0.9231
 9394SOL    HW239819   0.861   3.514  17.479  0.2729  0.3564 -0.2581
 9395SOL     OW39820   2.419   3.605   6.849 -0.4699  0.0435  0.0412
 9395SOL    HW139821   2.452   3.624   6.936 -2.1225 -1.0709  0.9091
 9395SOL    HW239822   2.331   3.569   6.862  0.1437 -1.3435  0.3248
 9396SOL     OW39823   0.414   2.558   0.025  0.7817 -0.5557 -0.2128
 9396SOL    HW139824   0.417   2.579   0.118 -0.3248  1.8575 -0.7350
 9396SOL    HW239825   0.329   2.593   0.002  0.0850 -1.9897  0.1585
 9397SOL     OW39826   1.419   3.232   2.555  0.1016 -0.4679  0.1657
 9397SOL    HW139827   1.362   3.242   2.631  0.8464 -0.4367  0.7216
 9397SOL    HW239828   1.426   3.324   2.531 -1.2916 -0.3286  0.3081
 9398SOL     OW39829   2.145   0.262   5.334 -0.0108 -0.0218  0.0853
 9398SOL    HW139830   2.104   0.325   5.394 -0.0395 -0.1345  0.1833
 9398SOL    HW239831   2.108   0.286   5.249 -0.2875  0.1800  0.2624
 9399SOL     OW39832   2.999   0.456   4.321 -0.2423  0.1279 -0.0798
 9399SOL    HW139833   3.041   0.491   4.242 -1.7134  0.3578 -0.7517
 9399SOL    HW239834   2.920   0.419   4.284  0.6708 -1.0155 -0.8659
 9400SOL     OW39835   1.051   1.482   5.518  1.0733  0.1307  0.2754
 9400SOL    HW139836   0.974   1.512   5.567  1.1542 -1.1957  1.1965
 9400SOL    HW239837   1.038   1.509   5.427  3.6514 -2.5025 -0.8389
 9401SOL     OW39838   1.264   0.534  16.835  0.4958  0.8939  0.2278
 9401SOL    HW139839   1.323   0.470  16.795  0.8249  1.9041 -0.8898
 9401SOL    HW239840   1.320   0.610  16.854  0.6371  0.9171 -0.2962
 9402SOL     OW39841   0.395   4.235   9.771  0.8435  0.1999 -0.0221
 9402SOL    HW139842   0.412   4.290   9.847 -1.7391  0.8558  0.1068
 9402SOL    HW239843   0.445   4.162   9.808  0.4220 -0.2938 -0.4140
 9403SOL     OW39844   3.576   2.549   2.297 -0.0544 -0.8189  0.3555
 9403SOL    HW139845   3.587   2.471   2.351 -0.9774 -0.2766  1.3199
 9403SOL    HW239846   3.610   2.614   2.358 -1.6004 -1.3078  1.6981
 9404SOL     OW39847   3.355   1.394  12.420 -0.2546 -0.2563 -0.6696
 9404SOL    HW139848   3.277   1.345  12.445  0.4489 -0.9462  0.1704
 9404SOL    HW239849   3.317   1.450  12.352  0.6676  2.5325  1.1519
 9405SOL     OW39850   2.258   0.058  17.421  0.9649  0.0648 -0.5087
 9405SOL    HW139851   2.340   0.015  17.395  1.0856  0.2215 -0.3878
 9405SOL    HW239852   2.264   0.037  17.514  0.5672  1.0154 -0.2716
 9406SOL     OW39853   0.408   4.225   4.515  0.1660  0.3388  0.2856
 9406SOL    HW139854   0.480   4.246   4.455 -1.3535  1.5503 -1.1037
 9406SOL    HW239855   0.418   4.309   4.559  0.1677  0.4119  0.1469
 9407SOL     OW39856   2.413   0.870  11.310  0.1754 -0.3892 -0.1863
 9407SOL    HW139857   2.435   0.865  11.403  3.1263  0.1066 -0.8647
 9407SOL    HW239858   2.490   0.908  11.269  0.2507  1.3483  1.5765
 9408SOL     OW39859   0.777   1.534  12.036  0.1942  0.3235 -0.1580
 9408SOL    HW139860   0.750   1.569  11.951  0.9784 -2.0190 -1.3701
 9408SOL    HW239861   0.869   1.512  12.024  0.4804  1.5748 -0.2481
 9409SOL     OW39862   4.029   3.718  13.346 -0.1728 -0.3568 -0.4723
 9409SOL    HW139863   4.013   3.709  13.252 -1.9949 -0.5167 -0.1502
 9409SOL    HW239864   3.951   3.669  13.372 -1.2829  0.5147 -2.1181
 9410SOL     OW39865   3.232   1.806   5.040 -0.6004 -0.1934 -0.2006
 9410SOL    HW139866   3.266   1.730   4.993 -2.4175 -2.1410  1.6119
 9410SOL    HW239867   3.199   1.864   4.971 -0.5300  1.6245  1.2867
 9411SOL     OW39868   4.725   1.150  14.558 -0.4487 -0.3992  0.3169
 9411SOL    HW139869   4.692   1.174  14.471  0.2124  1.1304  0.4890
 9411SOL    HW239870   4.681   1.066  14.561 -1.2968  0.0447  0.3129
 9412SOL     OW39871   2.363   4.081   2.689 -0.3387  0.2362 -0.2318
 9412SOL    HW139872   2.427   4.013   2.710 -0.8946  0.4745  2.2779
 9412SOL    HW239873   2.333   4.105   2.777 -0.4462  1.4235 -0.5867
 9413SOL     OW39874   2.067   1.258  17.349  0.1968  0.0020 -0.2885
 9413SOL    HW139875   2.024   1.334  17.387  2.2346  0.9873  0.0353
 9413SOL    HW239876   2.000   1.233  17.285  0.3317 -0.2178 -0.3448
 9414SOL     OW39877   1.595   4.193  16.079 -0.4776  0.1991  0.2243
 9414SOL    HW139878   1.595   4.097  16.084 -2.0968  0.2597  1.4979
 9414SOL    HW239879   1.671   4.212  16.025 -2.5818  3.7145 -1.5268
 9415SOL     OW39880   4.361   0.009   4.458  0.2031 -0.2408 -0.0707
 9415SOL    HW139881   4.447   0.048   4.445  1.0529 -1.9321  0.5801
 9415SOL    HW239882   4.379   4.692   4.534 -0.3504 -2.1052 -1.2998
 9416SOL     OW39883   0.607   4.453   4.512 -0.4569 -0.2788 -0.0115
 9416SOL    HW139884   0.676   4.506   4.552 -1.3062  0.1041  0.9531
 9416SOL    HW239885   0.666   4.380   4.493  0.5515  0.7282 -0.7298
 9417SOL     OW39886   1.435   0.972   9.173  0.3475 -0.1331 -0.1740
 9417SOL    HW139887   1.519   0.928   9.190 -0.0167 -0.8738 -0.2897
 9417SOL    HW239888   1.426   1.030   9.248  2.9866  0.8005 -0.5836
 9418SOL     OW39889   3.623   2.941   9.973  0.1001  0.2698 -0.3652
 9418SOL    HW139890   3.554   2.876   9.984  0.8785 -0.3393  0.9696
 9418SOL    HW239891   3.646   2.947  10.066 -1.5527  4.7192 -0.2825
 9419SOL     OW39892   1.739   4.166   4.915 -0.1803 -0.1453 -0.1708
 9419SOL    HW139893   1.704   4.184   5.002  0.4547 -0.5972  0.1860
 9419SOL    HW239894   1.727   4.248   4.868 -0.6572  0.7681  1.5454
 9420SOL     OW39895   1.447   3.335   1.730  0.1341  0.3663  0.0259
 9420SOL    HW139896   1.517   3.339   1.795  1.7128  1.2714 -1.7200
 9420SOL    HW239897   1.495   3.290   1.660  2.9357  1.9068  0.9598
 9421SOL     OW39898   3.586   0.509  17.159 -0.6515 -0.1392  0.4491
 9421SOL    HW139899   3.566   0.499  17.066  0.3302 -0.4018  0.2651
 9421SOL    HW239900   3.641   0.432  17.173  1.4772  0.8425 -2.5483
 9422SOL     OW39901   0.012   4.113   6.972 -0.2249 -0.5010  0.7028
 9422SOL    HW139902   0.016   4.039   7.032  0.6071  0.3977  1.7615
 9422SOL    HW239903   0.101   4.147   6.981 -0.5144  0.3430  0.3566
 9423SOL     OW39904   1.001   1.232  12.700 -0.3026 -0.2946  0.0329
 9423SOL    HW139905   1.003   1.233  12.795 -0.1599  0.0009  0.0264
 9423SOL    HW239906   1.023   1.324  12.689 -0.0809 -0.5752 -2.0210
 9424SOL     OW39907   2.835   4.242   3.995 -0.0268 -0.4593 -0.2356
 9424SOL    HW139908   2.908   4.253   3.933  0.4263  0.6534  0.5086
 9424SOL    HW239909   2.881   4.245   4.079 -1.9653  3.0221  0.6899
 9425SOL     OW39910   3.011   3.739   6.675  0.0388 -0.5112 -0.2261
 9425SOL    HW139911   2.925   3.718   6.638 -0.0531  1.9979 -1.4760
 9425SOL    HW239912   2.981   3.751   6.765  2.7320 -1.5437  0.8131
 9426SOL     OW39913   1.198   1.233  14.137  0.7789 -0.4053  0.3350
 9426SOL    HW139914   1.231   1.269  14.055 -1.5415 -0.8688 -0.7800
 9426SOL    HW239915   1.252   1.291  14.192  1.8432 -0.2583 -0.8599
 9427SOL     OW39916   1.119   0.449   0.886  0.2219  0.2266  0.1254
 9427SOL    HW139917   1.189   0.462   0.822 -1.4473  2.0574 -1.3205
 9427SOL    HW239918   1.097   0.542   0.893  2.3703  0.7758 -0.2379
 9428SOL     OW39919   2.870   4.173  14.015 -0.2767 -0.0187 -1.0760
 9428SOL    HW139920   2.915   4.110  13.958  1.3481 -2.5164  3.0209
 9428SOL    HW239921   2.803   4.212  13.958  0.4413 -0.2311 -2.0604
 9429SOL     OW39922   3.191   2.066  15.970  0.1672  0.2451  0.3270
 9429SOL    HW139923   3.285   2.081  15.980  0.4156 -1.5147  0.7385
 9429SOL    HW239924   3.156   2.154  15.976  0.8220  0.3472  2.5236
 9430SOL     OW39925   4.309   0.871   2.092  0.2891  0.4433  0.0272
 9430SOL    HW139926   4.270   0.799   2.042 -3.4838  1.3780  1.6526
 9430SOL    HW239927   4.243   0.895   2.156 -0.6166  0.7373 -1.0161
 9431SOL     OW39928   1.918   0.259   9.172 -0.1174  0.2650  0.4245
 9431SOL    HW139929   1.996   0.274   9.118 -0.7759  1.4445 -0.2055
 9431SOL    HW239930   1.882   0.347   9.178 -1.0265  0.0152 -1.3657
 9432SOL     OW39931   4.555   1.715   1.616  0.2401 -0.0937 -0.5853
 9432SOL    HW139932   4.600   1.634   1.639 -0.5140 -0.9382 -2.0923
 9432SOL    HW239933   4.551   1.722   1.521  0.8772  0.3145 -0.5873
 9433SOL     OW39934   3.421   4.202   8.759  0.0741  0.0240  0.1452
 9433SOL    HW139935   3.414   4.108   8.745  0.6471 -0.2106  1.3902
 9433SOL    HW239936   3.386   4.204   8.848 -0.5221  0.4653 -0.1011
 9434SOL     OW39937   3.200   1.569   0.213  0.7447 -0.1664 -0.0371
 9434SOL    HW139938   3.170   1.565   0.123  1.0202  0.5471 -0.1570
 9434SOL    HW239939   3.255   1.491   0.217 -0.9164 -1.3274 -0.0214
 9435SOL     OW39940   2.263   0.825   1.399 -0.2366  0.3282 -0.2919
 9435SOL    HW139941   2.248   0.918   1.380  3.6716  0.9776 -0.1448
 9435SOL    HW239942   2.298   0.795   1.315 -0.1007  0.5808 -0.3240
 9436SOL     OW39943   1.124   2.086   2.139  0.2398  0.1510  1.0471
 9436SOL    HW139944   1.133   2.176   2.107  1.0811 -0.5882 -0.7937
 9436SOL    HW239945   1.054   2.060   2.080  1.7448 -0.6107 -0.4039
 9437SOL     OW39946   2.643   2.258   4.376  0.2637  0.5866 -0.1081
 9437SOL    HW139947   2.690   2.319   4.431  0.1836 -0.1345  0.7531
 9437SOL    HW239948   2.622   2.187   4.437 -0.0192 -0.4804 -1.4314
 9438SOL     OW39949   2.446   3.937   4.881 -0.1117 -0.1313  0.4914
 9438SOL    HW139950   2.437   4.027   4.913  0.9446  0.8701 -2.0594
 9438SOL    HW239951   2.400   3.945   4.798  2.0327  0.4763 -0.6233
 9439SOL     OW39952   2.332   3.853  11.583 -0.2452 -0.1403 -0.0875
 9439SOL    HW139953   2.373   3.931  11.621  0.3412 -0.7762  0.5769
 9439SOL    HW239954   2.301   3.813  11.664 -1.0652 -0.0242 -0.3491
 9440SOL     OW39955   0.688   0.668   5.491 -0.4179  0.3823  0.0041
 9440SOL    HW139956   0.738   0.631   5.564 -0.7332 -0.6613 -0.3173
 9440SOL    HW239957   0.664   0.593   5.438  0.8190 -0.0332  0.0225
 9441SOL     OW39958   2.136   1.279   2.177  0.2322 -0.1283 -0.5598
 9441SOL    HW139959   2.065   1.337   2.149 -0.0463 -0.9096 -1.4858
 9441SOL    HW239960   2.197   1.341   2.217  1.2998 -0.2371 -2.0396
 9442SOL     OW39961   2.216   0.166  13.783  0.4169  0.5135  0.0052
 9442SOL    HW139962   2.214   0.260  13.763 -1.5061  0.2647 -0.9088
 9442SOL    HW239963   2.132   0.137  13.747  0.4294  0.8015 -0.2660
 9443SOL     OW39964   0.997   1.082   5.284  0.2381  0.9154 -0.3264
 9443SOL    HW139965   0.906   1.110   5.282 -0.7488 -2.2830  0.5551
 9443SOL    HW239966   0.995   1.018   5.212  0.8312 -0.0115  0.4761
 9444SOL     OW39967   4.222   3.308  15.165 -0.5170 -0.0263  0.2163
 9444SOL    HW139968   4.219   3.313  15.069  0.5850  0.1160  0.1884
 9444SOL    HW239969   4.221   3.403  15.179  2.3531  0.3527 -2.0069
 9445SOL     OW39970   1.849   3.661  10.263 -0.6963 -0.6322 -0.1070
 9445SOL    HW139971   1.759   3.664  10.296 -1.3804 -2.0107 -1.8379
 9445SOL    HW239972   1.906   3.630  10.333  0.9696  0.4093 -1.0080
 9446SOL     OW39973   4.064   3.545   9.314  0.2393  0.1357 -0.3790
 9446SOL    HW139974   4.142   3.576   9.267  0.6496 -0.4948 -0.1177
 9446SOL    HW239975   4.082   3.600   9.390  1.3104  0.2354 -0.7052
 9447SOL     OW39976   2.028   3.724  13.593  0.0443 -0.6277  0.0444
 9447SOL    HW139977   1.966   3.653  13.610 -0.0240 -0.2751  1.2568
 9447SOL    HW239978   2.111   3.678  13.578  0.6293  1.2342 -2.5185
 9448SOL     OW39979   1.977   1.577  13.758  0.0153 -0.4540  0.0148
 9448SOL    HW139980   1.993   1.670  13.773 -1.8300  0.3053 -2.6739
 9448SOL    HW239981   1.986   1.548  13.848 -0.1277 -2.6934 -0.6911
 9449SOL     OW39982   3.579   3.627  10.144  0.3476 -0.0518  0.6517
 9449SOL    HW139983   3.565   3.721  10.134 -1.1124 -0.5145 -1.5895
 9449SOL    HW239984   3.504   3.593  10.096  0.2759  0.8538  0.1200
 9450SOL     OW39985   2.055   3.379  11.774 -0.6656  0.3298  0.1838
 9450SOL    HW139986   2.046   3.416  11.862  1.3337 -2.3636  1.5237
 9450SOL    HW239987   2.019   3.442  11.711 -0.4426 -1.2279 -1.4978
 9451SOL     OW39988   0.917   4.432  14.431 -0.2802 -0.3644  0.4711
 9451SOL    HW139989   0.926   4.503  14.494 -0.5481  0.5858 -0.5695
 9451SOL    HW239990   0.839   4.459  14.383 -1.3675 -0.6968  2.0723
 9452SOL     OW39991   0.458   2.016  17.038 -0.3574 -0.4961 -0.2377
 9452SOL    HW139992   0.371   2.031  17.075 -0.4215  0.2564 -0.7013
 9452SOL    HW239993   0.493   2.098  17.003  2.1617 -2.4697 -2.4327
 9453SOL     OW39994   2.787   0.909   8.546  0.5832 -0.3731 -0.8531
 9453SOL    HW139995   2.767   0.864   8.628 -0.1146  1.7727  0.1672
 9453SOL    HW239996   2.844   0.979   8.579 -0.2431 -1.2766  2.4655
 9454SOL     OW39997   2.259   4.377   6.678  0.1970  0.0202 -0.5498
 9454SOL    HW139998   2.289   4.468   6.675  1.6244 -0.3465  3.6395
 9454SOL    HW239999   2.215   4.358   6.595 -1.6128 -0.3259  0.4805
 9455SOL     OW40000   3.895   2.118   7.601  0.1082  0.4827 -0.0462
 9455SOL    HW140001   3.927   2.180   7.535  1.0339  0.3776  0.3024
 9455SOL    HW240002   3.864   2.044   7.547 -0.7021  0.1306  0.9060
 9456SOL     OW40003   3.278   2.774   6.502  0.8843  0.2353  0.4933
 9456SOL    HW140004   3.252   2.866   6.509 -2.7179 -0.6040 -1.9990
 9456SOL    HW240005   3.345   2.770   6.571 -0.1929 -1.4944  1.4302
 9457SOL     OW40006   2.924   1.619   4.942  0.0334 -0.5569 -0.3347
 9457SOL    HW140007   2.874   1.537   4.946 -1.6061  0.4483 -0.0411
 9457SOL    HW240008   3.014   1.598   4.965 -0.3236 -2.7627 -0.9445
 9458SOL     OW40009   2.338   3.950   4.321 -0.0118  0.4143 -0.0246
 9458SOL    HW140010   2.407   3.884   4.317 -0.2502  0.1216  0.5501
 9458SOL    HW240011   2.283   3.906   4.257 -0.0676  0.3535  0.0644
 9459SOL     OW40012   3.051   0.752   4.475  0.1263  0.3006 -0.1479
 9459SOL    HW140013   3.125   0.798   4.436 -0.3986  1.3468  0.0829
 9459SOL    HW240014   3.090   0.679   4.523 -1.8235 -2.0887 -2.2003
 9460SOL     OW40015   3.073   1.734   7.399 -0.0688 -0.1922  0.2091
 9460SOL    HW140016   3.149   1.677   7.385 -1.2066 -1.6696  0.1742
 9460SOL    HW240017   3.111   1.795   7.463 -0.6294 -0.8118  1.1208
 9461SOL     OW40018   3.070   0.964   7.714 -0.0378  0.3132 -0.2262
 9461SOL    HW140019   2.990   0.932   7.672  0.6394  0.0903 -1.3552
 9461SOL    HW240020   3.133   0.893   7.706  1.8116  1.6467  2.5762
 9462SOL     OW40021   3.749   0.301   4.240  0.6207  0.2374  0.2550
 9462SOL    HW140022   3.737   0.313   4.145 -2.1428  1.5908  0.7602
 9462SOL    HW240023   3.657   0.296   4.266  1.1324  0.6100  2.1103
 9463SOL     OW40024   1.874   3.032   3.524  0.3777  0.7578 -0.2858
 9463SOL    HW140025   1.862   2.983   3.443 -0.4752 -0.6885  0.7167
 9463SOL    HW240026   1.790   3.077   3.532  0.8114  1.5303 -0.0449
 9464SOL     OW40027   2.394   4.398   7.629 -0.6482 -0.4547  0.1045
 9464SOL    HW140028   2.447   4.319   7.626  0.4632  0.2494  1.2278
 9464SOL    HW240029   2.317   4.359   7.587  0.1983 -1.0779 -0.8647
 9465SOL     OW40030   1.759   4.627   8.156  0.4138 -0.0443  0.2520
 9465SOL    HW140031   1.811   4.667   8.226 -3.2079  1.3127  2.1926
 9465SOL    HW240032   1.832   4.594   8.104  0.3770 -0.6157  0.5637
 9466SOL     OW40033   2.781   4.497  17.723  0.2954  0.2246 -0.1944
 9466SOL    HW140034   2.814   4.411   0.002  0.5369  0.0060 -1.1169
 9466SOL    HW240035   2.752   4.541   0.052  0.9137  0.7941 -0.2822
 9467SOL     OW40036   2.687   1.805  13.403  0.0276  0.3162  0.5130
 9467SOL    HW140037   2.710   1.771  13.316 -2.2913 -1.8678  0.7649
 9467SOL    HW240038   2.769   1.810  13.452 -0.0485  1.5792  0.5161
 9468SOL     OW40039   0.972   4.188   5.607 -0.6311  0.1415 -0.3340
 9468SOL    HW140040   0.990   4.122   5.673  1.4615  0.0690 -0.9964
 9468SOL    HW240041   1.063   4.200   5.579 -0.1924 -0.1307  0.9875
 9469SOL     OW40042   2.256   3.387  14.811  0.0007 -0.4299  0.0064
 9469SOL    HW140043   2.257   3.392  14.906  1.1899 -0.5892  0.0073
 9469SOL    HW240044   2.329   3.444  14.789 -0.3685  0.3064  0.7378
 9470SOL     OW40045   2.795   0.808  15.571  0.1165  0.5435  0.0869
 9470SOL    HW140046   2.787   0.727  15.621 -1.5892 -0.4226 -1.7458
 9470SOL    HW240047   2.723   0.855  15.612  0.2149  0.1494  0.7053
 9471SOL     OW40048   1.246   4.290   7.104  0.1661 -0.3502  0.3996
 9471SOL    HW140049   1.161   4.249   7.115  0.5218 -1.0956  0.4192
 9471SOL    HW240050   1.224   4.379   7.128  1.0230  0.0078 -0.1382
 9472SOL     OW40051   0.862   1.233  12.237 -0.1152 -0.0434  0.1502
 9472SOL    HW140052   0.912   1.303  12.278 -0.1000  0.2739 -0.4187
 9472SOL    HW240053   0.931   1.207  12.175  0.5586  3.4561 -0.5609
 9473SOL     OW40054   2.074   3.491   7.824 -0.0064 -0.2666  1.0972
 9473SOL    HW140055   2.030   3.413   7.858  1.0544 -1.7040 -0.8727
 9473SOL    HW240056   2.161   3.466   7.856  0.1453 -0.4772  0.5235
 9474SOL     OW40057   0.310   4.177   8.370  0.3558  0.4011 -0.7157
 9474SOL    HW140058   0.267   4.235   8.433  2.1957  0.6794  0.2969
 9474SOL    HW240059   0.243   4.174   8.302 -0.4071 -0.4588  0.0757
 9475SOL     OW40060   3.696   0.401   4.910  0.2827 -0.6022  0.2691
 9475SOL    HW140061   3.656   0.317   4.887 -1.8602  0.3700  0.4515
 9475SOL    HW240062   3.730   0.387   4.998  2.6735 -0.1623 -0.5886
 9476SOL     OW40063   2.144   0.235  11.499  0.1996 -0.5165 -0.4555
 9476SOL    HW140064   2.125   0.143  11.484  0.5162 -0.6016 -0.3359
 9476SOL    HW240065   2.061   0.282  11.500  0.7487  0.4327  0.4163
 9477SOL     OW40066   4.679   4.729   2.200  0.8320 -0.1217 -0.2751
 9477SOL    HW140067   4.727   4.728   2.117  1.5734  0.3735  0.1517
 9477SOL    HW240068   4.666   4.635   2.212 -0.4143  0.2506  1.2741
 9478SOL     OW40069   3.144   3.575  11.814  0.4655  0.0072  0.9092
 9478SOL    HW140070   3.060   3.614  11.838  1.0692  1.8072  0.0717
 9478SOL    HW240071   3.133   3.481  11.831 -1.6228 -0.3811 -2.5413
 9479SOL     OW40072   0.060   0.352   3.186 -0.3829  0.2506 -0.0540
 9479SOL    HW140073   0.110   0.282   3.143 -0.5610 -0.0640  0.2501
 9479SOL    HW240074   0.053   0.413   3.112  0.5005  1.7425  1.0856
 9480SOL     OW40075   3.347   2.652   7.934 -0.0051  0.0433 -0.2721
 9480SOL    HW140076   3.267   2.668   7.884  0.6092 -0.3810 -1.3847
 9480SOL    HW240077   3.405   2.629   7.861 -0.3404 -2.2774  0.2054
 9481SOL     OW40078   3.854   2.935   9.823  0.2225  0.2496 -0.0688
 9481SOL    HW140079   3.776   2.957   9.874  1.0401 -0.6004  1.5291
 9481SOL    HW240080   3.892   2.867   9.878 -2.6181 -0.4033  1.0708
 9482SOL     OW40081   2.534   4.440   3.452  0.2217 -0.5372 -0.0309
 9482SOL    HW140082   2.476   4.458   3.378  0.5629  0.7487  0.0188
 9482SOL    HW240083   2.550   4.346   3.446  2.2345 -0.0742 -1.7355
 9483SOL     OW40084   0.559   0.349  11.093 -0.3391 -0.1829  0.2666
 9483SOL    HW140085   0.531   0.261  11.070 -0.1076 -0.3747  0.7124
 9483SOL    HW240086   0.607   0.360  11.010 -0.9790 -0.0108 -0.0771
 9484SOL     OW40087   3.911   1.109   3.889  0.1913  0.1571 -0.2428
 9484SOL    HW140088   3.882   1.050   3.959  1.8998 -0.5601 -0.1316
 9484SOL    HW240089   3.831   1.154   3.863 -1.4783 -2.3314  0.6194
 9485SOL     OW40090   4.561   1.434  14.922 -0.4289 -0.1300  0.5155
 9485SOL    HW140091   4.623   1.362  14.936  1.0973  1.2337  0.6905
 9485SOL    HW240092   4.599   1.499  14.981  0.6375 -0.4744  0.2137
 9486SOL     OW40093   3.819   2.763  10.199  0.2578 -0.0130 -0.2875
 9486SOL    HW140094   3.809   2.675  10.235  0.8635  0.2205  0.4544
 9486SOL    HW240095   3.783   2.817  10.270  1.1809  0.6431 -0.3254
 9487SOL     OW40096   1.323   1.434  14.275 -0.4293 -0.4129  0.5702
 9487SOL    HW140097   1.277   1.464  14.353 -1.5679 -0.9675  0.1004
 9487SOL    HW240098   1.398   1.382  14.307 -0.0272 -0.0576  0.2055
 9488SOL     OW40099   4.295   0.464   1.807 -0.4141 -0.1085  0.6090
 9488SOL    HW140100   4.255   0.382   1.836 -2.2362  0.9689  1.1275
 9488SOL    HW240101   4.258   0.527   1.869  3.3092  2.0212  0.6630
 9489SOL     OW40102   0.722   0.599   2.629  0.1614 -0.2697 -0.3572
 9489SOL    HW140103   0.696   0.657   2.701 -1.1456  0.0879 -1.1169
 9489SOL    HW240104   0.640   0.604   2.580 -1.0926 -0.4636  1.7011
 9490SOL     OW40105   4.019   2.988   3.339  0.0656 -0.7069 -0.4873
 9490SOL    HW140106   3.998   3.076   3.307  0.6167  0.0103  1.1376
 9490SOL    HW240107   4.114   2.984   3.334  0.2036  2.0961 -0.1962
 9491SOL     OW40108   4.562   0.955   5.743  0.3083  0.6644  0.2955
 9491SOL    HW140109   4.531   0.896   5.812 -0.4312 -0.2941 -0.8626
 9491SOL    HW240110   4.534   0.923   5.657  0.1592  2.0915 -0.1794
 9492SOL     OW40111   4.645   3.311  17.313  0.2120  0.4891  0.5036
 9492SOL    HW140112   4.598   3.227  17.307 -0.7226  0.9725  1.0750
 9492SOL    HW240113   4.716   3.288  17.372 -0.7933 -1.0874  1.0971
 9493SOL     OW40114   1.650   3.626   3.696 -0.5707  0.3700  0.3403
 9493SOL    HW140115   1.558   3.648   3.678 -0.7436  0.1139  0.9164
 9493SOL    HW240116   1.653   3.618   3.791  0.7823 -0.1580  0.2530
 9494SOL     OW40117   4.191   4.135  14.446  0.1294  0.3420 -0.8703
 9494SOL    HW140118   4.129   4.161  14.378 -3.8082 -2.4866  1.7049
 9494SOL    HW240119   4.245   4.214  14.451  0.4420 -0.0063  1.1697
 9495SOL     OW40120   3.480   1.374   8.662 -0.0302 -0.4771 -0.0238
 9495SOL    HW140121   3.409   1.413   8.714  0.9086  0.9880  0.1652
 9495SOL    HW240122   3.549   1.440   8.667  0.8112 -1.1066 -3.0489
 9496SOL     OW40123   2.515   3.033   8.221 -0.1043  0.1188 -0.7756
 9496SOL    HW140124   2.539   2.941   8.232  1.1300  0.7257  1.6113
 9496SOL    HW240125   2.520   3.038   8.126 -2.1554 -0.3807 -0.8990
 9497SOL     OW40126   1.819   3.011  13.411  0.6907  0.3168  0.1901
 9497SOL    HW140127   1.850   3.084  13.357 -2.3248 -0.0164 -1.9641
 9497SOL    HW240128   1.781   2.965  13.336  1.5044  0.0708 -0.0749
 9498SOL     OW40129   3.033   2.300  16.652 -0.3043 -0.2532  0.1865
 9498SOL    HW140130   3.124   2.327  16.651 -0.2783 -0.4476 -1.9372
 9498SOL    HW240131   3.043   2.225  16.593 -0.1203  0.3110 -0.5016
 9499SOL     OW40132   0.464   4.080  10.092  0.2798  0.3524 -0.6203
 9499SOL    HW140133   0.554   4.052  10.108 -1.0902 -3.3905  0.6257
 9499SOL    HW240134   0.466   4.166  10.051  0.6415  0.7939  0.3275
 9500SOL     OW40135   0.733   4.489   8.804  0.0169 -0.2597 -0.1920
 9500SOL    HW140136   0.682   4.412   8.780 -2.3945  0.4249  2.7666
 9500SOL    HW240137   0.746   4.519   8.714 -0.0300  3.3134  0.9917
 9501SOL     OW40138   0.586   1.013   3.927 -0.0054 -0.1402  0.2077
 9501SOL    HW140139   0.506   1.067   3.927 -0.1748 -0.3918 -0.9540
 9501SOL    HW240140   0.548   0.936   3.886 -0.7163  0.9779 -1.2798
 9502SOL     OW40141   3.121   3.082   2.276  0.0650 -0.6070 -0.2121
 9502SOL    HW140142   3.096   2.998   2.315  0.8846  0.1339  1.8977
 9502SOL    HW240143   3.036   3.119   2.253  1.4110  1.7367 -1.4333
 9503SOL     OW40144   2.955   2.096  13.936 -0.1180  0.0548  0.1631
 9503SOL    HW140145   2.935   2.138  14.020 -0.6966 -0.3359  0.2285
 9503SOL    HW240146   2.917   2.008  13.946  2.0358 -0.8377  0.5698
 9504SOL     OW40147   3.770   0.995   4.134 -0.0278  0.0746  0.4566
 9504SOL    HW140148   3.731   1.075   4.171  1.4062  1.5434 -1.2079
 9504SOL    HW240149   3.787   0.944   4.213  0.6533  0.7571  0.7589
 9505SOL     OW40150   1.071   0.533   0.246 -0.2651  0.2517  0.7829
 9505SOL    HW140151   1.047   0.555   0.336  1.8455  0.8045  1.2016
 9505SOL    HW240152   0.982   0.530   0.211 -1.1976  0.7147  3.1653
 9506SOL     OW40153   4.377   4.321  12.890 -0.1762 -0.4771 -0.1335
 9506SOL    HW140154   4.463   4.349  12.921 -0.3751  0.7855 -0.7014
 9506SOL    HW240155   4.384   4.325  12.794  0.8294  0.3429 -0.0198
 9507SOL     OW40156   0.439   4.020  10.978 -0.1153 -0.4274 -0.3468
 9507SOL    HW140157   0.391   4.020  10.895 -0.6357 -1.1893 -0.0526
 9507SOL    HW240158   0.383   3.953  11.016 -2.9758  1.5530 -1.0816
 9508SOL     OW40159   3.339   0.508   3.075 -0.3543 -0.7152 -0.1913
 9508SOL    HW140160   3.248   0.518   3.102 -1.0175 -4.6364 -1.0253
 9508SOL    HW240161   3.339   0.416   3.049  1.3666 -0.0531 -2.5856
 9509SOL     OW40162   3.256   1.610  10.729 -0.6588 -0.3850  0.4072
 9509SOL    HW140163   3.326   1.556  10.766  0.7730 -0.3993 -2.2593
 9509SOL    HW240164   3.220   1.656  10.805  1.5446 -0.3610  1.4509
 9510SOL     OW40165   0.021   1.290   4.495  0.2274 -0.6577 -0.2975
 9510SOL    HW140166   4.708   1.249   4.565 -0.4913  0.5439 -0.1060
 9510SOL    HW240167   4.702   1.366   4.484  1.7657  0.7132  1.3347
 9511SOL     OW40168   4.240   1.709   2.685  0.3191  0.1041  0.4951
 9511SOL    HW140169   4.218   1.702   2.592  0.0973  0.5767  0.5092
 9511SOL    HW240170   4.267   1.621   2.708  0.4842 -0.0044 -0.1358
 9512SOL     OW40171   4.623   1.417   1.107  0.9142  0.7150  0.3134
 9512SOL    HW140172   4.555   1.384   1.049  1.0089 -2.3918  2.0038
 9512SOL    HW240173   4.604   1.510   1.118  0.1381  0.6141 -0.2244
 9513SOL     OW40174   4.081   1.518  17.630  0.1456  0.4151  0.2961
 9513SOL    HW140175   4.104   1.592  17.686  1.4103  0.6065 -0.4666
 9513SOL    HW240176   4.147   1.534  17.563 -0.3258  1.0226 -0.0322
 9514SOL     OW40177   3.667   3.043   8.608 -0.1948 -0.0092 -0.3937
 9514SOL    HW140178   3.652   3.086   8.524 -0.2650  3.0259  1.1817
 9514SOL    HW240179   3.686   3.123   8.657 -0.4020 -0.2861  0.1395
 9515SOL     OW40180   0.509   2.227   2.643 -0.0824  0.5073  0.2445
 9515SOL    HW140181   0.592   2.179   2.640 -0.2592  0.1022  1.7602
 9515SOL    HW240182   0.535   2.297   2.703  0.6306 -0.6262  1.2483
 9516SOL     OW40183   4.352   1.181   6.468  0.3402 -0.0386 -0.1577
 9516SOL    HW140184   4.334   1.256   6.524 -0.0157 -1.3907  1.5470
 9516SOL    HW240185   4.433   1.150   6.509  1.2138  1.7097 -0.5961
 9517SOL     OW40186   4.366   2.951  15.870  0.5150  0.2251 -0.2156
 9517SOL    HW140187   4.367   3.042  15.901  2.1368 -0.6579  2.3211
 9517SOL    HW240188   4.344   2.966  15.778 -0.5395 -2.6556 -0.4213
 9518SOL     OW40189   0.204   3.794   3.078  0.3521 -0.3422 -0.4584
 9518SOL    HW140190   0.256   3.736   3.023 -0.0467 -0.7332 -0.4252
 9518SOL    HW240191   0.202   3.748   3.162 -0.7005 -0.4670 -0.5515
 9519SOL     OW40192   4.332   3.956   2.721 -0.4593  0.0623  0.3450
 9519SOL    HW140193   4.280   3.950   2.801  0.9539  0.9019  1.3102
 9519SOL    HW240194   4.421   3.960   2.755 -0.3790  0.9061  0.0396
 9520SOL     OW40195   1.739   3.245   8.153  0.0537 -0.0883  1.2313
 9520SOL    HW140196   1.734   3.149   8.159 -0.9550 -0.2602 -1.9675
 9520SOL    HW240197   1.827   3.260   8.187 -0.0079  1.5460  0.6459
 9521SOL     OW40198   1.250   4.321  15.063 -0.0961 -0.3355 -0.6246
 9521SOL    HW140199   1.213   4.317  14.975 -0.8513  0.5402 -0.3486
 9521SOL    HW240200   1.318   4.254  15.059 -0.0010 -0.3236  0.7182
 9522SOL     OW40201   0.208   0.473   1.909  0.0468  0.2060  0.3404
 9522SOL    HW140202   0.181   0.526   1.984 -0.9172  0.3472 -0.1084
 9522SOL    HW240203   0.147   0.507   1.844  0.5383 -0.0015 -0.2327
 9523SOL     OW40204   1.232   1.653   8.444 -0.3923  0.4746 -0.1682
 9523SOL    HW140205   1.293   1.580   8.429 -1.6945 -0.7320  0.3788
 9523SOL    HW240206   1.299   1.721   8.451 -1.0290  1.1611 -0.8015
 9524SOL     OW40207   1.297   2.509  14.251  0.0005  0.0010 -0.1418
 9524SOL    HW140208   1.309   2.429  14.201 -4.7385 -0.9749  0.3575
 9524SOL    HW240209   1.252   2.470  14.325  0.7800 -0.0195  0.3244
 9525SOL     OW40210   2.695   0.261   6.716  0.4465 -0.3047 -0.4796
 9525SOL    HW140211   2.643   0.195   6.761  0.6510  1.1482  1.8889
 9525SOL    HW240212   2.769   0.273   6.776  0.6110  0.2723 -0.8037
 9526SOL     OW40213   1.381   2.636   7.179  0.6121  0.2806 -0.4251
 9526SOL    HW140214   1.444   2.580   7.133  1.0456  1.1800 -0.9182
 9526SOL    HW240215   1.410   2.719   7.141  0.8078  0.8034  0.8824
 9527SOL     OW40216   3.722   3.513   0.218  0.5499  0.0003  0.9929
 9527SOL    HW140217   3.734   3.420   0.234  1.3592 -0.0449  0.1376
 9527SOL    HW240218   3.634   3.536   0.246  1.3984  2.9835  1.2659
 9528SOL     OW40219   1.138   2.814   3.922  0.3961 -0.6524 -0.3350
 9528SOL    HW140220   1.124   2.890   3.979  0.0726 -1.1348  0.2256
 9528SOL    HW240221   1.188   2.751   3.973  2.7017  0.2778 -1.4306
 9529SOL     OW40222   1.410   3.754   7.281  0.3693  0.3806  0.0931
 9529SOL    HW140223   1.449   3.798   7.356  0.6324 -0.7813  0.6419
 9529SOL    HW240224   1.430   3.823   7.218  3.0503 -0.1854  0.2987
 9530SOL     OW40225   2.768   3.810   1.573 -0.6756 -0.0980 -0.6900
 9530SOL    HW140226   2.705   3.793   1.504 -0.2343 -0.5082 -0.9873
 9530SOL    HW240227   2.798   3.898   1.549  0.3802 -0.0061  0.9319
 9531SOL     OW40228   2.134   2.219  12.746  0.2538 -0.9176  0.0226
 9531SOL    HW140229   2.222   2.186  12.767 -0.0118 -2.5717 -1.5044
 9531SOL    HW240230   2.083   2.141  12.763 -0.5622 -0.4104 -0.0927
 9532SOL     OW40231   2.698   0.867  15.913 -0.2173  0.1607 -0.4596
 9532SOL    HW140232   2.787   0.869  15.879  0.3570 -0.9909  0.9949
 9532SOL    HW240233   2.691   0.772  15.925  0.1564 -0.0502 -1.9387
 9533SOL     OW40234   3.670   0.778   4.647  0.8924 -0.0090 -0.0664
 9533SOL    HW140235   3.614   0.753   4.574  1.3805 -0.9407 -0.1189
 9533SOL    HW240236   3.730   0.706   4.628  2.2805  0.8679  0.9530
 9534SOL     OW40237   2.826   3.028  17.130  0.6039 -0.4172  0.0214
 9534SOL    HW140238   2.832   2.989  17.043 -0.1011 -2.8199  1.0404
 9534SOL    HW240239   2.852   2.952  17.183 -2.3925 -2.7599 -1.8668
 9535SOL     OW40240   3.287   3.692   0.134  0.2103  0.1144 -0.1406
 9535SOL    HW140241   3.318   3.782   0.149 -2.3906  1.3031 -1.9450
 9535SOL    HW240242   3.235   3.707   0.055 -0.0154  1.1167  0.1997
 9536SOL     OW40243   2.557   2.618   2.114 -0.3585 -0.2125  0.3029
 9536SOL    HW140244   2.484   2.572   2.155 -0.0215 -1.1983 -0.2106
 9536SOL    HW240245   2.520   2.706   2.102  0.5987  0.3106  1.1515
 9537SOL     OW40246   3.282   2.970   1.806 -0.7277  0.1342  0.5544
 9537SOL    HW140247   3.212   2.974   1.740  1.0439 -0.5176 -1.3679
 9537SOL    HW240248   3.263   3.036   1.872  0.0356  0.2139  0.6856
 9538SOL     OW40249   0.611   0.663  12.387 -0.2340 -0.0425 -0.5729
 9538SOL    HW140250   0.696   0.705  12.376 -0.6562  0.8999 -0.1739
 9538SOL    HW240251   0.649   0.576  12.400 -0.5740  0.2025  1.9602
 9539SOL     OW40252   2.471   4.122   5.851 -0.4539  0.3380  0.2257
 9539SOL    HW140253   2.535   4.054   5.830  0.2263  0.0120  3.3961
 9539SOL    HW240254   2.429   4.069   5.918  3.7910 -2.7714  0.4424
 9540SOL     OW40255   4.693   4.659   6.882 -0.6261  0.1300  0.5246
 9540SOL    HW140256   4.677   4.578   6.834  1.9383  1.5838 -2.8361
 9540SOL    HW240257   0.002   4.623   6.957 -0.1836  0.0026  0.1888
 9541SOL     OW40258   3.600   0.772   4.001  0.5252  0.2139 -0.1467
 9541SOL    HW140259   3.672   0.798   4.059 -0.0129  0.7891  0.2571
 9541SOL    HW240260   3.644   0.705   3.948 -1.2409  0.1984 -1.5935
 9542SOL     OW40261   1.171   2.020  13.470 -0.1997  0.4294 -0.0589
 9542SOL    HW140262   1.162   2.105  13.427 -2.1272 -0.0301 -0.5849
 9542SOL    HW240263   1.265   2.014  13.485 -0.1830  1.3696  0.2251
 9543SOL     OW40264   0.002   2.991   2.151 -0.5450  0.2428  0.3496
 9543SOL    HW140265   4.662   3.045   2.163 -1.0025 -0.0783 -1.0832
 9543SOL    HW240266   4.710   2.941   2.075  1.0048 -0.1203 -0.0222
 9544SOL     OW40267   2.169   2.577   1.121 -0.6590 -0.1506 -0.5150
 9544SOL    HW140268   2.226   2.545   1.190  1.7421  1.4829 -1.7618
 9544SOL    HW240269   2.156   2.669   1.144 -0.4552  0.1768 -1.7053
 9545SOL     OW40270   1.677   4.660   7.564  0.1039 -0.4603  0.1207
 9545SOL    HW140271   1.630   4.647   7.482 -1.0793  2.0595  0.4160
 9545SOL    HW240272   1.735   4.735   7.551 -1.3932  0.7432  0.4543
 9546SOL     OW40273   1.988   3.559   5.762  0.0161  0.1162 -0.2139
 9546SOL    HW140274   2.072   3.513   5.768  0.4993  0.8069 -1.6440
 9546SOL    HW240275   1.992   3.613   5.842 -1.4310  2.4875 -1.7449
 9547SOL     OW40276   3.629   3.823   1.175  0.4558  0.0260  0.0178
 9547SOL    HW140277   3.555   3.780   1.219  0.4529 -0.7251 -0.7397
 9547SOL    HW240278   3.623   3.911   1.214 -2.1241 -0.1142 -0.0665
 9548SOL     OW40279   3.870   3.901   2.709  0.1021 -0.4149 -0.3755
 9548SOL    HW140280   3.891   3.816   2.747  1.5679  1.1004  2.2274
 9548SOL    HW240281   3.923   3.955   2.768  0.4421  0.3129 -1.3430
 9549SOL     OW40282   0.314   0.066   0.586 -0.1696 -0.8105 -0.5143
 9549SOL    HW140283   0.358   0.029   0.662 -0.6340 -1.7313 -0.6933
 9549SOL    HW240284   0.361   0.149   0.579  1.2433 -1.5369  0.1662
 9550SOL     OW40285   1.051   2.999   9.066  0.4735  0.1919 -1.1290
 9550SOL    HW140286   1.007   2.937   9.124 -2.7411  2.8903 -0.6742
 9550SOL    HW240287   1.126   2.944   9.044  0.4134 -0.9638  1.4969
 9551SOL     OW40288   1.319   3.527   5.724  0.4131  0.1046  0.3535
 9551SOL    HW140289   1.268   3.520   5.805 -0.7910 -1.0622 -0.5004
 9551SOL    HW240290   1.283   3.458   5.669 -1.3093  0.2128  1.3137
 9552SOL     OW40291   4.641   0.335   1.636  0.0625  0.3025  0.0701
 9552SOL    HW140292   4.702   0.407   1.653  1.8268 -0.9926 -0.8278
 9552SOL    HW240293   4.556   0.368   1.665  0.1818 -0.1768  0.9711
 9553SOL     OW40294   0.445   1.559   2.522 -0.0314  0.1674 -0.0505
 9553SOL    HW140295   0.363   1.514   2.543 -0.7977  1.4407 -0.2712
 9553SOL    HW240296   0.504   1.490   2.492  0.1312 -0.9780  2.9684
 9554SOL     OW40297   2.116   3.176   1.571  0.0510 -0.3632 -0.5134
 9554SOL    HW140298   2.204   3.200   1.601 -1.3447  1.8524  1.8824
 9554SOL    HW240299   2.121   3.080   1.568 -1.5715 -0.5191  1.1766
 9555SOL     OW40300   2.922   2.072   5.214  0.1902  0.0537 -0.2798
 9555SOL    HW140301   2.963   2.125   5.146  0.4745  0.9493  0.5923
 9555SOL    HW240302   2.930   1.981   5.186 -1.2470 -0.1352 -0.0853
 9556SOL     OW40303   3.188   3.128   7.099  0.3877  0.2412  0.2217
 9556SOL    HW140304   3.165   3.203   7.153 -1.9352 -0.2707 -0.0359
 9556SOL    HW240305   3.211   3.066   7.169 -0.1211  1.3752  1.4030
 9557SOL     OW40306   4.187   2.247   4.945 -0.3497 -0.5509  0.4171
 9557SOL    HW140307   4.132   2.198   5.005  1.2348 -1.9198  0.7489
 9557SOL    HW240308   4.147   2.217   4.864 -1.0759  0.0974  0.5352
 9558SOL     OW40309   4.448   2.609   3.925  0.3441 -0.2652  0.0912
 9558SOL    HW140310   4.490   2.645   3.847 -0.2617 -1.4378 -0.7820
 9558SOL    HW240311   4.464   2.682   3.984  0.0786  0.3929 -0.6522
 9559SOL     OW40312   0.320   0.852   5.208 -0.0987 -0.2252  0.3578
 9559SOL    HW140313   0.318   0.805   5.291 -2.1873  0.1913  0.5404
 9559SOL    HW240314   0.405   0.835   5.168 -0.4171  2.0061 -1.2857
 9560SOL     OW40315   1.432   0.176   9.060  0.1533 -0.4218  0.0243
 9560SOL    HW140316   1.483   0.137   9.131  0.0568  0.1714  0.4200
 9560SOL    HW240317   1.402   0.091   9.027 -0.9077  0.6136 -1.6313
 9561SOL     OW40318   3.713   2.942   8.968 -0.3623 -0.5639  0.1653
 9561SOL    HW140319   3.785   2.963   9.027 -1.5830 -0.9374  1.8049
 9561SOL    HW240320   3.685   3.022   8.924  1.2901 -0.6543 -1.0627
 9562SOL     OW40321   0.408   3.618  16.328 -1.0547 -0.0135 -0.2971
 9562SOL    HW140322   0.317   3.625  16.300 -1.1577 -0.7737 -0.1397
 9562SOL    HW240323   0.404   3.685  16.396  0.6829 -0.8276  0.6134
 9563SOL     OW40324   2.476   2.466   6.939 -0.2596 -0.2024 -0.5519
 9563SOL    HW140325   2.393   2.431   6.971 -0.4134  0.4911 -0.1797
 9563SOL    HW240326   2.464   2.428   6.852  2.3765  2.3836 -2.0475
 9564SOL     OW40327   0.619   1.474   4.968 -0.5470  0.5848  0.6631
 9564SOL    HW140328   0.663   1.439   5.045  1.1377  2.5009  0.5840
 9564SOL    HW240329   0.649   1.411   4.902  0.8025 -0.0475  1.8862
 9565SOL     OW40330   4.212   2.055   6.419  0.5210 -0.5278  0.3422
 9565SOL    HW140331   4.296   2.074   6.461 -0.1771 -0.2659  1.6031
 9565SOL    HW240332   4.157   2.074   6.495  0.0394  1.0533 -0.3947
 9566SOL     OW40333   3.376   2.562  11.685  0.0669 -0.3624  0.4320
 9566SOL    HW140334   3.415   2.568  11.598  1.0583 -0.0325  0.9021
 9566SOL    HW240335   3.335   2.647  11.696  0.9050  0.2386 -1.1640
 9567SOL     OW40336   1.263   2.188   6.415 -0.3745  0.6723  0.4469
 9567SOL    HW140337   1.292   2.274   6.446 -0.5287  0.5602  0.9107
 9567SOL    HW240338   1.324   2.168   6.345  0.8280 -1.0958  2.0100
 9568SOL     OW40339   1.963   0.150  11.257  0.5211  0.7746  0.4996
 9568SOL    HW140340   1.969   0.191  11.171  0.2528 -1.3689 -0.5511
 9568SOL    HW240341   1.991   0.060  11.240 -0.4633  0.3626  1.0896
 9569SOL     OW40342   2.171   3.829   7.527 -0.2187  0.3511 -0.1356
 9569SOL    HW140343   2.208   3.741   7.515 -1.9821 -0.4768  0.3581
 9569SOL    HW240344   2.183   3.864   7.439  0.0118 -2.7844 -1.3630
   4.73799   4.73799  17.75007
