Membrane in water
40344
    1TMC1    C1    1   3.353   2.864  11.665 -0.6346  0.2574  0.2032
    1TMC1    C2    2   3.322   2.986  11.609 -0.3302  0.3936  0.3448
    1TMC1    C3    3   3.401   3.092  11.645 -0.1515  0.7065 -0.0683
    1TMC1    C4    4   3.444   2.854  11.772  0.3450 -0.3747  0.4785
    1TMC1    C5    5   3.495   2.969  11.821 -0.3134 -0.0970 -1.3696
    1TMC1    C6    6   3.482   3.083  11.751  0.7964 -0.2339 -0.3151
    1TMC1     C    7   3.306   2.747  11.597 -0.4528  0.2959 -0.5174
    1TMC1     O    8   3.249   2.771  11.495 -0.0941 -0.5068  0.2938
    1TMC1     H    9   3.245   2.996  11.534 -0.8866 -0.9114  0.7508
    1TMC1    H1   10   3.456   2.762  11.828  2.0979 -1.4725 -1.6936
    1TMC1    H2   11   3.545   3.166  11.782  0.4164  0.5039 -1.5106
    1TMC1    C7   12   3.626   2.954  11.892  0.3476 -0.4677 -0.2142
    1TMC1    C8   13   3.346   3.226  11.620  0.6093  0.1030 -0.1912
    1TMC1    O1   14   3.718   3.016  11.840 -0.5092  0.7478  0.5792
    1TMC1    O2   15   3.287   3.300  11.703 -0.3371  0.1626 -0.6179
    1TMC1    O3   16   3.637   2.825  11.944 -0.6137  0.1887 -0.0991
    1TMC1    H3   17   3.548   2.805  11.980 -0.4144 -0.0427  0.2551
    1TMC1    O5   18   3.330   3.245  11.488 -0.2194 -0.0423  0.3910
    1TMC1    H5   19   3.360   3.171  11.431 -0.0421  1.1626 -1.0873
    2MPD2     C   20   3.183   2.242  11.639  0.4037  0.5611 -0.4476
    2MPD2    C1   21   3.120   2.352  11.572 -0.7089 -0.3284 -0.0699
    2MPD2    C2   22   3.186   2.477  11.564  0.4953 -0.1399  0.2816
    2MPD2    C3   23   3.290   2.507  11.647  0.6169  0.5205 -0.1050
    2MPD2    C4   24   3.353   2.402  11.703 -1.4269  0.5971  0.5641
    2MPD2    C5   25   3.301   2.278  11.702  0.3759 -0.0821  0.7691
    2MPD2     H   26   3.144   2.554  11.501  3.1615 -0.0555 -1.3929
    2MPD2    H1   27   3.449   2.415  11.751 -2.1151  4.1919  0.9805
    2MPD2    H2   28   3.143   2.141  11.641  3.1541 -0.5062  2.0395
    2MPD2    H3   29   3.367   2.201  11.739  0.0517 -0.5228  0.4325
    2MPD2     N   30   3.345   2.634  11.662 -0.4983  0.2006  0.1262
    2MPD2    H5   31   3.423   2.642  11.726 -0.6741  1.1342  0.2163
    2MPD2    N1   32   2.991   2.343  11.515 -0.2813 -0.1899 -0.4482
    2MPD2    H7   33   2.950   2.430  11.483 -0.4512 -0.5145 -1.1115
    3TMC1    C1   34   2.197   3.846  10.284 -0.6798 -0.2655 -0.7023
    3TMC1    C2   35   2.172   3.916  10.167  0.0518  0.3567  0.4984
    3TMC1    C3   36   2.263   3.900  10.072 -0.9850 -0.1306  0.0582
    3TMC1    C4   37   2.300   3.760  10.297  0.6054 -0.1643  0.2558
    3TMC1    C5   38   2.387   3.753  10.197  0.0310 -0.9588 -0.5862
    3TMC1    C6   39   2.370   3.811  10.076  0.0864 -0.3370 -0.3793
    3TMC1     C   40   2.096   3.848  10.391  0.3650  0.2233  0.4775
    3TMC1     O   41   2.111   3.767  10.485 -0.6383  0.3388  0.5225
    3TMC1     H   42   2.081   3.973  10.148 -1.8757 -2.5389  0.9565
    3TMC1    H1   43   2.320   3.720  10.396  2.2814 -0.3720 -0.1636
    3TMC1    H2   44   2.430   3.793   9.988 -0.3890 -0.6518 -0.6398
    3TMC1    C7   45   2.493   3.660  10.208 -0.6223  0.5592  0.5900
    3TMC1    C8   46   2.227   3.944   9.939 -0.2381  0.0756  0.0168
    3TMC1    O1   47   2.598   3.687  10.164 -0.2906 -0.0170 -0.3016
    3TMC1    O2   48   2.143   4.032   9.927  0.1532 -0.1032 -0.1178
    3TMC1    O3   49   2.437   3.535  10.195  0.5837  0.1104 -0.2402
    3TMC1    H3   50   2.345   3.516  10.223  0.9438  0.9784  1.5564
    3TMC1    O5   51   2.257   3.857   9.848  0.0321 -0.1232  0.0684
    3TMC1    H5   52   2.310   3.776   9.866 -1.2369 -0.5261  1.9675
    4MPD2     C   53   1.715   4.040  10.677  0.9276 -0.2465 -0.1127
    4MPD2    C1   54   1.756   4.145  10.592 -0.5276  0.5225  0.0069
    4MPD2    C2   55   1.851   4.104  10.501  0.5186 -0.4587 -0.5196
    4MPD2    C3   56   1.903   3.982  10.488  0.8174  0.3475  0.6125
    4MPD2    C4   57   1.857   3.886  10.568  0.7654  0.5817 -0.0743
    4MPD2    C5   58   1.766   3.918  10.663  0.3385  0.2251  0.8829
    4MPD2     H   59   1.878   4.175  10.424 -0.7028  0.5119 -0.0578
    4MPD2    H1   60   1.879   3.779  10.564  1.2013  0.7766 -2.9630
    4MPD2    H2   61   1.656   4.049  10.768 -1.7071  1.5094 -1.9960
    4MPD2    H3   62   1.732   3.842  10.732  1.8465  0.0052  1.3935
    4MPD2     N   63   2.002   3.953  10.387 -0.2153  0.6256  0.1088
    4MPD2    H5   64   2.013   4.023  10.314 -1.5597  1.9347  1.1495
    4MPD2    N1   65   1.711   4.279  10.598  0.0533 -0.2013 -0.0871
    4MPD2    H7   66   1.749   4.347  10.533 -0.6665  0.6596  0.4049
    5TCq1    O1   67   3.420   0.178  11.625  0.1870 -0.2059  0.1564
    5TCq1    C1   68   3.353   0.164  11.512 -0.1519  0.6171 -0.2460
    5TCq1    O2   69   3.387   0.209  11.404  0.2706  0.4308 -0.1034
    5TCq1    C2   70   3.214   0.180  11.546 -0.4811  0.3162 -0.0738
    5TCq1    C3   71   3.172   0.236  11.666  0.1766  0.1198 -0.1038
    5TCq1    C4   72   3.054   0.299  11.676 -0.1444  0.3140 -0.4592
    5TCq1    C5   73   2.967   0.302  11.578  0.2609 -0.0534 -0.1628
    5TCq1    C6   74   3.004   0.243  11.459  0.8545 -0.3400  0.9521
    5TCq1    C7   75   3.128   0.194  11.438 -0.1481 -0.5720  0.1400
    5TCq1    C8   76   2.922   0.269  11.340  0.7936  0.8588  0.2450
    5TCq1    O4   77   2.943   0.196  11.243  0.5927 -0.0986 -0.6026
    5TCq1    C9   78   3.030   0.373  11.801  0.9981  0.3063 -0.4374
    5TCq1    O5   79   2.959   0.475  11.791 -0.3677 -0.6353 -0.4347
    5TCq1    O6   80   3.044   0.296  11.903 -0.5586 -0.5106  0.3918
    5TCq1    H1   81   3.390   0.118  11.696 -0.0565 -0.9583 -0.5816
    5TCq1    H2   82   3.240   0.255  11.749 -0.8126 -0.0014  0.7380
    5TCq1    H3   83   2.866   0.338  11.592 -0.0172  0.3193 -3.0662
    5TCq1    H4   84   3.162   0.150  11.346 -1.1793  1.9821 -1.4811
    6MPD2     C   85   2.718   0.572  11.253 -0.3089 -0.1406  0.2897
    6MPD2    C1   86   2.786   0.457  11.233 -0.1249 -0.0646 -0.0130
    6MPD2    C2   87   2.802   0.408  11.100 -0.2974  0.4733  0.3735
    6MPD2    C3   88   2.753   0.486  10.994 -0.2663 -0.7674  0.0294
    6MPD2    C4   89   2.680   0.603  11.018 -0.1627  0.0663 -0.1197
    6MPD2    C5   90   2.671   0.641  11.147 -0.0415  0.0375 -0.1260
    6MPD2     H   91   2.855   0.317  11.073 -0.3360  0.8397 -0.9419
    6MPD2    H1   92   2.652   0.668  10.936 -0.1424  0.4031  0.1453
    6MPD2    H2   93   2.698   0.619  11.349  1.6527  0.0061  0.6380
    6MPD2    H3   94   2.612   0.729  11.170  0.2373  0.0688  0.4796
    6MPD2     N   95   2.786   0.429  10.863 -0.0842  0.5119 -0.7029
    6MPD2    H5   96   2.843   0.345  10.869  1.6081  1.8234  1.5305
    6MPD2    N1   97   2.844   0.390  11.350  0.5981 -0.0683  0.2180
    6MPD2    H7   98   2.834   0.435  11.441  1.2500  0.1174  0.1958
    7TCq1    O1   99   3.732   4.143  13.002 -0.5786  0.1417 -0.4987
    7TCq1    C1  100   3.803   4.060  13.083  0.3101 -0.2742  1.0724
    7TCq1    O2  101   3.870   3.963  13.044  0.2233  0.6083  0.1867
    7TCq1    C2  102   3.842   4.128  13.206 -0.5467  0.5482  0.0207
    7TCq1    C3  103   3.784   4.247  13.241 -0.3605 -0.4838  0.3769
    7TCq1    C4  104   3.843   4.328  13.338  0.1665 -0.3352  0.2376
    7TCq1    C5  105   3.976   4.307  13.372  0.4046 -0.8223  0.0325
    7TCq1    C6  106   4.032   4.192  13.328  0.3453  0.0418  0.0854
    7TCq1    C7  107   3.959   4.090  13.266  0.2250  0.2285  0.4849
    7TCq1    C8  108   4.172   4.156  13.375 -0.1259  1.0176 -0.1050
    7TCq1    O4  109   4.213   4.043  13.363  0.3193  0.2211 -0.2901
    7TCq1    C9  110   3.771   4.436  13.397 -0.9528  0.3071 -1.0818
    7TCq1    O5  111   3.840   4.519  13.469  1.1353  0.2218 -0.2269
    7TCq1    O6  112   3.646   4.424  13.395  0.2006 -0.4842 -0.2639
    7TCq1    H1  113   3.709   4.235  13.029  2.4019  0.7688 -0.1052
    7TCq1    H2  114   3.677   4.257  13.228 -0.0237  2.9385  0.1232
    7TCq1    H3  115   4.020   4.382  13.437 -0.5078 -0.8991  0.7332
    7TCq1    H4  116   4.002   3.994  13.240 -1.3639 -0.3039 -0.1802
    8MPD2     C  117   4.606   4.301  13.625 -0.4857  0.3189 -0.7108
    8MPD2    C1  118   4.585   4.188  13.545  0.5799 -0.2631 -0.0483
    8MPD2    C2  119   4.456   4.175  13.484  0.0649 -0.8346  0.5277
    8MPD2    C3  120   4.360   4.271  13.501 -1.0157  0.2155  0.6127
    8MPD2    C4  121   4.389   4.384  13.570 -0.9280 -0.0182 -0.2574
    8MPD2    C5  122   4.508   4.398  13.634 -0.1292 -0.0702  0.7402
    8MPD2     H  123   4.428   4.096  13.415 -2.1906  2.6286 -2.5288
    8MPD2    H1  124   4.310   4.454  13.593  1.9425  2.5756  1.7884
    8MPD2    H2  125   4.693   4.317  13.688 -0.6862 -0.6288 -0.1984
    8MPD2    H3  126   4.525   4.488  13.693  1.7048 -0.8522  1.3911
    8MPD2     N  127   4.227   4.259  13.446  0.1634  0.0321 -0.3408
    8MPD2    H5  128   4.185   4.349  13.424  1.8447  0.4647 -1.7807
    8MPD2    N1  129   4.680   4.088  13.565  0.2455  1.4777  0.0197
    8MPD2    H7  130   0.001   4.101  13.645  0.4122 -1.2567  0.3551
    9TMC1    C1  131   2.846   4.223  10.657 -0.6446 -0.1337  0.6670
    9TMC1    C2  132   2.803   4.346  10.604 -0.0709 -0.1388  0.4449
    9TMC1    C3  133   2.893   4.446  10.611  0.8106 -0.6050  0.1093
    9TMC1    C4  134   2.961   4.209  10.732  0.9949  0.5341 -0.0094
    9TMC1    C5  135   3.036   4.328  10.742 -0.1790  0.2543  0.1091
    9TMC1    C6  136   3.013   4.447  10.675 -0.4820 -1.3963  0.7268
    9TMC1     C  137   2.736   4.163  10.728 -0.0325 -0.1008  0.4597
    9TMC1     O  138   2.633   4.230  10.723  0.1828  0.0757 -0.5478
    9TMC1     H  139   2.712   4.349  10.545  0.4324 -0.3676 -0.3400
    9TMC1    H1  140   2.988   4.115  10.777  2.5725  0.9615 -0.0789
    9TMC1    H2  141   3.087   4.525  10.658 -0.8152 -1.5126 -1.2368
    9TMC1    C7  142   3.164   4.306  10.799  0.0893 -0.1306 -0.1352
    9TMC1    C8  143   2.855   4.558  10.535  0.4370 -0.4625 -0.9081
    9TMC1    O1  144   3.160   4.253  10.908  0.5610  1.0588  0.0762
    9TMC1    O2  145   2.758   4.559  10.457  0.8307 -0.0408  0.6030
    9TMC1    O3  146   3.240   4.270  10.695 -0.2358 -0.4762  0.2344
    9TMC1    H3  147   3.204   4.293  10.606 -0.0567 -2.6214 -0.4095
    9TMC1    O5  148   2.887   4.666  10.614  0.2654 -0.0199  0.3582
    9TMC1    H5  149   2.920   4.635  10.701  1.2711 -5.0194 -1.7763
   10MPD2     C  150   2.571   4.054  10.930  0.0393  0.6533  0.2138
   10MPD2    C1  151   2.660   3.972  10.862 -0.3297  0.7562 -0.8798
   10MPD2    C2  152   2.671   3.839  10.893 -0.0665 -1.0253 -0.1610
   10MPD2    C3  153   2.579   3.782  10.978 -0.0194 -0.0965  0.0230
   10MPD2    C4  154   2.482   3.859  11.038 -0.0656 -0.2734  0.4706
   10MPD2    C5  155   2.489   3.997  11.018 -0.0785  0.2266 -0.3336
   10MPD2     H  156   2.741   3.786  10.830  1.0430  2.1842 -1.6831
   10MPD2    H1  157   2.424   3.813  11.118 -0.0901 -1.8019 -0.4189
   10MPD2    H2  158   2.583   4.161  10.920  2.4051  0.2978 -0.8340
   10MPD2    H3  159   2.416   4.057  11.071 -0.6840  2.3073 -3.5013
   10MPD2     N  160   2.586   3.643  11.007 -0.1972 -0.3674  0.2486
   10MPD2    H5  161   2.509   3.615  11.067 -0.1459 -1.1363 -0.0454
   10MPD2    N1  162   2.751   4.032  10.775 -0.6772  0.0674  0.1229
   10MPD2    H7  163   2.827   3.975  10.740 -0.6226  0.1853  0.0500
   11TCq1    O1  164   3.259   3.702  13.923 -0.0219 -0.4026  0.6768
   11TCq1    C1  165   3.224   3.691  14.051 -0.2783  0.0530 -0.1166
   11TCq1    O2  166   3.299   3.685  14.147  0.3781 -0.1488  0.1455
   11TCq1    C2  167   3.081   3.731  14.062 -0.7779  0.0543 -0.5579
   11TCq1    C3  168   3.050   3.812  14.165 -0.5393 -0.3459  0.5191
   11TCq1    C4  169   2.920   3.847  14.184  0.3197  0.3162 -0.7584
   11TCq1    C5  170   2.837   3.832  14.079  0.6833 -0.0490  0.2717
   11TCq1    C6  171   2.866   3.751  13.974 -0.4077 -0.0277 -0.2010
   11TCq1    C7  172   2.992   3.693  13.966 -0.4611 -0.5905  0.7426
   11TCq1    C8  173   2.769   3.714  13.878  0.3894 -0.2916  0.9222
   11TCq1    O4  174   2.694   3.804  13.843 -0.4312 -0.2157 -0.0850
   11TCq1    C9  175   2.881   3.917  14.309  0.8073 -0.7638  0.1114
   11TCq1    O5  176   2.767   3.967  14.310  0.8193  0.6270 -0.8860
   11TCq1    O6  177   2.961   3.914  14.407 -0.1185  0.5849  0.3568
   11TCq1    H1  178   3.193   3.730  13.856 -0.8878 -1.9012  0.9199
   11TCq1    H2  179   3.129   3.831  14.236 -0.3360 -0.4543  0.3229
   11TCq1    H3  180   2.735   3.869  14.076  0.3311 -0.9623  0.9647
   11TCq1    H4  181   3.021   3.646  13.873  1.5321  0.5445  0.7887
   12MPD2     C  182   2.615   3.605  13.650 -0.4847 -0.1185  0.2656
   12MPD2    C1  183   2.680   3.526  13.740 -0.9876 -0.0566 -0.3122
   12MPD2    C2  184   2.667   3.385  13.737  0.7035  0.0025  0.9596
   12MPD2    C3  185   2.586   3.337  13.641  0.1777  0.3271  0.0436
   12MPD2    C4  186   2.527   3.413  13.542  0.4261  0.2196 -0.2501
   12MPD2    C5  187   2.538   3.549  13.547 -1.0909  0.6953 -0.0676
   12MPD2     H  188   2.720   3.315  13.801 -0.3479 -1.2974  0.3947
   12MPD2    H1  189   2.470   3.380  13.456  0.2203  2.1621 -0.8561
   12MPD2    H2  190   2.626   3.711  13.631 -1.6523 -0.5081 -2.4990
   12MPD2    H3  191   2.493   3.607  13.467 -0.7691  0.8886 -0.1056
   12MPD2     N  192   2.548   3.197  13.641  0.0438  0.0162 -0.1754
   12MPD2    H5  193   2.486   3.166  13.567  1.1643 -0.4374 -0.9176
   12MPD2    N1  194   2.765   3.575  13.845  0.1065 -0.6778 -0.3138
   12MPD2    H7  195   2.825   3.507  13.891 -0.9168 -1.4382 -0.1104
   13TCq1    O1  196   3.466   4.107  10.882 -0.1972  0.1124  0.2368
   13TCq1    C1  197   3.375   4.009  10.887 -0.8431 -0.1186 -0.3675
   13TCq1    O2  198   3.324   3.957  10.988  0.7884 -0.6863  0.8079
   13TCq1    C2  199   3.340   3.968  10.751 -1.0119 -0.2285  0.0114
   13TCq1    C3  200   3.427   3.997  10.647  0.8111  0.0089 -0.2507
   13TCq1    C4  201   3.383   3.956  10.524  0.0657 -0.2982  0.3859
   13TCq1    C5  202   3.263   3.895  10.495 -0.7751 -0.6947  0.5059
   13TCq1    C6  203   3.175   3.880  10.602 -0.4483 -0.0148 -0.2189
   13TCq1    C7  204   3.221   3.904  10.730 -0.0075 -0.5004 -0.0198
   13TCq1    C8  205   3.035   3.848  10.588  0.3992 -0.5809 -0.5728
   13TCq1    O4  206   2.958   3.880  10.676 -0.4792  0.1593  0.2920
   13TCq1    C9  207   3.480   3.963  10.417 -1.4779 -0.2595 -0.0899
   13TCq1    O5  208   3.435   3.957  10.299 -0.3060 -0.2329  0.7381
   13TCq1    O6  209   3.600   3.980  10.459 -0.1540  0.3249 -0.2076
   13TCq1    H1  210   3.460   4.158  10.799  1.4187 -1.7981 -1.0649
   13TCq1    H2  211   3.529   4.030  10.661  0.9096 -1.6819  3.0578
   13TCq1    H3  212   3.244   3.872  10.391  2.2683  1.9866 -0.6481
   13TCq1    H4  213   3.155   3.878  10.812  1.2390  0.3560  1.2628
   14MPD2     C  214   2.892   3.576  10.400  0.3007 -0.5533  0.6421
   14MPD2    C1  215   2.887   3.698  10.461  0.0192 -0.2760  0.5172
   14MPD2    C2  216   2.766   3.732  10.519 -0.1373  0.3512  0.3374
   14MPD2    C3  217   2.656   3.649  10.508 -0.3777 -0.3049  0.1085
   14MPD2    C4  218   2.671   3.524  10.449  0.9010  0.0368  0.1692
   14MPD2    C5  219   2.791   3.488  10.388 -0.1593 -0.2092  0.5978
   14MPD2     H  220   2.754   3.822  10.577  0.0660  0.3675  0.3541
   14MPD2    H1  221   2.599   3.445  10.432 -0.5067  1.0951  1.2592
   14MPD2    H2  222   2.991   3.544  10.371 -0.8784 -2.4367 -1.3239
   14MPD2    H3  223   2.810   3.389  10.349 -0.6274  1.1642 -3.0507
   14MPD2     N  224   2.542   3.685  10.587  0.1780 -0.1931 -0.1888
   14MPD2    H5  225   2.537   3.778  10.627 -2.1409 -0.1535 -0.5618
   14MPD2    N1  226   3.014   3.769  10.481  0.2037 -0.1629 -0.2902
   14MPD2    H7  227   3.086   3.750  10.412 -0.6750 -0.5502 -1.0999
   15TCq1    O1  228   3.680   2.642   0.581  0.0402  0.0627 -0.7136
   15TCq1    C1  229   3.708   2.703   0.693  0.4874  0.7424 -0.3787
   15TCq1    O2  230   3.742   2.818   0.709  0.2359  0.1095 -0.2603
   15TCq1    C2  231   3.716   2.606   0.802 -0.6307 -0.6796 -0.9005
   15TCq1    C3  232   3.702   2.652   0.929 -0.1807 -0.4005  0.2912
   15TCq1    C4  233   3.718   2.566   1.032  0.2734  0.5093  0.4028
   15TCq1    C5  234   3.749   2.437   1.009 -0.2677  0.1737 -0.2890
   15TCq1    C6  235   3.753   2.395   0.882 -0.2653  0.1272 -1.1717
   15TCq1    C7  236   3.737   2.477   0.774 -0.3505 -0.6761  0.0628
   15TCq1    C8  237   3.804   2.264   0.863 -0.6303  0.2955 -0.2164
   15TCq1    O4  238   3.846   2.205   0.959  0.1878  0.0648  0.2347
   15TCq1    C9  239   3.708   2.607   1.171  0.0192  0.6967  0.1054
   15TCq1    O5  240   3.676   2.727   1.183  0.6301 -0.8324  0.7247
   15TCq1    O6  241   3.708   2.515   1.259 -0.0572 -0.2883  0.2011
   15TCq1    H1  242   3.649   2.552   0.604 -0.9109  0.4122 -0.6439
   15TCq1    H2  243   3.673   2.754   0.953  1.3040  0.0457  0.1648
   15TCq1    H3  244   3.778   2.379   1.095 -1.5578  0.3726  0.2768
   15TCq1    H4  245   3.759   2.446   0.672  0.2391 -0.1192  0.0247
   16MPD2     C  246   3.721   2.019   0.593 -0.5878  0.5532 -0.0211
   16MPD2    C1  247   3.776   2.060   0.713 -0.6937 -0.4318 -0.1353
   16MPD2    C2  248   3.846   1.969   0.798 -0.4029 -0.5746 -0.4799
   16MPD2    C3  249   3.838   1.833   0.763  0.6036 -0.2905 -0.0272
   16MPD2    C4  250   3.778   1.796   0.642  0.2731 -0.1963  0.3463
   16MPD2    C5  251   3.732   1.894   0.551  0.3014  0.7715  0.0302
   16MPD2     H  252   3.890   1.996   0.893  2.6631 -0.2378 -2.0137
   16MPD2    H1  253   3.778   1.695   0.602 -0.2476  0.3418 -1.0194
   16MPD2    H2  254   3.670   2.091   0.530 -0.6359  1.4908  1.1005
   16MPD2    H3  255   3.701   1.867   0.451 -2.3571  2.9302  0.2618
   16MPD2     N  256   3.903   1.734   0.847  0.1402 -0.2181  0.2376
   16MPD2    H5  257   3.983   1.763   0.902  0.7392 -0.5489 -0.4537
   16MPD2    N1  258   3.763   2.200   0.746  0.6352 -0.1573  0.0345
   16MPD2    H7  259   3.713   2.264   0.686  1.5901 -1.3183 -2.0056
   17TMC1    C1  260   1.982   2.079  10.022  0.3009 -0.3098  0.1566
   17TMC1    C2  261   1.858   2.023   9.986  0.3340 -0.4670  0.1950
   17TMC1    C3  262   1.832   2.003   9.856 -0.6012 -0.0777  1.1367
   17TMC1    C4  263   2.070   2.120   9.923  0.0260  0.2808  0.6818
   17TMC1    C5  264   2.041   2.098   9.788  0.6752  1.0880  0.3813
   17TMC1    C6  265   1.920   2.039   9.753 -0.1176 -0.3896  0.2801
   17TMC1     C  266   2.032   2.038  10.152  0.1697  0.7216  0.5116
   17TMC1     O  267   1.963   1.952  10.208 -0.0927  0.0073  0.5506
   17TMC1     H  268   1.791   1.983  10.061  0.9683 -0.4066  0.7912
   17TMC1    H1  269   2.172   2.148   9.944  0.4003 -0.7288  0.2542
   17TMC1    H2  270   1.906   2.011   9.649 -1.5584  1.5108 -0.0611
   17TMC1    C7  271   2.108   2.173   9.678  0.3163  0.2461  0.1446
   17TMC1    C8  272   1.722   1.917   9.812 -0.3803  0.0235 -0.2692
   17TMC1    O1  273   2.108   2.135   9.558  0.0251 -0.2827  0.5864
   17TMC1    O2  274   1.733   1.855   9.710  0.5262  0.2366  0.2891
   17TMC1    O3  275   2.155   2.286   9.731  0.3141  0.2248 -0.2322
   17TMC1    H3  276   2.107   2.331   9.804  1.0408  2.6278 -1.2312
   17TMC1    O5  277   1.614   1.988   9.852  0.3717 -0.5622 -0.7818
   17TMC1    H5  278   1.646   2.047   9.924 -0.3925  1.5290 -2.1413
   18MPD2     C  279   2.206   1.943  10.383 -0.1790  0.0847  0.0748
   18MPD2    C1  280   2.228   2.059  10.304  0.3521  0.0598  0.5448
   18MPD2    C2  281   2.325   2.149  10.347 -0.7691  0.4851  0.9206
   18MPD2    C3  282   2.398   2.122  10.465 -0.9911  0.5065 -0.0630
   18MPD2    C4  283   2.368   2.017  10.538  0.0171 -0.3910 -0.3717
   18MPD2    C5  284   2.283   1.918  10.490  0.1250  0.0096 -0.3388
   18MPD2     H  285   2.335   2.234  10.280 -1.1120 -0.2372 -0.0370
   18MPD2    H1  286   2.426   1.985  10.624 -0.2253 -0.8875 -0.3907
   18MPD2    H2  287   2.125   1.874  10.364  0.1155  0.2065 -1.6370
   18MPD2    H3  288   2.276   1.833  10.557  1.5393  0.1582  0.0083
   18MPD2     N  289   2.505   2.201  10.508 -0.0368  0.1253  0.3331
   18MPD2    H5  290   2.559   2.163  10.585 -0.6481 -1.2340  0.0908
   18MPD2    N1  291   2.152   2.094  10.190  0.0296  0.4934 -0.0185
   18MPD2    H7  292   2.183   2.178  10.142 -0.4476 -0.1616 -1.4476
   19TMC2    C1  293   3.964   2.740  13.654 -0.3853 -0.0087 -0.0464
   19TMC2    C2  294   3.984   2.836  13.556 -0.0517  0.3654 -0.1398
   19TMC2    C3  295   3.874   2.919  13.535 -0.4834  0.2288  0.7414
   19TMC2    C4  296   3.853   2.742  13.732  0.2322 -0.4180  0.7074
   19TMC2    C5  297   3.743   2.821  13.706  0.6028  0.2041  0.2355
   19TMC2    C6  298   3.750   2.908  13.603 -0.0376 -0.3519 -0.1305
   19TMC2     C  299   4.084   2.675  13.682 -0.4664  0.3835  0.8771
   19TMC2     O  300   4.163   2.637  13.595  0.1642  0.1585 -0.0473
   19TMC2     H  301   4.073   2.838  13.495 -0.9411 -0.4012 -1.4535
   19TMC2    H1  302   3.846   2.671  13.814 -0.4138 -0.0593  0.9644
   19TMC2    H2  303   3.664   2.970  13.580  0.6133 -0.5084 -2.9349
   19TMC2    C7  304   3.612   2.771  13.751 -0.5844 -0.5921 -0.0278
   19TMC2    C8  305   3.874   3.036  13.452 -0.7631  0.4356 -0.2723
   19TMC2    O1  306   3.621   2.648  13.770  0.4295  0.2318 -0.6128
   19TMC2    O2  307   3.767   3.089  13.412 -0.1454  0.0361  0.4159
   19TMC2    O5  308   3.999   3.079  13.431 -0.2548  0.4700 -0.3269
   19TMC2    H5  309   4.046   3.035  13.505 -0.5756  1.2892  0.3597
   20MPD2     C  310   4.275   2.488  13.802 -0.9409 -0.1039 -0.3106
   20MPD2    C1  311   4.186   2.569  13.876  0.0567  0.0894 -0.0346
   20MPD2    C2  312   4.184   2.565  14.010  0.0432  0.2344  0.2887
   20MPD2    C3  313   4.276   2.497  14.083  0.2950 -0.9782  0.1249
   20MPD2    C4  314   4.368   2.426  14.008  0.1447 -0.3882 -0.8703
   20MPD2    C5  315   4.367   2.419  13.874  0.5518 -0.5486 -0.3935
   20MPD2     H  316   4.112   2.625  14.067 -0.8937  1.9268 -2.6881
   20MPD2    H1  317   4.448   2.365  14.048 -2.0215 -2.6441 -0.0520
   20MPD2    H2  318   4.267   2.467  13.696 -0.2379 -1.0297 -0.1887
   20MPD2    H3  319   4.430   2.355  13.814  0.6340  0.7276 -1.6632
   20MPD2     N  320   4.274   2.484  14.222  0.1876  0.0145  0.1996
   20MPD2    H5  321   4.351   2.432  14.263  1.0226  0.7005 -0.5033
   20MPD2    N1  322   4.089   2.652  13.814 -0.1439  0.4789  0.2773
   20MPD2    H7  323   4.029   2.714  13.867  1.2790  3.2622 -1.3736
   21TMC2    C1  324   1.787   3.510  14.463 -0.0671  0.0398 -0.1445
   21TMC2    C2  325   1.865   3.417  14.532  0.6234  0.4450 -0.3178
   21TMC2    C3  326   1.815   3.293  14.564 -0.6835  0.3674  0.4063
   21TMC2    C4  327   1.659   3.474  14.439 -0.2562  1.0917 -0.4193
   21TMC2    C5  328   1.601   3.361  14.489 -0.1247 -0.1436 -0.1059
   21TMC2    C6  329   1.677   3.266  14.560 -0.4122  0.0816 -0.7855
   21TMC2     C  330   1.859   3.597  14.376  0.1751  0.1923  0.3825
   21TMC2     O  331   1.980   3.583  14.382 -0.2298 -0.3638 -0.6649
   21TMC2     H  332   1.966   3.452  14.550  0.8604 -0.6691  0.4917
   21TMC2    H1  333   1.604   3.516  14.356 -0.1687  1.5576 -0.2377
   21TMC2    H2  334   1.620   3.190  14.612  0.0607 -0.1191 -0.5508
   21TMC2    C7  335   1.460   3.318  14.457 -0.5656 -0.5009 -0.3322
   21TMC2    C8  336   1.903   3.228  14.656 -0.4427  0.4037  0.6194
   21TMC2    O1  337   1.425   3.205  14.482  0.1631  0.3473 -0.6093
   21TMC2    O2  338   1.989   3.289  14.711  0.0543 -0.3508  0.1005
   21TMC2    O5  339   1.883   3.096  14.651 -0.6888 -0.6645 -0.0720
   21TMC2    H5  340   1.796   3.068  14.616 -0.5886 -2.2107  0.9379
   22MPD2     C  341   1.922   3.930  14.004 -0.0717  0.2872 -0.0326
   22MPD2    C1  342   2.009   3.850  14.076  0.8634 -0.5497 -0.8907
   22MPD2    C2  343   1.962   3.777  14.177 -0.6503 -0.9993  0.2378
   22MPD2    C3  344   1.829   3.757  14.197 -0.1523  0.0210 -0.4171
   22MPD2    C4  345   1.739   3.827  14.118 -0.3311 -0.4568  0.7715
   22MPD2    C5  346   1.784   3.917  14.029 -0.0297 -0.1394  0.3054
   22MPD2     H  347   2.038   3.728  14.238 -0.3485 -1.1673 -0.2711
   22MPD2    H1  348   1.632   3.814  14.130 -0.1486  0.2939  3.2579
   22MPD2    H2  349   1.951   4.000  13.927  1.7921  1.2724  1.5528
   22MPD2    H3  350   1.710   3.972  13.973 -1.1187 -0.7585  1.1448
   22MPD2     N  351   1.779   3.668  14.289 -0.3395 -0.7716 -0.6658
   22MPD2    H5  352   1.679   3.669  14.303 -0.0731 -1.3957  1.4104
   22MPD2    N1  353   2.147   3.848  14.053 -0.0742  0.2444  0.2043
   22MPD2    H7  354   2.201   3.790  14.116 -2.3584 -1.1860  0.8507
   23TMC2    C1  355   2.598   4.427  14.666  0.1608  0.2030 -1.1626
   23TMC2    C2  356   2.646   4.479  14.551 -0.0467 -0.6203 -0.3187
   23TMC2    C3  357   2.562   4.469  14.443 -0.4510  0.3667  0.3265
   23TMC2    C4  358   2.482   4.359  14.680 -0.6325 -0.2023  0.2376
   23TMC2    C5  359   2.405   4.354  14.569  0.3010  0.3160 -0.1714
   23TMC2    C6  360   2.442   4.414  14.451 -0.0437 -0.0948 -0.1480
   23TMC2     C  361   2.673   4.466  14.778 -0.7672  0.2348 -0.4369
   23TMC2     O  362   2.697   4.385  14.865  0.6437  0.4360 -0.1332
   23TMC2     H  363   2.749   4.512  14.550  0.0744 -0.9939 -0.3812
   23TMC2    H1  364   2.463   4.300  14.769 -3.7611  0.5641  0.0803
   23TMC2    H2  365   2.401   4.379  14.357  0.8666  1.6638 -1.1895
   23TMC2    C7  366   2.276   4.290  14.574  0.8285 -0.1892  0.8492
   23TMC2    C8  367   2.626   4.475  14.314  0.4790  0.0108 -0.3712
   23TMC2    O1  368   2.258   4.206  14.661  0.1348 -0.1045  0.1851
   23TMC2    O2  369   2.588   4.536  14.214 -0.0582 -0.6341  0.0372
   23TMC2    O5  370   2.725   4.381  14.329  0.1109 -0.1281  0.6656
   23TMC2    H5  371   2.705   4.322  14.405 -0.1014  0.0247  0.7270
   24MPD2     C  372   2.857   0.107  15.079  0.3650  0.0629  0.3166
   24MPD2    C1  373   2.857   4.713  15.100  0.0168 -0.8781 -1.4705
   24MPD2    C2  374   2.813   4.625  15.001  0.8413 -0.3103 -0.1857
   24MPD2    C3  375   2.769   4.672  14.883 -0.3667 -0.0961  0.3373
   24MPD2    C4  376   2.777   0.066  14.850 -0.1568 -0.7679 -0.8041
   24MPD2    C5  377   2.827   0.149  14.948 -0.5976  0.1257  0.0048
   24MPD2     H  378   2.831   4.519  15.009  0.8248 -0.5907 -3.9006
   24MPD2    H1  379   2.745   0.105  14.754 -2.0435 -1.0899 -0.2925
   24MPD2    H2  380   2.873   0.181  15.157 -0.0957 -0.6989  1.1366
   24MPD2    H3  381   2.818   0.256  14.931  0.5358  0.2175 -0.0022
   24MPD2     N  382   2.720   4.593  14.780 -0.1688  0.5904  0.1503
   24MPD2    H5  383   2.686   4.651  14.703  1.3900  1.4304  0.0925
   24MPD2    N1  384   2.916   4.653  15.211 -0.0929 -0.3928 -0.5630
   24MPD2    H7  385   2.931   4.552  15.215 -0.4991 -0.5089 -1.9364
   25TMC2    C1  386   2.536   0.906  11.609  0.2845  0.2870  0.2299
   25TMC2    C2  387   2.644   0.891  11.693 -0.3088 -0.7841 -0.9074
   25TMC2    C3  388   2.630   0.928  11.824  0.2773 -0.3785 -0.1990
   25TMC2    C4  389   2.428   0.979  11.636  0.3419 -0.5689 -0.6981
   25TMC2    C5  390   2.425   1.034  11.764 -0.3700  0.2694 -0.7668
   25TMC2    C6  391   2.520   1.001  11.864  0.0692  0.0189  0.7411
   25TMC2     C  392   2.559   0.879  11.469 -0.4923  0.1170 -0.3439
   25TMC2     O  393   2.672   0.903  11.425 -0.3117 -0.4116 -0.4419
   25TMC2     H  394   2.736   0.841  11.665 -0.7122 -2.5826  1.0007
   25TMC2    H1  395   2.353   0.998  11.559  0.6527 -0.0125 -0.8611
   25TMC2    H2  396   2.510   1.038  11.965  0.5841 -0.5767  1.0163
   25TMC2    C7  397   2.306   1.107  11.810  0.3743  1.3060  0.2614
   25TMC2    C8  398   2.747   0.920  11.907 -0.6656 -0.5491  0.0145
   25TMC2    O1  399   2.279   1.104  11.928  0.1579  0.1309  0.5410
   25TMC2    O2  400   2.860   0.900  11.866 -0.2082  0.5294 -0.1771
   25TMC2    O5  401   2.711   0.931  12.038  0.2720 -0.2363 -0.3295
   25TMC2    H5  402   2.617   0.938  12.068 -0.4703  0.9945 -2.9616
   26MPD2     C  403   2.305   0.927  11.017  0.4859  0.0480 -0.3315
   26MPD2    C1  404   2.231   0.854  11.108 -0.5585 -0.3932 -0.9320
   26MPD2    C2  405   2.284   0.821  11.235 -0.4013 -0.1548 -0.5474
   26MPD2    C3  406   2.406   0.868  11.276 -0.0356 -0.0518  0.5635
   26MPD2    C4  407   2.482   0.944  11.184 -0.0503  0.5423  0.0529
   26MPD2    C5  408   2.429   0.962  11.060 -0.1971 -0.7450 -0.3096
   26MPD2     H  409   2.233   0.747  11.295  2.4558 -0.6612  1.2786
   26MPD2    H1  410   2.580   0.982  11.211  0.3794 -0.7642  0.3038
   26MPD2    H2  411   2.271   0.960  10.920  0.2544 -2.2880 -1.0494
   26MPD2    H3  412   2.480   1.030  10.993 -1.2971 -2.1295 -2.5499
   26MPD2     N  413   2.441   0.845  11.404 -0.2464  0.2453 -0.6395
   26MPD2    H5  414   2.364   0.813  11.462  0.5520  0.3550  0.4814
   26MPD2    N1  415   2.101   0.823  11.064 -0.2385 -0.1665 -0.1496
   26MPD2    H7  416   2.065   0.860  10.977 -0.1391  0.3048  0.0119
   27TMC2    C1  417   0.355   4.370  11.990 -0.5310  0.3474 -0.4067
   27TMC2    C2  418   0.410   4.424  11.877  0.9210 -0.0055 -0.2298
   27TMC2    C3  419   0.501   4.519  11.897  0.5426  0.5667  0.1750
   27TMC2    C4  420   0.408   4.399  12.117  0.0242  0.6312  0.2951
   27TMC2    C5  421   0.497   4.499  12.133  0.2234 -0.0818 -0.5276
   27TMC2    C6  422   0.550   4.555  12.021 -0.7899  0.4432  0.7243
   27TMC2     C  423   0.272   4.254  11.965  0.1566  0.1648  0.3318
   27TMC2     O  424   0.297   4.201  11.855 -0.2532  0.5081  0.1865
   27TMC2     H  425   0.382   4.391  11.778  4.3271 -1.5501 -0.6744
   27TMC2    H1  426   0.370   4.331  12.193  0.4364 -1.1412 -1.0752
   27TMC2    H2  427   0.609   4.646  12.019 -1.9233  1.1790  1.0315
   27TMC2    C7  428   0.594   4.468  12.241  0.4079 -0.2824  0.1219
   27TMC2    C8  429   0.573   4.550  11.777 -0.1992 -0.3444  0.7859
   27TMC2    O1  430   0.568   4.387  12.323  0.1028 -0.1603  0.0934
   27TMC2    O2  431   0.641   4.655  11.771 -0.3097 -0.2025  0.0024
   27TMC2    O5  432   0.618   4.433  11.730 -0.1846  0.1006  0.0871
   27TMC2    H5  433   0.574   4.357  11.774  1.5195 -1.8239 -1.5061
   28MPD2     C  434   0.067   3.838  12.176  0.4555 -0.1274  0.3990
   28MPD2    C1  435   0.028   3.945  12.252 -0.6741  0.2993 -0.3425
   28MPD2    C2  436   0.071   4.069  12.210 -0.3259 -0.5823 -0.0853
   28MPD2    C3  437   0.146   4.086  12.100 -0.1065 -0.1324  0.0824
   28MPD2    C4  438   0.176   3.978  12.017 -0.0856 -0.4434  0.9520
   28MPD2    C5  439   0.140   3.851  12.066 -0.5262  0.0344  0.6034
   28MPD2     H  440   0.057   4.154  12.277  0.7514 -0.5112  0.0456
   28MPD2    H1  441   0.249   3.980  11.936  0.8896  0.7641  1.8629
   28MPD2    H2  442   0.047   3.738  12.213 -0.3571 -0.7483 -1.7524
   28MPD2    H3  443   0.175   3.767  12.008  0.1987  2.3353 -2.3089
   28MPD2     N  444   0.195   4.214  12.072  0.5727  0.6919 -0.0086
   28MPD2    H5  445   0.160   4.288  12.132  0.5772 -1.0636  2.1518
   28MPD2    N1  446   4.699   3.915  12.368  0.5393 -0.1774 -0.3736
   28MPD2    H7  447   4.698   3.819  12.399 -0.7354 -0.6336 -1.8542
   29TMC2    C1  448   0.246   1.792  14.677 -0.5505  0.2597 -0.4336
   29TMC2    C2  449   0.236   1.790  14.813 -0.3206 -0.3199 -0.1512
   29TMC2    C3  450   0.324   1.877  14.882  0.2183  0.2122  0.1645
   29TMC2    C4  451   0.327   1.882  14.608  0.2731  0.2864  0.1329
   29TMC2    C5  452   0.422   1.952  14.683  0.5035  0.5342  0.4682
   29TMC2    C6  453   0.415   1.952  14.818  0.3159 -0.4283 -0.5264
   29TMC2     C  454   0.180   1.679  14.618 -0.5664 -0.4152 -0.1184
   29TMC2     O  455   0.147   1.583  14.689  0.6019  0.2696 -0.1164
   29TMC2     H  456   0.164   1.728  14.866 -1.7320 -0.1658 -1.8796
   29TMC2    H1  457   0.324   1.873  14.499  1.3276  1.2732  0.0347
   29TMC2    H2  458   0.492   2.005  14.875 -1.1775  1.9173 -0.6928
   29TMC2    C7  459   0.524   2.032  14.613 -0.4434  0.1257 -0.1340
   29TMC2    C8  460   0.311   1.880  15.024 -0.4672  0.0879 -0.1654
   29TMC2    O1  461   0.535   2.012  14.492  0.1891 -0.2873 -0.5446
   29TMC2    O2  462   0.252   1.794  15.091 -0.1484  0.6925 -0.3315
   29TMC2    O5  463   0.345   2.009  15.050  0.5266  0.3061  0.1769
   29TMC2    H5  464   0.352   2.057  14.964 -2.4876 -1.3854 -0.9961
   30MPD2     C  465   4.724   1.424  14.206 -0.8293 -0.5913 -0.1051
   30MPD2    C1  466   0.055   1.374  14.317  0.0904 -0.1365  0.1860
   30MPD2    C2  467   0.107   1.466  14.408 -0.4232  0.1276  0.0432
   30MPD2    C3  468   0.096   1.603  14.395  0.1117 -0.1705 -0.2335
   30MPD2    C4  469   0.039   1.653  14.274 -0.0878 -0.8675  0.4093
   30MPD2    C5  470   4.718   1.559  14.180  0.0986  0.7436 -0.0329
   30MPD2     H  471   0.160   1.432  14.496 -2.4570  3.2697  2.4878
   30MPD2    H1  472   0.021   1.759  14.257  1.4040 -1.1153 -2.6827
   30MPD2    H2  473   4.682   1.361  14.128 -1.1250  1.7323 -1.7982
   30MPD2    H3  474   4.672   1.601  14.091 -0.4322  0.6405  0.1931
   30MPD2     N  475   0.140   1.699  14.488 -0.0779  0.1318  0.3776
   30MPD2    H5  476   0.149   1.792  14.449  0.9956 -0.8334 -1.6636
   30MPD2    N1  477   0.058   1.237  14.346  0.4900 -0.2808  0.0680
   30MPD2    H7  478   0.099   1.198  14.430  2.7502 -2.5385 -2.0837
   31TMC2    C1  479   2.464   0.572  15.481  0.8023  0.6812  0.0774
   31TMC2    C2  480   2.337   0.627  15.518  0.0016  0.5001  0.1680
   31TMC2    C3  481   2.285   0.584  15.636  0.1985  0.4560 -0.3489
   31TMC2    C4  482   2.540   0.492  15.565  0.1443 -0.4444 -0.2562
   31TMC2    C5  483   2.487   0.468  15.688 -0.1806  0.6168  0.0154
   31TMC2    C6  484   2.361   0.505  15.725  0.1716  0.3202 -0.3293
   31TMC2     C  485   2.516   0.623  15.354 -0.4830 -0.2937  0.6855
   31TMC2     O  486   2.448   0.701  15.288  0.1236 -0.1618 -0.7216
   31TMC2     H  487   2.279   0.669  15.436  1.5233 -2.0525 -2.2320
   31TMC2    H1  488   2.648   0.486  15.567  0.0294 -2.0293  0.5431
   31TMC2    H2  489   2.319   0.470  15.820 -0.6626 -1.9756 -1.5416
   31TMC2    C7  490   2.579   0.441  15.798  0.2995 -0.0618 -0.4734
   31TMC2    C8  491   2.144   0.604  15.681  0.4458 -0.6202 -0.1388
   31TMC2    O1  492   2.667   0.363  15.775  0.0562  0.2338  0.2292
   31TMC2    O2  493   2.102   0.538  15.777  1.0149  0.0213  0.5868
   31TMC2    O5  494   2.073   0.623  15.567 -0.1156  0.2083 -0.3593
   31TMC2    H5  495   2.105   0.694  15.507 -4.6561  0.8708 -2.0239
   32MPD2     C  496   2.852   0.589  14.961 -0.5523 -0.2249 -0.1416
   32MPD2    C1  497   2.751   0.680  14.983  0.5123 -0.4091 -1.0184
   32MPD2    C2  498   2.683   0.674  15.106  0.9248  0.1474  0.1896
   32MPD2    C3  499   2.705   0.569  15.196 -0.0304  0.3251  0.2091
   32MPD2    C4  500   2.815   0.490  15.175 -0.5093 -0.0990  0.3961
   32MPD2    C5  501   2.892   0.505  15.061 -0.1263  0.2616 -0.3400
   32MPD2     H  502   2.603   0.744  15.131  0.9070  0.8360 -1.8534
   32MPD2    H1  503   2.851   0.421  15.250  1.6376  2.1686  1.4710
   32MPD2    H2  504   2.904   0.599  14.867  0.5286 -0.7104  0.3939
   32MPD2    H3  505   2.978   0.440  15.051 -1.2266 -1.0752 -1.1091
   32MPD2     N  506   2.630   0.551  15.314  0.1048  0.0836 -0.2228
   32MPD2    H5  507   2.654   0.469  15.369 -0.5130 -1.0830 -1.7138
   32MPD2    N1  508   2.726   0.782  14.893 -0.2898  0.0891 -0.0077
   32MPD2    H7  509   2.784   0.786  14.809 -0.6697  3.0014 -0.1387
   33TMC2    C1  510   2.831   3.197  10.115  0.5419  0.1110  0.7108
   33TMC2    C2  511   2.699   3.190  10.079  0.2386  0.6811 -0.2449
   33TMC2    C3  512   2.637   3.304  10.026  0.1765 -0.0157  0.2163
   33TMC2    C4  513   2.909   3.309  10.094 -0.3790 -0.4249  0.4990
   33TMC2    C5  514   2.848   3.425  10.059 -0.1963 -0.2390  0.5486
   33TMC2    C6  515   2.714   3.419  10.015 -0.0657 -0.5748  0.2225
   33TMC2     C  516   2.880   3.072  10.155  0.0912 -0.1502  0.1623
   33TMC2     O  517   2.815   2.968  10.148  0.3802 -0.6401 -0.3821
   33TMC2     H  518   2.646   3.097  10.098 -1.3782  1.5637 -0.5150
   33TMC2    H1  519   3.014   3.325  10.117 -0.0710  0.3846 -1.4337
   33TMC2    H2  520   2.667   3.503   9.966  1.0482  0.5534  1.0718
   33TMC2    C7  521   2.933   3.544  10.024  0.9596 -0.2199  0.7059
   33TMC2    C8  522   2.505   3.294   9.976  0.3722 -0.1530 -0.3849
   33TMC2    O1  523   3.044   3.521   9.980 -0.6342 -0.0134 -0.3328
   33TMC2    O2  524   2.449   3.349   9.882  0.4239  0.5400 -0.1689
   33TMC2    O5  525   2.440   3.219  10.063 -0.0025 -0.1766 -0.1391
   33TMC2    H5  526   2.493   3.197  10.143 -1.7884 -0.8024  0.8799
   34MPD2     C  527   3.211   2.800  10.418  0.4450 -0.7154 -0.2605
   34MPD2    C1  528   3.069   2.790  10.409  0.4446  0.1371  0.2825
   34MPD2    C2  529   3.008   2.887  10.346 -0.1062 -0.1387  0.1575
   34MPD2    C3  530   3.078   2.983  10.275 -0.3977 -0.1895 -0.8802
   34MPD2    C4  531   3.212   2.996  10.278  0.1754 -0.4565 -0.8867
   34MPD2    C5  532   3.278   2.904  10.354  0.0627  0.3414 -0.5647
   34MPD2     H  533   2.900   2.900  10.349 -0.2151 -0.7712 -0.9141
   34MPD2    H1  534   3.264   3.070  10.218  1.2464 -1.9840 -1.8477
   34MPD2    H2  535   3.273   2.735  10.479  0.9183  0.9561  1.0412
   34MPD2    H3  536   3.386   2.902  10.354  0.1057  2.6258 -0.7946
   34MPD2     N  537   3.013   3.081  10.197 -0.1332  0.0146 -0.5735
   34MPD2    H5  538   3.073   3.154  10.159  0.6017  0.8886  2.2501
   34MPD2    N1  539   2.998   2.682  10.467  0.3772  0.6289  0.6891
   34MPD2    H7  540   3.062   2.624  10.521  1.2927 -1.7427 -2.9649
   35TMC2    C1  541   4.041   4.328  11.216 -0.1632 -0.2096 -0.2179
   35TMC2    C2  542   3.976   4.385  11.113  0.0798 -0.1293  0.2649
   35TMC2    C3  543   3.844   4.374  11.100  0.4941 -0.2780  0.2813
   35TMC2    C4  544   3.974   4.273  11.323 -0.1756  0.4627 -0.1069
   35TMC2    C5  545   3.837   4.255  11.310 -0.0581  0.8747  0.1466
   35TMC2    C6  546   3.772   4.291  11.186  0.1782  0.5824  0.5888
   35TMC2     C  547   4.185   4.325  11.206  0.5609  0.1235  0.6345
   35TMC2     O  548   4.236   4.397  11.119  0.5986 -0.6734  0.2273
   35TMC2     H  549   4.035   4.414  11.026 -0.0496 -0.5468  0.0382
   35TMC2    H1  550   4.022   4.246  11.416  2.9441  0.6635 -1.6684
   35TMC2    H2  551   3.672   4.255  11.166 -0.5090  2.4713  0.5999
   35TMC2    C7  552   3.791   4.137  11.388  0.4033 -0.4818  0.3677
   35TMC2    C8  553   3.785   4.408  10.975 -0.6515 -0.2794  0.3800
   35TMC2    O1  554   3.871   4.074  11.457  0.4654 -0.5492  0.0375
   35TMC2    O2  555   3.861   4.442  10.881  0.3077  0.5004 -0.4089
   35TMC2    O5  556   3.650   4.418  10.984 -0.0763  0.0688 -0.3737
   35TMC2    H5  557   3.606   4.408  11.071 -0.4875  0.8131 -0.5000
   36MPD2     C  558   4.631   4.232  11.428  0.1274 -0.1150 -0.0935
   36MPD2    C1  559   4.542   4.144  11.477 -0.6018 -0.0917 -0.1031
   36MPD2    C2  560   4.411   4.140  11.423  0.4930 -0.2064  1.1712
   36MPD2    C3  561   4.381   4.228  11.323 -0.1269  0.1731 -0.6528
   36MPD2    C4  562   4.476   4.309  11.266 -0.5851  0.2753  0.6177
   36MPD2    C5  563   4.599   4.311  11.326  0.6987  0.0302  0.1785
   36MPD2     H  564   4.330   4.074  11.450 -0.5994  0.9787  0.7912
   36MPD2    H1  565   4.461   4.387  11.192 -0.9475 -1.7808 -1.4583
   36MPD2    H2  566   4.731   4.241  11.469  0.4450  1.3907 -1.2092
   36MPD2    H3  567   4.671   4.385  11.293  0.0601 -0.1176 -1.5428
   36MPD2     N  568   4.243   4.237  11.295 -0.1609 -0.0487 -0.0047
   36MPD2    H5  569   4.174   4.190  11.351  1.0563 -1.7030  0.1077
   36MPD2    N1  570   4.590   4.064  11.584  0.4402 -0.2813  0.4063
   36MPD2    H7  571   4.683   4.069  11.624  0.0286 -0.2238  1.3579
   37TMC2    C1  572   1.693   4.360  11.764 -0.4652 -0.2695  0.7568
   37TMC2    C2  573   1.590   4.406  11.681  0.1292 -0.6219  0.1614
   37TMC2    C3  574   1.605   4.400  11.549 -0.1176  0.1703  0.4837
   37TMC2    C4  575   1.813   4.308  11.716  0.8206  0.2840  0.6607
   37TMC2    C5  576   1.816   4.306  11.576  0.6195 -0.4696 -0.2139
   37TMC2    C6  577   1.711   4.338  11.489  0.7303  0.1718 -0.2739
   37TMC2     C  578   1.675   4.382  11.909  0.1898  0.3663 -0.5500
   37TMC2     O  579   1.567   4.393  11.960 -0.7337 -0.3004  0.8209
   37TMC2     H  580   1.507   4.455  11.731 -0.3677 -0.0075 -1.2744
   37TMC2    H1  581   1.888   4.270  11.784  1.7793  0.1356 -0.4944
   37TMC2    H2  582   1.734   4.331  11.383  0.7534  1.0563 -0.3254
   37TMC2    C7  583   1.957   4.294  11.528 -0.6580  0.6271 -0.2962
   37TMC2    C8  584   1.496   4.432  11.465 -0.2425 -0.1506 -0.1477
   37TMC2    O1  585   2.035   4.246  11.610 -0.1633  0.4723  0.7424
   37TMC2    O2  586   1.498   4.505  11.371 -0.4624  0.7024 -0.2292
   37TMC2    O5  587   1.380   4.401  11.532  0.5892  0.2516 -0.5009
   37TMC2    H5  588   1.391   4.337  11.606 -2.4971  0.9137  0.5427
   38MPD2     C  589   1.886   4.427  12.369 -0.3098  0.1845 -0.0736
   38MPD2    C1  590   1.992   4.419  12.280 -0.1594  0.3840  0.5973
   38MPD2    C2  591   1.961   4.416  12.142 -0.2078 -0.0087  0.1820
   38MPD2    C3  592   1.823   4.403  12.103  0.6062  0.2590 -0.2605
   38MPD2    C4  593   1.724   4.400  12.193 -0.4313  0.2521  0.2011
   38MPD2    C5  594   1.751   4.423  12.327 -0.4793 -1.2562 -0.1972
   38MPD2     H  595   2.036   4.404  12.065 -0.1297  2.2275 -0.1101
   38MPD2    H1  596   1.624   4.364  12.169 -0.8146 -0.1586  2.4188
   38MPD2    H2  597   1.895   4.411  12.475  3.4974 -0.5698 -0.4958
   38MPD2    H3  598   1.666   4.430  12.394 -0.5718 -0.1886 -0.4241
   38MPD2     N  599   1.797   4.396  11.966 -0.2512  0.2197  0.4668
   38MPD2    H5  600   1.877   4.403  11.904  1.1493  0.3467  2.2580
   38MPD2    N1  601   2.129   4.402  12.322  0.1589  0.5709  0.3425
   38MPD2    H7  602   2.191   4.356  12.257 -0.5379 -1.4679  1.1427
   39TMC2    C1  603   4.729   1.409   1.346 -0.1230  0.6907 -0.0825
   39TMC2    C2  604   4.731   1.519   1.430  0.3824  0.0071 -0.3210
   39TMC2    C3  605   0.119   1.563   1.461  0.4030 -1.0987  0.2769
   39TMC2    C4  606   0.105   1.365   1.283  0.0084  0.1727 -0.7246
   39TMC2    C5  607   0.229   1.425   1.317 -0.1898 -0.0035 -0.6440
   39TMC2    C6  608   0.236   1.519   1.405 -0.4161  0.4205 -0.2954
   39TMC2     C  609   4.595   1.350   1.325  0.4703 -0.1231 -0.1998
   39TMC2     O  610   4.496   1.413   1.354 -0.4275  0.3297 -0.2442
   39TMC2     H  611   4.639   1.547   1.482  1.9747  1.7335  1.5780
   39TMC2    H1  612   0.101   1.281   1.213 -1.8479  0.8687 -1.4487
   39TMC2    H2  613   0.332   1.565   1.428 -0.2002 -0.9658  1.5995
   39TMC2    C7  614   0.338   1.401   1.233 -0.3805 -0.8879  0.2552
   39TMC2    C8  615   0.135   1.666   1.558  0.8363  0.4635 -0.4673
   39TMC2    O1  616   0.350   1.288   1.184  0.1081 -0.0099 -0.3025
   39TMC2    O2  617   0.244   1.689   1.610 -0.6215  0.0856 -0.0378
   39TMC2    O5  618   0.018   1.728   1.579  0.2323  0.0924  0.2514
   39TMC2    H5  619   4.682   1.721   1.518 -0.6332  1.2780  1.1949
   40MPD2     C  620   4.511   1.005   1.234  0.1346 -0.7901  0.7425
   40MPD2    C1  621   4.488   1.134   1.250  0.0667  0.2492 -0.6336
   40MPD2    C2  622   4.355   1.176   1.225 -0.1099 -0.2531 -0.1741
   40MPD2    C3  623   4.254   1.086   1.194  0.0446 -0.2744  0.6958
   40MPD2    C4  624   4.288   0.950   1.177  0.1405  0.0729  0.3060
   40MPD2    C5  625   4.420   0.913   1.200  0.1254 -0.1099 -0.2551
   40MPD2     H  626   4.325   1.280   1.226 -0.6890 -0.4391  0.9745
   40MPD2    H1  627   4.220   0.868   1.156 -1.4764  1.2492  0.9692
   40MPD2    H2  628   4.612   0.968   1.242  0.1187 -1.4256 -2.0729
   40MPD2    H3  629   4.443   0.807   1.197 -1.2714 -0.4544  1.4951
   40MPD2     N  630   4.121   1.115   1.171 -0.3038  0.2939  0.0558
   40MPD2    H5  631   4.063   1.041   1.132  1.5586 -1.2697  0.2515
   40MPD2    N1  632   4.598   1.224   1.272  0.0406 -0.0980 -0.3791
   40MPD2    H7  633   4.687   1.177   1.284  1.3613  2.4648 -0.0612
   41TMC2    C1  634   3.238   4.562  13.724 -0.1656 -0.5624 -0.0745
   41TMC2    C2  635   3.338   4.488  13.793  0.9066  0.1896  0.0318
   41TMC2    C3  636   3.462   4.474  13.728  0.5015  0.6217  0.9390
   41TMC2    C4  637   3.259   4.630  13.617  0.3020 -0.3537  0.2491
   41TMC2    C5  638   3.384   4.622  13.562 -0.4548  0.1751  0.0362
   41TMC2    C6  639   3.488   4.547  13.618 -0.3855 -0.3821 -0.7751
   41TMC2     C  640   3.127   4.603  13.802 -0.4608  0.4535 -1.0462
   41TMC2     O  641   3.039   4.655  13.741 -0.0548 -0.4628  0.0728
   41TMC2     H  642   3.307   4.424  13.874 -0.3590 -1.0024 -1.3939
   41TMC2    H1  643   3.182   4.694  13.576  0.4092  0.9346  2.0653
   41TMC2    H2  644   3.586   4.554  13.573 -0.6615 -1.7278 -1.5730
   41TMC2    C7  645   3.410   4.711  13.449  0.1680 -0.1289  0.2972
   41TMC2    C8  646   3.554   4.372  13.768 -0.1067  0.3824  0.0729
   41TMC2    O1  647   3.336   0.070  13.445  0.1572 -0.2755  0.2561
   41TMC2    O2  648   3.559   4.321  13.879  0.2284  0.0007 -0.1919
   41TMC2    O5  649   3.596   4.304  13.656 -0.1566  0.3272 -0.1937
   41TMC2    H5  650   3.578   4.350  13.571 -0.5907  1.1139  0.3228
   42MPD2     C  651   2.932   4.679  14.009  0.6582  0.4704 -0.3649
   42MPD2    C1  652   3.070   4.670  14.032  0.4823 -0.3259  0.3874
   42MPD2    C2  653   3.113   4.689  14.158 -0.9416 -0.4443  0.0487
   42MPD2    C3  654   3.031   4.705  14.270  0.0246 -0.4697 -0.0476
   42MPD2    C4  655   2.897   4.720  14.243  0.3853 -0.3987  0.1121
   42MPD2    C5  656   2.852   4.700  14.115  0.1127 -0.4800  1.0653
   42MPD2     H  657   3.220   4.677  14.173 -1.0527  1.0391  2.0689
   42MPD2    H1  658   2.825   0.002  14.321 -1.2102 -0.9326 -1.2177
   42MPD2    H2  659   2.879   4.672  13.914  0.0632  0.4392 -0.0274
   42MPD2    H3  660   2.745   4.707  14.098 -0.2448 -0.3373  3.4297
   42MPD2     N  661   3.085   4.712  14.401 -0.6159 -0.2033  0.3823
   42MPD2    H5  662   3.185   4.704  14.412 -0.6462 -0.6564  0.2951
   42MPD2    N1  663   3.165   4.620  13.933  0.2761 -0.4891  0.5287
   42MPD2    H7  664   3.255   4.593  13.971  1.0453  0.1044 -0.8556
   43TMC2    C1  665   0.037   2.573   0.867 -0.0210 -0.2056 -0.5449
   43TMC2    C2  666   4.659   2.514   0.881  0.1478 -0.1674 -0.4180
   43TMC2    C3  667   4.644   2.435   0.988  1.2375 -0.0007 -0.3361
   43TMC2    C4  668   0.133   2.580   0.962  0.1768  0.5943  0.4201
   43TMC2    C5  669   0.116   2.488   1.065  0.2403 -0.0847  0.5652
   43TMC2    C6  670   0.001   2.413   1.084 -0.4042 -0.1450  0.2892
   43TMC2     C  671   0.079   2.600   0.737  0.0402 -0.2968 -0.1802
   43TMC2     O  672   0.204   2.579   0.720  0.6024 -0.4617 -0.2061
   43TMC2     H  673   4.582   2.512   0.805  1.9035  2.1126 -2.2777
   43TMC2    H1  674   0.212   2.652   0.950 -2.4473  3.2259 -1.0149
   43TMC2    H2  675   4.726   2.353   1.172  2.3909  0.9503  1.5000
   43TMC2    C7  676   0.213   2.499   1.170 -0.0395 -0.2033  0.1973
   43TMC2    C8  677   4.554   2.320   0.964  0.1605 -0.3922 -0.5786
   43TMC2    O1  678   0.318   2.544   1.144 -0.0573  0.8500  0.3382
   43TMC2    O2  679   4.476   2.330   0.874  0.3102  0.3971 -0.3852
   43TMC2    O5  680   4.607   2.209   1.018  0.2207  0.0126  0.1430
   43TMC2    H5  681   4.700   2.223   1.046  0.8433 -1.5140 -1.1606
   44MPD2     C  682   4.718   2.597   0.232  0.2044  0.2025  0.7726
   44MPD2    C1  683   0.097   2.569   0.303  0.5005  0.5973 -0.4767
   44MPD2    C2  684   0.104   2.590   0.441 -0.5409  0.0431 -1.2987
   44MPD2    C3  685   4.730   2.634   0.511  0.1245  0.2404 -0.4002
   44MPD2    C4  686   4.619   2.664   0.438 -0.1428  0.0838  0.1649
   44MPD2    C5  687   4.610   2.643   0.303 -0.4029 -0.2241  0.0318
   44MPD2     H  688   0.198   2.571   0.491 -1.6332 -3.1416 -0.4676
   44MPD2    H1  689   4.533   2.690   0.498 -0.7023 -2.3784  0.4457
   44MPD2    H2  690   4.701   2.585   0.126  2.6449 -0.4261  0.4531
   44MPD2    H3  691   4.521   2.667   0.246  0.0386  1.6101  0.0987
   44MPD2     N  692   4.718   2.641   0.655 -0.5363  0.0664  0.2895
   44MPD2    H5  693   4.630   2.669   0.698 -0.0784  0.3267  1.0439
   44MPD2    N1  694   0.210   2.520   0.239  0.1567 -0.5879 -0.4635
   44MPD2    H7  695   0.298   2.523   0.289 -1.1559  0.8814  1.7564
   45TMC2    C1  696   0.770   0.332   9.172  0.0588  0.2591  0.6046
   45TMC2    C2  697   0.690   0.402   9.080  0.5377  0.0642 -0.3952
   45TMC2    C3  698   0.721   0.532   9.047  0.8195 -0.4213 -0.1653
   45TMC2    C4  699   0.886   0.391   9.216 -0.8409  0.2728 -0.5147
   45TMC2    C5  700   0.916   0.517   9.176  0.6760 -0.1793 -0.5612
   45TMC2    C6  701   0.843   0.589   9.088  0.4541 -0.4358 -0.3320
   45TMC2     C  702   0.734   0.206   9.236  0.4421 -0.0909  0.2044
   45TMC2     O  703   0.813   0.145   9.304  0.3994 -0.4005 -0.1101
   45TMC2     H  704   0.600   0.359   9.037  0.4212 -1.9522  1.8450
   45TMC2    H1  705   0.958   0.340   9.279 -2.5328 -0.9266  0.4258
   45TMC2    H2  706   0.885   0.673   9.034 -2.2638  1.5631  0.6581
   45TMC2    C7  707   0.992   0.585   9.275 -0.0894 -0.3753  0.4556
   45TMC2    C8  708   0.636   0.593   8.943 -0.1970 -0.7226 -0.4935
   45TMC2    O1  709   1.039   0.519   9.366 -0.0734  0.1564 -0.0974
   45TMC2    O2  710   0.553   0.526   8.885  0.0734  0.1275  0.0253
   45TMC2    O5  711   0.626   0.724   8.964  0.2413  0.6853 -0.1106
   45TMC2    H5  712   0.677   0.756   9.041  2.8360 -1.7290 -0.8304
   46MPD2     C  713   0.565   0.011   9.375 -0.4522  0.1221  0.1053
   46MPD2    C1  714   0.530   0.082   9.268 -0.0678 -0.7344 -0.2871
   46MPD2    C2  715   0.402   0.060   9.216 -0.1640 -0.0339 -0.2178
   46MPD2    C3  716   0.305   4.710   9.272 -0.4833  0.3798 -0.3207
   46MPD2    C4  717   0.346   4.642   9.385  0.0326  1.1344  0.3450
   46MPD2    C5  718   0.477   4.662   9.434  0.1854  0.3666 -0.4147
   46MPD2     H  719   0.382   0.121   9.129 -0.3526  0.0128 -0.1407
   46MPD2    H1  720   0.274   4.577   9.434  1.7332 -0.7400  0.3132
   46MPD2    H2  721   0.660   0.027   9.423 -0.4860  0.7855 -0.0583
   46MPD2    H3  722   0.504   4.604   9.521  0.2017  0.8664 -0.0815
   46MPD2     N  723   0.180   4.699   9.215  0.2784  0.0592  0.2428
   46MPD2    H5  724   0.163   0.001   9.124  0.2664 -1.3847 -0.4088
   46MPD2    N1  725   0.605   0.177   9.208 -0.4077 -0.4634 -0.7653
   46MPD2    H7  726   0.554   0.241   9.148 -1.2182 -1.7147 -1.4021
   47TMC2    C1  727   3.267   1.048   8.948 -0.1779 -0.0798 -0.0059
   47TMC2    C2  728   3.220   0.922   8.952  0.5694 -0.0410 -0.5148
   47TMC2    C3  729   3.099   0.898   8.898 -0.4163  0.4665 -0.0020
   47TMC2    C4  730   3.197   1.155   8.906 -0.8099  0.2389  0.2208
   47TMC2    C5  731   3.067   1.135   8.864  0.3070  0.0996 -0.1662
   47TMC2    C6  732   3.015   1.004   8.864 -0.1030  0.4628 -0.4706
   47TMC2     C  733   3.400   1.072   9.012  0.5105  0.6702 -0.4269
   47TMC2     O  734   3.445   1.187   9.009 -0.5865  0.6671 -0.1360
   47TMC2     H  735   3.285   0.837   8.965  0.0686 -0.3093  0.2045
   47TMC2    H1  736   3.242   1.252   8.918 -1.9980  0.8486 -0.2502
   47TMC2    H2  737   2.918   0.984   8.820 -0.2531 -0.7944  0.4392
   47TMC2    C7  738   3.001   1.250   8.804 -0.2319  0.7023  0.0714
   47TMC2    C8  739   3.050   0.758   8.910  0.3016 -0.6969 -0.6166
   47TMC2    O1  740   3.074   1.342   8.765 -0.0657  0.1879  0.7319
   47TMC2    O2  741   3.110   0.671   8.974 -0.5301 -0.0780  0.4026
   47TMC2    O5  742   2.947   0.737   8.833 -0.2178 -0.2686  0.0713
   47TMC2    H5  743   2.935   0.815   8.775 -0.8005  0.0396  0.6102
   48MPD2     C  744   3.655   1.071   9.145  0.2238 -0.0821  0.2089
   48MPD2    C1  745   3.572   0.956   9.137  0.2387 -0.6795 -0.2982
   48MPD2    C2  746   3.613   0.843   9.205 -0.1755  0.0578  0.4809
   48MPD2    C3  747   3.720   0.837   9.291  0.2810  0.3779  0.0957
   48MPD2    C4  748   3.787   0.959   9.310  0.0026  0.1313 -0.3770
   48MPD2    C5  749   3.758   1.068   9.236  0.4906 -0.4381 -1.0219
   48MPD2     H  750   3.549   0.756   9.194 -1.9665  1.5213 -0.8995
   48MPD2    H1  751   3.874   0.949   9.375  1.4545  0.6039 -2.2712
   48MPD2    H2  752   3.642   1.168   9.097  1.7186  0.0987  0.1463
   48MPD2    H3  753   3.837   1.142   9.246  1.1941 -1.5736  1.9374
   48MPD2     N  754   3.740   0.715   9.364 -0.2650  0.1069  0.4427
   48MPD2    H5  755   3.677   0.637   9.346  0.0792  0.0665 -0.5623
   48MPD2    N1  756   3.451   0.963   9.076  0.7062 -0.3831  0.2109
   48MPD2    H7  757   3.395   0.880   9.090 -1.0364  0.7853  0.1634
   49TMC2    C1  758   1.855   3.838   9.761  0.1566  0.2959 -0.1879
   49TMC2    C2  759   1.965   3.776   9.719 -0.8834  0.5516  0.0714
   49TMC2    C3  760   2.030   3.838   9.620 -0.5238 -0.6869  0.0887
   49TMC2    C4  761   1.808   3.961   9.718  0.0337 -0.1804  0.1025
   49TMC2    C5  762   1.894   4.023   9.627 -0.0176  0.0986 -0.3896
   49TMC2    C6  763   2.007   3.962   9.578  0.6862 -0.5485  0.1690
   49TMC2     C  764   1.801   3.800   9.888 -0.7167  0.1683 -0.1181
   49TMC2     O  765   1.688   3.826   9.911  0.1513 -0.1104  0.2169
   49TMC2     H  766   1.969   3.672   9.748  1.8659  0.3373 -1.1517
   49TMC2    H1  767   1.721   4.010   9.760 -0.9113 -0.1163 -1.9329
   49TMC2    H2  768   2.066   4.004   9.497 -1.9013 -1.3038 -2.0697
   49TMC2    C7  769   1.857   4.139   9.559 -0.1711  0.5726 -0.2050
   49TMC2    C8  770   2.127   3.767   9.544  0.5030 -0.6136  0.8991
   49TMC2    O1  771   1.741   4.156   9.549 -0.0893  0.1606 -0.4964
   49TMC2    O2  772   2.162   3.807   9.431 -0.0513 -0.1453 -0.1825
   49TMC2    O5  773   2.195   3.688   9.626  0.4425 -0.1931 -0.3175
   49TMC2    H5  774   2.164   3.680   9.719  1.7112 -0.1106  0.1041
   50MPD2     C  775   1.726   3.712  10.168  0.0562 -0.7085  0.0642
   50MPD2    C1  776   1.845   3.681  10.102 -0.0235  0.0444  0.2407
   50MPD2    C2  777   1.930   3.599  10.170 -0.7846 -0.0387  0.1167
   50MPD2    C3  778   1.905   3.552  10.301  0.6702 -0.2055  0.3689
   50MPD2    C4  779   1.799   3.604  10.369 -0.0894 -0.4595 -0.2333
   50MPD2    C5  780   1.708   3.680  10.299  0.0079 -0.8243  0.6197
   50MPD2     H  781   2.021   3.568  10.119 -1.6688 -2.0448 -0.2276
   50MPD2    H1  782   1.779   3.566  10.469  0.0996 -1.5546 -0.6042
   50MPD2    H2  783   1.644   3.766  10.122 -1.1520 -2.4484  0.1924
   50MPD2    H3  784   1.610   3.702  10.341 -0.8106  1.3250 -2.4975
   50MPD2     N  785   1.992   3.463  10.376 -0.9596  0.2750 -0.2104
   50MPD2    H5  786   1.955   3.436  10.466 -1.1660 -1.6305 -0.8559
   50MPD2    N1  787   1.879   3.717   9.966 -0.4041  0.4109  0.4316
   50MPD2    H7  788   1.968   3.681   9.932 -0.2308  0.7910  0.4819
   51TMC2    C1  789   1.899   0.838   1.563  0.7610  0.1045  0.7697
   51TMC2    C2  790   1.763   0.855   1.561 -0.8149 -0.8327  0.3280
   51TMC2    C3  791   1.718   0.975   1.513  0.4801 -0.7483 -0.5219
   51TMC2    C4  792   1.986   0.941   1.542  0.1796 -0.0792  0.5036
   51TMC2    C5  793   1.938   1.063   1.513  0.3592 -0.5700 -0.4601
   51TMC2    C6  794   1.808   1.084   1.487 -0.0934  0.0178 -0.8409
   51TMC2     C  795   1.951   0.702   1.553 -0.6563 -0.8655 -0.7052
   51TMC2     O  796   2.065   0.672   1.586  0.2711 -0.0743  0.1912
   51TMC2     H  797   1.707   0.782   1.617  1.0169 -1.0292  1.8860
   51TMC2    H1  798   2.091   0.914   1.542  0.3903  0.7571 -0.2553
   51TMC2    H2  799   1.777   1.187   1.504  0.6402 -0.3116  2.3154
   51TMC2    C7  800   2.040   1.145   1.452  0.1218 -0.2571  0.6683
   51TMC2    C8  801   1.579   1.012   1.538 -0.2983  0.0990 -0.0272
   51TMC2    O1  802   2.151   1.145   1.497 -0.5197 -0.4341 -0.1742
   51TMC2    O2  803   1.498   0.951   1.605 -0.6278 -0.3169 -0.8921
   51TMC2    O5  804   1.549   1.119   1.458  0.4112 -0.7915  0.0996
   51TMC2    H5  805   1.627   1.144   1.403  0.8970  0.0625  1.1737
   52MPD2     C  806   1.927   0.223   1.356 -0.2437 -0.5186  0.4865
   52MPD2    C1  807   2.034   0.319   1.355  0.2414  0.3582 -0.8647
   52MPD2    C2  808   2.016   0.440   1.421 -0.2757  0.0986  0.2025
   52MPD2    C3  809   1.891   0.482   1.456 -0.1275  0.2127 -0.1168
   52MPD2    C4  810   1.784   0.400   1.437  0.3994 -0.6953  0.0029
   52MPD2    C5  811   1.805   0.271   1.394 -0.3015 -0.3947 -0.3943
   52MPD2     H  812   2.099   0.507   1.435  0.3259 -0.8684  1.2953
   52MPD2    H1  813   1.683   0.427   1.465  1.3612 -0.1363  2.8417
   52MPD2    H2  814   1.941   0.120   1.326 -1.4968  0.0669 -2.0954
   52MPD2    H3  815   1.718   0.206   1.392 -0.4118 -0.3314  2.5162
   52MPD2     N  816   1.862   0.615   1.502  0.0956 -0.0317 -0.6702
   52MPD2    H5  817   1.763   0.640   1.497 -0.8495 -3.5264  0.5323
   52MPD2    N1  818   2.163   0.287   1.305  0.1528 -0.1222  0.1153
   52MPD2    H7  819   2.228   0.365   1.299  0.7215 -0.6668 -0.7430
   53TMC2    C1  820   2.668   4.254  11.587 -0.4618 -0.6789  0.8544
   53TMC2    C2  821   2.804   4.227  11.584  0.0774 -0.2153 -0.0519
   53TMC2    C3  822   2.884   4.255  11.692 -0.4995 -0.5631 -0.5303
   53TMC2    C4  823   2.616   4.307  11.697 -0.0900 -0.4850  0.2358
   53TMC2    C5  824   2.699   4.331  11.807 -0.0923 -0.6289  0.0506
   53TMC2    C6  825   2.832   4.298  11.809  0.3939  0.4768  0.7707
   53TMC2     C  826   2.588   4.238  11.468  0.2833 -0.0282  0.2351
   53TMC2     O  827   2.645   4.190  11.369 -0.3049  0.2880 -0.4875
   53TMC2     H  828   2.838   4.190  11.488  1.8322 -0.4425  0.6482
   53TMC2    H1  829   2.517   4.350  11.697  0.9097  1.7947  0.1708
   53TMC2    H2  830   2.899   4.315  11.893 -0.6523  0.8052  1.5322
   53TMC2    C7  831   2.643   4.420  11.908  0.2097 -0.1705 -0.2990
   53TMC2    C8  832   3.026   4.231  11.689  0.2018 -0.6977 -0.1744
   53TMC2    O1  833   2.550   4.485  11.863  0.4873 -0.4976 -0.3167
   53TMC2    O2  834   3.100   4.312  11.744 -0.0561  0.3191 -0.6283
   53TMC2    O5  835   3.056   4.143  11.587  0.0904 -0.1146 -0.1245
   53TMC2    H5  836   2.980   4.083  11.570  0.4725 -0.2534 -1.3288
   54MPD2     C  837   2.384   4.266  11.256  0.5293 -0.1229  0.0989
   54MPD2    C1  838   2.356   4.278  11.391  0.3144 -0.0082  0.5116
   54MPD2    C2  839   2.230   4.309  11.431 -0.4404 -0.5200 -0.2763
   54MPD2    C3  840   2.121   4.321  11.352 -0.5607 -0.2188 -0.4501
   54MPD2    C4  841   2.144   4.302  11.220 -0.3892  0.3310 -0.1581
   54MPD2    C5  842   2.274   4.278  11.174 -1.0461 -0.1837  0.5172
   54MPD2     H  843   2.223   4.317  11.539  0.0147  2.5189 -0.4554
   54MPD2    H1  844   2.063   4.312  11.148  0.6158  3.3835 -0.8565
   54MPD2    H2  845   2.478   4.243  11.208  0.6413  1.1794 -0.3115
   54MPD2    H3  846   2.283   4.278  11.066 -1.7600 -0.1841  0.4591
   54MPD2     N  847   1.992   4.341  11.402 -0.2583 -0.1154  0.4203
   54MPD2    H5  848   1.926   4.386  11.340  0.6971  1.1584  0.3213
   54MPD2    N1  849   2.453   4.270  11.489  0.4656  0.7781 -0.5369
   54MPD2    H7  850   2.428   4.291  11.585  1.9885  1.0084 -0.1863
   55TMC2    C1  851   3.160   2.837  17.604  0.1236 -0.1548  0.0812
   55TMC2    C2  852   3.214   2.828  17.479 -0.4690 -0.4066  0.0091
   55TMC2    C3  853   3.231   2.697  17.434 -0.0540 -0.5491  0.9208
   55TMC2    C4  854   3.100   2.729  17.674 -0.5227  0.3122 -0.5101
   55TMC2    C5  855   3.121   2.602  17.621  0.3651  0.1338 -0.0186
   55TMC2    C6  856   3.185   2.589  17.497 -0.0723 -0.3936 -0.0015
   55TMC2     C  857   3.132   2.968  17.659 -0.3081 -0.3435 -0.8468
   55TMC2     O  858   3.080   2.970   0.011 -0.3547  0.0294 -0.7934
   55TMC2     H  859   3.246   2.913  17.421  2.0456  0.5587  2.7971
   55TMC2    H1  860   3.055   2.754   0.012 -2.9315  0.9551 -1.8398
   55TMC2    H2  861   3.207   2.489  17.462  0.3389 -0.0143 -0.8154
   55TMC2    C7  862   3.089   2.479  17.693  0.1982 -0.4000  0.0530
   55TMC2    C8  863   3.276   2.681  17.295 -0.0533  0.4227  0.4063
   55TMC2    O1  864   3.116   2.377  17.633 -0.1692  0.1849 -0.0673
   55TMC2    O2  865   3.364   2.755  17.257 -0.7679 -0.4039 -0.1391
   55TMC2    O5  866   3.156   2.678  17.240  0.1648 -0.7526  0.2297
   55TMC2    H5  867   3.097   2.612  17.282  0.1803 -0.1679  1.1553
   56MPD2     C  868   3.163   3.312  17.527 -0.2960 -0.1457  0.0244
   56MPD2    C1  869   3.148   3.213  17.626  0.2461  0.2039 -0.1201
   56MPD2    C2  870   3.117   3.256   0.000 -0.2781  0.5571 -0.6262
   56MPD2    C3  871   3.092   3.394   0.019 -0.0756  0.2892  0.4312
   56MPD2    C4  872   3.102   3.480  17.673  0.0380 -0.0942  0.6535
   56MPD2    C5  873   3.153   3.446  17.553  0.1361  0.0431  0.4931
   56MPD2     H  874   3.098   3.193   0.086  1.9651 -1.3390 -1.5294
   56MPD2    H1  875   3.078   3.585  17.681  0.2062 -0.2172  2.9149
   56MPD2    H2  876   3.197   3.280  17.429 -4.0350 -0.0663 -1.2842
   56MPD2    H3  877   3.157   3.517  17.471  0.9614  0.3419  0.7819
   56MPD2     N  878   3.045   3.428   0.148  0.0546 -0.0145 -0.1157
   56MPD2    H5  879   3.042   3.342   0.203 -1.1532 -0.7769 -1.3735
   56MPD2    N1  880   3.164   3.076  17.585  0.6131  0.1208  0.5176
   56MPD2    H7  881   3.176   3.068  17.485 -1.8338 -0.6789  0.2955
   57TMC2    C1  882   1.806   2.706  13.692  0.1287 -0.4003  0.3706
   57TMC2    C2  883   1.936   2.673  13.726 -0.1511  0.4031  0.4716
   57TMC2    C3  884   2.005   2.587  13.640 -0.8075 -0.2700 -0.5039
   57TMC2    C4  885   1.748   2.658  13.579  0.8891 -0.6517  0.0119
   57TMC2    C5  886   1.828   2.587  13.498 -0.0064 -0.5464  0.0985
   57TMC2    C6  887   1.956   2.546  13.525 -0.4660  0.2911 -0.2392
   57TMC2     C  888   1.767   2.834  13.746 -0.2363  0.7285 -0.2930
   57TMC2     O  889   1.681   2.892  13.682  0.4872  0.0429  0.3326
   57TMC2     H  890   1.994   2.731  13.796 -0.6735  0.1657  1.0981
   57TMC2    H1  891   1.644   2.671  13.553  0.5750 -1.8029  0.6756
   57TMC2    H2  892   2.008   2.476  13.461 -3.0316  0.1873 -2.2353
   57TMC2    C7  893   1.759   2.541  13.379  0.7160 -0.4476 -0.3096
   57TMC2    C8  894   2.148   2.586  13.651 -0.5328 -0.2858 -0.7765
   57TMC2    O1  895   1.639   2.541  13.364  0.0763  0.3512  0.5232
   57TMC2    O2  896   2.223   2.534  13.568  0.3859 -0.2432 -0.0323
   57TMC2    O5  897   2.179   2.604  13.780 -0.4841 -0.3809 -0.0125
   57TMC2    H5  898   2.109   2.603  13.849 -0.2733  1.4173  0.2193
   58MPD2     C  899   1.690   3.133  14.159  0.1503 -0.3327 -0.3904
   58MPD2    C1  900   1.677   3.158  14.021 -0.3899  0.5773 -0.0726
   58MPD2    C2  901   1.716   3.069  13.926  1.2591  0.1885  0.1699
   58MPD2    C3  902   1.756   2.943  13.971  0.3213  0.7039  0.1501
   58MPD2    C4  903   1.760   2.913  14.107 -0.0835  0.6381 -0.3604
   58MPD2    C5  904   1.730   3.007  14.199 -0.0611 -0.3899 -0.4310
   58MPD2     H  905   1.717   3.090  13.820 -2.3384  0.2367  0.1387
   58MPD2    H1  906   1.796   2.818  14.144 -0.8991  0.7926  0.8208
   58MPD2    H2  907   1.673   3.206  14.237  0.1672 -1.0568  0.3050
   58MPD2    H3  908   1.745   2.978  14.302  0.9151  0.6349 -0.2857
   58MPD2     N  909   1.784   2.836  13.880 -0.5170 -0.6093  0.3801
   58MPD2    H5  910   1.821   2.752  13.922  2.1674 -0.0599 -0.8918
   58MPD2    N1  911   1.635   3.285  13.973  0.0104 -0.0482  0.1651
   58MPD2    H7  912   1.641   3.300  13.873  1.8216 -1.8450  0.0195
   59TMC2    C1  913   4.710   3.443  12.829  0.3053 -0.0371 -0.3714
   59TMC2    C2  914   0.009   3.334  12.901 -0.2195  0.0899  0.4222
   59TMC2    C3  915   4.729   3.211  12.852  0.8908  0.1963 -0.0620
   59TMC2    C4  916   4.646   3.423  12.707  0.3381 -0.0006 -0.3265
   59TMC2    C5  917   4.631   3.300  12.656  0.5052  0.1202  0.5031
   59TMC2    C6  918   4.664   3.187  12.732  0.0730  0.2055  0.2143
   59TMC2     C  919   0.004   3.575  12.870 -0.0330  0.1818  0.1533
   59TMC2     O  920   4.663   3.663  12.841  0.4467  0.0146  0.2638
   59TMC2     H  921   0.053   3.338  13.000  0.7235 -0.3747  0.0143
   59TMC2    H1  922   4.630   3.512  12.646  1.4506  0.3468 -0.1063
   59TMC2    H2  923   4.670   3.087  12.692 -3.0993 -0.8250  2.3072
   59TMC2    C7  924   4.652   3.290  12.505  0.7444 -0.0075 -0.3323
   59TMC2    C8  925   0.007   3.107  12.947  0.0568 -0.2211  0.4158
   59TMC2    O1  926   4.701   3.181  12.462 -0.1053  0.0656  0.0596
   59TMC2    O2  927   4.676   3.119  13.047 -0.4657 -0.1095 -0.5494
   59TMC2    O5  928   0.141   3.100  12.950  0.6804  0.4610 -0.2181
   59TMC2    H5  929   0.181   3.102  12.860 -1.0703 -1.0910 -1.0428
   60MPD2     C  930   0.050   3.807  13.060  0.0797 -0.5813 -0.3191
   60MPD2    C1  931   0.135   3.693  13.047 -0.1740  0.8061 -0.1143
   60MPD2    C2  932   0.255   3.691  13.121 -0.4963  0.2239  0.0222
   60MPD2    C3  933   0.279   3.801  13.207  0.2038 -0.1883  0.2531
   60MPD2    C4  934   0.197   3.903  13.213 -0.5815  0.3240 -0.1307
   60MPD2    C5  935   0.082   3.905  13.139  0.3088  1.1577 -0.6329
   60MPD2     H  936   0.312   3.599  13.124 -1.4293 -0.3795 -0.7191
   60MPD2    H1  937   0.221   3.992  13.270  2.5281  0.2846 -1.3691
   60MPD2    H2  938   4.693   3.814  13.012 -0.8952 -1.5480  1.5042
   60MPD2    H3  939   0.012   3.988  13.146 -3.5583 -1.8600 -3.0309
   60MPD2     N  940   0.398   3.807  13.285 -0.4279 -0.3518  0.4260
   60MPD2    H5  941   0.423   3.902  13.313 -0.9257  0.1710 -0.9165
   60MPD2    N1  942   0.116   3.584  12.955  0.1498 -0.4239  0.2911
   60MPD2    H7  943   0.192   3.518  12.939 -0.3832 -1.3672  1.6969
   61TMC2    C1  944   3.866   0.016  15.868  0.0313  0.1580 -0.3008
   61TMC2    C2  945   3.898   4.716  15.993 -0.0185  0.5495  0.4279
   61TMC2    C3  946   3.915   0.073  16.088 -0.2724  0.0702  0.0013
   61TMC2    C4  947   3.884   0.147  15.823 -0.1828 -0.6426  0.1807
   61TMC2    C5  948   3.906   0.244  15.927 -0.4842 -0.0379  0.0555
   61TMC2    C6  949   3.916   0.206  16.059 -0.3341 -0.1795  0.1823
   61TMC2     C  950   3.842   4.644  15.776  0.2970  0.4430  0.1363
   61TMC2     O  951   3.817   4.527  15.806 -0.5176 -0.0412 -0.6902
   61TMC2     H  952   3.882   4.611  16.016  1.2678 -0.1544 -1.9537
   61TMC2    H1  953   3.851   0.173  15.723 -0.0371  1.9143  0.7911
   61TMC2    H2  954   3.962   0.266  16.136  1.4464  0.0049 -1.0029
   61TMC2    C7  955   3.883   0.380  15.888  0.0851  0.9254  0.4896
   61TMC2    C8  956   3.964   0.036  16.221 -0.2160 -0.1123  0.5147
   61TMC2    O1  957   3.874   0.407  15.769 -0.1370 -0.0541  0.7255
   61TMC2    O2  958   3.951   0.115  16.313 -0.3180  0.0945  0.4790
   61TMC2    O5  959   4.061   4.676  16.205 -0.4379  0.2691 -0.5434
   61TMC2    H5  960   4.067   4.636  16.116  1.4645 -1.2526  0.2597
   62MPD2     C  961   3.839   4.476  15.527  0.4768 -0.4709 -0.2998
   62MPD2    C1  962   3.907   4.596  15.544 -0.3343  0.0876 -0.0176
   62MPD2    C2  963   3.992   4.631  15.441  0.2055  0.2320  0.7827
   62MPD2    C3  964   4.016   4.557  15.326 -0.0892 -0.0895  0.2059
   62MPD2    C4  965   3.955   4.440  15.317  0.1918 -0.3021 -0.0483
   62MPD2    C5  966   3.866   4.398  15.419  0.2203 -0.1097  0.2127
   62MPD2     H  967   4.052   4.721  15.451 -0.4615  0.9345 -1.3386
   62MPD2    H1  968   3.974   4.377  15.231 -1.0207  0.5595 -0.9507
   62MPD2    H2  969   3.765   4.442  15.598 -2.1503  2.1361 -1.7925
   62MPD2    H3  970   3.815   4.303  15.403  1.3243 -0.2068 -2.6647
   62MPD2     N  971   4.105   4.600  15.223 -0.3882 -0.8064  0.4366
   62MPD2    H5  972   4.121   4.530  15.151  1.3618  1.6924 -1.5793
   62MPD2    N1  973   3.892   4.679  15.652  0.0516  0.0410  0.2696
   62MPD2    H7  974   3.925   0.034  15.635 -2.2594  0.7542 -0.2666
   63TMC2    C1  975   3.534   0.839   9.962  0.8407 -0.8024 -0.2418
   63TMC2    C2  976   3.635   0.809  10.054 -1.4038 -0.4057 -0.4590
   63TMC2    C3  977   3.732   0.898  10.053 -1.2599  0.0829 -0.1924
   63TMC2    C4  978   3.536   0.948   9.876 -0.3317  0.1311 -0.1589
   63TMC2    C5  979   3.639   1.034   9.881  0.3511  0.3755  0.5521
   63TMC2    C6  980   3.737   1.010   9.972  0.4755  0.0799  0.5272
   63TMC2     C  981   3.417   0.750   9.952 -0.0473  0.7969  0.5766
   63TMC2     O  982   3.335   0.783   9.871  0.8296 -0.5530 -0.0634
   63TMC2     H  983   3.638   0.731  10.129 -1.0187 -2.3701 -2.5523
   63TMC2    H1  984   3.471   0.951   9.789 -2.2349 -1.9030  1.1882
   63TMC2    H2  985   3.815   1.084   9.986 -0.1257  0.4593  1.8196
   63TMC2    C7  986   3.676   1.102   9.763 -0.4069  0.3359  0.0525
   63TMC2    C8  987   3.858   0.866  10.120 -0.9464 -0.5019  0.0281
   63TMC2    O1  988   3.580   1.138   9.696 -0.3396 -0.0271  0.0084
   63TMC2    O2  989   3.907   0.752  10.141 -0.8293 -0.1148 -0.0184
   63TMC2    O5  990   3.896   0.980  10.179  0.0363 -0.2096 -0.5120
   63TMC2    H5  991   3.828   1.050  10.186  0.7861  0.4392  0.3181
   64MPD2     C  992   3.172   0.300   9.997  0.0759 -0.3647  0.0709
   64MPD2    C1  993   3.288   0.294  10.076  0.2426  0.4703 -1.3516
   64MPD2    C2  994   3.365   0.409  10.089 -0.3221 -0.5487  0.0400
   64MPD2    C3  995   3.331   0.525  10.015  0.5249  0.2252 -0.0593
   64MPD2    C4  996   3.211   0.523   9.937  0.6199 -1.2209  0.3813
   64MPD2    C5  997   3.134   0.413   9.931  0.0041  0.2805 -0.3319
   64MPD2     H  998   3.446   0.409  10.162 -1.7340 -0.6048  1.6003
   64MPD2    H1  999   3.185   0.608   9.874  1.8510  0.2762  1.8792
   64MPD2    H2 1000   3.098   0.222   9.996  0.7786 -1.0219 -0.2534
   64MPD2    H3 1001   3.044   0.416   9.870 -0.5170  0.8766  0.4589
   64MPD2     N 1002   3.420   0.639  10.030  0.7468  0.5134  0.0408
   64MPD2    H5 1003   3.494   0.627  10.098  1.7750 -0.6185 -1.2822
   64MPD2    N1 1004   3.329   0.192  10.163  0.2597  0.3061 -0.0945
   64MPD2    H7 1005   3.400   0.210  10.233 -1.2510  4.0015  0.4959
   65TMC2    C1 1006   0.076   4.600  15.669 -0.6800 -0.0493  0.4709
   65TMC2    C2 1007   0.153   4.555  15.560  0.6262  0.4441  0.1871
   65TMC2    C3 1008   0.206   4.647  15.479 -0.7113 -0.8910  0.9678
   65TMC2    C4 1009   0.088   4.729  15.716  0.2096  0.4884  0.0629
   65TMC2    C5 1010   0.160   0.073  15.638 -0.1869 -0.1613  0.3042
   65TMC2    C6 1011   0.211   0.036  15.518  0.3201 -0.1032  0.3113
   65TMC2     C 1012   0.042   4.506  15.776  0.2032  0.2282 -0.3535
   65TMC2     O 1013   0.054   4.542  15.891  0.5797  0.0560  0.0796
   65TMC2     H 1014   0.163   4.448  15.541 -2.0774  0.2762 -0.2394
   65TMC2    H1 1015   0.030   0.021  15.802  1.5913  0.9795  0.8204
   65TMC2    H2 1016   0.280   0.108  15.474  3.4116 -2.6206  1.0086
   65TMC2    C7 1017   0.133   0.219  15.648 -0.7238 -0.2241 -0.1758
   65TMC2    C8 1018   0.277   4.594  15.364 -0.1447  0.0460  0.4781
   65TMC2    O1 1019   0.139   0.275  15.539 -0.3723 -0.0028  0.0640
   65TMC2    O2 1020   0.285   4.477  15.335 -0.8898  0.7411  0.1960
   65TMC2    O5 1021   0.283   4.699  15.275  0.1625  0.0961 -0.1523
   65TMC2    H5 1022   0.250   0.043  15.313 -1.7148 -0.7951  0.1540
   66MPD2     C 1023   4.645   4.292  15.937  0.3627 -0.1609 -0.4885
   66MPD2    C1 1024   4.684   4.279  15.806 -0.5832 -0.4571  0.2482
   66MPD2    C2 1025   4.659   4.157  15.738  0.0741 -0.5239  0.2184
   66MPD2    C3 1026   4.583   4.057  15.799 -0.3443  0.0547 -0.6382
   66MPD2    C4 1027   4.548   4.076  15.930  0.1791 -0.0602  0.0109
   66MPD2    C5 1028   4.569   4.192  16.002  0.5820 -0.0332  0.4592
   66MPD2     H 1029   4.676   4.150  15.631 -0.8934 -0.9595  0.0948
   66MPD2    H1 1030   4.482   4.005  15.979  0.2772  1.0670  1.7910
   66MPD2    H2 1031   4.668   4.377  16.001  3.1250 -1.1034 -0.2173
   66MPD2    H3 1032   4.543   4.205  16.106 -2.5796 -0.4488 -0.2715
   66MPD2     N 1033   4.550   3.938  15.730 -0.1366  0.3693 -0.3413
   66MPD2    H5 1034   4.483   3.882  15.782  1.2157 -0.5336  0.4435
   66MPD2    N1 1035   0.018   4.378  15.730 -0.6292 -0.2570 -0.1768
   66MPD2    H7 1036   0.017   4.367  15.629 -0.3256  0.9684 -0.3129
   67TMC2    C1 1037   0.263   3.762  14.329 -0.0545 -0.2769  0.2587
   67TMC2    C2 1038   0.224   3.894  14.336  0.4870  0.2676 -0.1173
   67TMC2    C3 1039   0.254   3.954  14.456  0.0855 -0.4947  0.2935
   67TMC2    C4 1040   0.327   3.687  14.432  1.0523  0.1922 -0.1870
   67TMC2    C5 1041   0.330   3.748  14.552 -0.7871  0.1795  0.5807
   67TMC2    C6 1042   0.298   3.882  14.565 -0.6092 -0.3704 -0.0595
   67TMC2     C 1043   0.225   3.684  14.216 -0.4002  0.2006  0.4535
   67TMC2     O 1044   0.265   3.569  14.195  0.1786 -0.2464 -0.0595
   67TMC2     H 1045   0.188   3.950  14.251 -0.9689 -0.4868 -0.0011
   67TMC2    H1 1046   0.366   3.586  14.434  0.8487  0.1117 -0.2591
   67TMC2    H2 1047   0.347   3.930  14.649 -0.5430  2.6671 -1.8721
   67TMC2    C7 1048   0.432   3.698  14.647  0.0425  0.1285  0.4325
   67TMC2    C8 1049   0.145   4.039  14.499  0.3085 -0.1428  0.0617
   67TMC2    O1 1050   0.534   3.652  14.599 -0.4106  0.4284 -0.5929
   67TMC2    O2 1051   0.038   4.058  14.444 -0.3756  0.5969  0.3839
   67TMC2    O5 1052   0.202   4.135  14.582 -0.1594 -0.0585 -0.6377
   67TMC2    H5 1053   0.290   4.112  14.619  1.0901  1.8691 -2.4469
   68MPD2     C 1054   0.097   3.581  13.967 -0.4408 -0.7252  0.1422
   68MPD2    C1 1055   0.055   3.694  14.032  0.2150  1.0302  0.4804
   68MPD2    C2 1056   4.697   3.777  13.980 -0.5467  0.4687  0.2406
   68MPD2    C3 1057   4.631   3.731  13.868  0.0936 -0.5076 -0.3710
   68MPD2    C4 1058   4.663   3.614  13.806 -0.1777  0.3943 -0.1014
   68MPD2    C5 1059   0.028   3.538  13.853  0.4561 -0.1844  0.7935
   68MPD2     H 1060   4.688   3.874  14.028  2.5224  0.2265  1.3179
   68MPD2    H1 1061   4.618   3.582  13.713 -2.0182  1.8060  0.2990
   68MPD2    H2 1062   0.183   3.519  13.990 -0.3558 -0.6024  0.1543
   68MPD2    H3 1063   0.051   3.444  13.806  0.8253  0.4872 -0.3658
   68MPD2     N 1064   4.528   3.809  13.809  0.0730  0.6969 -0.6238
   68MPD2    H5 1065   4.478   3.780  13.726  1.7492  3.7130 -2.6912
   68MPD2    N1 1066   0.119   3.742  14.151 -0.0975  0.6644 -0.3060
   68MPD2    H7 1067   0.086   3.826  14.197 -0.6238  0.3961 -0.1930
   69TMC2    C1 1068   2.673   0.267  12.309  0.1241  0.8953  0.8238
   69TMC2    C2 1069   2.550   0.324  12.321  0.3330  0.0697  0.5848
   69TMC2    C3 1070   2.479   0.351  12.203  1.1800 -0.3375  0.3947
   69TMC2    C4 1071   2.717   0.216  12.189 -0.9052 -0.3610  0.1131
   69TMC2    C5 1072   2.626   0.220  12.084  0.5655 -0.2390 -0.7083
   69TMC2    C6 1073   2.512   0.296  12.086 -0.2123 -0.5115 -0.1607
   69TMC2     C 1074   2.755   0.247  12.429 -0.1929  0.8014  0.0433
   69TMC2     O 1075   2.876   0.243  12.413 -0.7063 -0.1759  0.2962
   69TMC2     H 1076   2.523   0.371  12.415  0.5603  0.8036  0.2794
   69TMC2    H1 1077   2.801   0.148  12.178 -0.2206  0.0482  2.7659
   69TMC2    H2 1078   2.471   0.339  11.996  1.9828 -0.7727 -1.3015
   69TMC2    C7 1079   2.679   0.185  11.951 -0.0897  0.4525  0.0645
   69TMC2    C8 1080   2.337   0.384  12.226 -0.5544  0.3418 -0.6094
   69TMC2    O1 1081   2.792   0.144  11.941  0.2711 -0.1760 -0.5678
   69TMC2    O2 1082   2.275   0.408  12.127  0.2356 -0.7999  0.1391
   69TMC2    O5 1083   2.297   0.317  12.337 -0.1557  0.0179  0.2747
   69TMC2    H5 1084   2.357   0.305  12.413  0.5204 -0.6473 -0.3588
   70MPD2     C 1085   2.871   0.110  12.669  0.2054  0.0807 -0.4422
   70MPD2    C1 1086   2.738   0.122  12.652 -0.2492 -1.0031 -0.5574
   70MPD2    C2 1087   2.647   0.079  12.750  0.1624 -0.7889 -0.3774
   70MPD2    C3 1088   2.696   0.017  12.866 -0.6128  0.1965  0.6308
   70MPD2    C4 1089   2.830   0.010  12.879  1.1192  0.7316  0.1918
   70MPD2    C5 1090   2.915   0.057  12.783 -0.9230 -0.4724 -0.0800
   70MPD2     H 1091   2.540   0.074  12.735  0.1303  0.6277 -0.5601
   70MPD2    H1 1092   2.877   4.704  12.965 -0.6843 -1.0700  0.2193
   70MPD2    H2 1093   2.950   0.151  12.607 -0.5664  0.5398 -1.1165
   70MPD2    H3 1094   3.021   0.054  12.806 -0.9229  0.1058 -0.0036
   70MPD2     N 1095   2.616   4.714  12.971  0.0677 -0.2080 -0.0808
   70MPD2    H5 1096   2.660   4.662  13.046  1.4961  0.6200 -0.3517
   70MPD2    N1 1097   2.685   0.185  12.533  0.1632  0.1189 -0.1535
   70MPD2    H7 1098   2.586   0.181  12.513  0.0267  0.7392  0.4114
   71TMC2    C1 1099   4.387   0.156   1.316  0.1049 -0.2303 -0.4154
   71TMC2    C2 1100   4.419   0.237   1.429  0.1712  0.5028 -0.1974
   71TMC2    C3 1101   4.321   0.266   1.525 -0.0630 -0.2417 -0.1669
   71TMC2    C4 1102   4.262   0.106   1.313 -0.2577 -0.0175 -0.3704
   71TMC2    C5 1103   4.170   0.137   1.413 -0.5764  0.1932  0.1689
   71TMC2    C6 1104   4.194   0.210   1.526  0.1343  0.5477 -0.0008
   71TMC2     C 1105   4.444   0.194   1.182  0.1180 -0.0148  0.2290
   71TMC2     O 1106   4.369   0.187   1.083  0.2073  0.3031 -0.6615
   71TMC2     H 1107   4.510   0.296   1.432 -0.2823  1.2886 -1.7002
   71TMC2    H1 1108   4.227   0.066   1.219 -1.1219  1.6622 -0.7721
   71TMC2    H2 1109   4.115   0.230   1.598  1.4952  1.6580  1.1752
   71TMC2    C7 1110   4.040   0.087   1.382 -0.3931 -0.1040 -0.4545
   71TMC2    C8 1111   4.373   0.341   1.639  0.0531 -0.3618  0.2558
   71TMC2    O1 1112   4.012   0.055   1.269  0.1914 -0.0887 -0.0575
   71TMC2    O2 1113   4.492   0.337   1.663 -0.3223  0.2347 -0.0489
   71TMC2    O5 1114   4.282   0.422   1.691  0.0881  0.1291 -0.6161
   71TMC2    H5 1115   4.188   0.406   1.668 -0.0155  0.5088 -0.4535
   72MPD2     C 1116   0.052   0.463   0.918  0.4307  0.0183  0.1114
   72MPD2    C1 1117   4.674   0.413   0.880  0.5548  0.6867  0.7256
   72MPD2    C2 1118   4.598   0.338   0.970 -0.0472 -0.2108  0.8770
   72MPD2    C3 1119   4.650   0.306   1.093  0.0212 -1.0216 -0.2633
   72MPD2    C4 1120   0.028   0.364   1.130  0.4153  0.2957 -0.4139
   72MPD2    C5 1121   0.103   0.442   1.041  0.4500 -0.7627 -0.1227
   72MPD2     H 1122   4.493   0.317   0.953  0.3714 -2.2308  0.7960
   72MPD2    H1 1123   0.067   0.352   1.231  0.2274  2.0293 -0.1328
   72MPD2    H2 1124   0.104   0.516   0.839  0.6900 -0.1687  0.1564
   72MPD2    H3 1125   0.197   0.491   1.065  0.2508 -1.0653  1.2936
   72MPD2     N 1126   4.571   0.247   1.196 -0.1384  0.1737  0.1629
   72MPD2    H5 1127   4.620   0.226   1.283  0.7052 -4.0271 -1.3134
   72MPD2    N1 1128   4.606   0.443   0.756  0.5516  0.3254 -0.1309
   72MPD2    H7 1129   4.518   0.393   0.743  0.3926  0.5727 -0.0216
   73TMC2    C1 1130   3.840   2.286  13.805  0.2428  0.2502  0.5874
   73TMC2    C2 1131   3.827   2.380  13.898  0.1110 -0.5439 -0.0954
   73TMC2    C3 1132   3.904   2.373  14.009 -0.3536  0.7581  0.0562
   73TMC2    C4 1133   3.916   2.173  13.845  0.4034 -0.9004 -0.4712
   73TMC2    C5 1134   3.991   2.169  13.955 -0.2516 -0.5257 -0.2996
   73TMC2    C6 1135   3.990   2.265  14.043  0.4044 -0.8333  0.5510
   73TMC2     C 1136   3.874   2.320  13.672  0.3926 -0.1029  0.0154
   73TMC2     O 1137   3.965   2.255  13.619  0.5113  0.6927 -0.2058
   73TMC2     H 1138   3.778   2.473  13.871 -1.4511 -1.1653  0.6032
   73TMC2    H1 1139   3.910   2.083  13.784 -2.5450 -0.0594 -1.4485
   73TMC2    H2 1140   4.063   2.270  14.122  0.4646 -0.4975  0.4731
   73TMC2    C7 1141   4.127   2.138  13.918  0.3034  0.4836  0.2046
   73TMC2    C8 1142   3.857   2.462  14.117  0.4087  0.0349 -0.6335
   73TMC2    O1 1143   4.209   2.127  14.005 -0.0372  0.2442  0.1702
   73TMC2    O2 1144   3.790   2.562  14.090  0.3253  0.4163  0.0900
   73TMC2    O5 1145   3.839   2.395  14.229 -0.2865  0.1865  0.3402
   73TMC2    H5 1146   3.848   2.299  14.211  0.1788  0.1758  0.6395
   74MPD2     C 1147   3.857   2.572  13.216  0.8321  0.2340 -0.5513
   74MPD2    C1 1148   3.953   2.497  13.282 -0.0759 -0.0936  0.0146
   74MPD2    C2 1149   3.942   2.455  13.412  0.4017  0.3159 -1.0071
   74MPD2    C3 1150   3.825   2.474  13.480 -0.2909 -0.7553  0.0387
   74MPD2    C4 1151   3.723   2.546  13.415  0.6843 -0.5310  0.1001
   74MPD2    C5 1152   3.740   2.594  13.289 -0.2937 -0.6901  0.8889
   74MPD2     H 1153   4.021   2.407  13.469  0.0577  0.2785 -0.5638
   74MPD2    H1 1154   3.634   2.575  13.470 -0.4105 -0.3427 -1.7478
   74MPD2    H2 1155   3.869   2.609  13.116  1.0393 -2.5622 -1.5683
   74MPD2    H3 1156   3.664   2.655  13.242  0.2355 -0.4577  0.3358
   74MPD2     N 1157   3.805   2.428  13.612  0.0406 -0.3716 -0.6269
   74MPD2    H5 1158   3.719   2.458  13.657 -1.0517 -1.2178 -2.1430
   74MPD2    N1 1159   4.074   2.459  13.217 -0.0022 -0.1406  0.4216
   74MPD2    H7 1160   4.152   2.418  13.268  0.8741 -0.0442 -0.8421
   75TMC2    C1 1161   4.383   4.001  13.778  0.6845 -0.4926 -0.3185
   75TMC2    C2 1162   4.359   4.127  13.811  0.9847  0.1841 -0.3036
   75TMC2    C3 1163   4.239   4.179  13.795  0.3721  0.2388  0.0426
   75TMC2    C4 1164   4.280   3.919  13.719  0.1113  0.6784  0.3863
   75TMC2    C5 1165   4.157   3.970  13.705  0.0936  0.4315 -0.1067
   75TMC2    C6 1166   4.137   4.103  13.744  0.1036 -0.2920 -0.1940
   75TMC2     C 1167   4.505   3.942  13.830 -0.4341  0.3183 -0.1896
   75TMC2     O 1168   4.571   4.021  13.897  0.9542  0.4529  0.8219
   75TMC2     H 1169   4.443   4.189  13.843 -0.2214  0.9925  1.3037
   75TMC2    H1 1170   4.301   3.814  13.705  0.7719  0.6864  1.3290
   75TMC2    H2 1171   4.040   4.150  13.734 -0.3964 -1.1006  0.8469
   75TMC2    C7 1172   4.059   3.877  13.647  0.0845  0.3225 -0.0108
   75TMC2    C8 1173   4.206   4.313  13.824 -0.5362 -0.1598  0.2025
   75TMC2    O1 1174   4.095   3.770  13.613 -0.1356  0.3464  0.3161
   75TMC2    O2 1175   4.100   4.363  13.798  0.1872  0.2287 -0.1253
   75TMC2    O5 1176   4.290   4.371  13.911 -0.2868 -0.1288  0.3863
   75TMC2    H5 1177   4.367   4.319  13.944 -0.8493 -0.8572  0.5478
   76TMC2    C1 1178   3.404   3.817  12.008 -0.2187  0.0617 -0.7409
   76TMC2    C2 1179   3.335   3.701  11.973  0.5152  0.7396 -0.2704
   76TMC2    C3 1180   3.352   3.588  12.041 -0.7921  0.6018 -0.2188
   76TMC2    C4 1181   3.490   3.818  12.111 -0.1820  0.0153  1.0106
   76TMC2    C5 1182   3.508   3.704  12.180  0.7020 -0.5022 -0.5287
   76TMC2    C6 1183   3.449   3.585  12.140 -0.3061 -0.2115 -0.4293
   76TMC2     C 1184   3.384   3.932  11.925  0.2938  0.0965 -0.4272
   76TMC2     O 1185   3.270   3.950  11.890  0.1391 -0.5505  0.0089
   76TMC2     H 1186   3.262   3.693  11.893 -0.8919  2.6115  0.8290
   76TMC2    H1 1187   3.542   3.908  12.141  1.2019 -1.7429  3.8872
   76TMC2    H2 1188   3.466   3.489  12.189 -0.3953 -0.2415 -0.4562
   76TMC2    C7 1189   3.578   3.694  12.309 -0.6742  0.6657 -0.2554
   76TMC2    C8 1190   3.257   3.480  12.026  0.5982  0.4780 -0.0143
   76TMC2    O1 1191   3.599   3.579  12.341  0.3000 -0.1524  0.1909
   76TMC2    O2 1192   3.138   3.493  11.999 -0.0828 -0.3486  0.0602
   76TMC2    O5 1193   3.327   3.360  12.015 -0.4205  0.5960  0.3623
   76TMC2    H5 1194   3.422   3.378  11.998 -0.3495  0.9594  1.1486
   77MPD2     C 1195   3.603   4.318  11.683  0.1157  0.3561 -0.3292
   77MPD2    C1 1196   3.465   4.302  11.704 -0.3403 -0.1512 -0.2149
   77MPD2    C2 1197   3.423   4.202  11.787  0.4194 -0.5256 -0.2869
   77MPD2    C3 1198   3.528   4.124  11.844 -0.1548  0.5115 -0.6540
   77MPD2    C4 1199   3.660   4.152  11.842  0.4000 -0.1729 -0.0650
   77MPD2    C5 1200   3.701   4.257  11.762  0.9151 -0.4979  0.2962
   77MPD2     H 1201   3.320   4.169  11.793  0.2539  0.1064  0.3822
   77MPD2    H1 1202   3.729   4.101  11.909 -0.3179 -0.8354  0.1757
   77MPD2    H2 1203   3.640   4.391  11.612 -0.8484  1.3335  0.1717
   77MPD2    H3 1204   3.804   4.281  11.738  0.9010 -0.4706  0.2616
   77MPD2     N 1205   3.502   3.999  11.903 -0.1190 -0.3067 -0.0206
   77MPD2    H5 1206   3.588   3.948  11.925  0.7919  1.1674 -0.1884
   77MPD2    N1 1207   3.364   4.366  11.629  0.3769  0.4482 -0.1336
   77MPD2    H7 1208   3.269   4.354  11.661  0.2564  1.8781  0.0576
   78TMC2    C1 1209   0.023   4.023   1.146 -0.5149 -0.5056 -1.0927
   78TMC2    C2 1210   0.002   4.044   1.282  0.1600  0.4605 -0.2886
   78TMC2    C3 1211   0.020   4.175   1.332  0.6751 -0.7484  0.7330
   78TMC2    C4 1212   0.054   4.127   1.063  0.5384  0.1920  0.0929
   78TMC2    C5 1213   0.069   4.256   1.115  0.1097 -1.0863 -0.2728
   78TMC2    C6 1214   0.052   4.281   1.247  0.0839  0.4497 -0.2986
   78TMC2     C 1215   0.047   3.886   1.105  0.3343 -0.3873 -0.5649
   78TMC2     O 1216   0.047   3.792   1.183 -0.0049  0.6606  0.0539
   78TMC2     H 1217   4.708   3.967   1.350  0.4735 -0.4144 -1.1120
   78TMC2    H1 1218   0.086   4.110   0.961 -1.7615 -2.8188 -0.1331
   78TMC2    H2 1219   0.045   4.381   1.287  1.2924  0.8594 -1.0913
   78TMC2    C7 1220   0.123   4.357   1.026  0.0301 -0.6396 -0.1541
   78TMC2    C8 1221   0.012   4.194   1.471  0.2372 -0.0024  1.3256
   78TMC2    O1 1222   0.191   4.450   1.068 -0.3678 -0.0286 -0.0782
   78TMC2    O2 1223   4.695   4.108   1.542 -0.8306  0.7500  0.3911
   78TMC2    O5 1224   0.131   4.254   1.507  0.0938 -0.7996  0.7006
   78TMC2    H5 1225   0.188   4.297   1.440 -0.6395  0.9376  1.1830
   79MPD1     C 1226   0.188   3.542   0.754  0.0433 -1.1113 -0.0352
   79MPD1    C1 1227   0.215   3.542   0.891 -0.2974  0.1736 -0.3475
   79MPD1    C2 1228   0.179   3.657   0.959  0.1393 -0.0658  0.2187
   79MPD1    C3 1229   0.116   3.762   0.895 -0.5400  0.0409  0.4119
   79MPD1    C4 1230   0.093   3.758   0.762  0.1401  0.1609 -0.3368
   79MPD1    C5 1231   0.137   3.653   0.694 -0.6875 -0.2429  0.9960
   79MPD1     H 1232   0.201   3.668   1.065 -0.3953  0.5679  0.2647
   79MPD1    H1 1233   0.052   3.839   0.703  3.6443  1.8415 -0.4855
   79MPD1    H2 1234   0.218   3.461   0.688  1.5362 -2.1249  1.8783
   79MPD1    H3 1235   0.133   3.649   0.586  1.5664  0.6022  0.8716
   79MPD1     N 1236   0.064   3.875   0.964 -1.1625  0.1043 -0.0901
   79MPD1    H5 1237   0.034   3.952   0.906  3.4515  0.9385 -1.3766
   79MPD1    N1 1238   0.279   3.429   0.959  0.2550 -0.4592  0.1165
   79MPD1    H6 1239   0.283   3.348   0.898 -0.7599 -2.4440  2.6969
   79MPD1    H7 1240   0.242   3.413   1.052 -1.0794  0.2002 -0.3029
   80TMC2    C1 1241   2.227   3.915  11.543 -0.3376  0.5428 -0.5508
   80TMC2    C2 1242   2.214   3.933  11.404  0.8531  0.1340  0.2697
   80TMC2    C3 1243   2.085   3.947  11.358 -0.6567  0.3214  0.3112
   80TMC2    C4 1244   2.119   3.916  11.629 -0.4596 -0.3035 -0.0345
   80TMC2    C5 1245   1.991   3.927  11.572 -0.3927  0.0895 -0.2476
   80TMC2    C6 1246   1.975   3.947  11.440  0.4137 -0.9966 -0.2521
   80TMC2     C 1247   2.360   3.899  11.606  1.1710  0.1036 -0.1733
   80TMC2     O 1248   2.443   3.845  11.537  0.4923 -0.0442  0.6115
   80TMC2     H 1249   2.305   3.931  11.343 -1.3911  1.9482 -3.1362
   80TMC2    H1 1250   2.125   3.893  11.735 -0.0557  0.3321  0.0766
   80TMC2    H2 1251   1.876   3.961  11.398  0.4603  0.0082 -0.0221
   80TMC2    C7 1252   1.865   3.931  11.653 -0.5519  0.2392 -0.0584
   80TMC2    C8 1253   2.063   3.952  11.215 -0.0029  0.2460  0.2371
   80TMC2    O1 1254   1.772   3.973  11.591 -0.7011 -0.3861 -0.2759
   80TMC2    O2 1255   1.957   3.979  11.160 -0.2030 -0.7228  0.1303
   80TMC2    O5 1256   2.183   3.932  11.151  0.2086  0.5158  0.3156
   80TMC2    H5 1257   2.174   3.954  11.056  1.1166  0.1295  0.1354
   81MPD2     C 1258   2.613   3.942  11.761  0.0506 -0.2150  0.0627
   81MPD2    C1 1259   2.486   3.990  11.797  0.1060  0.2768  0.0243
   81MPD2    C2 1260   2.474   4.045  11.921 -0.3100 -0.3692 -1.1424
   81MPD2    C3 1261   2.575   4.051  12.017  0.2559  0.7321  1.8078
   81MPD2    C4 1262   2.699   4.007  11.979 -0.4084 -0.6463 -0.6715
   81MPD2    C5 1263   2.712   3.949  11.854  0.4071  0.1985  0.8217
   81MPD2     H 1264   2.375   4.070  11.958  0.4413 -0.1022  0.6947
   81MPD2    H1 1265   2.792   4.032  12.029 -2.1410  0.0604  2.2005
   81MPD2    H2 1266   2.632   3.883  11.672  1.1909  0.0699  0.1143
   81MPD2    H3 1267   2.815   3.927  11.825 -0.7682 -1.6423 -2.0058
   81MPD2     N 1268   2.564   4.119  12.140 -0.2246 -0.1199  0.2606
   81MPD2    H5 1269   2.637   4.094  12.205  0.5048 -0.0639 -0.5455
   81MPD2    N1 1270   2.367   3.966  11.723  0.1780  0.0685 -0.0841
   81MPD2    H7 1271   2.285   4.015  11.758  0.9919  0.3756  1.3868
   82TMC2    C1 1272   0.821   3.501  10.974  0.4937  0.0685 -0.0402
   82TMC2    C2 1273   0.881   3.444  10.864  0.7853  0.9093 -0.5854
   82TMC2    C3 1274   0.976   3.353  10.899 -0.6529  0.4404 -0.2194
   82TMC2    C4 1275   0.841   3.467  11.107 -0.6959  0.2359 -0.3700
   82TMC2    C5 1276   0.929   3.364  11.127 -0.5114 -0.3020  0.3192
   82TMC2    C6 1277   1.005   3.314  11.027 -0.6407  0.1286  0.0024
   82TMC2     C 1278   0.696   3.574  10.957  0.8441 -0.4189 -1.1735
   82TMC2     O 1279   0.608   3.519  10.890 -0.0257  0.0841 -0.0803
   82TMC2     H 1280   0.839   3.450  10.764  1.3091  0.0311 -0.8631
   82TMC2    H1 1281   0.772   3.507  11.181  0.9532  0.1023  1.2488
   82TMC2    H2 1282   1.073   3.233  11.048  2.5840  2.7838 -0.2051
   82TMC2    C7 1283   0.904   3.273  11.238  0.1761  0.5503  0.8825
   82TMC2    C8 1284   1.073   3.313  10.794  0.2189 -0.2144 -0.6460
   82TMC2    O1 1285   0.788   3.268  11.280 -0.3129 -0.3893 -0.1194
   82TMC2    O2 1286   1.144   3.212  10.796 -0.6373 -0.1550 -0.4365
   82TMC2    O5 1287   1.107   3.432  10.736  0.6734  0.6637  0.1855
   82TMC2    H5 1288   1.058   3.516  10.749 -0.6479  0.2075 -1.8442
   83MPD2     C 1289   0.439   4.016  10.999  0.2863  0.2910  0.5656
   83MPD2    C1 1290   0.398   3.894  10.950  0.5863  0.8432 -0.0995
   83MPD2    C2 1291   0.487   3.789  10.947  0.3190  0.4382 -0.5162
   83MPD2    C3 1292   0.610   3.805  11.011 -0.4547 -0.2786 -0.8256
   83MPD2    C4 1293   0.653   3.922  11.077 -0.2381 -0.4538 -0.5863
   83MPD2    C5 1294   0.563   4.028  11.060  0.2610 -0.1779 -0.0260
   83MPD2     H 1295   0.458   3.704  10.887  0.1588  0.3664 -0.3351
   83MPD2    H1 1296   0.752   3.924  11.123  0.1041  2.6646 -1.4625
   83MPD2    H2 1297   0.374   4.103  10.989 -1.0242 -0.6089  1.2492
   83MPD2    H3 1298   0.592   4.119  11.111 -0.9266  0.9616 -1.3773
   83MPD2     N 1299   0.716   3.705  11.004 -0.6812 -0.6050  0.1475
   83MPD2    H5 1300   0.799   3.723  11.060 -0.8492  0.6982 -0.0078
   83MPD2    N1 1301   0.258   3.894  10.906 -0.0621  0.2195  0.3230
   83MPD2    H7 1302   0.204   3.979  10.896  0.0348  0.3195  0.6807
   84TMC2    C1 1303   2.238   3.261  10.648  0.3968 -0.2905  0.5192
   84TMC2    C2 1304   2.351   3.202  10.602 -0.1241 -0.4247 -0.2054
   84TMC2    C3 1305   2.375   3.209  10.473  0.9744 -0.1184  0.0997
   84TMC2    C4 1306   2.156   3.331  10.561 -0.0958  0.0095 -0.3295
   84TMC2    C5 1307   2.191   3.340  10.431  0.4164 -0.3801 -0.3564
   84TMC2    C6 1308   2.300   3.277  10.384 -0.8386  0.2521 -0.3747
   84TMC2     C 1309   2.202   3.260  10.786  0.4325 -0.4440 -0.7394
   84TMC2     O 1310   2.129   3.344  10.829 -0.9000  0.1584  0.1260
   84TMC2     H 1311   2.422   3.159  10.672 -1.2757 -2.3461 -0.2060
   84TMC2    H1 1312   2.070   3.390  10.591  0.8525  1.4183 -0.3891
   84TMC2    H2 1313   2.331   3.285  10.280 -0.5356  2.0601 -0.1530
   84TMC2    C7 1314   2.119   3.422  10.338 -0.1144  0.1732 -0.1997
   84TMC2    C8 1315   2.499   3.149  10.422 -0.1433  0.2421  0.1611
   84TMC2    O1 1316   2.188   3.453  10.245 -0.9918 -0.8184 -0.1366
   84TMC2    O2 1317   2.540   3.167  10.309  0.1402 -0.6813  0.5152
   84TMC2    O5 1318   2.496   3.026  10.484  0.2295  0.0897  0.9598
   84TMC2    H5 1319   2.427   3.009  10.551  0.7318 -2.2824  0.8772
   85TMC2    C1 1320   2.353   1.217  16.029 -0.2290 -0.1436  0.9609
   85TMC2    C2 1321   2.248   1.294  15.990  0.2782 -0.1813  0.5752
   85TMC2    C3 1322   2.269   1.386  15.897 -0.1761  0.0409 -0.0509
   85TMC2    C4 1323   2.480   1.228  15.969  0.4176  0.5206 -1.0977
   85TMC2    C5 1324   2.505   1.336  15.887 -0.0635 -0.4084 -0.4414
   85TMC2    C6 1325   2.394   1.415  15.847 -0.6343 -0.3932 -0.5076
   85TMC2     C 1326   2.337   1.110  16.125 -0.4710  0.5224  0.5602
   85TMC2     O 1327   2.434   1.093  16.194 -0.1402  0.2031 -0.1315
   85TMC2     H 1328   2.150   1.284  16.035  0.5503 -0.3266  1.1395
   85TMC2    H1 1329   2.554   1.149  15.976 -0.4521 -0.2659 -0.7124
   85TMC2    H2 1330   2.417   1.500  15.785  0.1767 -0.2212  0.0221
   85TMC2    C7 1331   2.604   1.304  15.786 -0.7207  0.2888  0.7091
   85TMC2    C8 1332   2.184   1.497  15.904  0.4869  0.6270 -0.8057
   85TMC2    O1 1333   2.661   1.198  15.795  0.2630 -0.0905  0.0192
   85TMC2    O2 1334   2.062   1.484  15.901  0.2992 -0.1667 -0.1794
   85TMC2    O5 1335   2.247   1.615  15.910 -0.1060 -0.0862  0.5978
   85TMC2    H5 1336   2.335   1.611  15.952  0.1986  0.4745  0.0196
   86MPD2     C 1337   2.207   0.641  16.222  0.1872  0.3340 -0.9072
   86MPD2    C1 1338   2.094   0.696  16.166 -0.3721 -0.2617 -0.7371
   86MPD2    C2 1339   2.097   0.828  16.129  0.1505  0.2202  0.3914
   86MPD2    C3 1340   2.211   0.908  16.161  0.6235  0.2666 -1.1748
   86MPD2    C4 1341   2.313   0.853  16.233  0.4988 -0.0200  0.5275
   86MPD2    C5 1342   2.301   0.726  16.270 -0.2314  0.0720  0.2490
   86MPD2     H 1343   2.009   0.868  16.081  0.6438 -0.1700 -0.8309
   86MPD2    H1 1344   2.408   0.898  16.259  0.8523 -0.9520  0.8546
   86MPD2    H2 1345   2.213   0.534  16.237 -1.4626  0.1159 -1.8009
   86MPD2    H3 1346   2.385   0.688  16.327 -1.8791 -2.5603  0.8887
   86MPD2     N 1347   2.223   1.036  16.104 -0.7563 -1.1807  0.4143
   86MPD2    H5 1348   2.149   1.067  16.042 -0.6785 -1.3248  0.2496
   86MPD2    N1 1349   1.988   0.621  16.110  0.3379  0.1270  0.2476
   86MPD2    H7 1350   1.908   0.660  16.062 -0.3145 -1.5469 -0.0132
   87TMC2    C1 1351   4.517   3.508   0.845  0.2922  0.0292 -0.5401
   87TMC2    C2 1352   4.567   3.426   0.945 -0.5731 -0.1535 -0.2647
   87TMC2    C3 1353   4.568   3.490   1.065  0.2146 -0.6627  0.1811
   87TMC2    C4 1354   4.482   3.642   0.859  0.2816  0.4543  0.5774
   87TMC2    C5 1355   4.487   3.693   0.983 -0.4595 -1.0539  0.5158
   87TMC2    C6 1356   4.536   3.617   1.092  0.1437  0.3040 -1.1479
   87TMC2     C 1357   4.505   3.462   0.705  0.3976 -0.5545 -0.4693
   87TMC2     O 1358   4.436   3.525   0.624 -0.0891 -0.3667  0.2107
   87TMC2     H 1359   4.600   3.323   0.938  1.2174  0.4256 -0.3559
   87TMC2    H1 1360   4.443   3.691   0.770  0.4161 -1.9212 -0.7927
   87TMC2    H2 1361   4.579   3.661   1.181  0.5902  1.9240 -2.1477
   87TMC2    C7 1362   4.452   3.830   1.004  0.0897  0.0005 -0.4555
   87TMC2    C8 1363   4.658   3.415   1.159  0.6080  0.1563  0.7701
   87TMC2    O1 1364   4.427   3.895   0.900  0.7477 -0.6615 -0.1713
   87TMC2    O2 1365   4.735   3.319   1.142 -0.4215 -0.4888 -0.1359
   87TMC2    O5 1366   4.612   3.447   1.278  0.4068 -0.3722  0.4747
   87TMC2    H5 1367   4.526   3.495   1.275  0.2230 -0.7361 -0.0764
   88MPD2     C 1368   4.389   4.000   1.327  0.1704  0.3687  0.3556
   88MPD2    C1 1369   4.415   3.993   1.196  0.2557  0.5073 -0.5645
   88MPD2    C2 1370   4.447   4.106   1.128  0.1083  0.6659  0.6800
   88MPD2    C3 1371   4.423   4.227   1.185  0.5300 -0.1394 -0.0511
   88MPD2    C4 1372   4.396   4.236   1.323 -0.6582 -0.0727 -0.1290
   88MPD2    C5 1373   4.377   4.120   1.396 -0.3919 -0.3895 -0.0303
   88MPD2     H 1374   4.492   4.093   1.030 -1.7601 -1.4580  0.0839
   88MPD2    H1 1375   4.376   4.331   1.372  0.8657 -0.4658  1.2641
   88MPD2    H2 1376   4.377   3.911   1.387 -2.8387  0.5458 -0.0161
   88MPD2    H3 1377   4.355   4.113   1.502 -0.2227  0.5664  0.0674
   88MPD2     N 1378   4.443   4.349   1.123 -0.4314  0.1365  0.3018
   88MPD2    H5 1379   4.442   4.427   1.188  1.0461 -0.5926  1.1742
   88MPD2    N1 1380   4.443   3.866   1.141 -0.4369  0.5416 -0.0058
   88MPD2    H7 1381   4.444   3.782   1.196  2.6875  0.6276  0.1094
   89TMC2    C1 1382   0.790   2.020   0.883 -0.5713  0.6607 -0.3204
   89TMC2    C2 1383   0.842   2.063   0.765  0.2329 -0.3706  0.8479
   89TMC2    C3 1384   0.848   2.200   0.735  0.1493  0.1414  0.0177
   89TMC2    C4 1385   0.733   2.106   0.969 -0.4111 -0.0331  0.5524
   89TMC2    C5 1386   0.761   2.239   0.949  0.8154  0.2061 -0.6446
   89TMC2    C6 1387   0.803   2.285   0.827 -0.3190 -0.2128  0.1589
   89TMC2     C 1388   0.787   1.875   0.908 -0.2446  0.5033  0.6762
   89TMC2     O 1389   0.872   1.806   0.850  0.0636 -0.0094  0.2917
   89TMC2     H 1390   0.871   1.992   0.689 -0.7655 -2.5681  2.5412
   89TMC2    H1 1391   0.740   2.074   1.072 -1.3859 -0.5360  0.4592
   89TMC2    H2 1392   0.812   2.390   0.801 -0.1782 -0.6139 -1.4247
   89TMC2    C7 1393   0.726   2.331   1.057  0.0118 -0.0170 -0.1234
   89TMC2    C8 1394   0.898   2.252   0.608  0.0050  0.5762  0.0296
   89TMC2    O1 1395   0.645   2.292   1.140 -0.4087 -0.0769 -0.2617
   89TMC2    O2 1396   0.863   2.360   0.568  0.2192 -0.0894  0.1737
   89TMC2    O5 1397   1.030   2.213   0.615  0.3453 -0.6231 -0.2444
   89TMC2    H5 1398   1.052   2.128   0.660 -0.3852 -0.3814  0.5690
   90MPD2     C 1399   0.594   1.432   1.082  0.7632  0.0384  0.0821
   90MPD2    C1 1400   0.515   1.538   1.125  0.0848 -0.3262  0.1917
   90MPD2    C2 1401   0.554   1.665   1.096  0.3219 -0.2712  0.4779
   90MPD2    C3 1402   0.665   1.692   1.022 -0.1656  0.2501  0.3688
   90MPD2    C4 1403   0.753   1.584   0.988  0.0810 -0.3726  0.2627
   90MPD2    C5 1404   0.712   1.454   1.011  0.4615  0.2733 -0.8228
   90MPD2     H 1405   0.497   1.752   1.126  1.5275  0.2211  1.3582
   90MPD2    H1 1406   0.854   1.598   0.951  0.2672  0.4187  1.1025
   90MPD2    H2 1407   0.570   1.332   1.115  0.1161  0.1480 -0.0710
   90MPD2    H3 1408   0.779   1.369   1.010  0.0786 -0.0414  0.7718
   90MPD2     N 1409   0.690   1.835   0.998 -0.5198 -0.5772  0.4378
   90MPD2    H5 1410   0.621   1.903   1.027  1.3946  0.1851  3.2216
   90MPD2    N1 1411   0.394   1.522   1.192 -0.3975  0.1065 -0.0563
   90MPD2    H7 1412   0.356   1.609   1.227  2.5981  0.3860  2.3805
   91TMC2    C1 1413   2.223   1.491  16.761 -0.0858 -0.2721 -0.7294
   91TMC2    C2 1414   2.293   1.519  16.646 -0.6427  0.3312  0.2229
   91TMC2    C3 1415   2.227   1.520  16.526  0.1241 -0.1389 -0.4286
   91TMC2    C4 1416   2.094   1.456  16.753  0.2319  0.4968 -0.4168
   91TMC2    C5 1417   2.026   1.481  16.634 -0.3745  0.0651 -0.3673
   91TMC2    C6 1418   2.088   1.513  16.517  0.7495  1.0602  0.2200
   91TMC2     C 1419   2.237   1.605  16.847  1.0442 -0.2206  0.5421
   91TMC2     O 1420   2.136   1.660  16.879  0.4876 -0.4605  0.1716
   91TMC2     H 1421   2.401   1.532  16.644 -0.8770  2.3804  1.0025
   91TMC2    H1 1422   2.042   1.433  16.846 -2.2986  0.0945 -1.9399
   91TMC2    H2 1423   2.032   1.513  16.424  0.3024  0.2016  0.4874
   91TMC2    C7 1424   1.896   1.442  16.638 -1.2765  0.1445  0.2895
   91TMC2    C8 1425   2.306   1.575  16.418  0.6407 -0.0534 -0.1536
   91TMC2    O1 1426   1.870   1.350  16.717 -0.3554  0.1287  0.2265
   91TMC2    O2 1427   2.407   1.648  16.426 -0.3270 -0.3379  0.5088
   91TMC2    O5 1428   2.267   1.514  16.312 -0.7625 -0.3849  0.1394
   91TMC2    H5 1429   2.208   1.441  16.341 -1.2714 -1.1329 -2.7745
   92MPD2     C 1430   2.325   1.856  16.982  0.2793  0.1354  0.3832
   92MPD2    C1 1431   2.407   1.759  16.932  0.6020 -0.4024 -0.2050
   92MPD2    C2 1432   2.546   1.778  16.926 -0.4693  0.3906  0.2866
   92MPD2    C3 1433   2.604   1.895  16.968  0.5497 -0.2574  0.6239
   92MPD2    C4 1434   2.519   1.996  17.004 -0.4179  0.0039  0.0888
   92MPD2    C5 1435   2.387   1.976  17.012 -0.0289 -0.5741  0.2727
   92MPD2     H 1436   2.606   1.696  16.888  0.3078  0.9141  0.3755
   92MPD2    H1 1437   2.568   2.088  17.033 -0.3889 -1.1226  3.5848
   92MPD2    H2 1438   2.217   1.854  16.980  0.2982 -2.4537  1.9402
   92MPD2    H3 1439   2.329   2.060  17.048  0.1152 -0.4366  0.1808
   92MPD2     N 1440   2.742   1.924  16.965 -0.3101  0.2433 -0.6539
   92MPD2    H5 1441   2.781   2.018  16.967  1.6742 -0.5574 -1.5131
   92MPD2    N1 1442   2.364   1.641  16.874  0.4177 -0.3301 -0.4229
   92MPD2    H7 1443   2.433   1.575  16.840  0.0480  0.2478 -2.2791
   93TMC2    C1 1444   4.129   1.683  13.455 -0.6027  0.0321 -0.0169
   93TMC2    C2 1445   4.111   1.713  13.590 -0.1200  0.3847 -0.2828
   93TMC2    C3 1446   4.220   1.774  13.661  0.2200  1.0583  0.7526
   93TMC2    C4 1447   4.247   1.695  13.388 -0.5217  0.1876 -0.3947
   93TMC2    C5 1448   4.351   1.748  13.458 -0.5714  0.5044 -0.0580
   93TMC2    C6 1449   4.338   1.787  13.592  0.3486  0.5961 -0.0565
   93TMC2     C 1450   4.024   1.635  13.371 -0.4956  0.1439 -0.2052
   93TMC2     O 1451   4.064   1.566  13.278  0.5961  0.3278  0.0383
   93TMC2     H 1452   4.014   1.695  13.635  0.6937 -1.3574  0.7573
   93TMC2    H1 1453   4.254   1.660  13.285  1.2877  1.8370 -0.8326
   93TMC2    H2 1454   4.425   1.832  13.639  2.6357 -2.3727 -1.4662
   93TMC2    C7 1455   4.475   1.767  13.392 -0.0050 -0.4292 -0.1013
   93TMC2    C8 1456   4.214   1.787  13.802  0.4964 -0.4825  0.2343
   93TMC2    O1 1457   4.475   1.754  13.270 -0.5107  0.2181 -0.5039
   93TMC2    O2 1458   4.112   1.801  13.870  0.2105  0.4947 -0.1268
   93TMC2    O5 1459   4.310   1.716  13.848  0.4837  0.4025 -0.1820
   93TMC2    H5 1460   4.388   1.711  13.788 -1.9808 -1.6093 -3.2153
   94MPD2     C 1461   3.766   1.568  13.238  0.3070  0.4588 -0.5429
   94MPD2    C1 1462   3.777   1.626  13.366 -0.4655 -0.0478  0.3054
   94MPD2    C2 1463   3.664   1.675  13.426 -0.3215  0.6929  0.5973
   94MPD2    C3 1464   3.539   1.648  13.368 -0.2954 -0.8446 -0.0809
   94MPD2    C4 1465   3.524   1.581  13.248 -0.0650 -0.6001  0.3119
   94MPD2    C5 1466   3.642   1.546  13.182 -1.2276 -0.0276 -0.1371
   94MPD2     H 1467   3.672   1.715  13.527  0.4801 -0.3008  0.9208
   94MPD2    H1 1468   3.426   1.564  13.205  0.3107  0.9710 -1.1617
   94MPD2    H2 1469   3.844   1.533  13.171 -0.0492  0.1456 -0.7933
   94MPD2    H3 1470   3.633   1.491  13.090 -0.1775  1.2408 -1.0060
   94MPD2     N 1471   3.414   1.703  13.419 -0.5897  0.1061 -0.6484
   94MPD2    H5 1472   3.330   1.692  13.363 -1.1529 -2.4184  0.7110
   94MPD2    N1 1473   3.901   1.658  13.423 -0.0268  0.4004  0.5945
   94MPD2    H7 1474   3.893   1.716  13.506 -0.7634  0.7103  0.2998
   95TMC2    C1 1475   3.849   3.540  16.210 -0.0339  0.0888 -1.1604
   95TMC2    C2 1476   3.796   3.423  16.265  0.0025 -0.2351  0.3739
   95TMC2    C3 1477   3.719   3.441  16.376  0.0851  0.5222 -0.0273
   95TMC2    C4 1478   3.836   3.666  16.259  0.2327  0.0517  0.9387
   95TMC2    C5 1479   3.755   3.671  16.368  0.4343 -0.2984  0.2515
   95TMC2    C6 1480   3.711   3.563  16.438 -0.0704  0.0577 -0.7473
   95TMC2     C 1481   3.907   3.530  16.080 -0.0418  0.2258 -0.7645
   95TMC2     O 1482   3.987   3.621  16.055  0.4737  0.1829 -0.4392
   95TMC2     H 1483   3.801   3.323  16.223 -1.1267  0.1200 -0.6140
   95TMC2    H1 1484   3.870   3.750  16.200  1.3174 -1.1755 -0.1912
   95TMC2    H2 1485   3.661   3.581  16.532  0.6832 -1.5906 -0.0242
   95TMC2    C7 1486   3.765   3.795  16.453 -0.4866 -0.2881  0.2325
   95TMC2    C8 1487   3.671   3.328  16.447 -0.2732  0.3847 -0.8211
   95TMC2    O1 1488   3.743   3.778  16.568  0.3388  0.0478 -0.3854
   95TMC2    O2 1489   3.624   3.224  16.396 -0.2309 -0.0458 -0.3947
   95TMC2    O5 1490   3.674   3.348  16.585  0.0667  0.5688  0.1096
   95TMC2    H5 1491   3.730   3.422  16.617 -0.4398  0.0469  2.2077
   96MPD2     C 1492   3.957   3.379  15.593  0.0368  0.7180 -0.1845
   96MPD2    C1 1493   4.032   3.477  15.663 -0.3657 -0.0520 -0.8517
   96MPD2    C2 1494   4.001   3.485  15.798 -0.1312  0.2676  0.0617
   96MPD2    C3 1495   3.903   3.407  15.859 -0.4379  0.7641  0.5301
   96MPD2    C4 1496   3.847   3.308  15.792 -0.1629 -1.1666  0.2450
   96MPD2    C5 1497   3.867   3.298  15.657 -0.4813 -0.9248 -0.0379
   96MPD2     H 1498   4.058   3.546  15.866  0.3783 -0.1408  0.0067
   96MPD2    H1 1499   3.786   3.231  15.837 -0.4516 -0.0764  1.6914
   96MPD2    H2 1500   3.974   3.357  15.489  0.4688  0.6667 -0.1024
   96MPD2    H3 1501   3.799   3.230  15.606  0.5398 -1.1294 -1.1446
   96MPD2     N 1502   3.864   3.429  15.994  0.1191 -0.7341 -0.4337
   96MPD2    H5 1503   3.797   3.364  16.036 -0.3623  1.4683  2.2294
   96MPD2    N1 1504   4.133   3.536  15.598 -0.3869  0.2803 -0.1527
   96MPD2    H7 1505   4.146   3.513  15.500 -0.4360  0.7777 -0.2766
   97TMC2    C1 1506   1.531   1.777   0.242  0.0199  0.0631 -0.8427
   97TMC2    C2 1507   1.422   1.803   0.163  0.1772  0.2589 -0.1011
   97TMC2    C3 1508   1.382   1.927   0.131  0.5928  0.5971  0.0904
   97TMC2    C4 1509   1.612   1.880   0.284 -0.3351 -0.4467  0.2723
   97TMC2    C5 1510   1.574   2.008   0.258  0.5790 -1.0284  0.9402
   97TMC2    C6 1511   1.452   2.027   0.187  0.2557 -0.0012  0.0222
   97TMC2     C 1512   1.554   1.638   0.288 -0.4291 -1.0581 -0.5347
   97TMC2     O 1513   1.477   1.555   0.246  0.4022 -0.0284 -0.2677
   97TMC2     H 1514   1.357   1.719   0.141  1.4933 -0.3913 -1.4864
   97TMC2    H1 1515   1.711   1.867   0.328 -0.2292 -1.1867 -0.1943
   97TMC2    H2 1516   1.423   2.122   0.144  1.6081  0.8311  0.9453
   97TMC2    C7 1517   1.656   2.122   0.287  0.0623  0.2702  0.8999
   97TMC2    C8 1518   1.270   1.962   0.059 -0.3897 -1.2249 -0.7297
   97TMC2    O1 1519   1.772   2.102   0.308  0.7256 -0.0675 -0.7584
   97TMC2    O2 1520   1.219   2.074   0.043 -0.8518 -0.8808  0.2415
   97TMC2    O5 1521   1.237   1.859  17.734  0.2217  0.2886  0.4246
   97TMC2    H5 1522   1.294   1.779  17.737  0.9333  0.6596 -3.6002
   98MPD2     C 1523   1.664   1.286   0.663 -0.7783 -0.6642  0.2043
   98MPD2    C1 1524   1.572   1.288   0.558  0.1207  0.0652  0.3424
   98MPD2    C2 1525   1.562   1.399   0.470 -0.8796 -0.2251  0.6665
   98MPD2    C3 1526   1.648   1.510   0.482 -0.4454 -0.0668  0.0275
   98MPD2    C4 1527   1.750   1.492   0.577 -0.7664  0.2104  0.0351
   98MPD2    C5 1528   1.747   1.395   0.677 -0.3703 -0.5042  0.7556
   98MPD2     H 1529   1.489   1.388   0.391 -0.5346  0.2728  0.2771
   98MPD2    H1 1530   1.834   1.560   0.586 -0.0448 -0.7945  0.8993
   98MPD2    H2 1531   1.678   1.194   0.718 -0.3814 -1.3218 -0.9992
   98MPD2    H3 1532   1.834   1.390   0.742  0.3811 -1.1052 -0.2912
   98MPD2     N 1533   1.647   1.624   0.391  0.1621 -0.0362  0.0725
   98MPD2    H5 1534   1.719   1.695   0.405 -0.5150  0.7136 -0.2557
   98MPD2    N1 1535   1.478   1.177   0.546  0.0845 -0.2693 -1.1090
   98MPD2    H7 1536   1.424   1.175   0.460 -1.0341 -0.0763 -0.4077
   99TMC2    C1 1537   4.711   2.382   1.961  0.6902  0.5363  0.1627
   99TMC2    C2 1538   4.728   2.375   2.092  0.1706 -0.9423 -0.2490
   99TMC2    C3 1539   4.635   2.309   2.170  0.0965  0.5563  0.1187
   99TMC2    C4 1540   4.615   2.310   1.894 -0.3022 -0.2742 -0.4244
   99TMC2    C5 1541   4.519   2.239   1.970 -0.3696  0.0695  0.3878
   99TMC2    C6 1542   4.534   2.233   2.112 -0.0359 -0.1295  0.2927
   99TMC2     C 1543   0.087   2.439   1.892  0.7071 -0.0066  0.3947
   99TMC2     O 1544   0.190   2.476   1.947 -0.2805 -0.2725  0.9742
   99TMC2     H 1545   0.077   2.418   2.136 -0.9280 -0.2549  1.3230
   99TMC2    H1 1546   4.619   2.305   1.785 -0.8998  0.9232 -0.5004
   99TMC2    H2 1547   4.460   2.186   2.176  0.1192  0.9284  1.2396
   99TMC2    C7 1548   4.418   2.166   1.903  0.5626  0.4770  0.2107
   99TMC2    C8 1549   4.651   2.311   2.313  0.3904  0.0072 -0.5336
   99TMC2    O1 1550   4.362   2.074   1.970 -0.4705  0.4122 -0.3395
   99TMC2    O2 1551   4.586   2.236   2.385  0.0948 -0.3087  0.0139
   99TMC2    O5 1552   4.673   2.443   2.340  0.1993 -0.1296 -0.4126
   99TMC2    H5 1553   4.728   2.485   2.271 -0.8960 -0.7083 -1.6285
  100MPD2     C 1554   0.305   2.512   1.686  0.1239 -0.4431  0.3299
  100MPD2    C1 1555   0.167   2.488   1.661  0.0598  0.2978  0.6700
  100MPD2    C2 1556   0.119   2.510   1.532  0.1622 -0.4853 -0.1572
  100MPD2    C3 1557   0.201   2.505   1.422 -0.5562  0.0061 -0.1166
  100MPD2    C4 1558   0.335   2.525   1.447 -0.4740  0.8785 -0.2362
  100MPD2    C5 1559   0.381   2.537   1.578 -0.2335 -0.3335  0.0813
  100MPD2     H 1560   0.015   2.492   1.508  0.4972 -2.7101  0.0614
  100MPD2    H1 1561   0.399   2.521   1.359  0.6683  0.8096  0.5993
  100MPD2    H2 1562   0.355   2.515   1.782  1.0375  0.9177 -0.1945
  100MPD2    H3 1563   0.484   2.569   1.593 -0.9269  1.7655  0.4616
  100MPD2     N 1564   0.144   2.494   1.290 -0.3974 -0.9937  0.4330
  100MPD2    H5 1565   0.043   2.488   1.287 -0.5720  1.9678  0.2064
  100MPD2    N1 1566   0.064   2.444   1.754  0.0584  0.7847  0.8381
  100MPD2    H7 1567   4.710   2.418   1.726  0.8156  1.3580 -2.2939
  101TMC2    C1 1568   1.109   4.432  12.868 -0.1540  0.1919  0.6086
  101TMC2    C2 1569   0.996   4.497  12.822  0.5289  0.2578 -0.4745
  101TMC2    C3 1570   1.005   4.600  12.735 -0.1339 -0.7229 -0.1721
  101TMC2    C4 1571   1.232   4.462  12.818  0.4976 -0.6648  0.1473
  101TMC2    C5 1572   1.235   4.568  12.726  0.5877 -0.2341  0.6798
  101TMC2    C6 1573   1.127   4.644  12.689  0.3236 -0.2987  0.0157
  101TMC2     C 1574   1.087   4.311  12.943 -0.4135  0.6947 -0.0098
  101TMC2     O 1575   0.977   4.294  12.994 -0.3858  0.3457  0.5260
  101TMC2     H 1576   0.899   4.476  12.866  0.8120 -0.2170 -0.0854
  101TMC2    H1 1577   1.327   4.412  12.835  0.6155 -1.9022 -4.2620
  101TMC2    H2 1578   1.125   4.731  12.625 -0.9265 -0.6151 -0.3955
  101TMC2    C7 1579   1.366   4.621  12.709 -0.0145  1.1023  1.0348
  101TMC2    C8 1580   0.887   4.678  12.698 -0.4428  0.1317 -0.0548
  101TMC2    O1 1581   1.388   4.697  12.614  0.0203  0.0540 -0.8254
  101TMC2    O2 1582   0.899   0.053  12.658  0.1046 -0.6815 -0.6156
  101TMC2    O5 1583   0.780   4.601  12.686 -0.2076  0.3894 -0.0761
  101TMC2    H5 1584   0.792   4.507  12.710 -0.8649  0.3171 -0.0480
  102MPD2     C 1585   1.274   3.994  12.918  0.3068  0.1288  0.5943
  102MPD2    C1 1586   1.187   4.086  12.961  0.1295 -0.3800 -0.1677
  102MPD2    C2 1587   1.092   4.046  13.053  0.8234  0.1227  0.2873
  102MPD2    C3 1588   1.078   3.909  13.081 -0.3110 -0.1798 -0.2454
  102MPD2    C4 1589   1.168   3.816  13.030 -0.9815 -0.0899  0.1698
  102MPD2    C5 1590   1.267   3.865  12.957  0.2385 -0.5899  0.1126
  102MPD2     H 1591   1.027   4.115  13.105  0.3671 -0.6261  0.7269
  102MPD2    H1 1592   1.166   3.711  13.054  0.2507  0.1803  1.5040
  102MPD2    H2 1593   1.358   4.018  12.854 -0.3874  2.5935  0.6255
  102MPD2    H3 1594   1.352   3.803  12.932  0.7780  0.2112 -0.0526
  102MPD2     N 1595   0.975   3.883  13.175  0.6037  0.3000  0.1563
  102MPD2    H5 1596   0.919   3.962  13.207 -0.0241  0.3569 -1.0952
  102MPD2    N1 1597   1.186   4.219  12.917 -0.1012  0.2952  0.1217
  102MPD2    H7 1598   1.265   4.242  12.857  1.0424  0.2416  1.6138
  103TMC2    C1 1599   3.885   4.335  12.629 -0.3983 -0.2377  0.9431
  103TMC2    C2 1600   3.974   4.429  12.582  0.1898 -0.1129  0.2023
  103TMC2    C3 1601   3.980   4.556  12.639 -0.2374  0.0607  0.0659
  103TMC2    C4 1602   3.819   4.360  12.746 -0.5060  0.2421 -0.5174
  103TMC2    C5 1603   3.832   4.485  12.797 -0.4700  0.0890 -0.3838
  103TMC2    C6 1604   3.915   4.589  12.752 -0.4125 -0.2026 -0.1563
  103TMC2     C 1605   3.855   4.210  12.565  0.7565 -0.3600 -0.4304
  103TMC2     O 1606   3.896   4.202  12.447  0.6299  0.0204  0.1071
  103TMC2     H 1607   4.043   4.404  12.502 -0.3812  1.4785 -0.7891
  103TMC2    H1 1608   3.729   4.309  12.778  0.6173  0.2425  2.6822
  103TMC2    H2 1609   3.939   4.677  12.810  0.3994 -0.8726  0.5274
  103TMC2    C7 1610   3.745   4.511  12.914 -0.2616 -0.4132  0.0397
  103TMC2    C8 1611   4.084   4.639  12.591  0.2513 -0.0248  0.4549
  103TMC2    O1 1612   3.723   4.423  12.994 -0.0032  0.1116  0.4891
  103TMC2    O2 1613   4.136   4.722  12.661  0.0069 -0.5529 -0.1628
  103TMC2    O5 1614   4.105   4.618  12.464  0.1753  0.8006  0.4969
  103TMC2    H5 1615   4.026   4.585  12.417  0.3520 -1.2326  1.6279
  104MPD2     C 1616   3.726   3.917  12.736 -0.5326 -1.0207 -0.7355
  104MPD2    C1 1617   3.758   3.993  12.625  0.7014  0.5016 -0.0260
  104MPD2    C2 1618   3.743   3.949  12.494 -0.7407 -0.8307  0.3857
  104MPD2    C3 1619   3.686   3.827  12.475 -0.3351 -0.0103  0.2278
  104MPD2    C4 1620   3.660   3.751  12.582 -0.4268  0.4500 -0.4448
  104MPD2    C5 1621   3.673   3.795  12.712  0.5261 -0.9026 -0.4637
  104MPD2     H 1622   3.786   4.001  12.409  1.8668 -0.2711  2.0436
  104MPD2    H1 1623   3.636   3.646  12.566  0.2203  0.0456  1.2880
  104MPD2    H2 1624   3.722   3.956  12.837  1.7079 -2.0281 -0.2620
  104MPD2    H3 1625   3.635   3.743  12.798  1.3849 -0.1563  0.3682
  104MPD2     N 1626   3.642   3.808  12.347  0.5885  0.0370 -0.1759
  104MPD2    H5 1627   3.663   3.873  12.272 -0.9693  0.5910 -0.1263
  104MPD2    N1 1628   3.805   4.119  12.656  0.4080  0.1092 -0.3442
  104MPD2    H7 1629   3.812   4.146  12.754  0.4901  2.2542 -0.9470
  105TMC2    C1 1630   0.133   3.365  17.639  0.2323  0.2933 -0.2378
  105TMC2    C2 1631   0.124   3.502  17.668  0.0864 -0.0532  0.2725
  105TMC2    C3 1632   0.016   3.548  17.730 -0.3515 -0.3912 -0.7826
  105TMC2    C4 1633   0.037   3.277  17.677  0.3167 -0.0957  0.0664
  105TMC2    C5 1634   4.670   3.325  17.743  0.1033 -0.7877 -0.6150
  105TMC2    C6 1635   4.656   3.460   0.011  0.1140 -0.0108 -0.6909
  105TMC2     C 1636   0.238   3.312  17.555 -0.1508 -0.1573  0.5045
  105TMC2     O 1637   0.261   3.191  17.563  0.3422 -0.2995 -0.1994
  105TMC2     H 1638   0.199   3.576  17.641 -0.1480 -0.4444 -1.4351
  105TMC2    H1 1639   0.045   3.176  17.638  1.2594  0.3484 -0.8908
  105TMC2    H2 1640   4.575   3.503   0.068  0.0222 -0.3502 -0.5620
  105TMC2    C7 1641   4.615   3.235   0.077 -0.4555 -0.0872 -0.0534
  105TMC2    C8 1642   0.003   3.690  17.745  0.0888  0.2562  0.0111
  105TMC2    O1 1643   4.628   3.119   0.047  0.2424 -0.3003  0.3933
  105TMC2    O2 1644   4.634   3.746   0.000  0.9148  0.2763  0.1727
  105TMC2    O5 1645   0.114   3.741   0.045  0.2196 -0.2131 -0.2824
  105TMC2    H5 1646   0.183   3.672   0.056  1.2368  0.2899 -3.6087
  106MPD2     C 1647   0.684   3.409  17.323 -0.1844  0.8929  0.0709
  106MPD2    C1 1648   0.604   3.519  17.309 -0.6632  0.0660  0.0614
  106MPD2    C2 1649   0.483   3.521  17.377 -0.1101  0.9140  0.3960
  106MPD2    C3 1650   0.441   3.407  17.435 -0.1077 -0.4819  0.7786
  106MPD2    C4 1651   0.509   3.290  17.436 -0.7470 -0.3813  0.3912
  106MPD2    C5 1652   0.641   3.298  17.394  0.0621  0.1960  0.6506
  106MPD2     H 1653   0.423   3.611  17.372  1.2840  1.8383  0.1291
  106MPD2    H1 1654   0.475   3.193  17.472  0.3884  0.0407  2.6288
  106MPD2    H2 1655   0.785   3.404  17.282 -0.8665  1.7642 -1.7309
  106MPD2    H3 1656   0.714   3.218  17.402  0.1026 -0.0379 -2.1400
  106MPD2     N 1657   0.313   3.418  17.505  0.6319  0.1966 -0.2542
  106MPD2    H5 1658   0.268   3.509  17.506  0.9261  0.3208  1.7634
  106MPD2    N1 1659   0.637   3.639  17.238 -0.2874  0.5039 -0.4671
  106MPD2    H7 1660   0.570   3.714  17.252  3.0235  3.0671  1.8413
  107TMC2    C1 1661   1.690   3.162  11.611  0.3320  1.0062  0.6977
  107TMC2    C2 1662   1.585   3.144  11.523 -0.0389 -0.0493  0.4931
  107TMC2    C3 1663   1.614   3.148  11.393  0.6811 -0.4969 -0.0744
  107TMC2    C4 1664   1.816   3.197  11.572 -0.1474 -0.3007  0.5967
  107TMC2    C5 1665   1.834   3.203  11.434 -0.2253  0.7011 -0.5214
  107TMC2    C6 1666   1.736   3.177  11.345  0.4056  0.4889  0.3203
  107TMC2     C 1667   1.662   3.157  11.754 -0.8623  0.0891  0.7208
  107TMC2     O 1668   1.545   3.156  11.788 -0.1575  0.3063 -0.5064
  107TMC2     H 1669   1.484   3.119  11.554 -0.3002 -0.7890 -0.9791
  107TMC2    H1 1670   1.902   3.212  11.635  0.3959  1.2836 -0.5332
  107TMC2    H2 1671   1.741   3.195  11.238  0.3549 -1.7074 -0.0596
  107TMC2    C7 1672   1.962   3.154  11.395 -0.2982  0.3544  0.1303
  107TMC2    C8 1673   1.513   3.117  11.290 -0.1314 -0.1690 -0.0171
  107TMC2    O1 1674   2.032   3.098  11.481  0.6855 -0.1693  0.0031
  107TMC2    O2 1675   1.512   3.162  11.177 -0.1450  0.1057 -0.5102
  107TMC2    O5 1676   1.448   3.008  11.330 -0.0601  0.4302  0.4520
  107TMC2    H5 1677   1.461   2.972  11.420 -0.7791  1.0790  0.8189
  108MPD2     C 1678   1.895   3.169  12.037  0.2407 -0.2518 -0.7588
  108MPD2    C1 1679   1.771   3.165  11.974  0.1432 -0.7228  0.2995
  108MPD2    C2 1680   1.658   3.154  12.053  0.0299 -0.2309  0.1435
  108MPD2    C3 1681   1.671   3.119  12.188  0.8394 -0.0410  0.6438
  108MPD2    C4 1682   1.794   3.101  12.240  0.0527  0.5968  0.2270
  108MPD2    C5 1683   1.904   3.130  12.167 -0.0364 -0.1974  0.4135
  108MPD2     H 1684   1.563   3.157  12.000  0.6554 -1.4036 -1.0523
  108MPD2    H1 1685   1.818   3.054  12.335  0.3713  1.8477  0.7682
  108MPD2    H2 1686   1.984   3.183  11.977 -0.8537  1.8965 -1.8672
  108MPD2    H3 1687   2.001   3.114  12.213 -1.2123  1.1535  3.3181
  108MPD2     N 1688   1.563   3.084  12.276  0.2559 -0.3484 -0.2459
  108MPD2    H5 1689   1.585   3.048  12.368 -0.5755 -0.9045 -0.2682
  108MPD2    N1 1690   1.767   3.179  11.834  0.1588 -0.7616 -0.1417
  108MPD2    H7 1691   1.859   3.196  11.795  1.1427  0.2365  2.6232
  109TMC2    C1 1692   0.844   0.341  17.452 -0.2829  0.0610 -0.3337
  109TMC2    C2 1693   0.859   0.362  17.319 -0.8813  0.1536 -0.5179
  109TMC2    C3 1694   0.917   0.479  17.280  1.1618 -0.2712  0.1103
  109TMC2    C4 1695   0.888   0.438  17.546 -0.0109  0.5292  0.6578
  109TMC2    C5 1696   0.951   0.550  17.497  0.5306  0.0552 -0.5160
  109TMC2    C6 1697   0.953   0.578  17.362 -0.9675 -0.3890  0.0794
  109TMC2     C 1698   0.794   0.211  17.485  0.3734 -0.0026 -0.4518
  109TMC2     O 1699   0.729   0.147  17.398  0.1035 -0.6011  0.3647
  109TMC2     H 1700   0.808   0.300  17.247  1.1433 -0.7504 -1.1776
  109TMC2    H1 1701   0.882   0.428  17.654  2.0867 -3.1189  0.4510
  109TMC2    H2 1702   0.991   0.670  17.319  0.5701 -0.9505  0.2103
  109TMC2    C7 1703   1.033   0.620  17.588  0.4998 -0.5211 -0.2165
  109TMC2    C8 1704   0.969   0.489  17.144  0.0215 -0.8791  0.0707
  109TMC2    O1 1705   1.001   0.611  17.705  0.2556 -0.3322  0.1577
  109TMC2    O2 1706   1.080   0.536  17.139 -0.3079 -0.8337 -0.3687
  109TMC2    O5 1707   0.929   0.388  17.064 -0.6698 -0.4360 -0.1174
  109TMC2    H5 1708   0.842   0.349  17.087 -1.7232  1.9565 -0.0557
  110MPD2     C 1709   0.639   4.601   0.078 -0.1269  0.7595 -0.0631
  110MPD2    C1 1710   0.690   4.712   0.139 -0.2152  0.5996  0.0005
  110MPD2    C2 1711   0.745   0.072   0.060  0.0899 -0.0534 -0.6664
  110MPD2    C3 1712   0.766   0.064  17.682  0.3814  0.4304  0.7904
  110MPD2    C4 1713   0.723   4.690  17.627  0.2808  0.4507 -0.6700
  110MPD2    C5 1714   0.660   4.593  17.699 -0.0913  0.6359  0.0652
  110MPD2     H 1715   0.778   0.163   0.110  1.9534 -0.8754 -0.4000
  110MPD2    H1 1716   0.754   4.677  17.524 -0.9390 -0.0592 -0.9698
  110MPD2    H2 1717   0.590   4.520   0.130  0.2104  0.6154  0.0290
  110MPD2    H3 1718   0.625   4.508  17.642  1.3939 -0.3645  0.6582
  110MPD2     N 1719   0.823   0.174  17.613  0.3200 -0.2412 -0.4838
  110MPD2    H5 1720   0.881   0.235  17.669 -0.4197  0.3477 -0.3582
  110MPD2    N1 1721   0.685   4.715   0.277 -0.2081 -0.0516  0.3017
  110MPD2    H7 1722   0.653   4.629   0.320 -1.9897 -0.4699 -1.8636
  111TMC2    C1 1723   1.057   0.092  11.656 -0.0225  0.5087 -0.9299
  111TMC2    C2 1724   0.974   0.019  11.733 -0.5513  0.3584 -0.1709
  111TMC2    C3 1725   1.022   4.647  11.801 -0.5551  0.2858  0.4022
  111TMC2    C4 1726   1.184   0.050  11.625  0.0277 -0.3103  0.9966
  111TMC2    C5 1727   1.236   4.686  11.694  0.0247  0.3116 -0.7991
  111TMC2    C6 1728   1.152   4.607  11.781  0.3813 -0.0948  0.0432
  111TMC2     C 1729   1.024   0.210  11.592 -0.3422  0.0221 -0.1735
  111TMC2     O 1730   1.091   0.251  11.495 -0.2811  0.2559  0.5366
  111TMC2     H 1731   0.869   0.043  11.745 -0.6695  0.6523 -1.7722
  111TMC2    H1 1732   1.256   0.114  11.575 -0.1748 -0.5021  0.4537
  111TMC2    H2 1733   1.191   4.526  11.842  1.8009  0.1579 -0.5334
  111TMC2    C7 1734   1.371   4.698  11.747 -0.8485  0.7480 -0.8433
  111TMC2    C8 1735   0.934   4.596  11.907 -0.1264  0.5482 -0.0272
  111TMC2    O1 1736   1.374   4.668  11.865  0.2437 -0.3874  0.0528
  111TMC2    O2 1737   0.846   4.659  11.961 -0.4819 -0.3734 -0.6398
  111TMC2    O5 1738   0.956   4.462  11.928 -0.1496  0.1139 -0.2554
  111TMC2    H5 1739   1.012   4.423  11.858 -1.4436  0.0011 -1.2204
  112MPD2     C 1740   0.808   0.671  11.587  0.2816 -0.2196 -0.4801
  112MPD2    C1 1741   0.860   0.601  11.485 -0.5823  0.0935 -0.5060
  112MPD2    C2 1742   0.899   0.471  11.502 -0.3437 -0.3569 -0.4062
  112MPD2    C3 1743   0.886   0.409  11.628  0.4950 -0.5363  0.4112
  112MPD2    C4 1744   0.828   0.482  11.727 -0.3297 -0.3809 -0.7424
  112MPD2    C5 1745   0.785   0.611  11.705 -0.2491 -0.0068 -0.6059
  112MPD2     H 1746   0.941   0.409  11.424 -0.8750  1.5116 -2.1675
  112MPD2    H1 1747   0.824   0.440  11.827 -1.4639 -1.3485 -1.1912
  112MPD2    H2 1748   0.774   0.774  11.584  0.7437 -0.0694 -0.4951
  112MPD2    H3 1749   0.734   0.660  11.787  1.4917 -0.0275  0.4862
  112MPD2     N 1750   0.941   0.284  11.673 -0.2743 -0.1517 -0.2084
  112MPD2    H5 1751   0.922   0.259  11.770 -0.3138 -1.1866 -0.4891
  112MPD2    N1 1752   0.886   0.659  11.358 -0.1136  0.6393 -0.4670
  112MPD2    H7 1753   0.929   0.598  11.289  0.8000 -0.1404  0.8007
  113TMC2    C1 1754   3.748   3.041   0.278  0.2520  1.0903  0.5125
  113TMC2    C2 1755   3.705   3.159   0.255 -0.6521 -0.4249 -0.0291
  113TMC2    C3 1756   3.591   3.165   0.171 -0.5340 -0.0347 -0.8408
  113TMC2    C4 1757   3.684   2.932   0.251 -0.0262 -0.2236 -0.1606
  113TMC2    C5 1758   3.563   2.945   0.186 -0.1426 -0.3466 -0.3604
  113TMC2    C6 1759   3.509   3.060   0.137  0.1787 -0.6295  0.5237
  113TMC2     C 1760   3.885   3.033   0.327  0.7230 -0.1928  0.2276
  113TMC2     O 1761   3.914   3.135   0.387  0.0533 -0.6172 -0.7984
  113TMC2     H 1762   3.764   3.250   0.268 -0.5429 -0.2995 -1.3993
  113TMC2    H1 1763   3.723   2.834   0.277 -1.1009 -0.3098  1.1377
  113TMC2    H2 1764   3.419   3.063   0.078  0.1607  1.8142  0.6658
  113TMC2    C7 1765   3.495   2.830   0.149  0.0831 -0.1525 -0.2650
  113TMC2    C8 1766   3.546   3.300   0.143 -0.5206 -0.5578  0.7360
  113TMC2    O1 1767   3.431   2.840   0.045 -0.3823 -0.1618 -0.2063
  113TMC2    O2 1768   3.614   3.398   0.160  0.9985  0.0944  0.7061
  113TMC2    O5 1769   3.420   3.293   0.188 -0.2332 -0.1730  0.1288
  113TMC2    H5 1770   3.378   3.206   0.203  1.0240 -1.0934 -1.7071
  114MPD2     C 1771   4.269   2.738   0.487 -0.2495  0.0250  0.4160
  114MPD2    C1 1772   4.222   2.858   0.541 -0.6408  0.1318 -0.4613
  114MPD2    C2 1773   4.120   2.921   0.476  0.2291  0.1502  0.0856
  114MPD2    C3 1774   4.068   2.860   0.358 -0.6122 -0.1032 -0.1546
  114MPD2    C4 1775   4.115   2.742   0.314 -0.3878  0.5740  0.4465
  114MPD2    C5 1776   4.214   2.682   0.380 -0.6758 -0.0614  0.2233
  114MPD2     H 1777   4.079   3.012   0.517  0.3009 -0.2673  1.0862
  114MPD2    H1 1778   4.071   2.689   0.230 -0.2492 -0.3047  0.9369
  114MPD2    H2 1779   4.341   2.675   0.537 -1.2100  0.2234  2.0540
  114MPD2    H3 1780   4.249   2.596   0.324  0.1869  1.7711 -2.0543
  114MPD2     N 1781   3.958   2.920   0.287 -0.8579 -0.2198 -0.1617
  114MPD2    H5 1782   3.917   2.867   0.211 -0.8327  0.7965 -0.8957
  114MPD2    N1 1783   4.267   2.910   0.668 -0.0826  0.4358 -0.1543
  114MPD2    H7 1784   4.211   2.978   0.717 -0.2560  0.1680  0.0185
  115TMC2    C1 1785   0.264   1.269  17.704  0.6606  0.1289 -0.3257
  115TMC2    C2 1786   0.395   1.230  17.691 -0.4328 -0.0637 -1.0181
  115TMC2    C3 1787   0.487   1.334  17.667 -0.1075  0.3392 -0.2309
  115TMC2    C4 1788   0.218   1.398  17.700 -0.5563 -0.5054  0.3382
  115TMC2    C5 1789   0.315   1.494  17.688 -0.4953 -0.2548  0.3862
  115TMC2    C6 1790   0.442   1.462  17.673 -0.4166  0.3329 -0.4442
  115TMC2     C 1791   0.170   1.171  17.660  0.4275  0.4389 -0.2885
  115TMC2     O 1792   0.218   1.069  17.619  0.1554  0.4035  0.3107
  115TMC2     H 1793   0.426   1.126  17.692  2.9741  0.9433  0.2130
  115TMC2    H1 1794   0.113   1.423  17.715 -0.4883 -0.0506  0.0617
  115TMC2    H2 1795   0.512   1.544  17.671 -1.5904  1.3559  0.7668
  115TMC2    C7 1796   0.273   1.635  17.675 -0.2391  0.0841 -0.7590
  115TMC2    C8 1797   0.629   1.299  17.644 -0.2104 -0.1401  0.1813
  115TMC2    O1 1798   0.167   1.658  17.728 -0.5471  0.6335 -0.3406
  115TMC2    O2 1799   0.686   1.195  17.671  0.1958 -0.4874  0.1483
  115TMC2    O5 1800   0.679   1.387  17.548  0.0695 -0.7139  0.2571
  115TMC2    H5 1801   0.622   1.462  17.520  0.9379  0.8271  2.6982
  116MPD2     C 1802   4.443   0.968  17.602  0.0068  0.3895  0.1801
  116MPD2    C1 1803   4.566   0.918  17.573 -0.0326 -0.1915  0.0506
  116MPD2    C2 1804   4.679   0.997  17.594  0.4425  0.4424 -0.1621
  116MPD2    C3 1805   4.664   1.119  17.668 -0.4687 -0.0031  0.1496
  116MPD2    C4 1806   4.541   1.159  17.708  0.3096 -0.2231 -0.1848
  116MPD2    C5 1807   4.431   1.084  17.676 -0.0366 -0.6284  0.5769
  116MPD2     H 1808   0.038   0.969  17.559 -0.7120 -2.3109 -1.2109
  116MPD2    H1 1809   4.519   1.257  17.748 -1.1429 -0.4610 -0.3924
  116MPD2    H2 1810   4.354   0.912  17.576 -0.1241  1.1361 -0.9125
  116MPD2    H3 1811   4.330   1.121  17.691 -0.1922 -1.4616  1.5798
  116MPD2     N 1812   0.036   1.197  17.703 -0.1091 -0.7206  0.3684
  116MPD2    H5 1813   0.020   1.276   0.008 -0.0170 -2.4870  2.6423
  116MPD2    N1 1814   4.559   0.795  17.510 -0.0469 -0.5353 -0.2027
  116MPD2    H7 1815   4.466   0.761  17.492 -0.9016  1.6044  0.2465
  117TMC2    C1 1816   2.987   2.219  14.091  0.5320  0.1038 -0.1541
  117TMC2    C2 1817   3.051   2.100  14.063 -1.1346  0.0734 -0.3206
  117TMC2    C3 1818   3.182   2.107  14.016 -0.1686 -0.0804 -0.8465
  117TMC2    C4 1819   3.043   2.343  14.073  0.0573 -0.3987 -0.3789
  117TMC2    C5 1820   3.170   2.338  14.021  0.9067 -0.4048  0.6425
  117TMC2    C6 1821   3.244   2.226  13.991  0.2272  0.1766 -0.3343
  117TMC2     C 1822   2.856   2.212  14.130  0.4581  0.0293 -0.0056
  117TMC2     O 1823   2.815   2.109  14.176  0.2073  0.0870 -0.0328
  117TMC2     H 1824   3.005   2.006  14.091 -2.2375  0.3831 -1.1037
  117TMC2    H1 1825   2.998   2.437  14.103 -1.3525 -1.2687  0.2077
  117TMC2    H2 1826   3.346   2.214  13.956  0.5251 -0.5160  0.7758
  117TMC2    C7 1827   3.237   2.460  13.979  0.3857 -0.4779 -0.3258
  117TMC2    C8 1828   3.270   1.988  14.002 -0.0092 -0.4661 -0.0590
  117TMC2    O1 1829   3.346   2.437  13.922 -0.1346 -0.4177  0.8931
  117TMC2    O2 1830   3.373   1.997  13.941  0.1263  0.8232  0.6100
  117TMC2    O5 1831   3.243   1.890  14.092  0.0538  0.1787 -0.3076
  117TMC2    H5 1832   3.159   1.893  14.143 -0.3265  0.5364 -0.9512
  118MPD2     C 1833   3.133   2.823  13.945  1.0505 -0.1705 -0.6830
  118MPD2    C1 1834   3.220   2.707  13.943  0.3886  0.1898 -0.4956
  118MPD2    C2 1835   3.337   2.722  13.869  0.1006 -0.0129  0.3433
  118MPD2    C3 1836   3.377   2.842  13.821 -0.2620 -0.6311 -0.2556
  118MPD2    C4 1837   3.294   2.958  13.835  0.5161  0.3957 -0.1091
  118MPD2    C5 1838   3.172   2.947  13.894 -0.0264 -0.0236 -0.0640
  118MPD2     H 1839   3.415   2.648  13.864 -3.1968 -3.4004 -0.9771
  118MPD2    H1 1840   3.312   3.052  13.785  0.4936 -0.0470 -0.9579
  118MPD2    H2 1841   3.035   2.809  13.988  1.1893 -3.5978 -1.4722
  118MPD2    H3 1842   3.108   3.034  13.891  0.1258  0.0250 -2.0112
  118MPD2     N 1843   3.506   2.864  13.767  0.2097  0.0775 -0.4475
  118MPD2    H5 1844   3.531   2.960  13.748 -0.9783  0.7304  1.3448
  118MPD2    N1 1845   3.173   2.583  14.003  0.5418 -0.4760  0.0589
  118MPD2    H7 1846   3.078   2.592  14.038  0.7151  0.7459  0.2421
  119TMC2    C1 1847   1.497   3.363  13.076  0.1885 -0.3343 -0.5122
  119TMC2    C2 1848   1.554   3.316  12.962 -0.2999  0.7437  0.8864
  119TMC2    C3 1849   1.484   3.226  12.886  0.0241  0.0479 -0.1666
  119TMC2    C4 1850   1.377   3.313  13.124  0.3742  0.1534 -0.1657
  119TMC2    C5 1851   1.312   3.223  13.042 -0.0074  0.1871 -0.2585
  119TMC2    C6 1852   1.363   3.175  12.924  0.6336 -0.0048 -0.1959
  119TMC2     C 1853   1.573   3.435  13.178 -1.0747  0.6568 -0.3770
  119TMC2     O 1854   1.499   3.502  13.251  0.0953 -0.5297 -0.0814
  119TMC2     H 1855   1.641   3.360  12.915 -0.9310 -0.1845 -1.1454
  119TMC2    H1 1856   1.329   3.359  13.210  1.3361 -1.4899  1.2515
  119TMC2    H2 1857   1.310   3.099  12.869 -0.1199  0.8542 -0.6644
  119TMC2    C7 1858   1.190   3.172  13.087 -0.0335 -0.2217  0.4078
  119TMC2    C8 1859   1.525   3.223  12.751 -0.0327 -0.6953 -0.0643
  119TMC2    O1 1860   1.123   3.123  12.997  0.0628  1.0328  0.5954
  119TMC2    O2 1861   1.644   3.225  12.725 -0.8360 -0.0031  0.6960
  119TMC2    O5 1862   1.424   3.268  12.667 -0.4649 -0.4477 -0.2347
  119TMC2    H5 1863   1.344   3.294  12.717  0.8570  0.6019  1.3233
  120MPD2     C 1864   1.967   3.452  13.507 -0.3062 -0.1468  0.7708
  120MPD2    C1 1865   1.838   3.504  13.521  0.0451  0.1415 -0.0381
  120MPD2    C2 1866   1.754   3.469  13.416 -0.0896  0.2378 -0.2811
  120MPD2    C3 1867   1.790   3.401  13.295 -0.2124 -0.1041  0.2972
  120MPD2    C4 1868   1.918   3.348  13.296 -0.4421 -0.3530 -1.1932
  120MPD2    C5 1869   2.003   3.378  13.400  0.5369 -0.1006  0.3352
  120MPD2     H 1870   1.655   3.511  13.430 -0.4459 -1.2044  1.5944
  120MPD2    H1 1871   1.958   3.288  13.215  2.0010 -0.2610 -0.0786
  120MPD2    H2 1872   2.043   3.467  13.583  2.3029 -1.3529 -1.6260
  120MPD2    H3 1873   2.098   3.326  13.406 -0.6450 -2.2055  0.5544
  120MPD2     N 1874   1.697   3.380  13.191 -0.3399 -0.2323 -0.2026
  120MPD2    H5 1875   1.726   3.334  13.105 -1.9135 -1.4265 -0.1046
  120MPD2    N1 1876   1.790   3.573  13.639  0.4333  0.0763 -0.2953
  120MPD2    H7 1877   1.856   3.582  13.715  1.3908 -0.8083 -1.0141
  121TMC2    C1 1878   3.016   0.702  13.812 -0.5519 -0.7966 -0.1453
  121TMC2    C2 1879   3.068   0.630  13.707  0.1793 -0.5667  0.1233
  121TMC2    C3 1880   3.087   0.494  13.732 -0.6365  0.2553 -0.2242
  121TMC2    C4 1881   2.998   0.648  13.936  0.1101  0.3113  0.1968
  121TMC2    C5 1882   3.027   0.512  13.950  0.1613 -0.2099 -0.6248
  121TMC2    C6 1883   3.065   0.433  13.850 -0.4285  0.7242 -0.1076
  121TMC2     C 1884   2.983   0.846  13.801  0.0023 -0.2065  0.8158
  121TMC2     O 1885   2.904   0.891  13.879  0.0726 -0.2528  0.4042
  121TMC2     H 1886   3.104   0.667  13.612 -1.1715  0.7801  0.1318
  121TMC2    H1 1887   2.946   0.692  14.021  0.6261  1.5455 -0.1335
  121TMC2    H2 1888   3.065   0.326  13.863 -2.0715  0.7198 -0.0771
  121TMC2    C7 1889   2.931   0.447  14.038  0.2923 -0.2439 -0.3223
  121TMC2    C8 1890   3.103   0.408  13.618  0.1538 -1.0936 -0.0842
  121TMC2    O1 1891   2.948   0.419  14.159  0.0492  0.5316 -0.3290
  121TMC2    O2 1892   3.081   0.442  13.503 -0.0749  0.3136 -0.3726
  121TMC2    O5 1893   3.213   0.342  13.641  0.0992 -0.4773 -0.1369
  121TMC2    H5 1894   3.239   0.342  13.735 -2.3136  0.1719  0.5015
  122MPD2     C 1895   2.881   1.083  13.655 -0.6176 -0.3735  0.1607
  122MPD2    C1 1896   2.994   1.015  13.622  0.0372  0.5092 -0.0318
  122MPD2    C2 1897   3.054   1.053  13.508  0.2891 -0.2662 -0.3650
  122MPD2    C3 1898   3.018   1.161  13.436 -0.2877 -1.5306  0.1546
  122MPD2    C4 1899   2.916   1.240  13.477  0.6016 -1.0075 -0.1608
  122MPD2    C5 1900   2.842   1.190  13.577  0.1878  0.5466  0.3335
  122MPD2     H 1901   3.142   0.999  13.475 -0.7048 -1.3948 -1.1394
  122MPD2    H1 1902   2.871   1.319  13.419 -0.3028 -1.1802  0.3005
  122MPD2    H2 1903   2.824   1.061  13.744  0.2676 -1.2188  0.5175
  122MPD2    H3 1904   2.746   1.235  13.598  1.3937  2.6814  1.3366
  122MPD2     N 1905   3.084   1.203  13.319  0.0325 -0.1362 -0.4479
  122MPD2    H5 1906   3.049   1.286  13.272 -1.0769  0.7608  1.9659
  122MPD2    N1 1907   3.036   0.897  13.687  0.1267 -0.4194 -0.0891
  122MPD2    H7 1908   3.109   0.842  13.642 -1.1535 -1.1756 -1.2432
  123TMC2    C1 1909   1.865   4.581   9.612 -0.2194  0.0273 -0.3149
  123TMC2    C2 1910   1.971   4.670   9.593 -0.3779  0.0569  0.0399
  123TMC2    C3 1911   1.939   0.030   9.505 -0.5670 -0.3137 -0.1116
  123TMC2    C4 1912   1.746   4.595   9.549  0.8222 -0.1603 -0.0313
  123TMC2    C5 1913   1.727   4.694   9.446  0.1701  1.0394 -0.0188
  123TMC2    C6 1914   1.820   0.044   9.431 -0.9246  0.3005 -0.8374
  123TMC2     C 1915   1.883   4.480   9.717 -0.8520 -0.4330 -0.1536
  123TMC2     O 1916   1.982   4.480   9.786  0.0665  0.3203 -0.1266
  123TMC2     H 1917   2.065   4.648   9.642 -0.2288  1.8418  0.5414
  123TMC2    H1 1918   1.656   4.552   9.590 -0.0246 -0.4912 -2.2682
  123TMC2    H2 1919   1.817   0.122   9.357  2.2085  0.3188 -0.9554
  123TMC2    C7 1920   1.594   4.729   9.400 -0.2177  0.3302 -0.1637
  123TMC2    C8 1921   2.064   0.097   9.456 -0.8396  0.9852 -0.0861
  123TMC2    O1 1922   1.571   0.107   9.380 -0.1861  0.7382  0.2672
  123TMC2    O2 1923   2.173   0.040   9.450 -0.4270 -0.1094  0.2958
  123TMC2    O5 1924   2.046   0.228   9.467  0.4716  0.0957  0.2883
  123TMC2    H5 1925   1.959   0.249   9.506 -0.8394 -0.0631 -2.6243
  124MPD2     C 1926   1.683   4.139  10.046  0.0881  0.2977  0.6800
  124MPD2    C1 1927   1.590   4.167   9.946 -1.0698 -0.4075 -0.3749
  124MPD2    C2 1928   1.619   4.263   9.850  0.0217  0.3612  0.4669
  124MPD2    C3 1929   1.744   4.324   9.838  0.1286  0.3623  0.2821
  124MPD2    C4 1930   1.827   4.302   9.950  0.4216  0.0201 -0.0749
  124MPD2    C5 1931   1.799   4.214  10.047 -0.6237  0.2902 -0.1850
  124MPD2     H 1932   1.539   4.287   9.781 -1.2749  0.3317  1.9528
  124MPD2    H1 1933   1.918   4.361   9.953 -0.4221  1.2718  0.7428
  124MPD2    H2 1934   1.670   4.060  10.120  0.3062  0.9821  1.4525
  124MPD2    H3 1935   1.878   4.183  10.114 -0.5788  1.6227  0.3707
  124MPD2     N 1936   1.771   4.411   9.734 -0.1923  0.3663 -0.1388
  124MPD2    H5 1937   1.701   4.414   9.660  0.3392  0.0989 -0.6498
  124MPD2    N1 1938   1.469   4.098   9.951 -0.2823  0.3125 -0.3778
  124MPD2    H7 1939   1.470   4.032  10.029 -1.2900  0.5626 -0.1525
  125TMC2    C1 1940   2.858   2.071   8.368 -0.1593 -0.3536  0.0655
  125TMC2    C2 1941   2.918   2.009   8.264  0.2736 -0.5806  0.3104
  125TMC2    C3 1942   2.928   1.871   8.253  0.3713  0.0570  0.4218
  125TMC2    C4 1943   2.804   1.989   8.466  0.6213  0.1999 -0.3202
  125TMC2    C5 1944   2.801   1.849   8.445 -0.4293  0.2319 -0.4799
  125TMC2    C6 1945   2.854   1.788   8.334  0.2122 -0.4151  0.2976
  125TMC2     C 1946   2.907   2.195   8.411  0.4494  0.4868  0.3284
  125TMC2     O 1947   2.984   2.243   8.328 -0.2171  0.3678  0.0753
  125TMC2     H 1948   2.975   2.072   8.198 -0.4581  1.3957  1.5556
  125TMC2    H1 1949   2.748   2.022   8.552  0.4169 -1.4150  0.1556
  125TMC2    H2 1950   2.839   1.683   8.313  0.2836  0.0002 -1.7886
  125TMC2    C7 1951   2.719   1.768   8.539 -0.0716 -0.1412  0.2697
  125TMC2    C8 1952   2.966   1.820   8.124  0.4354 -0.4113 -0.1595
  125TMC2    O1 1953   2.638   1.820   8.613 -0.4230  0.2717  0.5744
  125TMC2    O2 1954   2.936   1.877   8.017 -0.0702 -0.7267 -0.3601
  125TMC2    O5 1955   2.997   1.690   8.138  0.3510 -0.7823 -0.3015
  125TMC2    H5 1956   3.006   1.670   8.233 -0.3969  2.8114  0.5154
  126MPD1     C 1957   2.971   2.576   8.739 -0.6795 -0.4478  0.2579
  126MPD1    C1 1958   2.950   2.466   8.815  0.3205  0.1621 -0.2008
  126MPD1    C2 1959   2.928   2.346   8.747 -0.1375  0.2469 -0.4216
  126MPD1    C3 1960   2.944   2.338   8.608 -0.6916 -1.0703 -0.0770
  126MPD1    C4 1961   2.972   2.451   8.539 -0.5574  0.4422 -0.1160
  126MPD1    C5 1962   2.991   2.569   8.603  0.0729  0.3473  0.3344
  126MPD1     H 1963   2.905   2.259   8.807 -1.5615  0.1714 -1.0842
  126MPD1    H1 1964   2.973   2.450   8.431  1.5255 -0.7965 -0.1076
  126MPD1    H2 1965   2.982   2.675   8.782  0.4904  1.0490 -3.4611
  126MPD1    H3 1966   3.010   2.652   8.535 -1.9359  0.5274 -0.0067
  126MPD1     N 1967   2.902   2.219   8.545 -0.0742 -0.2712 -0.0022
  126MPD1    H5 1968   2.852   2.157   8.607 -1.4712  1.2456  0.3960
  126MPD1    N1 1969   2.926   2.473   8.950 -0.3324  0.2841  0.0147
  126MPD1    H6 1970   2.965   2.390   8.994  0.0223 -1.2029 -3.1271
  126MPD1    H7 1971   2.978   2.544   9.000 -0.8290  1.5604 -1.2687
  127TMC2    C1 1972   3.510   4.266   9.723 -0.1209 -0.2602 -0.0246
  127TMC2    C2 1973   3.602   4.190   9.793 -0.6576 -0.0737 -0.9332
  127TMC2    C3 1974   3.550   4.085   9.862  0.2556 -0.6322  0.1706
  127TMC2    C4 1975   3.378   4.234   9.717 -0.1701  0.2609 -0.4724
  127TMC2    C5 1976   3.335   4.112   9.774 -0.4153 -0.3640  0.0082
  127TMC2    C6 1977   3.424   4.036   9.848 -0.3977 -0.3376 -0.2887
  127TMC2     C 1978   3.553   4.388   9.660 -0.0306 -0.0972  0.2405
  127TMC2     O 1979   3.659   4.440   9.691  0.2162 -0.3553  0.4638
  127TMC2     H 1980   3.706   4.219   9.799 -1.1204  1.4806 -0.3380
  127TMC2    H1 1981   3.301   4.298   9.677  1.0425  0.4848 -2.4741
  127TMC2    H2 1982   3.400   3.943   9.898 -1.8240 -0.8204 -1.8401
  127TMC2    C7 1983   3.188   4.094   9.776  0.0718 -0.1945 -0.4631
  127TMC2    C8 1984   3.640   4.001   9.941 -0.1466  0.6351 -0.6437
  127TMC2    O1 1985   3.116   4.175   9.717  0.7136  0.5152  0.3805
  127TMC2    O2 1986   3.763   4.004   9.921  0.6692 -0.1088 -0.3566
  127TMC2    O5 1987   3.582   3.953  10.050 -0.4606  0.2946  0.4445
  127TMC2    H5 1988   3.484   3.956  10.051 -0.4804 -0.3168  0.3599
  128MPD2     C 1989   3.349   4.595   9.425 -0.9181  0.4793 -0.3158
  128MPD2    C1 1990   3.455   4.558   9.497  0.0692  0.1804  0.8092
  128MPD2    C2 1991   3.555   4.648   9.512 -0.5078 -0.1565  0.0085
  128MPD2    C3 1992   3.546   0.040   9.460 -0.1297 -0.3213  0.6422
  128MPD2    C4 1993   3.433   0.075   9.393  0.2065  0.6776 -0.3188
  128MPD2    C5 1994   3.331   4.723   9.386  0.2066 -0.0923  0.6111
  128MPD2     H 1995   3.638   4.628   9.579 -0.1169 -0.8031 -0.6717
  128MPD2    H1 1996   3.413   0.173   9.349 -1.3128  0.9567  0.9913
  128MPD2    H2 1997   3.261   4.533   9.418  0.3673 -1.4304  0.3103
  128MPD2    H3 1998   3.241   0.008   9.331  0.3929 -1.4791 -0.3215
  128MPD2     N 1999   3.656   0.132   9.488  0.1215 -0.4558  0.9996
  128MPD2    H5 2000   3.734   0.096   9.541  0.2496 -1.6776 -0.0080
  128MPD2    N1 2001   3.459   4.434   9.564  0.0282 -0.0124 -0.6236
  128MPD2    H7 2002   3.382   4.372   9.541  0.7715 -1.3408  0.4449
  129TMC2    C1 2003   2.790   3.926   1.255  0.3277  0.0193 -0.4969
  129TMC2    C2 2004   2.878   3.827   1.268 -0.2451  0.5725  0.0488
  129TMC2    C3 2005   2.832   3.700   1.251 -0.7127  0.0861  0.2273
  129TMC2    C4 2006   2.661   3.906   1.229  0.5505  0.3871  0.0119
  129TMC2    C5 2007   2.614   3.776   1.215 -0.6864 -0.6224  0.1867
  129TMC2    C6 2008   2.700   3.673   1.223  0.5543 -0.3994 -0.2871
  129TMC2     C 2009   2.827   4.048   1.314 -0.1845 -0.2675 -0.5792
  129TMC2     O 2010   2.919   4.041   1.393 -0.0433 -0.6866 -0.5876
  129TMC2     H 2011   2.984   3.832   1.291  0.1977 -0.6192 -1.7921
  129TMC2    H1 2012   2.595   3.992   1.221  2.0327  1.1755 -3.7215
  129TMC2    H2 2013   2.682   3.566   1.218  0.1458 -0.2787 -1.2933
  129TMC2    C7 2014   2.472   3.755   1.184 -0.2938 -0.3675  0.1587
  129TMC2    C8 2015   2.925   3.594   1.233 -0.7262  0.1464 -0.4965
  129TMC2    O1 2016   2.400   3.850   1.162 -0.1736  0.0820  0.2087
  129TMC2    O2 2017   2.907   3.504   1.151 -0.2930 -0.1846  0.5020
  129TMC2    O5 2018   2.965   3.564   1.361  0.3434 -0.1974  0.2764
  129TMC2    H5 2019   2.924   3.623   1.427 -1.9383 -0.2590 -1.0920
  130MPD2     C 2020   2.739   4.264   1.479 -0.1970 -0.0020  0.7689
  130MPD2    C1 2021   2.746   4.276   1.341  0.3717 -0.1420  0.8474
  130MPD2    C2 2022   2.711   4.401   1.281  0.3243  0.0471 -0.3435
  130MPD2    C3 2023   2.651   4.504   1.353  0.1257 -0.6794 -0.0230
  130MPD2    C4 2024   2.648   4.488   1.488 -0.3048  0.1023  0.2335
  130MPD2    C5 2025   2.688   4.372   1.554 -0.4667  0.1707 -0.0771
  130MPD2     H 2026   2.705   4.410   1.173  1.6969 -0.5675 -0.4754
  130MPD2    H1 2027   2.619   4.573   1.547  0.5057  0.6119 -0.0954
  130MPD2    H2 2028   2.758   4.167   1.525  2.6077  0.4608  0.5821
  130MPD2    H3 2029   2.670   4.355   1.660 -0.9170 -0.7101 -0.2950
  130MPD2     N 2030   2.592   4.629   1.303 -0.2782 -0.4573  0.5016
  130MPD2    H5 2031   2.543   4.696   1.362 -2.9983 -0.7803 -1.3776
  130MPD2    N1 2032   2.759   4.160   1.265  0.4099 -0.0167 -0.6958
  130MPD2    H7 2033   2.714   4.153   1.175  0.5479  0.6052 -0.8110
  131TMC2    C1 2034   0.669   4.455   9.216 -0.0576  0.0425  0.9716
  131TMC2    C2 2035   0.573   4.386   9.144  0.3643 -0.0650  0.4967
  131TMC2    C3 2036   0.527   4.436   9.023 -0.6136 -0.7964  0.7242
  131TMC2    C4 2037   0.742   4.556   9.157  0.3793  0.1792 -0.0530
  131TMC2    C5 2038   0.696   4.592   9.028 -0.8307 -0.7635 -0.2254
  131TMC2    C6 2039   0.582   4.547   8.974 -0.5938  0.0528  0.3275
  131TMC2     C 2040   0.709   4.400   9.343  0.4451  1.1176  0.5067
  131TMC2     O 2041   0.812   4.434   9.389  0.6456 -0.0311 -0.2746
  131TMC2     H 2042   0.534   4.293   9.184  0.4220 -0.1057  0.4582
  131TMC2    H1 2043   0.819   4.617   9.203  2.6971 -1.8070 -1.2403
  131TMC2    H2 2044   0.552   4.576   8.873 -1.4060  0.6420  0.7382
  131TMC2    C7 2045   0.741   4.717   8.971 -0.0659 -0.5447  0.7608
  131TMC2    C8 2046   0.477   4.344   8.924 -0.1619 -0.0626 -0.0908
  131TMC2    O1 2047   0.653   0.044   8.920  0.0626  0.6660  0.3574
  131TMC2    O2 2048   0.513   4.354   8.808  0.7109  0.1200  0.0582
  131TMC2    O5 2049   0.352   4.315   8.968  0.5921  0.2396 -0.0195
  131TMC2    H5 2050   0.358   4.308   9.065 -1.7537 -2.4539 -0.0602
  132MPD2     C 2051   0.509   4.178   9.567 -0.1431  0.1682 -0.3397
  132MPD2    C1 2052   0.625   4.246   9.524 -1.4532 -0.3959 -0.1148
  132MPD2    C2 2053   0.745   4.236   9.597  0.7155 -0.2353 -0.8360
  132MPD2    C3 2054   0.744   4.153   9.711 -0.4405 -0.5840  0.1812
  132MPD2    C4 2055   0.623   4.103   9.762 -0.2272  0.0891  0.2726
  132MPD2    C5 2056   0.508   4.121   9.689 -0.7125 -0.3907 -0.6365
  132MPD2     H 2057   0.831   4.299   9.579  0.8023 -0.1517 -0.1367
  132MPD2    H1 2058   0.613   4.031   9.842 -0.5468 -1.9060 -1.5462
  132MPD2    H2 2059   0.417   4.186   9.512 -1.2057 -1.6433  1.1740
  132MPD2    H3 2060   0.414   4.080   9.725  0.2171 -1.1273  0.9601
  132MPD2     N 2061   0.865   4.114   9.772  0.2217  0.1144 -0.0223
  132MPD2    H5 2062   0.949   4.168   9.759  0.1802  0.1483 -0.1426
  132MPD2    N1 2063   0.608   4.327   9.408  0.2473  0.1953  0.6312
  132MPD2    H7 2064   0.517   4.329   9.364  0.0650  1.3268  1.0617
  133TMC2    C1 2065   0.272   0.880   9.406 -0.1302  0.4233 -0.6567
  133TMC2    C2 2066   0.312   0.997   9.338  0.8774  0.2302  0.2508
  133TMC2    C3 2067   0.417   1.063   9.390 -0.7897 -0.3875  0.8104
  133TMC2    C4 2068   0.330   0.832   9.524 -0.0202 -1.0948 -0.1806
  133TMC2    C5 2069   0.421   0.920   9.578  0.1794  1.0618 -0.4853
  133TMC2    C6 2070   0.467   1.031   9.511  0.6379  0.1247 -0.4837
  133TMC2     C 2071   0.199   0.773   9.337 -0.3603 -0.7005  0.2660
  133TMC2     O 2072   0.141   0.689   9.403  0.7928 -0.3480 -0.4307
  133TMC2     H 2073   0.256   1.037   9.254  0.6616 -0.3260  0.1348
  133TMC2    H1 2074   0.296   0.737   9.563 -3.2285 -0.0686 -0.4607
  133TMC2    H2 2075   0.546   1.091   9.553  0.8106  0.1772 -0.8861
  133TMC2    C7 2076   0.466   0.892   9.717 -0.0879  0.0761  0.4324
  133TMC2    C8 2077   0.442   1.201   9.344 -0.4748 -0.0363 -0.3187
  133TMC2    O1 2078   0.448   0.789   9.773 -0.3995 -0.3086  0.4301
  133TMC2    O2 2079   0.500   1.281   9.418 -0.0854  0.2939 -0.4552
  133TMC2    O5 2080   0.454   1.200   9.211  0.3929 -0.3732  0.7155
  133TMC2    H5 2081   0.416   1.120   9.168 -1.7486  0.4694  1.0443
  134MPD2     C 2082   0.193   0.705   8.973 -0.4497  0.7113  0.2707
  134MPD2    C1 2083   0.158   0.687   9.103 -0.0542  0.0668 -0.8335
  134MPD2    C2 2084   0.084   0.578   9.144  0.2265  0.4880 -0.0035
  134MPD2    C3 2085   0.039   0.483   9.049 -0.7986 -0.4618  0.0783
  134MPD2    C4 2086   0.077   0.501   8.921  0.8639  0.4718 -0.8772
  134MPD2    C5 2087   0.151   0.607   8.880 -0.0888 -0.0356  0.0444
  134MPD2     H 2088   0.060   0.556   9.247  3.1643 -2.6716 -0.0273
  134MPD2    H1 2089   0.049   0.430   8.845  2.0081  0.3203 -1.1549
  134MPD2    H2 2090   0.254   0.786   8.934  3.1221 -1.7784  0.6523
  134MPD2    H3 2091   0.191   0.606   8.780  1.6032  0.3238  0.7220
  134MPD2     N 2092   4.705   0.363   9.080 -0.1848 -0.3059  0.1223
  134MPD2    H5 2093   4.704   0.289   9.011  0.0903 -0.9461  0.8079
  134MPD2    N1 2094   0.210   0.781   9.197  0.0833 -0.5316 -0.1259
  134MPD2    H7 2095   0.271   0.852   9.158 -1.9587  1.2722 -0.0255
  135TMC2    C1 2096   2.881   1.827   9.170 -0.3596  0.3172  0.3147
  135TMC2    C2 2097   2.958   1.745   9.244  0.0295 -0.4346  0.5740
  135TMC2    C3 2098   2.897   1.664   9.338 -0.4658  1.0525  0.1248
  135TMC2    C4 2099   2.750   1.835   9.191 -0.5031  0.7480 -0.0525
  135TMC2    C5 2100   2.690   1.748   9.281  0.5544 -0.8670  1.0044
  135TMC2    C6 2101   2.765   1.663   9.356 -0.5779 -0.0155  0.3971
  135TMC2     C 2102   2.928   1.885   9.045 -0.1073  0.4926 -0.1138
  135TMC2     O 2103   2.866   1.981   9.000  0.2604  0.2282 -0.3574
  135TMC2     H 2104   3.065   1.764   9.241  0.4654 -3.1814 -1.3596
  135TMC2    H1 2105   2.683   1.889   9.126 -1.8958 -0.3136  0.5013
  135TMC2    H2 2106   2.721   1.603   9.436  0.0478 -2.4193 -1.0629
  135TMC2    C7 2107   2.544   1.742   9.290  0.4644  0.4240  0.4855
  135TMC2    C8 2108   2.963   1.585   9.437  0.3434 -0.3430 -0.4432
  135TMC2    O1 2109   2.487   1.826   9.220  0.4135 -0.5967 -0.3910
  135TMC2    O2 2110   2.918   1.480   9.480 -1.0494 -0.1269  0.3814
  135TMC2    O5 2111   3.081   1.654   9.473 -0.6772  0.1319  0.5580
  135TMC2    H5 2112   3.076   1.746   9.439 -0.2832  0.3038  0.9742
  136MPD2     C 2113   3.053   1.912   8.780  0.6275 -0.0504  0.4553
  136MPD2    C1 2114   3.044   1.799   8.847 -0.2451  0.2187 -0.3224
  136MPD2    C2 2115   3.066   1.673   8.787 -0.3010 -0.0829  0.0040
  136MPD2    C3 2116   3.092   1.672   8.651  0.9033 -0.5156  0.2661
  136MPD2    C4 2117   3.097   1.793   8.585  0.2687  0.1440  0.3979
  136MPD2    C5 2118   3.088   1.910   8.650  0.2846  0.5138  0.5433
  136MPD2     H 2119   3.062   1.584   8.849  2.4048  0.7454  1.3951
  136MPD2    H1 2120   3.138   1.794   8.485  0.7957  0.6902  0.6190
  136MPD2    H2 2121   3.046   2.007   8.832 -1.7424 -0.7731  1.4430
  136MPD2    H3 2122   3.115   2.004   8.603  3.2650 -1.0191 -0.7806
  136MPD2     N 2123   3.118   1.555   8.589  0.2333  0.0291 -1.1601
  136MPD2    H5 2124   3.122   1.472   8.646 -0.2352  0.7657 -0.0577
  136MPD2    N1 2125   3.006   1.792   8.980  0.0136  0.3517 -0.2014
  136MPD2    H7 2126   3.022   1.705   9.029 -0.4940 -0.7524 -1.9661
  137TMC2    C1 2127   2.677   4.655   9.034 -0.1643 -0.0316  0.2365
  137TMC2    C2 2128   2.710   4.522   9.017  0.2000 -0.1452 -0.0643
  137TMC2    C3 2129   2.620   4.428   8.974  0.7511  0.5340 -0.5762
  137TMC2    C4 2130   2.551   4.693   9.002 -0.2639 -0.5609 -0.3413
  137TMC2    C5 2131   2.463   4.594   8.949 -0.1786  0.4056  0.1422
  137TMC2    C6 2132   2.490   4.461   8.951 -0.3604 -0.0141 -0.0692
  137TMC2     C 2133   2.771   0.023   9.082  0.3888  0.2915 -0.3978
  137TMC2     O 2134   2.710   0.127   9.113  0.0769 -0.6615  0.1604
  137TMC2     H 2135   2.813   4.493   9.034  0.3194  0.0592 -0.4338
  137TMC2    H1 2136   2.517   0.057   9.001  2.6847  0.4081  1.0264
  137TMC2    H2 2137   2.413   4.394   8.914 -0.8402 -0.6676  2.0884
  137TMC2    C7 2138   2.325   4.639   8.932  0.6032  0.3076  0.0898
  137TMC2    C8 2139   2.650   4.291   8.969 -0.3716 -0.2788  0.2190
  137TMC2    O1 2140   2.296   4.736   8.997  0.0434 -0.6239 -0.1211
  137TMC2    O2 2141   2.766   4.255   8.967 -0.3862  0.3595  0.9566
  137TMC2    O5 2142   2.551   4.236   9.044  0.0199  0.1302 -0.7733
  137TMC2    H5 2143   2.482   4.302   9.065 -2.0090 -1.8396 -1.2387
  138MPD2     C 2144   3.135   0.075   9.085 -1.1289  0.3661 -0.3343
  138MPD2    C1 2145   3.007   0.093   9.127 -0.2754 -0.0455 -1.0802
  138MPD2    C2 2146   2.976   0.197   9.206 -0.4214 -0.3389 -0.2457
  138MPD2    C3 2147   3.072   0.294   9.242  0.1561  0.5949 -0.4777
  138MPD2    C4 2148   3.202   0.278   9.197 -0.4752 -0.7153 -0.2195
  138MPD2    C5 2149   3.235   0.170   9.112  0.1152 -0.2592 -0.5167
  138MPD2     H 2150   2.876   0.203   9.249  0.6488  0.0393  2.2149
  138MPD2    H1 2151   3.273   0.354   9.226 -3.3401  1.8963 -0.0071
  138MPD2    H2 2152   3.160   4.739   9.011 -2.0189  1.0923 -1.3888
  138MPD2    H3 2153   3.336   0.168   9.073  0.4085  0.2958  0.2207
  138MPD2     N 2154   3.030   0.403   9.328  0.0343 -0.3019  0.0496
  138MPD2    H5 2155   2.933   0.398   9.358  0.0032  0.5695  0.0810
  138MPD2    N1 2156   2.911   4.737   9.086 -0.4817  0.1963  0.0577
  138MPD2    H7 2157   2.944   4.655   9.035  2.0852  0.0519  1.9487
  139TMC2    C1 2158   2.434   3.567  13.021 -0.2210  0.3857 -0.5931
  139TMC2    C2 2159   2.364   3.484  12.945  0.2268 -0.1968 -0.5293
  139TMC2    C3 2160   2.249   3.539  12.894  1.1369 -0.0757 -0.1004
  139TMC2    C4 2161   2.402   3.696  13.043  0.3672 -0.1848 -0.6421
  139TMC2    C5 2162   2.288   3.746  12.983 -0.4164  0.4150 -0.2511
  139TMC2    C6 2163   2.202   3.661  12.918 -0.7258  0.3892 -0.5172
  139TMC2     C 2164   2.536   3.499  13.096  0.5486 -0.0378 -0.6274
  139TMC2     O 2165   2.526   3.373  13.093  0.0525  0.2284  0.1323
  139TMC2     H 2166   2.394   3.386  12.912  0.4528 -0.4623  0.4773
  139TMC2    H1 2167   2.465   3.771  13.088  1.8712 -0.8012 -1.7200
  139TMC2    H2 2168   2.105   3.680  12.874 -1.8400 -1.0626  1.2955
  139TMC2    C7 2169   2.228   3.851  13.060 -0.0877  0.0608 -0.2037
  139TMC2    C8 2170   2.199   3.474  12.781  0.4892  0.8886 -0.4936
  139TMC2    O1 2171   2.300   3.899  13.147  0.2003 -0.2572  0.1774
  139TMC2    O2 2172   2.156   3.534  12.683 -0.0479 -0.0749 -0.4402
  139TMC2    O5 2173   2.170   3.344  12.812 -0.3667  0.0630  1.2100
  139TMC2    H5 2174   2.201   3.315  12.901 -0.8397 -0.8289  1.0816
  140MPD2     C 2175   2.782   3.626  13.341 -0.2573  0.4569 -0.0443
  140MPD2    C1 2176   2.723   3.534  13.257 -0.0299 -0.7516  0.4702
  140MPD2    C2 2177   2.746   3.401  13.276 -0.6289  0.1857 -0.4759
  140MPD2    C3 2178   2.824   3.361  13.383 -0.5692 -0.3470 -0.0583
  140MPD2    C4 2179   2.893   3.456  13.455 -0.3758  0.3767  0.2906
  140MPD2    C5 2180   2.867   3.590  13.436  0.2699  1.0921  0.3851
  140MPD2     H 2181   2.695   3.333  13.208 -1.4184 -0.3174  0.6358
  140MPD2    H1 2182   2.962   3.440  13.537  0.5126 -2.3075 -1.0078
  140MPD2    H2 2183   2.759   3.730  13.322  0.3839  0.2248 -2.0560
  140MPD2    H3 2184   2.924   3.668  13.485 -2.3058  3.3351 -0.2020
  140MPD2     N 2185   2.840   3.227  13.414 -0.1398  0.1273  0.4203
  140MPD2    H5 2186   2.794   3.172  13.342  1.5068 -0.2382 -0.3746
  140MPD2    N1 2187   2.624   3.579  13.168  0.1268  0.3335  0.7636
  140MPD2    H7 2188   2.616   3.679  13.155  0.6007  0.1717 -0.8933
  141TMC2    C1 2189   3.112   0.021  14.623  0.7242  0.5984 -0.2631
  141TMC2    C2 2190   3.107   4.704  14.743  0.3661 -0.3326 -0.5220
  141TMC2    C3 2191   3.208   4.733  14.830 -0.8984 -0.1299 -1.2107
  141TMC2    C4 2192   3.209   0.109  14.584 -0.2988  0.0174  0.1857
  141TMC2    C5 2193   3.320   0.109  14.663  0.3782  0.2246  0.1760
  141TMC2    C6 2194   3.320   0.052  14.789  0.0168 -0.1507  0.4558
  141TMC2     C 2195   3.014   4.730  14.520 -0.2907 -0.5547 -0.1877
  141TMC2     O 2196   2.893   4.713  14.541 -0.0664  0.0798 -0.0902
  141TMC2     H 2197   3.022   4.650  14.782  0.5974  0.6075  1.2699
  141TMC2    H1 2198   3.212   0.152  14.485 -1.0428 -0.0350  0.1459
  141TMC2    H2 2199   3.402   0.067  14.859 -0.2295  0.7582  0.5604
  141TMC2    C7 2200   3.429   0.074  14.570  0.1274  0.5513  0.1809
  141TMC2    C8 2201   3.197   4.655  14.950  0.0967 -1.2746  0.1102
  141TMC2    O1 2202   3.405   0.026  14.459 -0.1438  0.7230  0.1889
  141TMC2    O2 2203   3.171   4.534  14.944  0.2810  0.0626 -0.2705
  141TMC2    O5 2204   3.281   4.710  15.037 -0.3502 -0.0040  0.0646
  141TMC2    H5 2205   3.269   0.067  15.029  0.7360  0.1629  0.5143
  142TMC2    C1 2206   0.945   3.966   9.473 -0.1350 -0.3718 -0.6085
  142TMC2    C2 2207   0.852   3.989   9.373 -0.3019  0.3646  0.4816
  142TMC2    C3 2208   0.862   4.095   9.282  0.2879 -0.3757 -0.1169
  142TMC2    C4 2209   1.053   4.049   9.478 -0.2624  0.3221 -0.0743
  142TMC2    C5 2210   1.052   4.150   9.387  0.3775  0.0244  0.3975
  142TMC2    C6 2211   0.972   4.173   9.280  0.0211 -0.1211  0.5644
  142TMC2     C 2212   0.927   3.842   9.550 -0.4381 -0.5591  0.1163
  142TMC2     O 2213   0.815   3.797   9.572  0.3922 -0.5924 -0.6544
  142TMC2     H 2214   0.778   3.914   9.351  1.7982 -1.8534  0.9743
  142TMC2    H1 2215   1.136   4.035   9.547 -1.1416  0.6535  1.0605
  142TMC2    H2 2216   0.999   4.251   9.210  1.5249 -1.5129 -0.4015
  142TMC2    C7 2217   1.158   4.251   9.411 -0.1939 -0.6318 -0.0420
  142TMC2    C8 2218   0.802   4.072   9.151  0.6802  0.6809 -0.0226
  142TMC2    O1 2219   1.272   4.217   9.448  0.2763  0.4663  0.1430
  142TMC2    O2 2220   0.685   4.064   9.126  0.4309  0.1430 -0.2454
  142TMC2    O5 2221   0.900   4.061   9.054  0.0788 -0.0879  0.1639
  142TMC2    H5 2222   0.988   4.082   9.093 -0.9990  1.4795  1.7079
  143MPD2     C 2223   1.078   3.480   9.889  0.3309  0.9176 -0.0257
  143MPD2    C1 2224   0.957   3.530   9.863 -0.2094  0.4105  0.8375
  143MPD2    C2 2225   0.949   3.627   9.767 -0.1348 -0.5888 -0.5337
  143MPD2    C3 2226   1.055   3.674   9.692 -0.1593  0.5330  0.2288
  143MPD2    C4 2227   1.168   3.604   9.711  0.2331 -0.4150  0.7417
  143MPD2    C5 2228   1.189   3.515   9.815 -0.3517 -0.4384  0.3064
  143MPD2     H 2229   0.855   3.680   9.757  0.4098  0.2983 -0.9212
  143MPD2    H1 2230   1.251   3.626   9.645  0.4006 -1.0357  0.7426
  143MPD2    H2 2231   1.098   3.425   9.980  0.3317 -1.0757 -1.2384
  143MPD2    H3 2232   1.290   3.482   9.838  0.3526  0.2123 -1.8235
  143MPD2     N 2233   1.047   3.787   9.608 -0.4483  0.1780 -0.4327
  143MPD2    H5 2234   1.137   3.827   9.584  0.0745 -0.7808 -0.1039
  143MPD2    N1 2235   0.838   3.489   9.922  0.9672 -0.4479  0.5834
  143MPD2    H7 2236   0.759   3.553   9.915  1.1192 -0.6214 -2.4334
  144TMC2    C1 2237   3.946   1.591   0.261  0.5162 -1.4311 -0.1468
  144TMC2    C2 2238   3.949   1.458   0.220 -0.2677 -0.0509  0.0831
  144TMC2    C3 2239   4.028   1.369   0.288  0.0660  0.3597  0.4058
  144TMC2    C4 2240   4.024   1.636   0.364 -1.3756  0.0973  0.3635
  144TMC2    C5 2241   4.099   1.543   0.436 -0.1156 -0.5499  0.0395
  144TMC2    C6 2242   4.105   1.412   0.395 -0.4614 -0.3527  0.2927
  144TMC2     C 2243   3.854   1.678   0.184 -0.2854  0.2631 -0.0977
  144TMC2     O 2244   3.769   1.626   0.116 -0.2538  0.2497 -0.2821
  144TMC2     H 2245   3.890   1.424   0.136 -3.0011 -1.6711  2.6815
  144TMC2    H1 2246   4.025   1.743   0.376  1.5706  0.3291 -2.0614
  144TMC2    H2 2247   4.161   1.338   0.452 -2.5329 -0.6946  1.8733
  144TMC2    C7 2248   4.213   1.589   0.513 -0.3260 -0.0402 -0.3995
  144TMC2    C8 2249   4.058   1.251   0.212 -0.0818 -0.1234  0.5995
  144TMC2    O1 2250   4.303   1.506   0.533  0.1705  0.4557  0.1886
  144TMC2    O2 2251   3.969   1.171   0.181  0.8878 -0.0951 -0.1572
  144TMC2    O5 2252   4.166   1.284   0.137 -0.1407  0.3354 -0.1566
  144TMC2    H5 2253   4.198   1.375   0.151 -1.9680  0.7348  1.4111
  145MPD2     C 2254   3.630   2.133   0.059 -0.6130  0.2348  0.1791
  145MPD2    C1 2255   3.644   2.022  17.741  0.3088 -0.4553 -0.5957
  145MPD2    C2 2256   3.714   1.917   0.040  0.0777 -0.7876 -0.5751
  145MPD2    C3 2257   3.779   1.921   0.163 -0.3268 -0.2643 -0.7143
  145MPD2    C4 2258   3.771   2.046   0.234  0.0613 -0.3171  0.0872
  145MPD2    C5 2259   3.695   2.145   0.178 -0.2312  0.2535 -0.1989
  145MPD2     H 2260   3.709   1.825  17.739  0.6273 -1.1354 -0.0633
  145MPD2    H1 2261   3.815   2.062   0.331 -0.6515  0.7954  0.2186
  145MPD2    H2 2262   3.564   2.215   0.031 -1.3108 -0.0300  1.0367
  145MPD2    H3 2263   3.684   2.238   0.231  1.7645 -0.2131  1.0644
  145MPD2     N 2264   3.868   1.812   0.217  0.0232 -0.2850  0.2471
  145MPD2    H5 2265   3.938   1.839   0.285  0.1269  0.9238 -0.3436
  145MPD2    N1 2266   3.582   2.001  17.612  0.7455 -0.1035  0.9443
  145MPD2    H7 2267   3.596   1.911  17.567 -0.1937 -1.0086  2.4597
  146TMC2    C1 2268   0.480   0.285  12.150  0.3878  0.1613  0.3455
  146TMC2    C2 2269   0.420   0.264  12.030 -0.6106 -0.3190  0.0461
  146TMC2    C3 2270   0.492   0.202  11.940  0.1105  0.8502  0.6137
  146TMC2    C4 2271   0.614   0.265  12.166  0.4643  0.2889  0.2559
  146TMC2    C5 2272   0.683   0.216  12.053 -0.7604  0.1217 -0.2761
  146TMC2    C6 2273   0.620   0.169  11.940  0.2893 -0.4984  0.2297
  146TMC2     C 2274   0.428   0.380  12.243  0.0216 -0.1937 -0.2233
  146TMC2     O 2275   0.377   0.481  12.196 -0.1215 -0.6248  0.0165
  146TMC2     H 2276   0.317   0.294  12.016 -0.3457  0.6866  0.2024
  146TMC2    H1 2277   0.669   0.299  12.253  1.2407  0.9140 -0.4810
  146TMC2    H2 2278   0.670   0.121  11.856  1.0969  2.3363 -0.9124
  146TMC2    C7 2279   0.822   0.223  12.043  0.2706  0.6055 -0.3372
  146TMC2    C8 2280   0.438   0.206  11.808 -0.4528  0.2869 -0.7035
  146TMC2    O1 2281   0.862   0.210  11.931 -0.1005  0.0422 -0.2591
  146TMC2    O2 2282   0.499   0.231  11.711 -0.1120 -0.0242 -0.2292
  146TMC2    O5 2283   0.325   0.133  11.811  0.6565  0.3403  0.3383
  146TMC2    H5 2284   0.302   0.100  11.901 -1.9922  1.5166  0.0823
  147MPD2     C 2285   1.283   0.159  12.248 -1.0750  0.0255 -0.2172
  147MPD2    C1 2286   1.199   0.210  12.345 -0.2272  0.2449  0.2285
  147MPD2    C2 2287   1.069   0.251  12.312 -0.7234 -0.0448  0.1793
  147MPD2    C3 2288   1.019   0.218  12.187 -0.0221  0.5769  0.4752
  147MPD2    C4 2289   1.102   0.166  12.089  0.3013  0.3287 -0.5483
  147MPD2    C5 2290   1.233   0.140  12.123 -0.4232  0.5532 -0.8320
  147MPD2     H 2291   1.007   0.306  12.383  0.6623 -1.6622  2.6513
  147MPD2    H1 2292   1.077   0.140  11.986  2.0167  1.5905 -1.2881
  147MPD2    H2 2293   1.382   0.122  12.271 -0.9299 -0.8700 -2.2661
  147MPD2    H3 2294   1.295   0.110  12.039  0.7274  1.9782 -0.4814
  147MPD2     N 2295   0.886   0.242  12.164 -0.0508 -0.7038  0.4154
  147MPD2    H5 2296   0.827   0.275  12.239 -1.1331 -2.1249  0.1967
  147MPD2    N1 2297   1.256   0.213  12.477 -0.1247  0.2709 -0.2182
  147MPD2    H7 2298   1.351   0.177  12.484 -0.4800 -0.5246  0.4972
  148TMC2    C1 2299   1.448   0.088  10.234 -0.5648 -0.0826 -0.3673
  148TMC2    C2 2300   1.534   0.099  10.137 -0.2392  0.0307 -0.1523
  148TMC2    C3 2301   1.588   4.724  10.088  0.6515 -0.1338  0.5318
  148TMC2    C4 2302   1.428   4.710  10.299  0.6177  0.5452 -0.1899
  148TMC2    C5 2303   1.497   4.595  10.264 -0.6992  0.3262  0.8553
  148TMC2    C6 2304   1.574   4.596  10.149  0.3437  0.4093  0.2665
  148TMC2     C 2305   1.326   0.156  10.211  0.6226  0.1515  0.1122
  148TMC2     O 2306   1.341   0.270  10.175  0.3070 -0.2396  0.3632
  148TMC2     H 2307   1.547   0.187  10.076 -0.7643 -0.7898 -1.4501
  148TMC2    H1 2308   1.359   4.702  10.382  0.0414  0.2815 -0.6948
  148TMC2    H2 2309   1.627   4.505  10.125 -0.2486  0.2650 -0.5294
  148TMC2    C7 2310   1.428   4.478  10.291 -0.7955 -0.2268  0.2504
  148TMC2    C8 2311   1.648   4.720   9.960  0.7296 -0.3377  0.7986
  148TMC2    O1 2312   1.309   4.489  10.310  0.2765  0.2428 -0.2718
  148TMC2    O2 2313   1.745   0.054   9.933 -0.1967 -0.2370 -0.2431
  148TMC2    O5 2314   1.599   4.608   9.909 -0.1719  0.4380  0.1330
  148TMC2    H5 2315   1.509   4.581   9.939  0.1868 -0.5015  0.3609
  149MPD2     C 2316   1.038   0.227  10.184  0.9825  0.2420 -0.1501
  149MPD2    C1 2317   1.081   0.108  10.235 -0.2499  0.3658 -0.7259
  149MPD2    C2 2318   0.992   0.013  10.269 -0.1567 -0.3037 -0.0697
  149MPD2    C3 2319   0.856   0.037  10.258 -0.5036  0.1717  0.4896
  149MPD2    C4 2320   0.813   0.160  10.217 -0.0615 -0.0355  0.4507
  149MPD2    C5 2321   0.903   0.253  10.173  0.1182  0.4745 -0.3301
  149MPD2     H 2322   1.031   4.663  10.316 -2.9894 -0.4020  2.0454
  149MPD2    H1 2323   0.706   0.179  10.211 -0.0617  0.1367  0.9998
  149MPD2    H2 2324   1.099   0.305  10.141  0.1731  1.5518  1.0837
  149MPD2    H3 2325   0.866   0.344  10.127  0.0046  1.2440  1.2844
  149MPD2     N 2326   0.753   4.693  10.289 -0.0991 -0.9108  0.1504
  149MPD2    H5 2327   0.654   4.715  10.292  0.4397  1.5952 -1.0191
  149MPD2    N1 2328   1.216   0.076  10.247  0.3955  0.2349 -0.0585
  149MPD2    H7 2329   1.238   4.720  10.271  0.9841 -0.2507 -2.5120
  150TMC2    C1 2330   2.860   3.213  12.051  0.5032 -0.0107 -0.7385
  150TMC2    C2 2331   2.920   3.118  11.978 -0.7132  0.0418  0.2273
  150TMC2    C3 2332   3.036   3.066  12.017  0.0181  0.3038  0.3468
  150TMC2    C4 2333   2.921   3.259  12.168 -0.3932 -0.5002  0.3638
  150TMC2    C5 2334   3.044   3.214  12.195  0.9174 -0.5340 -0.4052
  150TMC2    C6 2335   3.113   3.116  12.116  0.4275 -0.8944  0.4177
  150TMC2     C 2336   2.763   3.303  11.997  0.2004 -0.3170  0.5633
  150TMC2     O 2337   2.709   3.379  12.078  0.7207  0.0468 -0.0898
  150TMC2     H 2338   2.870   3.076  11.892  0.5580  0.7797 -0.8794
  150TMC2    H1 2339   2.880   3.343  12.222  0.9620 -1.0012  2.1579
  150TMC2    H2 2340   3.214   3.078  12.126  0.7729 -0.5773 -1.8366
  150TMC2    C7 2341   3.124   3.293  12.289 -0.2272  0.4535 -0.0541
  150TMC2    C8 2342   3.092   2.957  11.949 -0.3783 -0.3085  0.0114
  150TMC2    O1 2343   3.097   3.413  12.310 -0.3538 -0.5912  0.0978
  150TMC2    O2 2344   3.181   2.885  11.996  0.4751 -0.2577  0.4019
  150TMC2    O5 2345   3.082   2.986  11.814  0.3190  0.5976  0.2113
  150TMC2    H5 2346   3.041   3.072  11.788  0.1837  0.6418  0.5680
  151MPD2     C 2347   2.496   3.517  11.605 -0.2983 -0.4574  0.5299
  151MPD2    C1 2348   2.573   3.411  11.561 -0.5172  0.8405 -0.1184
  151MPD2    C2 2349   2.643   3.331  11.652  0.2951  0.1790 -0.5970
  151MPD2    C3 2350   2.644   3.358  11.786  0.2253  0.4083 -0.5116
  151MPD2    C4 2351   2.574   3.472  11.834 -0.7104  0.1048  0.6911
  151MPD2    C5 2352   2.491   3.534  11.743  0.7808 -0.1342 -0.0506
  151MPD2     H 2353   2.706   3.249  11.621 -1.0836 -0.6198 -1.3110
  151MPD2    H1 2354   2.575   3.502  11.938  3.8451  0.9972  0.3808
  151MPD2    H2 2355   2.441   3.582  11.538  0.7965  0.2953  0.3628
  151MPD2    H3 2356   2.433   3.622  11.768  0.2738  0.1635 -2.2317
  151MPD2     N 2357   2.736   3.282  11.867  0.4861 -0.5180 -0.1497
  151MPD2    H5 2358   2.788   3.209  11.821  0.3471 -1.2805  0.8995
  151MPD2    N1 2359   2.561   3.383  11.428 -0.2684 -0.6211 -0.6622
  151MPD2    H7 2360   2.518   3.451  11.366  0.6476 -1.3626 -2.1125
  152TMC2    C1 2361   2.466   3.026  12.871  0.5193 -0.2312 -0.1429
  152TMC2    C2 2362   2.465   2.986  13.000  0.4576 -0.3323 -0.3803
  152TMC2    C3 2363   2.588   3.006  13.064 -0.4615 -0.6440 -0.0097
  152TMC2    C4 2364   2.567   3.102  12.812  0.1756 -0.1260  0.0126
  152TMC2    C5 2365   2.676   3.120  12.879 -0.2796 -0.2207  0.3141
  152TMC2    C6 2366   2.692   3.069  13.006 -0.4070  0.2727  0.2208
  152TMC2     C 2367   2.347   3.025  12.784  0.1744  0.1110  0.3107
  152TMC2     O 2368   2.354   3.080  12.673 -0.8696 -0.1639 -0.2611
  152TMC2     H 2369   2.379   2.946  13.052  0.1760  1.6926  0.7186
  152TMC2    H1 2370   2.565   3.130  12.707 -0.9708  2.2752  0.6785
  152TMC2    H2 2371   2.777   3.098  13.066 -0.2103 -1.5244  0.8175
  152TMC2    C7 2372   2.778   3.208  12.825  0.1937  0.6522  0.6273
  152TMC2    C8 2373   2.575   3.023  13.208  0.2694 -0.0524  0.5795
  152TMC2    O1 2374   2.731   3.316  12.794  0.1505  0.6493 -0.0717
  152TMC2    O2 2375   2.633   3.106  13.275  0.2353  0.1993  0.4217
  152TMC2    O5 2376   2.480   2.934  13.254 -0.0969  0.8009  0.5451
  152TMC2    H5 2377   2.473   2.850  13.204  3.2709  0.3550  0.7933
  153MPD2     C 2378   2.026   2.859  12.847 -0.5013  0.7336 -0.6237
  153MPD2    C1 2379   2.111   2.947  12.785  0.4198  0.1609 -0.0392
  153MPD2    C2 2380   2.062   3.043  12.698 -0.0749 -0.1326 -0.3717
  153MPD2    C3 2381   1.921   3.053  12.673  0.2889  0.1935  0.7811
  153MPD2    C4 2382   1.839   2.965  12.733  0.8701  0.1333  0.4665
  153MPD2    C5 2383   1.891   2.862  12.818 -0.3285 -0.1960 -0.1968
  153MPD2     H 2384   2.127   3.115  12.649  1.5560 -2.2810 -1.3963
  153MPD2    H1 2385   1.731   2.964  12.730  0.8989  0.6467 -0.5097
  153MPD2    H2 2386   2.066   2.784  12.914 -2.3937  0.7222  0.4953
  153MPD2    H3 2387   1.816   2.799  12.866  0.0096  0.4060  1.1415
  153MPD2     N 2388   1.868   3.156  12.590 -0.2535 -0.4497 -0.1481
  153MPD2    H5 2389   1.769   3.163  12.609 -0.6788 -1.7793 -1.8319
  153MPD2    N1 2390   2.247   2.942  12.826 -0.1613 -0.0713  0.5881
  153MPD2    H7 2391   2.257   2.904  12.919  1.8663 -0.5875  0.1562
  154TMC2    C1 2392   4.247   3.098  17.649 -0.6035  0.2447 -0.4720
  154TMC2    C2 2393   4.303   2.994  17.723 -0.1314 -0.7651 -0.4997
  154TMC2    C3 2394   4.383   2.912  17.653  0.0649  0.2739 -0.1956
  154TMC2    C4 2395   4.276   3.123  17.519  0.9668  0.0433 -0.4858
  154TMC2    C5 2396   4.367   3.048  17.461  0.1309  0.3214  0.0935
  154TMC2    C6 2397   4.428   2.942  17.528  0.1731  0.2381 -0.1951
  154TMC2     C 2398   4.145   3.181  17.715  0.0443  0.2165 -0.5676
  154TMC2     O 2399   4.146   3.181   0.082  0.1651  0.7132 -0.8763
  154TMC2     H 2400   4.277   2.977   0.070 -0.1098  1.3724 -0.1517
  154TMC2    H1 2401   4.226   3.203  17.466  1.8241  0.5191 -0.5617
  154TMC2    H2 2402   4.509   2.880  17.490  0.3926 -0.3156  1.1738
  154TMC2    C7 2403   4.462   3.113  17.370 -0.0439  0.4577  0.3340
  154TMC2    C8 2404   4.449   2.802  17.725 -0.5153  0.2379 -0.1113
  154TMC2    O1 2405   4.523   3.037  17.297 -0.2057  0.1517  0.2222
  154TMC2    O2 2406   4.548   2.741  17.692  0.1059 -0.3307 -0.1054
  154TMC2    O5 2407   4.347   2.751   0.035 -0.8910  0.0252  0.1245
  154TMC2    H5 2408   4.262   2.791   0.005  0.4636  0.9036 -2.5180
  155MPD2     C 2409   3.898   3.403  17.560 -0.5008 -0.9091  0.1973
  155MPD2    C1 2410   3.979   3.358  17.659 -0.1492 -0.7796 -0.9900
  155MPD2    C2 2411   3.976   3.420   0.026  0.5321  0.2005 -0.0352
  155MPD2    C3 2412   3.906   3.536   0.051 -0.7920 -0.4555  0.4789
  155MPD2    C4 2413   3.847   3.593  17.697 -0.6533 -0.2973 -0.7592
  155MPD2    C5 2414   3.846   3.530  17.576 -0.1276 -0.4411  0.7256
  155MPD2     H 2415   4.042   3.379   0.102  1.7158  0.0546 -1.1619
  155MPD2    H1 2416   3.797   3.689  17.697  0.9825  0.5576 -0.6477
  155MPD2    H2 2417   3.888   3.354  17.463  0.1980 -0.7649  0.0491
  155MPD2    H3 2418   3.797   3.581  17.494  1.2084  0.9415  0.7864
  155MPD2     N 2419   3.909   3.595   0.180  0.0567 -0.0841  0.2140
  155MPD2    H5 2420   3.941   3.532   0.253 -1.8146 -1.3232 -0.0235
  155MPD2    N1 2421   4.061   3.247  17.634 -0.3488  0.1538 -0.1014
  155MPD2    H7 2422   4.045   3.207  17.542 -2.8556  0.0424  0.3777
  156TMC2    C1 2423   3.238   0.517  11.283  0.2556  0.4893  0.0644
  156TMC2    C2 2424   3.343   0.455  11.223 -0.4333 -0.0688  0.0387
  156TMC2    C3 2425   3.341   0.451  11.085  0.4689  0.0658  0.0411
  156TMC2    C4 2426   3.128   0.566  11.215  0.0273 -0.6512  0.2606
  156TMC2    C5 2427   3.139   0.568  11.079  0.2091 -0.3336 -0.3683
  156TMC2    C6 2428   3.242   0.504  11.011  1.1636 -0.4779 -0.0615
  156TMC2     C 2429   3.240   0.526  11.422  0.0481  0.1496  0.3486
  156TMC2     O 2430   3.129   0.525  11.468 -0.6593 -0.3676 -0.1048
  156TMC2     H 2431   3.419   0.406  11.283  2.1156  1.9666 -1.5332
  156TMC2    H1 2432   3.048   0.612  11.271 -0.0790  0.0956 -0.5075
  156TMC2    H2 2433   3.238   0.502  10.903 -0.6340 -2.0938  0.0337
  156TMC2    C7 2434   3.060   0.660  10.997  0.0044  0.0073  0.4769
  156TMC2    C8 2435   3.402   0.340  11.020 -0.3164  0.0983  0.7222
  156TMC2    O1 2436   3.041   0.627  10.885 -0.0297 -0.1618  0.7900
  156TMC2    O2 2437   3.444   0.252  11.095  0.3378 -0.6345 -0.5395
  156TMC2    O5 2438   3.481   0.424  10.937 -0.9390 -0.4158  0.2727
  156TMC2    H5 2439   3.442   0.514  10.930  0.1314  0.1133  1.1997
  157MPD2     C 2440   3.508   0.649  11.626 -0.4877  1.4021 -0.2614
  157MPD2    C1 2441   3.384   0.603  11.596 -0.5608  0.1029 -0.6631
  157MPD2    C2 2442   3.282   0.603  11.694  0.2349 -0.0809  0.5310
  157MPD2    C3 2443   3.300   0.649  11.823 -0.3208 -0.3773 -0.3654
  157MPD2    C4 2444   3.428   0.690  11.858 -0.4152  0.1339  0.0184
  157MPD2    C5 2445   3.525   0.694  11.760  0.3441 -0.2077 -0.7259
  157MPD2     H 2446   3.177   0.583  11.677  0.3214  0.2401 -0.3685
  157MPD2    H1 2447   3.458   0.713  11.960 -0.6764  1.9507 -0.3109
  157MPD2    H2 2448   3.581   0.644  11.546  1.3021  1.9100  1.3386
  157MPD2    H3 2449   3.620   0.735  11.791  1.3545  0.0765 -4.1174
  157MPD2     N 2450   3.183   0.664  11.908 -0.6710 -0.3695  0.1151
  157MPD2    H5 2451   3.094   0.633  11.869 -1.9761  0.2365  2.6044
  157MPD2    N1 2452   3.361   0.556  11.471  0.2228 -0.8045 -0.5000
  157MPD2    H7 2453   3.441   0.559  11.409 -0.0282 -1.5724 -0.8541
  158TMC2    C1 2454   3.053   4.727  13.171 -0.0706 -0.8046  0.3490
  158TMC2    C2 2455   3.110   0.084  13.092  0.4338  0.8819  0.6123
  158TMC2    C3 2456   3.090   0.209  13.134  0.5016 -0.7537 -0.5726
  158TMC2    C4 2457   2.957   0.015  13.265  0.6535  0.2802  0.6518
  158TMC2    C5 2458   2.924   0.152  13.291  0.1304 -0.1193 -0.0036
  158TMC2    C6 2459   3.007   0.247  13.234 -1.3861 -0.2098 -0.3088
  158TMC2     C 2460   3.124   4.600  13.175  0.0105 -0.3710 -0.2349
  158TMC2     O 2461   3.210   4.580  13.089 -0.5944 -0.7863  0.5057
  158TMC2     H 2462   3.176   0.055  13.010 -1.5550  0.4018 -0.8259
  158TMC2    H1 2463   2.885   4.681  13.299 -0.3963  0.7702 -0.5208
  158TMC2    H2 2464   2.994   0.353  13.250  0.8669 -0.4831  3.2234
  158TMC2    C7 2465   2.782   0.186  13.299  0.9836 -0.1076 -0.6807
  158TMC2    C8 2466   3.139   0.315  13.048  0.1621  0.2639 -0.2232
  158TMC2    O1 2467   2.750   0.287  13.236  0.0847  0.8731  0.2907
  158TMC2    O2 2468   3.127   0.309  12.924 -0.2674  0.2199  0.3851
  158TMC2    O5 2469   3.238   0.370  13.119 -0.8496 -0.4165  0.1692
  158TMC2    H5 2470   3.235   0.339  13.212 -0.7769 -1.3581 -0.1381
  159MPD2     C 2471   3.300   4.223  13.471  0.1399 -0.0829  0.0558
  159MPD2    C1 2472   3.173   4.257  13.516  0.4045  0.3088 -0.0197
  159MPD2    C2 2473   3.102   4.357  13.449 -0.1207  0.2138 -0.6675
  159MPD2    C3 2474   3.153   4.412  13.336  0.4428  1.3770 -1.0285
  159MPD2    C4 2475   3.283   4.378  13.300  1.0335  0.4828  0.1295
  159MPD2    C5 2476   3.355   4.280  13.356  0.6659 -0.0475 -1.0603
  159MPD2     H 2477   3.004   4.388  13.481  0.5348 -0.0277  1.5824
  159MPD2    H1 2478   3.327   4.426  13.214 -1.0745  1.2890 -0.5138
  159MPD2    H2 2479   3.360   4.155  13.530 -1.7243 -1.0761  0.8195
  159MPD2    H3 2480   3.456   4.250  13.330  0.6928 -0.7721 -0.1399
  159MPD2     N 2481   3.083   4.521  13.284 -0.3363 -0.0400 -0.3511
  159MPD2    H5 2482   3.002   4.552  13.338  0.1014  2.0936 -0.9049
  159MPD2    N1 2483   3.143   4.204  13.639  0.3895 -0.3956  0.4843
  159MPD2    H7 2484   3.213   4.161  13.698  0.3333 -0.9073  0.1786
  160TMC2    C1 2485   3.167   2.601   1.295  0.0456 -0.4619  0.3103
  160TMC2    C2 2486   3.155   2.485   1.365  0.3061  0.1209  0.8022
  160TMC2    C3 2487   3.166   2.366   1.296  0.0622 -0.1227  0.2469
  160TMC2    C4 2488   3.195   2.608   1.162  0.1436  0.8697  0.1114
  160TMC2    C5 2489   3.222   2.490   1.098  0.3027  0.6185  0.7369
  160TMC2    C6 2490   3.210   2.374   1.164  0.1653  0.0479 -0.2581
  160TMC2     C 2491   3.137   2.724   1.362 -0.5961  0.6547 -0.0812
  160TMC2     O 2492   3.173   2.743   1.478  0.2147  0.0036 -0.2043
  160TMC2     H 2493   3.124   2.489   1.469  0.5729  0.8588  0.8569
  160TMC2    H1 2494   3.201   2.709   1.123 -0.3322  1.7066  2.2045
  160TMC2    H2 2495   3.240   2.285   1.112  3.6821  1.9085 -1.3922
  160TMC2    C7 2496   3.260   2.495   0.959 -0.3950 -0.0186  0.3173
  160TMC2    C8 2497   3.187   2.244   1.374 -0.6270 -0.4186 -0.6187
  160TMC2    O1 2498   3.217   2.403   0.885 -0.5568 -0.3365 -0.3250
  160TMC2    O2 2499   3.120   2.210   1.475 -0.4743  0.5997 -0.5878
  160TMC2    O5 2500   3.307   2.201   1.354 -0.2247 -0.5863  0.8228
  160TMC2    H5 2501   3.377   2.257   1.313 -2.2224  1.1262 -0.2491
  161MPD2     C 2502   3.088   3.021   1.417 -0.0921  0.3514  0.0153
  161MPD2    C1 2503   3.043   2.947   1.306 -0.4407 -0.1771 -0.1585
  161MPD2    C2 2504   2.950   3.010   1.217 -0.5612  0.0029  0.7750
  161MPD2    C3 2505   2.918   3.150   1.221 -1.1498  0.3620  0.1755
  161MPD2    C4 2506   2.964   3.222   1.331  0.2811  0.7007  0.8711
  161MPD2    C5 2507   3.051   3.155   1.411 -0.1730  0.1157  0.6005
  161MPD2     H 2508   2.920   2.958   1.127 -0.3131 -4.0833  3.0454
  161MPD2    H1 2509   2.947   3.328   1.346 -2.0640  0.3327  0.7971
  161MPD2    H2 2510   3.144   2.991   1.504  1.3399  0.5026 -0.8591
  161MPD2    H3 2511   3.091   3.220   1.489 -2.0879 -0.9601  2.4916
  161MPD2     N 2512   2.843   3.220   1.121  0.7757  0.1218 -0.0801
  161MPD2    H5 2513   2.827   3.320   1.131 -0.4483 -0.1891  1.0242
  161MPD2    N1 2514   3.075   2.812   1.276 -0.3091  0.4785 -0.1709
  161MPD2    H7 2515   3.026   2.771   1.197 -1.6077 -0.0604  0.9214
  162TMC2    C1 2516   1.280   4.694   1.200 -0.2234  0.8522  0.1156
  162TMC2    C2 2517   1.225   0.018   1.314 -0.5620 -0.3134  0.0429
  162TMC2    C3 2518   1.311   0.046   1.418 -0.2882 -0.8817 -0.1944
  162TMC2    C4 2519   1.403   4.637   1.211 -0.7507  0.0509  0.0168
  162TMC2    C5 2520   1.481   4.662   1.317 -0.3848 -0.3926 -0.1971
  162TMC2    C6 2521   1.446   0.022   1.407 -0.0574 -0.1490 -0.3511
  162TMC2     C 2522   1.197   4.652   1.088  0.2220  0.2424 -0.2437
  162TMC2     O 2523   1.256   4.607   0.992  0.5014  0.3855 -0.0966
  162TMC2     H 2524   1.134   0.076   1.307  0.3684  1.2052  0.4933
  162TMC2    H1 2525   1.441   4.580   1.126  0.4246  2.4941 -1.0820
  162TMC2    H2 2526   1.508   0.035   1.494  0.7663 -0.7585 -0.8436
  162TMC2    C7 2527   1.605   4.590   1.320  0.3145 -0.0722  0.3531
  162TMC2    C8 2528   1.265   0.100   1.549 -0.6949 -0.3008 -0.4106
  162TMC2    O1 2529   1.704   4.652   1.352 -0.3789 -0.0022 -0.3729
  162TMC2    O2 2530   1.327   0.178   1.624  0.1700  0.0435  0.2229
  162TMC2    O5 2531   1.139   0.050   1.563 -0.0865 -0.1134 -0.2677
  162TMC2    H5 2532   1.114   4.721   1.497  0.1718  0.2246 -0.7194
  163MPD2     C 2533   0.739   4.511   0.900 -0.1411  0.2336  0.3001
  163MPD2    C1 2534   0.858   4.535   0.839 -0.8291  1.2042 -0.3889
  163MPD2    C2 2535   0.962   4.585   0.918  0.0626  0.3036 -0.1929
  163MPD2    C3 2536   0.948   4.607   1.050 -0.1121 -0.3035  0.0947
  163MPD2    C4 2537   0.828   4.581   1.111 -0.3106  0.6878  0.1390
  163MPD2    C5 2538   0.725   4.535   1.032 -0.2927 -0.7301 -0.4735
  163MPD2     H 2539   1.061   4.599   0.875 -0.4000  1.4752 -0.8964
  163MPD2    H1 2540   0.807   4.588   1.217  2.5525  0.0014  0.7363
  163MPD2    H2 2541   0.653   4.473   0.846  1.0322 -0.7395 -0.8824
  163MPD2    H3 2542   0.626   4.516   1.071 -0.5540 -0.1807 -0.8763
  163MPD2     N 2543   1.061   4.652   1.124 -0.1703  0.2101  0.1364
  163MPD2    H5 2544   1.049   4.682   1.220  1.0342 -4.2452  1.6696
  163MPD2    N1 2545   0.872   4.511   0.703  0.3675 -0.3795 -0.6225
  163MPD2    H7 2546   0.808   4.444   0.662 -0.7787  0.2306  0.1580
  164TMC2    C1 2547   1.589   4.456  10.704  0.0215 -0.2875 -0.2302
  164TMC2    C2 2548   1.656   4.542  10.613 -0.8043  0.4202  0.1110
  164TMC2    C3 2549   1.615   4.675  10.611 -0.4953  0.5247  0.2889
  164TMC2    C4 2550   1.501   4.504  10.806  0.3111  0.2065  0.0599
  164TMC2    C5 2551   1.480   4.636  10.802  0.2986 -0.0871  0.9563
  164TMC2    C6 2552   1.517   4.714  10.698  0.0608 -0.2260 -0.5853
  164TMC2     C 2553   1.606   4.315  10.678  0.4318 -0.6376 -0.3116
  164TMC2     O 2554   1.522   4.242  10.722  0.3744  0.4412 -0.2319
  164TMC2     H 2555   1.729   4.524  10.535  1.0493 -2.4226  2.5045
  164TMC2    H1 2556   1.466   4.433  10.880 -3.4208  1.0759 -0.8516
  164TMC2    H2 2557   1.484   0.078  10.692 -0.1108 -0.2936 -0.8039
  164TMC2    C7 2558   1.362   4.684  10.874  0.0922  0.2447 -0.0440
  164TMC2    C8 2559   1.677   0.017  10.507 -0.1985  0.4456  0.8771
  164TMC2    O1 2560   1.301   0.032  10.813  0.1897  0.2061  0.0058
  164TMC2    O2 2561   1.768   4.720  10.429 -0.7475  0.5088 -0.5400
  164TMC2    O5 2562   1.631   0.144  10.516  0.0942 -0.3322  0.4096
  164TMC2    H5 2563   1.601   0.170  10.606 -0.6918 -0.0768  0.0682
  165TMC2    C1 2564   2.625   1.299   1.217  0.4635 -0.3930 -0.0598
  165TMC2    C2 2565   2.702   1.193   1.262 -0.4114 -0.2290  0.4684
  165TMC2    C3 2566   2.838   1.196   1.238  0.0730  0.7274  0.2151
  165TMC2    C4 2567   2.684   1.407   1.161 -0.4715  0.7674 -0.3041
  165TMC2    C5 2568   2.826   1.405   1.148  0.4203  0.1642 -0.0802
  165TMC2    C6 2569   2.908   1.306   1.186 -1.0380  0.1072 -0.2491
  165TMC2     C 2570   2.489   1.298   1.251 -0.1970 -0.6982 -0.2828
  165TMC2     O 2571   2.463   1.212   1.340  0.0693 -1.0609  0.0247
  165TMC2     H 2572   2.662   1.103   1.307  0.2195  0.2061  1.8830
  165TMC2    H1 2573   2.623   1.493   1.137 -2.0031 -0.1368  0.3474
  165TMC2    H2 2574   3.012   1.301   1.157 -1.2771  6.7305 -2.1165
  165TMC2    C7 2575   2.885   1.507   1.064 -0.7291 -0.5680 -0.5163
  165TMC2    C8 2576   2.906   1.076   1.282  0.4519  0.1901 -0.2486
  165TMC2    O1 2577   3.004   1.514   1.052 -0.5611 -0.1841  0.3981
  165TMC2    O2 2578   2.866   0.995   1.370 -0.0692  0.4135 -0.5097
  165TMC2    O5 2579   3.015   1.046   1.208  0.4546  0.0155  0.0497
  165TMC2    H5 2580   3.015   1.107   1.132 -0.2259 -0.1793 -0.1053
  166MPD2     C 2581   1.992   1.385   1.176 -0.0077  0.4477 -0.3489
  166MPD2    C1 2582   2.061   1.298   1.262  0.2002  0.2188  0.3162
  166MPD2    C2 2583   2.199   1.274   1.251  0.3470 -0.2000  0.6396
  166MPD2    C3 2584   2.268   1.353   1.164  1.1264 -0.5414  1.1535
  166MPD2    C4 2585   2.201   1.440   1.073  0.2036 -0.4918  0.3614
  166MPD2    C5 2586   2.062   1.456   1.075  0.3554  0.1627 -0.3280
  166MPD2     H 2587   2.248   1.194   1.306  1.4169  1.0032  1.4428
  166MPD2    H1 2588   2.249   1.502   0.998 -2.4102  2.2532  0.9870
  166MPD2    H2 2589   1.886   1.408   1.180 -1.1687 -5.0341 -0.3717
  166MPD2    H3 2590   2.004   1.521   1.010 -2.5569  0.4195  2.5294
  166MPD2     N 2591   2.408   1.349   1.150  0.1178 -0.0096  0.4172
  166MPD2    H5 2592   2.447   1.399   1.070 -2.1198  0.2031 -0.5377
  166MPD2    N1 2593   1.984   1.225   1.354  0.5313  0.1145  0.1800
  166MPD2    H7 2594   1.883   1.234   1.342  0.5570  0.9502  0.6846
  167TMC2    C1 2595   1.083   4.083  12.637  0.1477 -0.1188  0.7770
  167TMC2    C2 2596   0.976   4.065  12.720 -0.0412 -0.1047 -0.4907
  167TMC2    C3 2597   0.948   3.937  12.753  0.2701 -0.1272  0.7871
  167TMC2    C4 2598   1.181   3.982  12.606  0.5036 -0.4834  0.2479
  167TMC2    C5 2599   1.157   3.858  12.656 -0.0713 -0.0679  0.4273
  167TMC2    C6 2600   1.041   3.839  12.728 -0.1725  0.5446  0.6200
  167TMC2     C 2601   1.107   4.211  12.574 -0.0263  0.9005 -0.4991
  167TMC2     O 2602   1.214   4.270  12.592 -0.2904  0.0634  0.5362
  167TMC2     H 2603   0.919   4.148  12.760  2.8383  2.0524 -0.8283
  167TMC2    H1 2604   1.277   4.004  12.561  0.3693 -0.1181  0.1485
  167TMC2    H2 2605   1.030   3.739  12.770  1.1593  0.3384  0.4724
  167TMC2    C7 2606   1.203   3.739  12.584  0.1612 -0.3071 -0.6270
  167TMC2    C8 2607   0.836   3.910  12.848 -0.5104 -0.5560  1.0783
  167TMC2    O1 2608   1.178   3.630  12.635 -0.1850  0.1092 -0.8965
  167TMC2    O2 2609   0.774   4.008  12.894  0.0612 -0.6078  0.7518
  167TMC2    O5 2610   0.807   3.782  12.869 -0.2501  0.2630 -0.0387
  167TMC2    H5 2611   0.845   3.724  12.800  2.5201  0.7959  1.0529
  168MPD2     C 2612   1.093   4.465  12.405  0.1799 -0.3727 -0.1455
  168MPD2    C1 2613   0.992   4.368  12.416 -0.1053  0.2585 -0.7050
  168MPD2    C2 2614   0.864   4.392  12.362  0.0706  0.2622 -0.5343
  168MPD2    C3 2615   0.839   4.509  12.293  0.4304 -0.3641  0.0329
  168MPD2    C4 2616   0.938   4.604  12.271  0.5435  0.3064  0.4778
  168MPD2    C5 2617   1.064   4.580  12.329  0.2398 -0.3028 -0.3041
  168MPD2     H 2618   0.788   4.315  12.372 -0.4518  0.8415 -0.0880
  168MPD2    H1 2619   0.936   4.700  12.221  2.0159 -1.6311 -3.2768
  168MPD2    H2 2620   1.191   4.459  12.452 -0.9501  0.9360  2.4053
  168MPD2    H3 2621   1.140   4.657  12.320 -2.4162  2.5806  2.1711
  168MPD2     N 2622   0.717   4.532  12.222  0.0694 -0.2757 -0.1177
  168MPD2    H5 2623   0.725   4.618  12.168  2.3268  0.0054  0.6854
  168MPD2    N1 2624   1.005   4.248  12.490  0.1830  0.1846  1.3862
  168MPD2    H7 2625   0.926   4.185  12.482  0.8787 -0.3971 -0.9093
  169MPD1     C 2626   2.362   4.371   9.686 -0.1720 -0.0421 -0.9261
  169MPD1    C1 2627   2.320   4.241   9.705  0.5198  0.1327 -0.4441
  169MPD1    C2 2628   2.406   4.140   9.669 -0.4481 -0.5767  0.4230
  169MPD1    C3 2629   2.539   4.158   9.631  0.6158 -0.2658  0.6340
  169MPD1    C4 2630   2.579   4.290   9.622 -0.3468 -0.5107  0.0283
  169MPD1    C5 2631   2.492   4.395   9.645 -0.0399  0.0902 -0.3262
  169MPD1     H 2632   2.359   4.044   9.651  2.2693 -1.7869 -0.1708
  169MPD1    H1 2633   2.685   4.313   9.612 -0.4800  0.4143  0.7366
  169MPD1    H2 2634   2.293   4.454   9.675 -0.4597 -0.1075  0.4051
  169MPD1    H3 2635   2.514   4.501   9.640 -1.4539  0.5410  3.1231
  169MPD1     N 2636   2.614   4.046   9.585  0.0742  0.1495 -0.2067
  169MPD1    H5 2637   2.566   3.957   9.585  3.0457 -1.4773  0.0055
  169MPD1    N1 2638   2.182   4.229   9.716  0.4840  0.3201  0.0072
  169MPD1    H6 2639   2.137   4.307   9.763 -1.3596  0.0152 -1.2122
  169MPD1    H7 2640   2.162   4.146   9.772  1.6780 -0.3764 -0.5896
  170MPD1     C 2641   2.070   1.039  13.165 -0.0218  0.2982 -0.0616
  170MPD1    C1 2642   2.048   1.096  13.287 -0.1148 -0.2959  0.5208
  170MPD1    C2 2643   1.963   1.207  13.296 -0.2840 -0.3132  0.5476
  170MPD1    C3 2644   1.895   1.249  13.185  1.0018  0.1491  0.5847
  170MPD1    C4 2645   1.901   1.179  13.070 -0.0773  0.3917 -0.1555
  170MPD1    C5 2646   1.987   1.073  13.061 -0.2949  0.4194 -0.3136
  170MPD1     H 2647   1.943   1.259  13.389  1.9700 -2.8778  2.4998
  170MPD1    H1 2648   1.839   1.203  12.984  2.1211  1.1723 -1.5148
  170MPD1    H2 2649   2.129   0.948  13.157  1.0423  1.2058 -2.4660
  170MPD1    H3 2650   1.985   1.009  12.973 -2.2018  0.5168 -0.3417
  170MPD1     N 2651   1.821   1.361  13.207 -0.6201 -0.2185 -0.7354
  170MPD1    H5 2652   1.841   1.402  13.297  0.9382 -0.0421 -1.1584
  170MPD1    N1 2653   2.132   1.058  13.400  0.0575 -0.2163 -0.1113
  170MPD1    H6 2654   2.199   1.135  13.401  0.4473 -0.4645 -3.9036
  170MPD1    H7 2655   2.178   0.968  13.385 -1.8936 -1.7046  2.8353
  171MPD1     C 2656   0.290   3.105  15.320  0.1232  0.7104 -0.3317
  171MPD1    C1 2657   0.389   3.032  15.255  0.3821 -0.7095  0.3059
  171MPD1    C2 2658   0.455   2.934  15.322  0.6744  0.4474  0.1840
  171MPD1    C3 2659   0.419   2.906  15.453  0.4403 -0.0345 -0.3252
  171MPD1    C4 2660   0.314   2.974  15.518  1.0956 -0.1999  0.0668
  171MPD1    C5 2661   0.260   3.080  15.456 -1.1153 -0.7126  0.4869
  171MPD1     H 2662   0.540   2.878  15.286 -1.2179 -1.3958 -1.4026
  171MPD1    H1 2663   0.302   2.958  15.625  0.3273  0.8570  0.1471
  171MPD1    H2 2664   0.238   3.175  15.257  1.4721  1.4302 -0.6426
  171MPD1    H3 2665   0.172   3.124  15.503 -2.7162 -2.6713 -0.6691
  171MPD1     N 2666   0.467   2.792  15.521 -0.0566  0.3695  0.1131
  171MPD1    H5 2667   0.446   2.798  15.620 -1.2783  0.2755 -0.1321
  171MPD1    N1 2668   0.402   3.047  15.114  0.5945  0.1341  0.1430
  171MPD1    H6 2669   0.491   3.013  15.078  1.2965  0.6654  1.3811
  171MPD1    H7 2670   0.422   3.144  15.091 -0.3960  0.0810 -0.9593
  172MPD1     C 2671   3.922   1.802  17.265  0.2853 -0.0621 -0.3684
  172MPD1    C1 2672   3.880   1.923  17.228 -0.8977  0.2412 -0.0466
  172MPD1    C2 2673   3.880   2.029  17.309  0.0795 -0.1991  0.5498
  172MPD1    C3 2674   3.908   2.011  17.444  0.0425 -0.5427 -0.5836
  172MPD1    C4 2675   3.933   1.886  17.484 -0.1806 -0.9217  1.0032
  172MPD1    C5 2676   3.948   1.782  17.397  0.2666 -0.0996 -0.1013
  172MPD1     H 2677   3.848   2.127  17.276  0.4183 -0.8336 -1.6324
  172MPD1    H1 2678   3.955   1.873  17.589 -0.0472 -0.6306  1.0117
  172MPD1    H2 2679   3.950   1.722  17.197 -2.9382  0.7302 -2.6450
  172MPD1    H3 2680   3.986   1.684  17.421  1.6594  0.2341 -0.9400
  172MPD1     N 2681   3.905   2.111  17.543  0.4474  0.5779 -0.4207
  172MPD1    H5 2682   3.939   2.090  17.637 -1.2725 -0.7509 -0.0999
  172MPD1    N1 2683   3.877   1.949  17.093 -0.1569  0.1552  0.3796
  172MPD1    H6 2684   3.852   1.866  17.039 -0.2382 -0.2116  0.9790
  172MPD1    H7 2685   3.827   2.032  17.063  0.6085 -0.1950 -1.8288
  173MPD1     C 2686   0.220   1.458  13.928 -0.1441  0.5351 -0.3613
  173MPD1    C1 2687   0.261   1.586  13.963  0.0106  0.4442  0.3188
  173MPD1    C2 2688   0.350   1.614  14.062 -0.1842 -0.8586 -0.0593
  173MPD1    C3 2689   0.397   1.517  14.138 -0.6962 -0.1256  0.7713
  173MPD1    C4 2690   0.353   1.395  14.124 -0.3601 -0.3342 -0.7974
  173MPD1    C5 2691   0.275   1.361  14.016  0.5999 -0.4139 -0.3848
  173MPD1     H 2692   0.379   1.714  14.093 -2.1385 -0.0482 -0.8821
  173MPD1    H1 2693   0.375   1.307  14.182 -0.2412 -0.1150 -0.5090
  173MPD1    H2 2694   0.154   1.423  13.849 -0.7495  0.1304  0.3246
  173MPD1    H3 2695   0.246   1.258  13.998  0.6852 -0.4785 -0.1504
  173MPD1     N 2696   0.487   1.556  14.247  0.3855 -0.9906 -0.6639
  173MPD1    H5 2697   0.523   1.651  14.249  0.8436 -1.1632 -0.6710
  173MPD1    N1 2698   0.232   1.686  13.876 -0.0674 -0.2696  0.1866
  173MPD1    H6 2699   0.136   1.694  13.842 -0.5277 -1.7807  1.1075
  173MPD1    H7 2700   0.254   1.776  13.917 -2.5462 -0.5594  2.1511
  174MPD1     C 2701   1.066   2.045  14.014 -0.2914  0.1881  0.2023
  174MPD1    C1 2702   1.113   2.060  14.141 -0.1144  0.3001  0.2755
  174MPD1    C2 2703   1.042   1.991  14.243  0.8068 -0.1120 -1.0169
  174MPD1    C3 2704   0.922   1.929  14.216 -0.5455  0.7591  0.1339
  174MPD1    C4 2705   0.872   1.927  14.088 -0.9396  0.7746 -0.2464
  174MPD1    C5 2706   0.947   1.985  13.985  0.1304  0.5113  0.5534
  174MPD1     H 2707   1.080   1.987  14.344 -0.4300  0.1545 -0.5526
  174MPD1    H1 2708   0.775   1.886  14.064  0.2106 -1.8777 -0.4217
  174MPD1    H2 2709   1.121   2.089  13.932 -0.8805 -1.9950 -1.3979
  174MPD1    H3 2710   0.909   1.984  13.883  1.0121 -1.1776  0.2464
  174MPD1     N 2711   0.842   1.862  14.307 -0.7958 -0.3094 -0.2432
  174MPD1    H5 2712   0.755   1.825  14.270 -1.2292 -0.2709  0.7291
  174MPD1    N1 2713   1.242   2.114  14.165  0.1028 -0.2990  0.1013
  174MPD1    H6 2714   1.265   2.179  14.091 -0.2995  0.6356  0.7929
  174MPD1    H7 2715   1.243   2.164  14.254 -0.8072 -0.3876  0.1596
  175MPD1     C 2716   4.009   2.307  15.225 -0.1457  0.3826  0.1868
  175MPD1    C1 2717   3.883   2.348  15.242  0.7062 -0.3333  0.1847
  175MPD1    C2 2718   3.853   2.440  15.338  0.1624 -0.1575  1.1026
  175MPD1    C3 2719   3.947   2.479  15.436  0.2651 -0.7801  0.2522
  175MPD1    C4 2720   4.072   2.426  15.431 -0.3744 -0.4603 -0.0774
  175MPD1    C5 2721   4.098   2.331  15.332 -0.1861 -0.4814  0.3240
  175MPD1     H 2722   3.749   2.469  15.348  0.4541  0.8217  1.2973
  175MPD1    H1 2723   4.146   2.450  15.506 -0.3918  3.5283 -1.2908
  175MPD1    H2 2724   4.030   2.238  15.144 -1.4414  0.6599 -0.3839
  175MPD1    H3 2725   4.196   2.286  15.323 -0.3684 -1.5456  3.4122
  175MPD1     N 2726   3.918   2.572  15.533 -0.0846  0.1351  0.6816
  175MPD1    H5 2727   3.987   2.596  15.604  0.2036  0.3664  0.3225
  175MPD1    N1 2728   3.781   2.311  15.154 -0.7364 -0.0637 -0.4423
  175MPD1    H6 2729   3.814   2.216  15.138  2.8268  0.7742  1.7641
  175MPD1    H7 2730   3.689   2.317  15.197  0.0725 -1.5097  1.4939
  176MPD1     C 2731   0.471   0.657   0.278  0.1573  0.4892 -0.3393
  176MPD1    C1 2732   0.457   0.678   0.143 -0.0654 -0.1306 -0.8619
  176MPD1    C2 2733   0.562   0.746   0.077 -0.2829 -0.3714 -0.3633
  176MPD1    C3 2734   0.665   0.799   0.150 -0.0801 -0.0126  0.5030
  176MPD1    C4 2735   0.678   0.777   0.286 -0.2804  0.6771 -0.3265
  176MPD1    C5 2736   0.580   0.704   0.344  0.3517  0.8024 -0.7514
  176MPD1     H 2737   0.563   0.760  17.726  0.0453 -0.9517 -0.4354
  176MPD1    H1 2738   0.758   0.817   0.348  1.4035 -2.1479 -0.7007
  176MPD1    H2 2739   0.398   0.607   0.341 -0.0474  0.8242 -0.3093
  176MPD1    H3 2740   0.576   0.695   0.452  3.0950 -1.7601 -0.8725
  176MPD1     N 2741   0.762   0.874   0.077  0.1653  0.2669 -0.2995
  176MPD1    H5 2742   0.753   0.880  17.733  0.3729 -0.9744 -0.3847
  176MPD1    N1 2743   0.343   0.644   0.075 -0.5960 -0.2040  0.1293
  176MPD1    H6 2744   0.298   0.558   0.106 -0.7140  0.3616  1.5128
  176MPD1    H7 2745   0.358   0.620  17.733 -1.5136 -0.5925  0.0877
  177MPD1     C 2746   4.336   0.433  10.135  0.8321  0.1253  0.2097
  177MPD1    C1 2747   4.331   0.547  10.054 -0.1767  0.1182  0.4797
  177MPD1    C2 2748   4.241   0.550   9.945  0.4747 -0.5700  0.4102
  177MPD1    C3 2749   4.166   0.436   9.923  0.0285 -0.0993  0.3470
  177MPD1    C4 2750   4.166   0.331  10.009 -0.4482  0.1572 -0.4181
  177MPD1    C5 2751   4.244   0.335  10.119 -0.0725 -0.6573 -0.2624
  177MPD1     H 2752   4.233   0.636   9.880 -1.7245 -0.5564  0.7113
  177MPD1    H1 2753   4.100   0.246   9.997 -0.0283 -0.1379 -0.6151
  177MPD1    H2 2754   4.410   0.426  10.214  1.5023  0.6271 -0.3635
  177MPD1    H3 2755   4.248   0.252  10.189  0.9479  1.1368  1.8076
  177MPD1     N 2756   4.077   0.440   9.813 -0.6584  0.3757  0.4919
  177MPD1    H5 2757   4.096   0.517   9.750  2.3529  2.1319  3.5704
  177MPD1    N1 2758   4.426   0.643  10.076  0.0687 -0.2874 -0.6797
  177MPD1    H6 2759   4.461   0.643  10.172  0.8080 -0.9929 -0.9494
  177MPD1    H7 2760   4.392   0.733  10.043  4.1423  1.0458 -1.1850
  178MPD1     C 2761   1.700   1.313   0.138  0.1303  0.2341  0.1457
  178MPD1    C1 2762   1.615   1.273   0.036  0.0035 -0.0792  0.2318
  178MPD1    C2 2763   1.674   1.202  17.688  0.0284 -0.4983  0.4025
  178MPD1    C3 2764   1.808   1.161  17.696  1.0894  0.4434  0.1962
  178MPD1    C4 2765   1.893   1.212   0.037 -0.9518  0.2261 -0.0649
  178MPD1    C5 2766   1.835   1.280   0.141 -0.7306 -0.2681  0.4965
  178MPD1     H 2767   1.612   1.169  17.605  0.8247 -0.4398 -0.2261
  178MPD1    H1 2768   2.001   1.199   0.036 -1.0598 -0.7306  1.1937
  178MPD1    H2 2769   1.671   1.378   0.219  0.0222 -1.0420  1.1420
  178MPD1    H3 2770   1.881   1.330   0.226 -1.7722 -1.2487  1.6398
  178MPD1     N 2771   1.863   1.071  17.603  0.0733 -0.1975 -0.4069
  178MPD1    H5 2772   1.961   1.081  17.582 -0.2196  2.9165 -0.3494
  178MPD1    N1 2773   1.484   1.312   0.049 -0.9575 -0.5997  0.0338
  178MPD1    H6 2774   1.477   1.407   0.086  0.8124  0.1049 -1.4095
  178MPD1    H7 2775   1.443   1.300  17.713  0.8955 -2.7038 -0.5201
  179MPD1     C 2776   1.341   3.623  14.730  0.1193  0.0451  0.9466
  179MPD1    C1 2777   1.392   3.686  14.840 -0.2278 -0.3554  0.1622
  179MPD1    C2 2778   1.360   3.635  14.966  0.0649  0.3492  0.4996
  179MPD1    C3 2779   1.304   3.505  14.974 -0.5128 -0.2595  0.2029
  179MPD1    C4 2780   1.269   3.441  14.855 -0.5054  0.5073  0.3317
  179MPD1    C5 2781   1.283   3.501  14.738 -0.1218 -0.1166 -0.1863
  179MPD1     H 2782   1.392   3.686  15.056  2.0440  2.2921 -1.2714
  179MPD1    H1 2783   1.224   3.343  14.850  2.4067 -0.7617 -0.6952
  179MPD1    H2 2784   1.333   3.672  14.634  2.7889 -0.5794  0.4107
  179MPD1    H3 2785   1.244   3.450  14.651  2.5075  1.4650 -2.2977
  179MPD1     N 2786   1.272   3.444  15.098  0.1348 -0.2198  0.1511
  179MPD1    H5 2787   1.232   3.351  15.090  0.2531 -0.1737 -0.9389
  179MPD1    N1 2788   1.435   3.817  14.826  0.2738  0.2193  0.4603
  179MPD1    H6 2789   1.483   3.831  14.737 -1.2667 -0.0703 -0.4234
  179MPD1    H7 2790   1.492   3.838  14.907  0.6411  1.7655 -0.1970
  180MPD1     C 2791   0.668   0.502  15.257 -0.2906 -0.0032 -0.7226
  180MPD1    C1 2792   0.573   0.429  15.198 -0.2258  0.0776 -0.0564
  180MPD1    C2 2793   0.581   0.418  15.059  1.0635  0.8677 -0.9235
  180MPD1    C3 2794   0.680   0.479  14.986  0.3297  0.9412 -0.4247
  180MPD1    C4 2795   0.775   0.560  15.047 -0.0286  0.0084  0.6542
  180MPD1    C5 2796   0.764   0.572  15.188  0.3753 -0.2761 -0.4874
  180MPD1     H 2797   0.516   0.355  15.000  0.5238  1.1681 -0.6440
  180MPD1    H1 2798   0.852   0.604  14.985  1.4760 -1.6940  1.2995
  180MPD1    H2 2799   0.673   0.517  15.364 -0.1474  0.4966 -0.7976
  180MPD1    H3 2800   0.837   0.632  15.243  0.5645 -1.4052  0.4872
  180MPD1     N 2801   0.672   0.464  14.846 -0.3100 -0.5367  0.4505
  180MPD1    H5 2802   0.596   0.409  14.807 -0.3183 -0.5174  0.4394
  180MPD1    N1 2803   0.495   0.348  15.273 -0.1749  0.3395 -0.3276
  180MPD1    H6 2804   0.403   0.327  15.235 -1.2844  3.7495  0.4788
  180MPD1    H7 2805   0.479   0.390  15.364 -3.3371  1.2230 -1.3041
  181MPD1     C 2806   3.010   1.755  10.093 -0.9343 -0.3864  1.1020
  181MPD1    C1 2807   3.064   1.844  10.183 -0.0951  0.2576  0.0419
  181MPD1    C2 2808   3.117   1.960  10.140 -0.0915 -0.2884  0.2092
  181MPD1    C3 2809   3.157   1.973  10.009  1.0526 -0.8156  0.2032
  181MPD1    C4 2810   3.131   1.867   9.920  0.0264  0.1883  0.3207
  181MPD1    C5 2811   3.057   1.759   9.963 -0.2929 -0.1445 -0.1635
  181MPD1     H 2812   3.131   2.042  10.209 -0.1555  0.6899 -0.9399
  181MPD1    H1 2813   3.166   1.860   9.818 -1.7813  1.0806 -0.3603
  181MPD1    H2 2814   2.947   1.668  10.114  1.0964 -2.1627 -0.1449
  181MPD1    H3 2815   3.037   1.680   9.892  0.1860  0.3008 -0.7899
  181MPD1     N 2816   3.246   2.074   9.962 -0.3262  0.5022 -0.2052
  181MPD1    H5 2817   3.264   2.067   9.862 -0.4410 -3.2628  0.0265
  181MPD1    N1 2818   3.026   1.831  10.310  0.1692  0.0792  0.0496
  181MPD1    H6 2819   3.091   1.866  10.381 -0.9326 -0.3781  1.2934
  181MPD1    H7 2820   3.003   1.734  10.332 -0.0326 -0.2228 -1.5159
  182MPD1     C 2821   3.740   0.584   1.095 -0.0295  0.2403 -0.4280
  182MPD1    C1 2822   3.727   0.717   1.118 -0.1032 -0.4846 -0.3362
  182MPD1    C2 2823   3.638   0.792   1.047  0.7843 -0.6356 -0.1687
  182MPD1    C3 2824   3.554   0.729   0.951  0.4863  0.2236 -0.5821
  182MPD1    C4 2825   3.560   0.592   0.938  0.1877 -0.1064  0.6913
  182MPD1    C5 2826   3.655   0.523   1.001 -0.9903 -0.3415  0.1646
  182MPD1     H 2827   3.639   0.898   1.070  0.7203 -0.5985 -0.3426
  182MPD1    H1 2828   3.495   0.540   0.868 -0.1976  1.6342 -0.2587
  182MPD1    H2 2829   3.822   0.531   1.143 -0.1575 -0.2540 -0.7551
  182MPD1    H3 2830   3.676   0.421   0.970  2.1070 -0.2928  2.0812
  182MPD1     N 2831   3.457   0.797   0.874 -0.6819 -0.3756 -0.0033
  182MPD1    H5 2832   3.412   0.745   0.799 -1.5380  1.2166 -0.5989
  182MPD1    N1 2833   3.827   0.784   1.193 -0.4359 -0.0081  0.5727
  182MPD1    H6 2834   3.865   0.725   1.268  1.2670 -1.9237 -1.7924
  182MPD1    H7 2835   3.786   0.866   1.237 -0.2944  1.3531 -1.8410
  183MPD1     C 2836   3.546   1.210   8.181  0.7298 -0.0759 -0.0595
  183MPD1    C1 2837   3.528   1.323   8.106  0.1143 -0.0047  0.3438
  183MPD1    C2 2838   3.580   1.437   8.163  0.0523  0.0466  0.1326
  183MPD1    C3 2839   3.638   1.444   8.286  0.4933 -0.3276 -0.4629
  183MPD1    C4 2840   3.648   1.331   8.368 -0.1000 -0.7724 -0.1313
  183MPD1    C5 2841   3.598   1.216   8.311 -0.0871  0.6538 -0.5133
  183MPD1     H 2842   3.583   1.526   8.102 -1.8924 -1.3082 -1.9622
  183MPD1    H1 2843   3.700   1.327   8.463  1.0424 -0.2847 -0.7450
  183MPD1    H2 2844   3.507   1.114   8.148 -1.3037  0.5877  0.4283
  183MPD1    H3 2845   3.612   1.124   8.367  0.6862  1.5074  0.6794
  183MPD1     N 2846   3.715   1.561   8.322 -0.1272  0.1196  0.2734
  183MPD1    H5 2847   3.718   1.635   8.253 -0.6236  0.5762  0.7410
  183MPD1    N1 2848   3.488   1.318   7.975 -0.3831 -0.4086  0.1385
  183MPD1    H6 2849   3.445   1.403   7.939 -1.9712 -1.1466  0.2542
  183MPD1    H7 2850   3.417   1.248   7.953  0.1300  0.2137 -3.4453
  184MPD1     C 2851   3.565   4.297  10.164  0.1106  0.3143  0.6153
  184MPD1    C1 2852   3.433   4.287  10.126 -0.0458  0.2806 -0.4955
  184MPD1    C2 2853   3.381   4.390  10.050  0.5579  0.3567  0.6715
  184MPD1    C3 2854   3.455   4.498  10.008 -0.3733  0.4533 -0.9178
  184MPD1    C4 2855   3.590   4.495  10.043 -0.6122 -0.6618  0.4763
  184MPD1    C5 2856   3.648   4.402  10.123  0.7736  0.4463 -0.4693
  184MPD1     H 2857   3.277   4.383  10.021  0.3058 -0.1303  1.6894
  184MPD1    H1 2858   3.656   4.578  10.020 -0.4501 -0.5723  1.2675
  184MPD1    H2 2859   3.617   4.218  10.216 -1.9795 -1.1449  0.4815
  184MPD1    H3 2860   3.751   4.384  10.150 -0.1241 -2.8798  0.7146
  184MPD1     N 2861   3.402   4.594   9.926 -0.0001 -0.6276  0.3809
  184MPD1    H5 2862   3.460   4.668   9.888  1.1015 -0.2949  2.7331
  184MPD1    N1 2863   3.367   4.160  10.127 -0.6320  0.2294 -0.2573
  184MPD1    H6 2864   3.268   4.179  10.141 -0.1545  2.5532 -0.1238
  184MPD1    H7 2865   3.392   4.107  10.211  2.2377 -1.0338 -1.9146
  185MPD1     C 2866   2.525   4.653   9.353 -0.5348 -0.1505  0.5406
  185MPD1    C1 2867   2.541   0.032   9.431 -0.1552 -0.1825 -0.0339
  185MPD1    C2 2868   2.661   0.053   9.502  0.9477  0.1342  0.0697
  185MPD1    C3 2869   2.763   4.696   9.500  0.1207  0.2537  1.1879
  185MPD1    C4 2870   2.740   4.576   9.431 -0.0394 -0.0896 -0.1565
  185MPD1    C5 2871   2.619   4.558   9.361  0.6658  0.2192  0.1931
  185MPD1     H 2872   2.671   0.149   9.550  2.5244 -0.2522  0.5002
  185MPD1    H1 2873   2.804   4.488   9.430 -1.0593 -0.8430  1.3409
  185MPD1    H2 2874   2.432   4.628   9.303  0.3916  0.7086 -1.6249
  185MPD1    H3 2875   2.606   4.464   9.310  1.3946  0.0049  0.4055
  185MPD1     N 2876   2.886   4.715   9.565 -0.0150  0.6339  0.0814
  185MPD1    H5 2877   2.938   4.628   9.558 -1.4198 -0.2283  0.5064
  185MPD1    N1 2878   2.437   0.127   9.414  0.3562 -0.1006  0.3493
  185MPD1    H6 2879   2.345   0.089   9.393  0.5147 -0.4664  0.3114
  185MPD1    H7 2880   2.431   0.192   9.491  0.5535 -0.4608  0.6683
  186MPD1     C 2881   1.079   3.840  15.721 -0.5831  0.3045  0.4079
  186MPD1    C1 2882   1.214   3.840  15.675 -0.1322 -0.2732  0.1072
  186MPD1    C2 2883   1.307   3.897  15.758  0.0954 -0.7049  0.3493
  186MPD1    C3 2884   1.270   3.963  15.879  0.1355  0.0439 -0.1785
  186MPD1    C4 2885   1.138   3.960  15.912 -0.2356  0.2126  0.0311
  186MPD1    C5 2886   1.045   3.899  15.835 -0.9244 -0.1153  0.2943
  186MPD1     H 2887   1.410   3.880  15.730  0.6778  0.9530  1.4550
  186MPD1    H1 2888   1.107   4.009  16.003 -1.5756 -0.5838  0.0161
  186MPD1    H2 2889   1.000   3.797  15.660 -0.1517  0.9643 -0.6248
  186MPD1    H3 2890   0.942   3.904  15.870 -0.1591  3.2774  2.0644
  186MPD1     N 2891   1.356   4.034  15.963  0.4954 -0.0312  0.0878
  186MPD1    H5 2892   1.320   4.089  16.041 -1.8325 -0.6261 -0.5449
  186MPD1    N1 2893   1.252   3.756  15.567 -0.1119 -0.0947  0.3471
  186MPD1    H6 2894   1.275   3.660  15.594  0.4986  0.4040  1.6002
  186MPD1    H7 2895   1.323   3.787  15.502  1.0131 -0.2839  1.4788
  187MPD1     C 2896   1.490   0.953  17.159  0.2032 -0.1159 -0.5371
  187MPD1    C1 2897   1.369   0.955  17.092  0.5041  0.0692  0.1624
  187MPD1    C2 2898   1.285   1.067  17.103  0.0583 -0.1523  0.3275
  187MPD1    C3 2899   1.323   1.182  17.160 -0.1734  0.1497  0.1241
  187MPD1    C4 2900   1.453   1.187  17.214 -0.1860 -0.0699 -0.2141
  187MPD1    C5 2901   1.531   1.072  17.220 -0.1231  0.0975  0.2018
  187MPD1     H 2902   1.183   1.052  17.071 -0.1715 -0.9370  1.4213
  187MPD1    H1 2903   1.492   1.279  17.255 -2.6888  0.5894  0.6920
  187MPD1    H2 2904   1.547   0.862  17.174 -1.1808 -0.7375  1.0164
  187MPD1    H3 2905   1.626   1.078  17.272  0.1638  0.1221 -0.3278
  187MPD1     N 2906   1.238   1.289  17.162 -0.3412  0.5282  0.0352
  187MPD1    H5 2907   1.147   1.275  17.119 -0.0990 -0.6757 -0.0612
  187MPD1    N1 2908   1.324   0.839  17.035  0.0940  0.2535 -0.0609
  187MPD1    H6 2909   1.395   0.797  16.975  0.0771  0.8158 -0.4823
  187MPD1    H7 2910   1.243   0.852  16.974  0.3783 -2.3791 -0.9947
  188MPD1     C 2911   0.999   1.554   9.976 -0.2028  0.4995 -0.3850
  188MPD1    C1 2912   0.905   1.534   9.881 -0.1112 -0.6743 -0.3135
  188MPD1    C2 2913   0.879   1.402   9.845 -0.5134  0.0615  0.5201
  188MPD1    C3 2914   0.963   1.305   9.897  0.0601 -0.3039 -0.0990
  188MPD1    C4 2915   1.065   1.329   9.991 -0.0128  0.6345 -0.5120
  188MPD1    C5 2916   1.078   1.457  10.025  0.0639 -0.0453 -0.1226
  188MPD1     H 2917   0.806   1.374   9.770 -0.0435 -1.1701  0.5320
  188MPD1    H1 2918   1.140   1.258  10.023 -0.3022  0.8722  0.6935
  188MPD1    H2 2919   1.026   1.657   9.996 -1.1899  0.8163 -0.7124
  188MPD1    H3 2920   1.153   1.490  10.096 -1.6763 -1.9838  2.5911
  188MPD1     N 2921   0.953   1.166   9.861 -0.3534  0.0393 -0.4908
  188MPD1    H5 2922   1.022   1.103   9.900 -1.4606 -0.3704  0.7957
  188MPD1    N1 2923   0.830   1.640   9.822 -0.1202 -0.0982  0.5217
  188MPD1    H6 2924   0.891   1.711   9.783 -0.3054  0.5689  1.4475
  188MPD1    H7 2925   0.777   1.598   9.746 -0.3359 -1.5624  1.4654
  189MPD1     C 2926   2.693   2.066   0.587  0.6646  0.5903 -0.1383
  189MPD1    C1 2927   2.617   2.058   0.700 -0.0131  0.4236  0.3355
  189MPD1    C2 2928   2.539   2.170   0.728  0.1025  0.0443 -0.4973
  189MPD1    C3 2929   2.539   2.279   0.646  0.2977 -0.8533 -0.0245
  189MPD1    C4 2930   2.621   2.283   0.537 -0.1082 -0.1249  0.2505
  189MPD1    C5 2931   2.697   2.176   0.507  0.5343  0.7108 -0.4147
  189MPD1     H 2932   2.460   2.161   0.801  0.3435 -1.1611 -0.3895
  189MPD1    H1 2933   2.621   2.363   0.464 -2.1869 -0.7371 -0.4166
  189MPD1    H2 2934   2.764   1.986   0.564  0.3353 -0.5538  2.8986
  189MPD1    H3 2935   2.758   2.179   0.417 -1.4519  1.0078 -1.7493
  189MPD1     N 2936   2.438   2.371   0.661 -0.1512  0.3580 -0.0330
  189MPD1    H5 2937   2.351   2.344   0.705 -0.4268  0.7252 -0.3552
  189MPD1    N1 2938   2.590   1.936   0.761 -0.3980 -0.3372  0.3315
  189MPD1    H6 2939   2.670   1.876   0.742  0.4987  0.9831 -0.0255
  189MPD1    H7 2940   2.597   1.949   0.862  0.2203 -2.3918  0.5468
  190MPD1     C 2941   1.231   0.175  14.670 -0.0090  0.6015  0.2654
  190MPD1    C1 2942   1.271   0.081  14.769 -0.0047  0.3039 -0.3770
  190MPD1    C2 2943   1.338   0.128  14.882  0.3424 -0.4093  0.0931
  190MPD1    C3 2944   1.383   0.258  14.894  0.0479 -0.2190  0.1760
  190MPD1    C4 2945   1.343   0.348  14.802  0.6319 -0.4150  0.1217
  190MPD1    C5 2946   1.269   0.309  14.688  0.3050 -0.3588 -0.1915
  190MPD1     H 2947   1.364   0.064  14.965 -1.1716 -1.3297 -0.1542
  190MPD1    H1 2948   1.368   0.453  14.814  1.7668 -0.6999  0.2376
  190MPD1    H2 2949   1.174   0.146  14.583 -0.1121 -0.3928  0.6709
  190MPD1    H3 2950   1.245   0.373  14.604 -2.4690 -1.4135 -0.2021
  190MPD1     N 2951   1.461   0.298  15.008  0.2145  0.1166 -0.6849
  190MPD1    H5 2952   1.443   0.236  15.087 -1.5557 -1.2762 -2.1907
  190MPD1    N1 2953   1.205   4.696  14.776  0.3577 -0.0535 -0.1456
  190MPD1    H6 2954   1.183   4.640  14.694 -0.6542 -0.6098  0.4869
  190MPD1    H7 2955   1.250   4.640  14.849 -0.9919 -0.0211  0.7344
  191MPD1     C 2956   2.471   2.563  11.482  0.1199 -0.3911  0.3570
  191MPD1    C1 2957   2.437   2.468  11.582  0.0164  1.0933 -0.6243
  191MPD1    C2 2958   2.341   2.376  11.554  0.1517 -0.1550  0.7238
  191MPD1    C3 2959   2.303   2.355  11.423 -0.0410  0.7895 -0.1356
  191MPD1    C4 2960   2.346   2.449  11.322 -0.4329  0.3910  0.1345
  191MPD1    C5 2961   2.437   2.552  11.354 -0.1942 -0.1798 -0.1211
  191MPD1     H 2962   2.303   2.322  11.640  0.1328 -3.2695 -1.2644
  191MPD1    H1 2963   2.317   2.433  11.219  1.1920  0.0307 -0.2591
  191MPD1    H2 2964   2.537   2.647  11.501  0.5650  0.0081 -2.9832
  191MPD1    H3 2965   2.466   2.621  11.276 -3.7307  1.1378 -0.2538
  191MPD1     N 2966   2.207   2.255  11.406 -0.1657 -0.5275 -0.1528
  191MPD1    H5 2967   2.184   2.196  11.485  0.1432  0.3913  0.6257
  191MPD1    N1 2968   2.470   2.490  11.719  0.4870  0.5031  0.0495
  191MPD1    H6 2969   2.566   2.523  11.729  0.6045  0.5270 -1.0914
  191MPD1    H7 2970   2.460   2.405  11.774  0.4758  0.3780 -0.1477
  192MPD1     C 2971   1.593   1.582  10.755  0.7649 -0.8810  0.0836
  192MPD1    C1 2972   1.578   1.717  10.763 -0.3488 -0.5220  0.4357
  192MPD1    C2 2973   1.653   1.793  10.850  0.0973 -0.2274 -0.2215
  192MPD1    C3 2974   1.737   1.732  10.938  0.2739  0.0103  0.1433
  192MPD1    C4 2975   1.758   1.593  10.928 -0.2662 -0.3164  0.3213
  192MPD1    C5 2976   1.684   1.520  10.837 -0.0687  0.6228 -0.1789
  192MPD1     H 2977   1.639   1.900  10.846  0.0120 -0.2206  0.2275
  192MPD1    H1 2978   1.821   1.544  11.001 -2.5670  0.7057  2.9394
  192MPD1    H2 2979   1.535   1.520  10.689  0.4981 -0.2880 -0.2362
  192MPD1    H3 2980   1.701   1.413  10.823 -2.2846  0.3976 -1.2685
  192MPD1     N 2981   1.819   1.792  11.036  0.0010  0.3652  0.2137
  192MPD1    H5 2982   1.892   1.732  11.073 -1.2930 -2.0116 -1.0492
  192MPD1    N1 2983   1.496   1.784  10.670 -0.2676  0.7220  0.2196
  192MPD1    H6 2984   1.413   1.728  10.650 -1.4627  2.6042 -0.0393
  192MPD1    H7 2985   1.477   1.874  10.713 -1.3011 -0.3618  2.0670
  193MPD1     C 2986   0.250   2.205  15.988  1.2038 -0.4581 -0.6907
  193MPD1    C1 2987   0.142   2.285  16.009 -0.6168 -0.8478 -0.0747
  193MPD1    C2 2988   0.169   2.403  16.082 -0.2957  0.0085 -0.6595
  193MPD1    C3 2989   0.300   2.437  16.120 -0.2600  0.5935  0.1469
  193MPD1    C4 2990   0.397   2.358  16.083 -0.3772 -0.0673  0.2223
  193MPD1    C5 2991   0.376   2.232  16.029 -0.0215  0.0235 -0.2821
  193MPD1     H 2992   0.087   2.470  16.104 -0.4080 -0.6250  0.8355
  193MPD1    H1 2993   0.501   2.385  16.099 -0.8911  3.1491 -1.8760
  193MPD1    H2 2994   0.227   2.108  15.945  1.4167 -1.0517  0.5271
  193MPD1    H3 2995   0.456   2.166  15.997  1.3939  1.2427  0.7686
  193MPD1     N 2996   0.336   2.557  16.197  0.3870  0.3119  0.5140
  193MPD1    H5 2997   0.432   2.563  16.228  0.6359  2.9166 -0.7489
  193MPD1    N1 2998   0.012   2.249  15.962 -0.3260  0.0996 -0.0426
  193MPD1    H6 2999   4.708   2.328  15.915 -3.0536 -0.8945  0.8279
  193MPD1    H7 3000   0.008   2.172  15.895 -2.6383  0.3132 -0.1706
  194MPD1     C 3001   2.796   0.114  16.783  0.5550 -0.7318  0.1170
  194MPD1    C1 3002   2.720   0.074  16.684  0.0461 -0.2429  0.0450
  194MPD1    C2 3003   2.721   4.680  16.661 -0.9807  0.3573  0.2790
  194MPD1    C3 3004   2.785   4.575  16.730  0.0276  0.9450 -0.1107
  194MPD1    C4 3005   2.860   4.615  16.836  0.2873  0.1128 -0.2088
  194MPD1    C5 3006   2.864   0.013  16.852 -0.5270 -0.0186  0.2592
  194MPD1     H 3007   2.653   4.652  16.582 -1.0253 -0.2526  0.5372
  194MPD1    H1 3008   2.914   4.549  16.903 -0.9665 -1.3847 -0.6734
  194MPD1    H2 3009   2.817   0.216  16.813  0.6806 -1.0435  1.0819
  194MPD1    H3 3010   2.923   0.057  16.931 -2.0261  2.1069  0.1772
  194MPD1     N 3011   2.777   4.432  16.702 -0.2382  0.7209 -0.4551
  194MPD1    H5 3012   2.832   4.361  16.751  0.9582  1.4460 -0.7607
  194MPD1    N1 3013   2.644   0.163  16.614 -0.2651  0.1987 -0.3049
  194MPD1    H6 3014   2.604   0.124  16.530  0.5434 -2.1908  0.4401
  194MPD1    H7 3015   2.694   0.246  16.583 -0.7136  0.0181 -1.4880
  195MPD1     C 3016   4.631   2.257   0.613  0.1314  0.3039 -0.1085
  195MPD1    C1 3017   4.547   2.142   0.609 -0.5788  0.0905 -0.2136
  195MPD1    C2 3018   4.614   2.027   0.579 -0.9479  0.5621 -0.3110
  195MPD1    C3 3019   0.013   2.023   0.568 -0.1204  0.0594 -0.4229
  195MPD1    C4 3020   0.092   2.135   0.579  0.3005  0.6226  0.1895
  195MPD1    C5 3021   0.024   2.250   0.594  0.1554 -0.0311 -0.3683
  195MPD1     H 3022   4.553   1.937   0.578  1.7290 -1.2027 -3.8244
  195MPD1    H1 3023   0.198   2.139   0.555  0.5201 -0.7742  0.8775
  195MPD1    H2 3024   4.582   2.353   0.625 -1.4109 -0.2187 -2.3370
  195MPD1    H3 3025   0.070   2.346   0.613  0.9366 -0.7195  1.1945
  195MPD1     N 3026   0.088   1.906   0.537 -0.8512  0.3097 -0.1793
  195MPD1    H5 3027   0.188   1.921   0.526 -1.3002  2.6581 -1.2734
  195MPD1    N1 3028   4.412   2.152   0.580 -0.2057 -0.3711  0.1007
  195MPD1    H6 3029   4.355   2.085   0.632  0.0585 -1.4302 -0.9714
  195MPD1    H7 3030   4.378   2.242   0.613  0.1630  0.0522 -0.6888
  196MPD1     C 3031   4.133   4.571   0.328 -0.2822  0.0791 -0.2786
  196MPD1    C1 3032   4.170   4.649   0.223 -0.7504  0.7339 -0.4497
  196MPD1    C2 3033   4.210   0.045   0.258  0.3411  0.3484  0.2615
  196MPD1    C3 3034   4.240   0.078   0.389 -0.1608 -0.1499  0.1039
  196MPD1    C4 3035   4.217   4.725   0.490 -0.4450 -0.3373 -0.0707
  196MPD1    C5 3036   4.164   4.604   0.457 -0.1629  0.0017  0.5693
  196MPD1     H 3037   4.231   0.122   0.185  0.6331 -0.6954 -0.7506
  196MPD1    H1 3038   4.254   0.007   0.590  0.9836  2.2065 -1.1573
  196MPD1    H2 3039   4.095   4.471   0.312 -0.7300  0.2520 -0.3065
  196MPD1    H3 3040   4.149   4.534   0.538  1.7436  1.4740  2.1976
  196MPD1     N 3041   4.306   0.197   0.437  0.9689  0.5569  0.3375
  196MPD1    H5 3042   4.327   0.200   0.536 -0.1354 -2.1946  0.6323
  196MPD1    N1 3043   4.136   4.598   0.097  0.1758  0.1827  0.2558
  196MPD1    H6 3044   4.155   4.498   0.091 -2.1831 -0.2997  0.9808
  196MPD1    H7 3045   4.177   4.644   0.016  0.9817  0.5474  0.8685
  197MPD1     C 3046   4.146   2.630  17.520  0.2415  0.1585 -0.2241
  197MPD1    C1 3047   4.082   2.742  17.573  0.5119  0.2774  0.0101
  197MPD1    C2 3048   4.056   2.845  17.486  0.2265 -0.0852 -0.5423
  197MPD1    C3 3049   4.082   2.841  17.347 -0.4703 -0.5088  0.0068
  197MPD1    C4 3050   4.142   2.723  17.303 -0.2909 -0.2031 -0.3115
  197MPD1    C5 3051   4.173   2.626  17.392 -0.5156 -0.9952 -0.0923
  197MPD1     H 3052   4.015   2.938  17.525 -1.2023 -1.1178  0.3715
  197MPD1    H1 3053   4.166   2.700  17.200  0.7614  0.6321 -0.2535
  197MPD1    H2 3054   4.176   2.546  17.582 -1.0617  0.6952  1.1492
  197MPD1    H3 3055   4.216   2.533  17.356 -0.4563  0.0726 -2.7608
  197MPD1     N 3056   4.026   2.928  17.254  0.7572  0.2407  0.3554
  197MPD1    H5 3057   4.033   2.895  17.158 -1.2324 -0.1438  0.3512
  197MPD1    N1 3058   4.061   2.752  17.711  0.3713  0.0040 -0.1373
  197MPD1    H6 3059   4.035   2.660  17.747  0.5629 -0.8073 -2.0776
  197MPD1    H7 3060   3.986   2.820  17.726  0.5309 -0.2364  1.8475
  198MPD1     C 3061   0.633   1.836  15.727 -0.0898  0.1211  0.3417
  198MPD1    C1 3062   0.712   1.906  15.820  0.4323  0.3519 -0.3115
  198MPD1    C2 3063   0.828   1.843  15.866 -0.5340  0.1246  0.3749
  198MPD1    C3 3064   0.870   1.720  15.809  0.1189 -0.3453  0.6208
  198MPD1    C4 3065   0.789   1.656  15.720  0.2182  0.5673  0.2886
  198MPD1    C5 3066   0.675   1.714  15.682 -0.5649 -0.0279  0.1611
  198MPD1     H 3067   0.889   1.889  15.943  0.3920 -0.6455  0.0959
  198MPD1    H1 3068   0.818   1.565  15.667  2.8184  0.1680  2.3477
  198MPD1    H2 3069   0.533   1.863  15.695 -0.6081 -0.1450  1.7581
  198MPD1    H3 3070   0.612   1.667  15.606  0.1930 -1.8435  0.6607
  198MPD1     N 3071   0.991   1.663  15.848 -0.0330 -0.1848  0.3029
  198MPD1    H5 3072   1.044   1.714  15.917  1.2887 -2.1661  0.7523
  198MPD1    N1 3073   0.675   2.015  15.900 -0.2048 -0.0431 -0.2046
  198MPD1    H6 3074   0.613   2.078  15.850 -0.6343  2.3050  3.3018
  198MPD1    H7 3075   0.743   2.066  15.955 -1.9737  0.8596  1.1299
  199MPD1     C 3076   4.095   3.277   9.718  0.0668 -0.1258  0.1349
  199MPD1    C1 3077   3.988   3.355   9.756  0.3227  0.5070  0.1366
  199MPD1    C2 3078   3.874   3.302   9.815 -0.2827 -0.3919 -0.0151
  199MPD1    C3 3079   3.872   3.167   9.839  0.1498  0.0378 -0.1655
  199MPD1    C4 3080   3.980   3.089   9.803  0.1446  0.1687 -0.2898
  199MPD1    C5 3081   4.092   3.141   9.741 -0.3233  0.0640 -0.2930
  199MPD1     H 3082   3.797   3.369   9.850 -1.0122 -0.3910 -1.6615
  199MPD1    H1 3083   3.975   2.985   9.835  2.9342 -0.5482 -2.1801
  199MPD1    H2 3084   4.178   3.314   9.659  1.5931  1.7900  3.4624
  199MPD1    H3 3085   4.170   3.074   9.707 -0.7858 -1.0217  0.7806
  199MPD1     N 3086   3.754   3.097   9.878  0.6472  1.0981 -0.0070
  199MPD1    H5 3087   3.765   2.996   9.882 -4.4492  0.5485  0.3498
  199MPD1    N1 3088   3.986   3.489   9.719 -0.4404 -0.4705  0.3720
  199MPD1    H6 3089   3.916   3.539   9.774 -0.0562  1.4170 -0.8446
  199MPD1    H7 3090   4.079   3.526   9.703 -0.1158 -1.4644 -0.0611
  200MPD1     C 3091   1.966   2.392  14.887  0.5446 -0.2177 -0.1558
  200MPD1    C1 3092   2.101   2.404  14.857  0.2200 -0.0680 -0.1278
  200MPD1    C2 3093   2.133   2.518  14.783  0.2981 -0.6494 -0.4517
  200MPD1    C3 3094   2.042   2.595  14.713  0.2554  0.3677 -0.1532
  200MPD1    C4 3095   1.909   2.568  14.736  0.1450  0.5830 -1.0515
  200MPD1    C5 3096   1.873   2.467  14.831  0.1617 -0.3612  0.1092
  200MPD1     H 3097   2.236   2.552  14.772 -0.0798  0.6305  0.0738
  200MPD1    H1 3098   1.829   2.621  14.685 -1.0783  1.1431  1.4736
  200MPD1    H2 3099   1.931   2.314  14.954  0.3483  0.4596  0.5208
  200MPD1    H3 3100   1.770   2.442  14.849 -0.2163  0.1233 -1.3559
  200MPD1     N 3101   2.086   2.697  14.626  0.1656 -0.2892  0.4855
  200MPD1    H5 3102   2.186   2.717  14.628  0.0990  0.1101  0.0091
  200MPD1    N1 3103   2.202   2.333  14.925 -0.5623  0.3733 -0.4096
  200MPD1    H6 3104   2.174   2.239  14.950  0.6298 -0.0762 -0.7808
  200MPD1    H7 3105   2.294   2.328  14.883 -0.4295 -0.9396  0.0443
  201MPD1     C 3106   4.052   1.242  13.849 -0.6198  0.3733  0.1719
  201MPD1    C1 3107   4.042   1.108  13.886  0.2017 -0.6037 -0.2920
  201MPD1    C2 3108   4.161   1.044  13.913 -0.3458 -0.5492 -0.7931
  201MPD1    C3 3109   4.286   1.101  13.880  0.7645 -0.2806  0.1372
  201MPD1    C4 3110   4.289   1.229  13.834  0.3939  0.0506 -0.5237
  201MPD1    C5 3111   4.169   1.298  13.818 -0.2167  0.1053  0.3661
  201MPD1     H 3112   4.158   0.944  13.955 -0.4614  0.2151  1.0066
  201MPD1    H1 3113   4.383   1.280  13.816  1.0695 -0.3459  1.8170
  201MPD1    H2 3114   3.967   1.309  13.837 -1.3983 -0.2699  2.1784
  201MPD1    H3 3115   4.175   1.403  13.793  1.9018 -0.4074 -1.3334
  201MPD1     N 3116   4.407   1.024  13.885  0.2533 -0.0505  0.4195
  201MPD1    H5 3117   4.396   0.930  13.922  0.6899  0.8979  2.9672
  201MPD1    N1 3118   3.921   1.061  13.929 -0.0029 -0.1135 -0.0978
  201MPD1    H6 3119   3.910   0.960  13.924 -1.1882 -0.0170  0.5384
  201MPD1    H7 3120   3.847   1.111  13.880 -0.3891 -0.7022 -0.1138
  202MPD1     C 3121   4.308   0.521   8.952  0.6111 -0.3144  0.5101
  202MPD1    C1 3122   4.276   0.630   8.880  0.4912  0.2375 -0.0613
  202MPD1    C2 3123   4.350   0.742   8.914 -0.9396  0.5756  0.9782
  202MPD1    C3 3124   4.417   0.754   9.029  0.3212 -0.5575  0.2600
  202MPD1    C4 3125   4.423   0.650   9.115 -0.1044 -0.2720  0.6887
  202MPD1    C5 3126   4.373   0.529   9.075 -0.3558  0.6217  0.8532
  202MPD1     H 3127   4.332   0.831   8.854  1.4891 -0.0419 -0.6859
  202MPD1    H1 3128   4.474   0.656   9.210  1.4419 -1.7060 -0.0401
  202MPD1    H2 3129   4.271   0.424   8.921 -1.0890  0.2222  0.8611
  202MPD1    H3 3130   4.392   0.446   9.142 -1.9949 -1.2538 -0.9959
  202MPD1     N 3131   4.486   0.876   9.065 -0.4341 -0.3523 -0.2670
  202MPD1    H5 3132   4.539   0.870   9.151  0.5477 -0.8078 -0.9066
  202MPD1    N1 3133   4.247   0.616   8.744  0.6520 -0.8157  0.1556
  202MPD1    H6 3134   4.196   0.699   8.714  0.8767 -0.4792  0.7083
  202MPD1    H7 3135   4.179   0.542   8.726 -0.1718  0.7378 -3.0451
  203MPD1     C 3136   3.864   2.570  12.073  0.0106 -0.0524 -0.0198
  203MPD1    C1 3137   3.787   2.549  12.188 -0.7340  0.4802  0.5369
  203MPD1    C2 3138   3.828   2.443  12.264  0.1220  0.1072 -0.7462
  203MPD1    C3 3139   3.941   2.366  12.240  0.2468 -0.4616  1.0029
  203MPD1    C4 3140   4.013   2.394  12.132  0.5359  0.7889  0.0192
  203MPD1    C5 3141   3.971   2.494  12.043  0.0681 -0.1478 -0.2452
  203MPD1     H 3142   3.768   2.418  12.351  3.0906  0.6485  1.4630
  203MPD1    H1 3143   4.101   2.337  12.103 -0.3419 -0.4982 -0.0897
  203MPD1    H2 3144   3.831   2.643  11.999  1.2540  2.2718  1.6973
  203MPD1    H3 3145   4.036   2.525  11.962  0.5643 -0.4371  0.0455
  203MPD1     N 3146   3.961   2.254  12.313  0.2748 -0.3134  0.4676
  203MPD1    H5 3147   3.898   2.249  12.392  0.9364  0.0143  1.0181
  203MPD1    N1 3148   3.670   2.614  12.213  0.1334 -0.4405 -0.1741
  203MPD1    H6 3149   3.672   2.710  12.178  0.1013 -0.4084 -0.0876
  203MPD1    H7 3150   3.653   2.610  12.313 -0.2481 -0.3866 -0.2378
  204MPD1     C 3151   2.639   3.608  17.562 -0.6851  0.4808 -0.0513
  204MPD1    C1 3152   2.748   3.583  17.478 -0.1797 -0.3415  0.5475
  204MPD1    C2 3153   2.778   3.453  17.461 -0.3133  0.5110  0.3268
  204MPD1    C3 3154   2.733   3.355  17.544 -0.1015 -1.1525 -0.3744
  204MPD1    C4 3155   2.638   3.386  17.643  0.6528  0.7167  1.1271
  204MPD1    C5 3156   2.585   3.511  17.645  0.5041  0.1483  0.0150
  204MPD1     H 3157   2.845   3.433  17.379 -0.2200  0.1828  0.4802
  204MPD1    H1 3158   2.591   3.317  17.712  3.5641 -1.1169  1.2385
  204MPD1    H2 3159   2.599   3.708  17.574  0.4932  1.1552 -1.7641
  204MPD1    H3 3160   2.502   3.530  17.712  1.1221 -0.6337  1.0185
  204MPD1     N 3161   2.784   3.223  17.531  0.3065 -0.4435 -0.2211
  204MPD1    H5 3162   2.837   3.220  17.444  1.1372  0.4028  0.2572
  204MPD1    N1 3163   2.794   3.677  17.381  0.1205  0.2052  0.1445
  204MPD1    H6 3164   2.885   3.639  17.357  0.7761  2.0050 -0.2820
  204MPD1    H7 3165   2.809   3.774  17.409  0.1462  0.2014  0.1434
  205MPD1     C 3166   3.285   1.252   0.074 -0.1406 -0.2283 -0.4815
  205MPD1    C1 3167   3.313   1.383   0.115 -0.0947 -0.2704 -0.6312
  205MPD1    C2 3168   3.226   1.479   0.078  0.0319 -1.0533 -0.3369
  205MPD1    C3 3169   3.120   1.461  17.752 -0.2717  0.2099  0.0008
  205MPD1    C4 3170   3.097   1.331  17.705 -0.2144 -0.9878  0.6012
  205MPD1    C5 3171   3.182   1.233  17.749  0.4041 -0.1748 -0.0162
  205MPD1     H 3172   3.245   1.578   0.118 -3.6932 -1.2439  1.9367
  205MPD1    H1 3173   3.021   1.300  17.633 -1.3766  1.1556  0.9089
  205MPD1    H2 3174   3.341   1.162   0.095  0.5900  0.6441  1.2732
  205MPD1    H3 3175   3.170   1.137  17.701 -1.8527 -1.3315  2.8567
  205MPD1     N 3176   3.028   1.558  17.713  0.8917 -1.1559 -0.0647
  205MPD1    H5 3177   2.953   1.531  17.650 -1.1798  2.8094  0.7380
  205MPD1    N1 3178   3.408   1.408   0.219  0.3461  0.1576  0.3245
  205MPD1    H6 3179   3.456   1.497   0.215  0.6336  0.0679  1.6904
  205MPD1    H7 3180   3.475   1.332   0.230  0.6808  0.6056  1.4089
  206MPD1     C 3181   3.327   4.593  17.121  0.7439 -0.1090 -0.2420
  206MPD1    C1 3182   3.316   4.726  17.087  0.3179 -0.1292 -0.1796
  206MPD1    C2 3183   3.288   0.017  16.958 -0.2411 -0.4656 -0.2051
  206MPD1    C3 3184   3.258   4.659  16.857 -0.1498  0.5057  0.0301
  206MPD1    C4 3185   3.276   4.523  16.892 -0.5119 -0.0029  0.4422
  206MPD1    C5 3186   3.304   4.500  17.024  0.1980  0.5544 -0.1312
  206MPD1     H 3187   3.270   0.117  16.922  2.2474  0.4390  1.1353
  206MPD1    H1 3188   3.268   4.446  16.816 -1.5488 -1.2723  1.8556
  206MPD1    H2 3189   3.353   4.547  17.215  3.5411  1.1171 -0.4017
  206MPD1    H3 3190   3.325   4.395  17.040  0.6830  0.5247 -0.9651
  206MPD1     N 3191   3.209   4.698  16.730 -0.3078  0.6503 -0.0201
  206MPD1    H5 3192   3.191   4.620  16.668  1.5637  0.7757 -0.7143
  206MPD1    N1 3193   3.358   0.079  17.190 -0.2296  0.0671  0.4502
  206MPD1    H6 3194   3.327   0.173  17.167  0.2446  0.3477  0.9446
  206MPD1    H7 3195   3.340   0.050  17.286 -0.2405  1.8339  0.9861
  207MPD1     C 3196   0.101   3.742   9.664  0.1463 -0.2132 -0.1083
  207MPD1    C1 3197   0.063   3.607   9.677  0.3671 -0.2772 -0.0257
  207MPD1    C2 3198   0.147   3.522   9.750 -0.1658 -0.3569 -0.5919
  207MPD1    C3 3199   0.264   3.579   9.814  0.5160 -0.1135 -0.2085
  207MPD1    C4 3200   0.295   3.713   9.797  0.3618  0.1446 -0.0775
  207MPD1    C5 3201   0.214   3.796   9.727  0.8907  0.3285 -0.3980
  207MPD1     H 3202   0.112   3.420   9.764 -1.0086 -0.1069 -0.8303
  207MPD1    H1 3203   0.376   3.760   9.851  1.1506 -0.6982 -0.5237
  207MPD1    H2 3204   0.044   3.814   9.607 -0.3490 -0.4743  0.0629
  207MPD1    H3 3205   0.234   3.902   9.725 -1.4423  0.7948  0.8640
  207MPD1     N 3206   0.354   3.501   9.887 -0.7738 -0.0183  0.0101
  207MPD1    H5 3207   0.430   3.545   9.938 -2.4636  1.6924  1.0747
  207MPD1    N1 3208   4.684   3.552   9.629 -0.1386 -0.2030 -0.8458
  207MPD1    H6 3209   4.663   3.588   9.537  2.6859  3.0572 -0.2455
  207MPD1    H7 3210   4.699   3.452   9.631 -0.2555 -0.2022  0.6530
  208MPD1     C 3211   2.265   0.017   0.011 -0.2855 -0.4849  0.0743
  208MPD1    C1 3212   2.292   0.067   0.135  0.5795 -0.0955 -0.1105
  208MPD1    C2 3213   2.324   0.201   0.149 -0.2011  0.2016 -0.5751
  208MPD1    C3 3214   2.332   0.287   0.043 -0.3312 -0.4309 -0.1228
  208MPD1    C4 3215   2.314   0.238  17.674  0.0164 -0.3409  0.6213
  208MPD1    C5 3216   2.280   0.104  17.661 -0.2630 -0.0036 -0.4938
  208MPD1     H 3217   2.353   0.237   0.247 -0.8501 -2.9439  0.7887
  208MPD1    H1 3218   2.317   0.292  17.580  1.0931  1.9535  1.9619
  208MPD1    H2 3219   2.234   4.655  17.745 -0.4311 -0.0839 -1.5529
  208MPD1    H3 3220   2.267   0.062  17.562  1.2911  0.7222 -1.0075
  208MPD1     N 3221   2.355   0.424   0.067  0.7344 -0.1448 -0.1482
  208MPD1    H5 3222   2.391   0.449   0.158 -0.1454  0.2326  0.0908
  208MPD1    N1 3223   2.304   4.719   0.242 -0.5504 -0.1414  0.1384
  208MPD1    H6 3224   2.305   0.027   0.332  0.2715 -1.7014  0.9465
  208MPD1    H7 3225   2.217   4.667   0.247  1.2111 -2.8928  2.7854
  209MPD1     C 3226   0.386   1.792  11.033  0.5881 -0.3574  1.0388
  209MPD1    C1 3227   0.516   1.811  11.068  0.1761  0.2442  0.4113
  209MPD1    C2 3228   0.595   1.902  10.996 -0.4983 -0.3506 -0.5718
  209MPD1    C3 3229   0.531   1.978  10.897 -0.6577  1.3686 -0.2369
  209MPD1    C4 3230   0.395   1.973  10.887 -0.4075  0.3981  0.1006
  209MPD1    C5 3231   0.322   1.878  10.949  0.9927  0.1571 -0.6779
  209MPD1     H 3232   0.702   1.904  11.013 -0.6105 -1.0086  0.2234
  209MPD1    H1 3233   0.341   2.037  10.818  3.0973  1.9380 -1.2357
  209MPD1    H2 3234   0.330   1.716  11.086  3.2801 -0.8224  3.1839
  209MPD1    H3 3235   0.217   1.863  10.929  1.5885 -1.1656 -2.8339
  209MPD1     N 3236   0.618   2.063  10.825 -0.1577 -0.7676  0.5194
  209MPD1    H5 3237   0.716   2.069  10.851 -0.4282 -0.3652  1.4558
  209MPD1    N1 3238   0.581   1.725  11.164 -0.1117  0.4559  0.0345
  209MPD1    H6 3239   0.648   1.784  11.214  0.8117 -0.6311  0.0712
  209MPD1    H7 3240   0.515   1.695  11.235  0.1552  0.2273  0.1845
  210MPD1     C 3241   1.336   2.758  10.977  1.2032 -0.0828 -0.0051
  210MPD1    C1 3242   1.299   2.635  11.028 -0.1727 -0.0169  0.4071
  210MPD1    C2 3243   1.192   2.573  10.972  0.5940  0.1424  0.2507
  210MPD1    C3 3244   1.118   2.633  10.874  0.1435 -0.5035  0.0240
  210MPD1    C4 3245   1.156   2.760  10.825 -0.5187  0.5760  0.2713
  210MPD1    C5 3246   1.266   2.826  10.877 -0.1084 -0.1271 -0.6263
  210MPD1     H 3247   1.158   2.477  11.008 -1.1690  1.9222  3.3229
  210MPD1    H1 3248   1.098   2.802  10.744  0.6405  1.0507 -0.2994
  210MPD1    H2 3249   1.421   2.809  11.021 -0.2811  0.4129  2.2821
  210MPD1    H3 3250   1.294   2.924  10.839  0.7018  0.5311  1.6947
  210MPD1     N 3251   1.006   2.577  10.805  0.4835  0.5838 -0.4916
  210MPD1    H5 3252   0.969   2.634  10.730 -0.4888 -0.2694 -0.6605
  210MPD1    N1 3253   1.384   2.573  11.126  0.1007 -0.3248  0.3262
  210MPD1    H6 3254   1.337   2.498  11.176  1.0999  1.5032  3.9452
  210MPD1    H7 3255   1.440   2.638  11.181  1.3923 -1.0963 -0.0759
  211MPD1     C 3256   3.481   1.240  16.824 -0.2255 -0.5647 -0.1679
  211MPD1    C1 3257   3.411   1.271  16.938 -0.0651  0.9297 -0.0979
  211MPD1    C2 3258   3.339   1.390  16.935 -0.0218 -0.7049 -0.6806
  211MPD1    C3 3259   3.332   1.472  16.826 -0.1192 -0.2551 -1.1893
  211MPD1    C4 3260   3.402   1.432  16.713 -0.0132  0.2105  0.4892
  211MPD1    C5 3261   3.481   1.322  16.717 -0.2947  1.0437 -1.0199
  211MPD1     H 3262   3.279   1.429  17.016 -0.7227  1.4048 -2.2152
  211MPD1    H1 3263   3.421   1.504  16.634 -0.0733  2.0647  2.1622
  211MPD1    H2 3264   3.527   1.142  16.816  1.6014  0.2330  0.7139
  211MPD1    H3 3265   3.550   1.297  16.637 -0.1767  0.5540 -0.7671
  211MPD1     N 3266   3.261   1.591  16.832 -0.0085  0.1870  0.6718
  211MPD1    H5 3267   3.218   1.611  16.922  0.4907 -2.9675  1.6108
  211MPD1    N1 3268   3.390   1.181  17.037 -0.1943 -0.4568 -0.2624
  211MPD1    H6 3269   3.388   1.234  17.124 -0.9975  0.1859 -0.6708
  211MPD1    H7 3270   3.462   1.109  17.032  1.2520  1.0647 -1.1086
  212MPD1     C 3271   2.535   0.149  16.198 -0.3601  0.4940 -0.5999
  212MPD1    C1 3272   2.456   0.209  16.291  0.2046 -0.0587 -0.1152
  212MPD1    C2 3273   2.407   0.132  16.394  0.2206 -0.7507  0.3659
  212MPD1    C3 3274   2.434   4.736  16.410 -0.1831 -0.3828  0.3572
  212MPD1    C4 3275   2.519   4.682  16.312 -0.0327  0.2493 -0.1062
  212MPD1    C5 3276   2.566   0.018  16.213  0.6300 -0.5822 -0.1022
  212MPD1     H 3277   2.345   0.188  16.464  1.4257 -1.0213  1.6485
  212MPD1    H1 3278   2.553   4.580  16.315  0.2481  0.2222 -4.0070
  212MPD1    H2 3279   2.557   0.196  16.103  1.7830 -0.3485 -0.5241
  212MPD1    H3 3280   2.644   4.715  16.151 -0.0623 -1.5167 -0.3427
  212MPD1     N 3281   2.379   4.659  16.523  0.3269  0.5403  0.0465
  212MPD1    H5 3282   2.403   4.561  16.530 -2.0393 -0.0624 -0.3358
  212MPD1    N1 3283   2.407   0.340  16.268  0.6249  0.7512 -0.2709
  212MPD1    H6 3284   2.476   0.401  16.226  2.0147  0.0269  0.9655
  212MPD1    H7 3285   2.384   0.375  16.361  0.7482 -0.2785  0.1494
  213MPD1     C 3286   0.976   0.670  15.717  0.0980 -0.1714  0.2341
  213MPD1    C1 3287   0.849   0.608  15.721  0.5141  0.0085 -0.0563
  213MPD1    C2 3288   0.761   0.654  15.627  0.0818 -0.2640 -0.5021
  213MPD1    C3 3289   0.766   0.784  15.580  1.0762  0.6123 -0.3999
  213MPD1    C4 3290   0.874   0.860  15.621 -0.0125 -0.0588 -0.3664
  213MPD1    C5 3291   0.986   0.801  15.684 -0.4061 -0.5594 -0.5882
  213MPD1     H 3292   0.686   0.586  15.589  2.1436 -1.8802 -1.6235
  213MPD1    H1 3293   0.878   0.967  15.609 -0.3248  0.1580  1.4561
  213MPD1    H2 3294   1.063   0.626  15.764  1.3383  1.6915 -0.2946
  213MPD1    H3 3295   1.077   0.854  15.710 -0.3496 -0.7054 -0.4896
  213MPD1     N 3296   0.673   0.832  15.487 -0.2754 -0.0180  0.2791
  213MPD1    H5 3297   0.599   0.771  15.453 -1.6496  0.7267  1.9741
  213MPD1    N1 3298   0.858   0.472  15.738 -0.2421 -0.0288 -0.1487
  213MPD1    H6 3299   0.895   0.422  15.657  2.2359 -2.2266  2.3550
  213MPD1    H7 3300   0.767   0.426  15.743  0.2377 -0.9344  0.2779
  214MPD1     C 3301   4.674   0.485  15.298  0.3923  0.0334  0.3601
  214MPD1    C1 3302   0.019   0.467  15.184  0.0370  0.0333  0.6435
  214MPD1    C2 3303   0.140   0.531  15.175 -0.0593  0.4299 -0.1485
  214MPD1    C3 3304   0.176   0.622  15.266  0.6335 -0.4882 -0.1606
  214MPD1    C4 3305   0.103   0.634  15.378 -0.2201 -0.1449  0.2779
  214MPD1    C5 3306   4.718   0.573  15.395 -0.4014  0.1047  0.2004
  214MPD1     H 3307   0.205   0.512  15.090  1.8958  1.1835  1.1578
  214MPD1    H1 3308   0.139   0.692  15.463  0.5878 -1.1324  0.6083
  214MPD1    H2 3309   4.589   0.419  15.305  0.8983 -0.5315  1.1138
  214MPD1    H3 3310   4.663   0.594  15.485 -1.1821 -2.2560  0.2769
  214MPD1     N 3311   0.290   0.698  15.254 -0.3144  0.1289  0.7439
  214MPD1    H5 3312   0.330   0.731  15.341  0.2102  0.1494  0.4954
  214MPD1    N1 3313   4.729   0.356  15.098 -0.8354  0.1391  0.2877
  214MPD1    H6 3314   0.028   0.367  15.004 -0.6150  0.6184  0.4354
  214MPD1    H7 3315   4.629   0.342  15.091 -0.7194 -0.4338 -0.2132
  215MPD1     C 3316   4.528   1.968  11.168 -0.0718  0.9015 -0.5551
  215MPD1    C1 3317   4.575   2.089  11.117  0.5625  0.4425 -0.3414
  215MPD1    C2 3318   4.710   2.122  11.132 -0.3162 -0.4745 -0.5748
  215MPD1    C3 3319   0.049   2.042  11.216  1.1143 -0.5187  0.1261
  215MPD1    C4 3320   0.000   1.928  11.275  0.7808  0.6451  0.2142
  215MPD1    C5 3321   4.615   1.892  11.246  0.1054 -0.2854  0.3368
  215MPD1     H 3322   0.016   2.208  11.085  0.2437  0.3473  1.4771
  215MPD1    H1 3323   0.053   1.855  11.335 -0.1296 -1.0117 -0.9941
  215MPD1    H2 3324   4.426   1.939  11.147 -0.7502  2.4547  0.6137
  215MPD1    H3 3325   4.580   1.804  11.299 -0.3001 -2.4535 -3.5637
  215MPD1     N 3326   0.188   2.074  11.222 -0.0478 -0.2448  0.2412
  215MPD1    H5 3327   0.221   2.150  11.163 -0.2218 -1.9982 -2.1301
  215MPD1    N1 3328   4.494   2.163  11.029 -0.0409 -0.0787 -0.2689
  215MPD1    H6 3329   4.400   2.147  11.063  0.1629  1.1443  0.8616
  215MPD1    H7 3330   4.507   2.263  11.045  2.9657 -0.8888  2.3364
  216MPD1     C 3331   2.433   0.105  17.021 -0.0204 -0.7073 -0.3217
  216MPD1    C1 3332   2.375   0.101  17.138  0.3870 -0.6989 -0.1311
  216MPD1    C2 3333   2.346   4.721  17.197  0.3959 -0.2291  0.0533
  216MPD1    C3 3334   2.370   4.601  17.134 -0.3634  0.1716  0.3199
  216MPD1    C4 3335   2.424   4.600  17.007 -0.1463 -0.6623  0.4000
  216MPD1    C5 3336   2.465   4.725  16.958 -0.5242 -0.0851  0.1380
  216MPD1     H 3337   2.326   4.712  17.303  1.1903 -1.6067  0.0877
  216MPD1    H1 3338   2.446   4.509  16.952 -0.2280  2.0206 -4.0299
  216MPD1    H2 3339   2.453   0.195  16.964  2.7529 -0.7788  0.5237
  216MPD1    H3 3340   2.511   4.719  16.860 -1.9457 -0.9208 -0.4808
  216MPD1     N 3341   2.320   4.485  17.195  0.5830  0.0985  0.3328
  216MPD1    H5 3342   2.250   4.499  17.267  0.7825 -0.3663  0.6198
  216MPD1    N1 3343   2.340   0.215  17.211 -0.1044 -0.2797  0.1433
  216MPD1    H6 3344   2.249   0.206  17.255 -0.7205  2.2134 -0.6467
  216MPD1    H7 3345   2.326   0.298  17.154  2.3068 -1.0490 -1.5982
  217MPD1     C 3346   2.740   1.110   7.769 -1.1396 -0.4268  0.3847
  217MPD1    C1 3347   2.850   1.035   7.796 -0.7245 -0.1431 -0.1936
  217MPD1    C2 3348   2.923   1.065   7.908 -0.5373  0.3391 -0.2556
  217MPD1    C3 3349   2.884   1.171   7.992  0.1570 -0.0788 -0.1241
  217MPD1    C4 3350   2.775   1.246   7.959  0.0717  0.3607  0.0362
  217MPD1    C5 3351   2.695   1.213   7.851 -0.7741  0.0282 -0.1053
  217MPD1     H 3352   2.997   0.995   7.945  2.4097  1.5547 -3.8740
  217MPD1    H1 3353   2.728   1.326   8.015 -1.4589 -2.8865  3.3739
  217MPD1    H2 3354   2.688   1.093   7.675 -0.2241  1.3916 -0.4450
  217MPD1    H3 3355   2.598   1.254   7.824 -1.5857 -2.8636 -1.5264
  217MPD1     N 3356   2.948   1.209   8.111  0.3430  0.5701 -0.2300
  217MPD1    H5 3357   2.909   1.291   8.156 -1.2311 -0.4110  0.2161
  217MPD1    N1 3358   2.909   0.954   7.698 -0.9286 -0.4634  0.4410
  217MPD1    H6 3359   2.945   0.874   7.750 -1.1403 -0.2702  0.8898
  217MPD1    H7 3360   2.834   0.926   7.635  0.6369 -1.2776 -1.0430
  218MPD1     C 3361   4.289   1.508  12.780 -0.3922  0.0482 -0.5432
  218MPD1    C1 3362   4.319   1.628  12.718  0.0738  0.1186 -0.4027
  218MPD1    C2 3363   4.446   1.630  12.660 -0.3344  0.0774  0.1840
  218MPD1    C3 3364   4.540   1.523  12.660  0.0763 -0.1861 -0.0731
  218MPD1    C4 3365   4.509   1.413  12.737 -0.3182  0.7976 -0.1670
  218MPD1    C5 3366   4.379   1.399  12.781 -0.0811 -0.0406 -0.1579
  218MPD1     H 3367   4.473   1.719  12.603 -2.0797  1.0444  0.8673
  218MPD1    H1 3368   4.580   1.332  12.742 -1.8722 -0.6376 -1.1565
  218MPD1    H2 3369   4.188   1.482  12.809 -0.4843 -1.2337 -1.9854
  218MPD1    H3 3370   4.352   1.300  12.817 -3.8572  0.3727 -1.8762
  218MPD1     N 3371   4.668   1.554  12.600 -0.6946  0.2947  0.6110
  218MPD1    H5 3372   4.677   1.647  12.563  0.3070 -0.0435 -0.0153
  218MPD1    N1 3373   4.216   1.727  12.699  0.0175 -1.0190 -0.4872
  218MPD1    H6 3374   4.249   1.823  12.698  0.1431 -1.0743 -1.0909
  218MPD1    H7 3375   4.131   1.723  12.756  0.9143  0.0991  0.9293
  219MPD1     C 3376   0.744   2.186  12.579 -0.3491  0.5826 -0.3924
  219MPD1    C1 3377   0.606   2.199  12.549  0.5255 -0.0024  0.8098
  219MPD1    C2 3378   0.526   2.082  12.571  0.4934 -0.1745 -0.1357
  219MPD1    C3 3379   0.580   1.964  12.603  0.3705 -0.4744  0.5531
  219MPD1    C4 3380   0.714   1.957  12.633  0.3441 -0.2338  0.2129
  219MPD1    C5 3381   0.794   2.067  12.626  0.4327 -0.5447 -0.1692
  219MPD1     H 3382   0.418   2.087  12.560  0.5637  2.1260  0.1405
  219MPD1    H1 3383   0.756   1.861  12.662  0.7798  0.1202  0.7447
  219MPD1    H2 3384   0.810   2.272  12.573 -0.2468  0.6306  1.3566
  219MPD1    H3 3385   0.899   2.069  12.651  0.7602 -2.5337 -1.3732
  219MPD1     N 3386   0.507   1.838  12.602  0.1006 -0.1324  0.0854
  219MPD1    H5 3387   0.564   1.759  12.630  1.7249  0.3921 -1.7671
  219MPD1    N1 3388   0.542   2.323  12.531 -0.0509  0.0392  0.4120
  219MPD1    H6 3389   0.456   2.310  12.478 -0.0479  0.4959  0.2971
  219MPD1    H7 3390   0.601   2.380  12.471 -0.8441  0.0777 -0.3275
  220MPD1     C 3391   0.007   3.365  10.044  0.4969 -0.1761  0.8683
  220MPD1    C1 3392   0.121   3.359  10.133  0.7654  0.1730  0.1348
  220MPD1    C2 3393   0.157   3.234  10.186  0.9026 -0.4527 -0.1056
  220MPD1    C3 3394   0.101   3.110  10.138 -0.3745  0.7961 -0.0676
  220MPD1    C4 3395   4.735   3.120  10.047  0.3956 -0.5984 -0.3880
  220MPD1    C5 3396   4.697   3.243   9.997 -0.3651  0.5491 -0.2901
  220MPD1     H 3397   0.232   3.232  10.265 -0.3499  0.0410  1.0988
  220MPD1    H1 3398   4.666   3.040  10.022  0.3027 -1.0988  1.4981
  220MPD1    H2 3399   4.710   3.457  10.000  1.0041 -0.4402 -0.1093
  220MPD1    H3 3400   4.611   3.239   9.931 -1.2992 -0.3274  0.9691
  220MPD1     N 3401   0.132   2.990  10.206 -0.0050  0.0984 -0.4147
  220MPD1    H5 3402   0.195   2.999  10.285 -1.2831  1.7806  0.4153
  220MPD1    N1 3403   0.186   3.476  10.179 -0.1861  0.0119  0.4309
  220MPD1    H6 3404   0.281   3.451  10.206  0.9961  2.4295 -1.4281
  220MPD1    H7 3405   0.179   3.552  10.111  0.6934 -0.4169 -0.1429
  221MPD1     C 3406   3.699   0.925  17.121 -0.1563 -0.4774 -0.3676
  221MPD1    C1 3407   3.579   0.850  17.129  0.5669  0.1879 -0.5570
  221MPD1    C2 3408   3.513   0.841  17.013 -0.3404 -0.8976 -0.5047
  221MPD1    C3 3409   3.563   0.885  16.891 -0.0692  0.4242 -0.2694
  221MPD1    C4 3410   3.687   0.944  16.888 -0.7524  0.3360 -0.0579
  221MPD1    C5 3411   3.753   0.972  17.002  0.3911  0.3268 -1.1004
  221MPD1     H 3412   3.412   0.803  17.024  0.0953 -0.6917  3.9714
  221MPD1    H1 3413   3.739   0.967  16.796 -0.7628  1.4677  0.2227
  221MPD1    H2 3414   3.759   0.945  17.209 -0.0662  3.9355 -1.4087
  221MPD1    H3 3415   3.842   1.034  17.006 -0.5915  1.7092 -0.4457
  221MPD1     N 3416   3.486   0.898  16.768 -0.0674  0.1299  0.0080
  221MPD1    H5 3417   3.533   0.940  16.689 -0.4330  2.2958  0.9614
  221MPD1    N1 3418   3.530   0.802  17.249  0.2413 -0.6657  0.6839
  221MPD1    H6 3419   3.607   0.777  17.311 -2.4528 -2.8451  3.1646
  221MPD1    H7 3420   3.482   0.717  17.221  1.6334 -1.5210  0.8879
  222MPD1     C 3421   2.012   4.372  17.535 -0.7249 -0.0823 -0.0409
  222MPD1    C1 3422   2.028   4.511  17.510 -0.6235  0.4832  0.5735
  222MPD1    C2 3423   1.987   4.598  17.613  0.5474 -0.1196 -0.1764
  222MPD1    C3 3424   1.934   4.563  17.733 -0.3889  0.6331  0.2752
  222MPD1    C4 3425   1.925   4.428  17.752  0.6094  0.1230 -0.8594
  222MPD1    C5 3426   1.966   4.338  17.661  0.0465 -0.3240  0.6993
  222MPD1     H 3427   1.995   4.705  17.595  1.9049 -0.2940 -0.6772
  222MPD1    H1 3428   1.897   4.383   0.090  1.5905  2.3076  0.4591
  222MPD1    H2 3429   2.027   4.300  17.456 -1.2405 -0.8981  0.6069
  222MPD1    H3 3430   1.958   4.235  17.693 -2.8960 -1.0742 -2.3700
  222MPD1     N 3431   1.883   4.655   0.077 -0.3051  0.1007 -0.4172
  222MPD1    H5 3432   1.874   4.614   0.169  0.4738  3.4766  1.1561
  222MPD1    N1 3433   2.081   4.552  17.388  0.3308  0.0160  0.3233
  222MPD1    H6 3434   2.048   4.501  17.306 -0.5504 -0.5469  1.0322
  222MPD1    H7 3435   2.076   4.649  17.360 -0.6392 -0.1655 -0.1240
  223MPD1     C 3436   1.518   4.488   0.817 -0.0399 -0.3063 -0.2317
  223MPD1    C1 3437   1.569   4.426   0.703 -0.2365 -0.1948 -0.2140
  223MPD1    C2 3438   1.641   4.494   0.608 -0.0366  0.5900 -0.2590
  223MPD1    C3 3439   1.687   4.618   0.640  0.6042  0.0714  0.3226
  223MPD1    C4 3440   1.653   4.671   0.762  0.3156 -0.0895 -0.3849
  223MPD1    C5 3441   1.563   4.614   0.845  0.1278 -0.3844 -1.3908
  223MPD1     H 3442   1.658   4.459   0.507 -0.5179 -0.3441 -0.0103
  223MPD1    H1 3443   1.691   0.029   0.788  2.7501 -1.3825  0.9590
  223MPD1    H2 3444   1.449   4.435   0.882  1.6936 -1.3255  0.7845
  223MPD1    H3 3445   1.531   4.668   0.932  0.5537  0.0008 -1.4734
  223MPD1     N 3446   1.742   4.687   0.532 -0.8633  0.1960  0.3645
  223MPD1    H5 3447   1.753   4.635   0.446  0.1867 -0.2019  0.7439
  223MPD1    N1 3448   1.521   4.295   0.685 -0.3534 -0.2444 -0.4103
  223MPD1    H6 3449   1.566   4.242   0.610  0.7219 -0.3404  0.2952
  223MPD1    H7 3450   1.546   4.243   0.769  1.4135  0.0009 -0.7850
  224MPD1     C 3451   3.361   1.846   8.237 -0.8002 -0.3396 -0.1094
  224MPD1    C1 3452   3.387   1.954   8.306  0.3199  0.0131 -0.2701
  224MPD1    C2 3453   3.424   1.951   8.442 -0.6888  0.6420  0.3878
  224MPD1    C3 3454   3.451   1.828   8.507  0.4164  0.9356  0.1960
  224MPD1    C4 3455   3.440   1.709   8.429 -0.3932  0.2842 -0.2325
  224MPD1    C5 3456   3.386   1.727   8.300  0.0522 -0.7938 -0.1947
  224MPD1     H 3457   3.428   2.049   8.487  1.6152  0.2636  1.0273
  224MPD1    H1 3458   3.459   1.609   8.468  1.9900  0.2860 -1.3677
  224MPD1    H2 3459   3.312   1.846   8.141 -1.8731 -0.1799  0.4351
  224MPD1    H3 3460   3.369   1.639   8.239  0.4413 -1.9057  1.3110
  224MPD1     N 3461   3.507   1.827   8.635 -0.4255 -0.0108  0.2966
  224MPD1    H5 3462   3.531   1.740   8.683  0.0538  0.2002  0.4468
  224MPD1    N1 3463   3.349   2.076   8.245  0.9558 -0.2116  1.6062
  224MPD1    H6 3464   3.415   2.150   8.267  1.5055 -0.2806  0.1635
  224MPD1    H7 3465   3.355   2.061   8.145 -2.4904  0.3753  1.2906
  225MPD1     C 3466   0.888   2.512  12.289  0.1992  0.1437 -0.0573
  225MPD1    C1 3467   0.847   2.527  12.424  0.1957  0.4202  0.5161
  225MPD1    C2 3468   0.728   2.592  12.438 -0.4773 -0.2669 -0.0924
  225MPD1    C3 3469   0.641   2.615  12.336  0.3844  0.2877 -0.3973
  225MPD1    C4 3470   0.687   2.600  12.215 -0.0265  0.5302  0.3957
  225MPD1    C5 3471   0.811   2.547  12.183 -0.7157 -0.6534  0.2473
  225MPD1     H 3472   0.699   2.609  12.541  0.5272 -3.4257  0.7112
  225MPD1    H1 3473   0.628   2.633  12.130 -0.4827  1.3808  1.0385
  225MPD1    H2 3474   0.988   2.484  12.258 -0.4546 -0.8832 -1.1731
  225MPD1    H3 3475   0.842   2.544  12.079 -1.5344 -0.1964 -0.0140
  225MPD1     N 3476   0.508   2.668  12.348 -0.3083 -0.1918  0.2672
  225MPD1    H5 3477   0.460   2.698  12.264 -2.2797 -2.5335  0.5411
  225MPD1    N1 3478   0.940   2.508  12.527 -0.8549 -0.4810  0.3739
  225MPD1    H6 3479   0.975   2.413  12.517 -1.3829 -0.6369 -0.0321
  225MPD1    H7 3480   0.910   2.516  12.624 -0.5679  1.1643  0.3373
  226MPD1     C 3481   3.314   2.010   9.201 -0.1130  0.1325 -0.2330
  226MPD1    C1 3482   3.301   2.000   9.063  0.2430 -0.9847 -0.0732
  226MPD1    C2 3483   3.311   2.116   8.990  0.3464  0.2159  0.5314
  226MPD1    C3 3484   3.313   2.238   9.051 -1.0717  0.2580 -0.8831
  226MPD1    C4 3485   3.309   2.252   9.188  0.1874  0.0417  0.6023
  226MPD1    C5 3486   3.317   2.133   9.262  1.6815  0.2248  0.3652
  226MPD1     H 3487   3.311   2.093   8.884 -0.5554 -0.7088  0.7317
  226MPD1    H1 3488   3.311   2.349   9.235 -1.4682  1.8088 -2.9696
  226MPD1    H2 3489   3.323   1.931   9.275 -3.1776  0.6031  0.6387
  226MPD1    H3 3490   3.335   2.135   9.369  0.8976 -2.3268  0.5399
  226MPD1     N 3491   3.298   2.348   8.965 -0.7019 -0.1385  0.1588
  226MPD1    H5 3492   3.291   2.324   8.867 -2.2391  1.4752 -0.1214
  226MPD1    N1 3493   3.317   1.875   8.995  0.3415 -0.1072 -0.1647
  226MPD1    H6 3494   3.282   1.873   8.899 -0.0489  0.4381 -0.0321
  226MPD1    H7 3495   3.281   1.791   9.040 -3.3654  0.6119 -1.7515
  227MPD1     C 3496   2.909   3.303   9.043 -0.0500  0.0537 -0.9237
  227MPD1    C1 3497   2.934   3.206   9.140 -0.0195  0.0063 -0.5244
  227MPD1    C2 3498   3.001   3.087   9.103 -0.6104  0.7202  0.1482
  227MPD1    C3 3499   3.065   3.085   8.972 -0.1688 -0.2072  0.6854
  227MPD1    C4 3500   3.039   3.182   8.874  0.0603 -0.8269 -0.3828
  227MPD1    C5 3501   2.956   3.286   8.914  0.5069  0.6511  0.2260
  227MPD1     H 3502   3.009   3.002   9.169 -0.6858  1.6432  1.3589
  227MPD1    H1 3503   3.076   3.170   8.773  0.9296  0.8856 -0.2529
  227MPD1    H2 3504   2.855   3.397   9.052 -0.0693 -0.1976  1.7253
  227MPD1    H3 3505   2.933   3.359   8.837  0.6038 -2.5115 -2.7403
  227MPD1     N 3506   3.134   2.962   8.937 -0.5006  0.2195 -0.0603
  227MPD1    H5 3507   3.125   2.882   8.999 -0.5790 -0.0521 -0.4231
  227MPD1    N1 3508   2.873   3.206   9.265 -0.5708  0.1854  0.2309
  227MPD1    H6 3509   2.852   3.300   9.297  2.9441  0.1158  2.6811
  227MPD1    H7 3510   2.926   3.155   9.334 -2.7145 -4.9873 -1.9135
  228MPD1     C 3511   2.075   0.409  12.579 -0.6789 -0.0227  0.6537
  228MPD1    C1 3512   1.986   0.381  12.482  0.0143  0.1023 -0.0058
  228MPD1    C2 3513   1.857   0.356  12.524  0.1758 -0.3226  0.3920
  228MPD1    C3 3514   1.822   0.338  12.661  0.2187  1.2585 -0.1143
  228MPD1    C4 3515   1.923   0.353  12.752 -0.4325 -0.1747  0.7968
  228MPD1    C5 3516   2.045   0.386  12.709 -0.4010  0.0810 -0.4860
  228MPD1     H 3517   1.776   0.352  12.453  1.2035 -0.6224 -0.7600
  228MPD1    H1 3518   1.899   0.334  12.856 -2.7240 -1.6363  0.0023
  228MPD1    H2 3519   2.175   0.443  12.555 -0.6786 -0.8783 -0.5601
  228MPD1    H3 3520   2.125   0.402  12.781 -1.7997 -0.0500  1.0851
  228MPD1     N 3521   1.692   0.294  12.686  0.3812  0.3072 -0.0516
  228MPD1    H5 3522   1.629   0.273  12.609  0.8466  2.3934 -0.9925
  228MPD1    N1 3523   2.010   0.397  12.346  0.6467 -0.2538  0.0886
  228MPD1    H6 3524   1.938   0.347  12.293  1.1591 -1.4606  0.5321
  228MPD1    H7 3525   2.100   0.357  12.319  0.0027 -2.1393  0.7506
  229MPD1     C 3526   2.228   3.875  14.693  0.1489  0.5494  0.2494
  229MPD1    C1 3527   2.139   3.801  14.619 -0.1195  0.4014  0.8436
  229MPD1    C2 3528   2.028   3.754  14.687 -0.0307  0.0458 -0.2425
  229MPD1    C3 3529   1.999   3.777  14.821  0.1100  0.2542 -0.3003
  229MPD1    C4 3530   2.091   3.855  14.885  0.7667  0.2145 -0.1616
  229MPD1    C5 3531   2.204   3.902  14.820 -0.2920  0.6541 -0.7095
  229MPD1     H 3532   1.957   3.710  14.617 -0.6926 -0.4770  0.7626
  229MPD1    H1 3533   2.082   3.886  14.989 -0.7844  0.2011 -0.2917
  229MPD1    H2 3534   2.318   3.918  14.650  0.0615  1.5443  1.0779
  229MPD1    H3 3535   2.278   3.955  14.879 -0.9895 -0.9825  1.6126
  229MPD1     N 3536   1.882   3.739  14.892  0.5223 -0.7765  0.0729
  229MPD1    H5 3537   1.897   3.739  14.992  0.8813 -0.0495  0.0195
  229MPD1    N1 3538   2.152   3.792  14.474 -0.0553 -0.1184  0.3899
  229MPD1    H6 3539   2.246   3.810  14.438 -0.4293 -0.5827 -0.7865
  229MPD1    H7 3540   2.111   3.706  14.440 -0.8652  0.8124 -0.9623
  230MPD1     C 3541   1.760   3.493  15.798 -0.7057 -0.2122 -0.4541
  230MPD1    C1 3542   1.812   3.381  15.732  0.0702 -0.4059  0.4938
  230MPD1    C2 3543   1.792   3.372  15.598  0.6479  0.1113 -0.3293
  230MPD1    C3 3544   1.722   3.468  15.523  0.2268  1.0133  0.1311
  230MPD1    C4 3545   1.669   3.574  15.591 -0.2762  0.1637  0.0388
  230MPD1    C5 3546   1.687   3.584  15.726 -0.0165  0.5298  0.2625
  230MPD1     H 3547   1.836   3.287  15.548 -0.7117 -2.0615  2.2067
  230MPD1    H1 3548   1.595   3.633  15.539  1.8293  1.5264 -1.3758
  230MPD1    H2 3549   1.776   3.498  15.905  0.3408  0.3253 -0.6404
  230MPD1    H3 3550   1.649   3.672  15.775  2.4605 -0.3920  3.8849
  230MPD1     N 3551   1.718   3.459  15.380 -0.2184  0.9156 -0.1094
  230MPD1    H5 3552   1.752   3.370  15.344 -1.8739  0.1547  0.2133
  230MPD1    N1 3553   1.905   3.294  15.794 -0.1903 -0.3497 -0.0720
  230MPD1    H6 3554   1.892   3.311  15.893 -0.6720 -1.8476  0.1188
  230MPD1    H7 3555   1.887   3.198  15.767 -2.1577  0.7068 -2.5397
  231MPD1     C 3556   4.227   0.626  15.580  0.6080 -0.4435  0.1054
  231MPD1    C1 3557   4.208   0.610  15.445 -0.7249  0.5951 -0.4178
  231MPD1    C2 3558   4.294   0.669  15.359  0.2477 -0.3443  0.1474
  231MPD1    C3 3559   4.388   0.763  15.402 -0.6827 -0.9242  0.7471
  231MPD1    C4 3560   4.411   0.767  15.541  0.1082  0.4641 -0.4117
  231MPD1    C5 3561   4.331   0.701  15.626 -0.9018 -0.0433 -0.0951
  231MPD1     H 3562   4.274   0.670  15.252 -2.4170 -0.5785  0.6244
  231MPD1    H1 3563   4.483   0.836  15.585 -2.0828  1.3513  1.7951
  231MPD1    H2 3564   4.155   0.585  15.650  0.6835  1.2887  1.1905
  231MPD1    H3 3565   4.340   0.721  15.732  0.4592 -0.9685 -0.0397
  231MPD1     N 3566   4.470   0.843  15.312  0.4390 -0.6991 -0.1736
  231MPD1    H5 3567   4.436   0.856  15.218  0.4807 -0.1753 -0.1177
  231MPD1    N1 3568   4.112   0.525  15.393  0.0590 -0.3219  0.1325
  231MPD1    H6 3569   4.082   0.550  15.299 -1.0983  1.2027  0.9190
  231MPD1    H7 3570   4.033   0.512  15.455  1.0940 -1.9999  1.1121
  232MPD1     C 3571   1.723   3.953   0.456  0.1366 -0.4590  0.3229
  232MPD1    C1 3572   1.623   4.039   0.410  0.5756 -0.1561 -0.5636
  232MPD1    C2 3573   1.520   3.976   0.345  0.4527  0.5944 -0.5727
  232MPD1    C3 3574   1.526   3.844   0.307 -0.3243 -0.3722  0.3875
  232MPD1    C4 3575   1.637   3.767   0.340  0.1971  0.9920 -0.0857
  232MPD1    C5 3576   1.729   3.820   0.414  0.2387 -0.1831 -0.6756
  232MPD1     H 3577   1.431   4.034   0.321  0.5109  0.6180 -0.7362
  232MPD1    H1 3578   1.660   3.667   0.304  0.6206  1.1176 -0.1649
  232MPD1    H2 3579   1.801   3.989   0.523 -0.1660 -0.7243  0.8107
  232MPD1    H3 3580   1.818   3.760   0.428  0.4816  0.0976 -1.0157
  232MPD1     N 3581   1.412   3.788   0.238  0.0001 -0.1054  0.4278
  232MPD1    H5 3582   1.338   3.851   0.209 -0.0189  0.3923  1.5394
  232MPD1    N1 3583   1.608   4.170   0.448  0.2026  0.3842 -0.5618
  232MPD1    H6 3584   1.557   4.217   0.373  1.1416  1.0698 -0.7636
  232MPD1    H7 3585   1.702   4.207   0.461 -0.6957  2.8014 -0.9674
  233MPD1     C 3586   1.628   0.666   1.171 -0.3813  0.2160 -0.7417
  233MPD1    C1 3587   1.665   0.796   1.193  0.3433  0.7747 -0.4551
  233MPD1    C2 3588   1.801   0.826   1.195 -0.0081  0.1899 -0.6416
  233MPD1    C3 3589   1.900   0.725   1.178  0.5595 -0.2156  0.4543
  233MPD1    C4 3590   1.853   0.600   1.157 -0.1723  0.7237  0.1476
  233MPD1    C5 3591   1.723   0.568   1.156  0.1456 -0.2492  0.1379
  233MPD1     H 3592   1.828   0.929   1.213  0.4530 -0.1754  0.7533
  233MPD1    H1 3593   1.921   0.517   1.147  0.0959  1.0295 -0.5531
  233MPD1    H2 3594   1.526   0.631   1.186  0.0603 -0.8762 -0.2694
  233MPD1    H3 3595   1.695   0.464   1.152 -0.3349 -0.0402 -1.6344
  233MPD1     N 3596   2.039   0.750   1.199 -0.0630 -0.1914  0.4745
  233MPD1    H5 3597   2.102   0.674   1.178  0.1890  0.3102 -0.5825
  233MPD1    N1 3598   1.560   0.886   1.216  0.2681 -0.1131  0.3273
  233MPD1    H6 3599   1.567   0.970   1.158 -2.1586  0.0900  0.3171
  233MPD1    H7 3600   1.472   0.836   1.204  0.0552  0.1827  0.6604
  234MPD1     C 3601   4.207   0.252   9.482  0.2570 -0.0348  0.0329
  234MPD1    C1 3602   4.262   0.375   9.493 -0.1469  0.3136 -0.1736
  234MPD1    C2 3603   4.224   0.472   9.403  0.8656 -0.4148 -0.4709
  234MPD1    C3 3604   4.131   0.457   9.306 -0.1395 -0.0337  0.7065
  234MPD1    C4 3605   4.083   0.330   9.292 -0.5514 -0.4420  0.2001
  234MPD1    C5 3606   4.122   0.230   9.376  0.2270 -0.4475  0.2550
  234MPD1     H 3607   4.263   0.572   9.415 -0.2843  0.0450 -0.6751
  234MPD1    H1 3608   4.010   0.303   9.216 -2.6792  3.5048  0.8445
  234MPD1    H2 3609   4.210   0.178   9.561  0.1399  0.1647  0.2244
  234MPD1    H3 3610   4.068   0.136   9.371  2.7902 -2.0565  2.7919
  234MPD1     N 3611   4.099   0.565   9.223  0.7150  0.4002  0.6546
  234MPD1    H5 3612   4.154   0.650   9.231  2.1274 -0.5164  0.7303
  234MPD1    N1 3613   4.336   0.405   9.606 -0.1390  0.0016 -0.1301
  234MPD1    H6 3614   4.381   0.325   9.650 -1.7717 -1.7405 -1.6485
  234MPD1    H7 3615   4.418   0.462   9.586 -1.5198  1.3007 -2.0481
  235MPD1     C 3616   1.451   3.418  10.404 -0.6130 -0.8704  0.3629
  235MPD1    C1 3617   1.491   3.410  10.275  0.0884 -0.9057  0.2680
  235MPD1    C2 3618   1.434   3.485  10.171  0.4414 -0.7404  0.2691
  235MPD1    C3 3619   1.352   3.588  10.209  0.1211 -0.2090  0.3346
  235MPD1    C4 3620   1.317   3.602  10.340 -0.7740 -0.2085 -0.0915
  235MPD1    C5 3621   1.361   3.515  10.432 -0.1342  0.1110  0.7535
  235MPD1     H 3622   1.466   3.467  10.069  0.8655  0.3894  0.2085
  235MPD1    H1 3623   1.240   3.674  10.366 -0.8295 -0.6434  0.9545
  235MPD1    H2 3624   1.497   3.351  10.476  0.5973  0.6294  0.9777
  235MPD1    H3 3625   1.330   3.525  10.536  0.5311 -0.9890  1.0622
  235MPD1     N 3626   1.293   3.670  10.101 -0.4026  0.2177  0.1638
  235MPD1    H5 3627   1.351   3.666  10.017 -0.9433  1.2480 -0.2481
  235MPD1    N1 3628   1.560   3.287  10.252 -0.6139 -0.0037  0.2262
  235MPD1    H6 3629   1.615   3.250  10.329  2.0491 -0.6755 -1.9953
  235MPD1    H7 3630   1.613   3.282  10.165 -0.3915 -0.9245  0.4163
  236MPD1     C 3631   4.614   4.398  10.070 -0.0654  0.3221 -0.2665
  236MPD1    C1 3632   4.685   4.513  10.091  0.0210  0.1790 -0.3540
  236MPD1    C2 3633   0.053   4.509  10.178  0.1013  0.4003  0.6611
  236MPD1    C3 3634   0.102   4.390  10.228  0.1780 -0.3347 -0.3626
  236MPD1    C4 3635   0.041   4.276  10.188  0.1044 -0.1958  0.2179
  236MPD1    C5 3636   4.672   4.284  10.115 -0.5184 -0.0339 -0.6888
  236MPD1     H 3637   0.090   4.605  10.211 -1.2690  2.0945 -2.7161
  236MPD1    H1 3638   0.071   4.174  10.209 -2.2029 -1.4221 -2.4554
  236MPD1    H2 3639   4.536   4.390   9.995  1.4841  1.6973 -2.0110
  236MPD1    H3 3640   4.623   4.196  10.074  0.3289 -1.2399  0.8767
  236MPD1     N 3641   0.229   4.379  10.294 -0.3276  0.1253  0.4171
  236MPD1    H5 3642   0.258   4.287  10.325 -1.0599 -0.1248  0.3428
  236MPD1    N1 3643   4.628   4.633  10.044  0.1332 -0.0243  0.4601
  236MPD1    H6 3644   4.691   4.711  10.024  1.9695 -0.7595  3.3425
  236MPD1    H7 3645   4.594   4.610   9.951  2.7901  0.5920 -0.6672
  237MPD1     C 3646   0.195   2.607  15.654  0.3991  0.3659  0.0129
  237MPD1    C1 3647   0.175   2.605  15.521 -0.1652  0.1194 -0.4434
  237MPD1    C2 3648   0.142   2.484  15.458 -0.2756 -0.1863 -0.6411
  237MPD1    C3 3649   0.142   2.365  15.527  0.6243  0.2715 -0.0219
  237MPD1    C4 3650   0.171   2.377  15.664 -0.6164  0.7044 -0.9306
  237MPD1    C5 3651   0.192   2.492  15.725  0.0193 -0.6920  0.1488
  237MPD1     H 3652   0.091   2.475  15.363  0.5698 -1.7476 -0.9427
  237MPD1    H1 3653   0.148   2.289  15.723  0.2535 -0.6550 -2.5999
  237MPD1    H2 3654   0.218   2.696  15.712 -0.1610  0.0805  0.6760
  237MPD1    H3 3655   0.212   2.494  15.832 -0.5437 -0.1764  0.2446
  237MPD1     N 3656   0.105   2.239  15.476  0.6274 -0.1779  0.3987
  237MPD1    H5 3657   0.099   2.168  15.548  2.3301 -2.1224 -1.3557
  237MPD1    N1 3658   0.157   2.722  15.446  0.5583 -0.2820  0.3415
  237MPD1    H6 3659   0.201   2.808  15.477 -1.5701  1.1276 -0.5284
  237MPD1    H7 3660   0.204   2.701  15.358 -0.8476  1.6422 -0.8745
  238MPD1     C 3661   1.948   1.289  15.253 -0.3698 -0.2750 -0.0202
  238MPD1    C1 3662   1.940   1.311  15.118  0.4350  0.2043  0.5276
  238MPD1    C2 3663   1.833   1.248  15.053  0.0455  0.3550 -0.6664
  238MPD1    C3 3664   1.764   1.144  15.113 -0.4718  0.6346 -1.0398
  238MPD1    C4 3665   1.786   1.115  15.247  0.3997 -0.2535  0.7530
  238MPD1    C5 3666   1.881   1.186  15.316 -0.0581 -0.2701  0.4389
  238MPD1     H 3667   1.823   1.275  14.948  0.7336  1.2869 -0.4998
  238MPD1    H1 3668   1.739   1.031  15.296  0.3912 -0.7249 -0.0597
  238MPD1    H2 3669   2.015   1.340  15.322  1.6039 -1.8874 -0.7516
  238MPD1    H3 3670   1.918   1.177  15.418  1.8056  0.4853 -0.1798
  238MPD1     N 3671   1.674   1.057  15.045  0.2067 -0.0253 -0.4205
  238MPD1    H5 3672   1.652   0.969  15.091 -0.6561  0.9940  1.1317
  238MPD1    N1 3673   2.003   1.423  15.057 -0.2526  0.2291 -0.3303
  238MPD1    H6 3674   2.090   1.441  15.107 -2.2468  1.1815  2.8270
  238MPD1    H7 3675   2.028   1.400  14.961 -0.8671 -0.4309 -0.3357
  239MPD1     C 3676   1.831   1.293  14.675 -0.3583 -0.3568  0.3442
  239MPD1    C1 3677   1.948   1.363  14.687 -0.2952  0.4480  0.1444
  239MPD1    C2 3678   1.951   1.486  14.621  0.4084 -0.5582  0.1941
  239MPD1    C3 3679   1.850   1.538  14.532  0.6078  0.3268 -0.1276
  239MPD1    C4 3680   1.740   1.452  14.521  0.7808  1.1108 -0.3985
  239MPD1    C5 3681   1.731   1.330  14.588 -1.2168 -0.1618 -0.0166
  239MPD1     H 3682   2.045   1.536  14.639  0.4822 -1.5501  2.4921
  239MPD1    H1 3683   1.653   1.485  14.466 -1.0281  0.2681  1.9640
  239MPD1    H2 3684   1.824   1.194  14.719 -0.7589  0.1235  1.3778
  239MPD1    H3 3685   1.641   1.270  14.590 -1.1790 -0.2369 -0.4859
  239MPD1     N 3686   1.863   1.662  14.454  0.0030 -0.5468 -0.5823
  239MPD1    H5 3687   1.782   1.705  14.411 -0.0372 -0.3180 -0.2752
  239MPD1    N1 3688   2.049   1.334  14.779 -0.1049  0.3296  0.2780
  239MPD1    H6 3689   2.071   1.235  14.787 -0.9901  0.1105  0.0083
  239MPD1    H7 3690   2.135   1.384  14.757  0.8749 -1.1458  0.7100
  240MPD1     C 3691   1.498   1.350  13.954  0.1672 -0.0217 -0.2952
  240MPD1    C1 3692   1.365   1.337  13.946 -0.4220 -0.7561  0.1038
  240MPD1    C2 3693   1.292   1.304  14.059 -0.8603  0.3188  0.0897
  240MPD1    C3 3694   1.352   1.290  14.182  1.0845  0.1090 -0.3922
  240MPD1    C4 3695   1.489   1.299  14.188 -0.0297 -0.1364 -0.4276
  240MPD1    C5 3696   1.562   1.332  14.073  0.1990 -0.3141  0.3317
  240MPD1     H 3697   1.185   1.315  14.047 -0.4678  1.4256 -2.5070
  240MPD1    H1 3698   1.547   1.275  14.276  1.0863  1.7927 -0.6389
  240MPD1    H2 3699   1.550   1.353  13.859  0.2275 -1.3345 -0.3005
  240MPD1    H3 3700   1.670   1.324  14.072  0.2687  0.7513 -0.7282
  240MPD1     N 3701   1.265   1.246  14.287  0.4975  0.3843 -0.0255
  240MPD1    H5 3702   1.166   1.250  14.263 -0.0708  0.2707  2.3415
  240MPD1    N1 3703   1.301   1.338  13.820 -0.2319  0.3074  0.1139
  240MPD1    H6 3704   1.203   1.364  13.835 -0.0320  0.4421  1.1800
  240MPD1    H7 3705   1.336   1.411  13.758 -1.6308  1.7366  1.0109
  241MPD1     C 3706   1.084   0.937  15.328  0.2801 -0.3783 -0.1187
  241MPD1    C1 3707   1.146   1.053  15.282 -0.6424 -0.6467  0.1510
  241MPD1    C2 3708   1.153   1.074  15.147  0.2866  0.4006 -0.0789
  241MPD1    C3 3709   1.076   0.993  15.054  0.5312  0.4140  0.1120
  241MPD1    C4 3710   1.019   0.882  15.107 -0.1467  0.1485  0.7457
  241MPD1    C5 3711   1.030   0.851  15.238  0.0013 -0.4933  0.1689
  241MPD1     H 3712   1.217   1.155  15.114 -0.8668  0.9858 -0.9071
  241MPD1    H1 3713   0.971   0.809  15.043 -0.4357 -0.7992  2.0454
  241MPD1    H2 3714   1.078   0.910  15.433 -3.0623  0.2911 -0.1243
  241MPD1    H3 3715   0.976   0.767  15.280  1.5800 -0.5076  2.2206
  241MPD1     N 3716   1.071   1.008  14.915  0.0422  0.0675 -0.3287
  241MPD1    H5 3717   1.031   0.931  14.864  0.5439  0.0366 -0.6804
  241MPD1    N1 3718   1.224   1.132  15.369  0.1621 -0.8406 -0.2178
  241MPD1    H6 3719   1.169   1.155  15.451  2.5254 -1.3716  1.5160
  241MPD1    H7 3720   1.239   1.218  15.316 -2.2062 -0.5808 -0.4452
  242MPD1     C 3721   0.738   4.155  16.113 -0.2178  0.2816  0.5451
  242MPD1    C1 3722   0.666   4.148  15.998 -0.3699 -0.1540  1.0341
  242MPD1    C2 3723   0.729   4.159  15.876 -0.2605  0.5621  0.3121
  242MPD1    C3 3724   0.862   4.202  15.873  0.6788  1.0522  0.9296
  242MPD1    C4 3725   0.920   4.236  15.994 -0.2725  0.4265 -0.1705
  242MPD1    C5 3726   0.859   4.220  16.108  0.0014  0.5221 -0.0282
  242MPD1     H 3727   0.671   4.136  15.787  1.8615 -1.7743 -0.4805
  242MPD1    H1 3728   1.015   4.288  16.004 -0.8950  1.7629 -1.1227
  242MPD1    H2 3729   0.691   4.133  16.208 -2.1289 -0.5351 -0.5917
  242MPD1    H3 3730   0.912   4.255  16.195 -1.2021 -1.8857  1.6620
  242MPD1     N 3731   0.937   4.227  15.757  0.2641 -0.1862 -0.0316
  242MPD1    H5 3732   1.033   4.258  15.767  0.1889  0.4463 -1.3596
  242MPD1    N1 3733   0.545   4.073  16.009  0.0544  0.4396  0.3932
  242MPD1    H6 3734   0.493   4.088  16.095  0.9946 -1.1567  1.2269
  242MPD1    H7 3735   0.480   4.085  15.932 -1.1482  0.5653  1.4293
  243MPD1     C 3736   1.922   3.512   0.230 -0.4192  0.0201  0.1263
  243MPD1    C1 3737   1.930   3.387   0.175  0.9557 -0.4495 -0.2466
  243MPD1    C2 3738   2.015   3.365   0.069  0.1129  0.1692  0.1133
  243MPD1    C3 3739   2.092   3.467   0.017 -0.4013  0.8152  0.4930
  243MPD1    C4 3740   2.085   3.591   0.074 -0.2722  0.5944 -0.1034
  243MPD1    C5 3741   2.001   3.615   0.180 -0.4384 -0.0502  0.0121
  243MPD1     H 3742   2.013   3.267   0.024  1.0120 -0.4898  1.4855
  243MPD1    H1 3743   2.137   3.676   0.033 -2.0340  1.0829 -1.3600
  243MPD1    H2 3744   1.845   3.539   0.301  0.1659  2.7628 -0.2900
  243MPD1    H3 3745   1.999   3.716   0.220 -0.9459 -0.2096  0.3882
  243MPD1     N 3746   2.167   3.439  17.657  0.2170 -0.1523 -0.2675
  243MPD1    H5 3747   2.168   3.340  17.633 -1.1704 -0.3735  0.5899
  243MPD1    N1 3748   1.837   3.288   0.214 -0.4036 -1.0908  0.0439
  243MPD1    H6 3749   1.784   3.308   0.299  0.8883  2.5944 -0.0206
  243MPD1    H7 3750   1.872   3.193   0.214  1.6352 -0.3458 -0.7339
  244MPD1     C 3751   2.399   2.664  17.614 -0.1443  0.9606 -0.2692
  244MPD1    C1 3752   2.345   2.755  17.700 -0.5308  0.3506  1.0217
  244MPD1    C2 3753   2.348   2.891  17.653  0.3074  0.4119  0.5058
  244MPD1    C3 3754   2.393   2.924  17.528 -0.1737 -0.1479  0.0591
  244MPD1    C4 3755   2.449   2.828  17.446  0.7066  0.7037 -0.0426
  244MPD1    C5 3756   2.450   2.700  17.492 -0.1988 -0.6611 -0.1323
  244MPD1     H 3757   2.315   2.972  17.717 -1.4257  0.2667 -0.1764
  244MPD1    H1 3758   2.488   2.851  17.347  1.9332  1.6375  0.6538
  244MPD1    H2 3759   2.412   2.560  17.644  0.0989  0.6586 -1.4436
  244MPD1    H3 3760   2.494   2.625  17.428  2.7936  0.8733  0.1247
  244MPD1     N 3761   2.387   3.058  17.492  0.1216  0.4087 -0.1078
  244MPD1    H5 3762   2.327   3.110  17.555  2.9337  1.5421  1.6712
  244MPD1    N1 3763   2.326   2.724   0.085 -0.4102 -0.2354 -0.3889
  244MPD1    H6 3764   2.302   2.626   0.099  0.6612 -0.1357  2.0832
  244MPD1    H7 3765   2.261   2.794   0.123 -2.2649 -1.2061 -1.7865
  245MPD1     C 3766   4.555   3.136  13.391  0.7358 -0.6777  0.5249
  245MPD1    C1 3767   4.478   3.242  13.436  0.3351 -0.2245  0.1657
  245MPD1    C2 3768   4.533   3.366  13.448 -0.0975 -0.4151 -0.3540
  245MPD1    C3 3769   4.668   3.381  13.427 -0.5067 -0.2424 -0.0758
  245MPD1    C4 3770   4.738   3.268  13.393 -0.1658 -0.7352 -0.3036
  245MPD1    C5 3771   4.689   3.149  13.376  0.4802 -0.3671  0.3151
  245MPD1     H 3772   4.473   3.453  13.474 -1.0044 -1.2367  0.3165
  245MPD1    H1 3773   0.105   3.272  13.378 -0.0057 -0.8927  0.7913
  245MPD1    H2 3774   4.514   3.036  13.395 -1.6504  0.2407 -1.2646
  245MPD1    H3 3775   0.021   3.069  13.375 -3.4251 -3.8221 -3.0979
  245MPD1     N 3776   4.724   3.505  13.445  0.1844  0.6992  0.5886
  245MPD1    H5 3777   4.665   3.584  13.470 -2.4987 -1.5527  1.4057
  245MPD1    N1 3778   4.341   3.222  13.448  0.3391 -0.4554 -0.3241
  245MPD1    H6 3779   4.329   3.129  13.487  0.6315 -0.1524  0.4916
  245MPD1    H7 3780   4.287   3.280  13.511 -1.8171 -2.1542 -0.6397
  246MPD1     C 3781   0.653   1.079  10.169  0.3097  0.0297 -0.1392
  246MPD1    C1 3782   0.659   1.177  10.068 -0.3262 -1.5634 -0.2852
  246MPD1    C2 3783   0.589   1.159   9.950  0.6144 -0.1707  0.2756
  246MPD1    C3 3784   0.549   1.032   9.912  0.0666  1.0236  0.0147
  246MPD1    C4 3785   0.561   0.930  10.006  1.0426 -0.0196  0.0435
  246MPD1    C5 3786   0.594   0.961  10.144 -0.0482 -1.1306 -0.2932
  246MPD1     H 3787   0.580   1.238   9.877 -0.1239 -0.1559  0.3781
  246MPD1    H1 3788   0.545   0.825   9.984 -0.2976 -0.3025  2.4138
  246MPD1    H2 3789   0.687   1.092  10.271 -0.4123  0.3413  0.0587
  246MPD1    H3 3790   0.607   0.883  10.218  3.6977 -0.0031  0.1972
  246MPD1     N 3791   0.516   1.009   9.769 -0.8516 -0.2133 -0.3435
  246MPD1    H5 3792   0.519   1.093   9.713 -1.5167  0.1017  0.0936
  246MPD1    N1 3793   0.706   1.306  10.104  0.6157  0.1186 -0.3667
  246MPD1    H6 3794   0.777   1.298  10.176  1.2493  1.2591 -0.8659
  246MPD1    H7 3795   0.754   1.360  10.032 -0.2727  0.3361 -0.7972
  247MPD1     C 3796   3.927   4.259  16.605 -0.5929 -0.3017 -0.4155
  247MPD1    C1 3797   3.926   4.139  16.674  0.4784 -0.2056  0.5647
  247MPD1    C2 3798   3.893   4.025  16.602 -0.6929 -0.6990  0.2705
  247MPD1    C3 3799   3.862   4.025  16.471  0.2418  0.0049 -0.6385
  247MPD1    C4 3800   3.882   4.143  16.401 -0.2034 -0.3544 -0.3333
  247MPD1    C5 3801   3.921   4.256  16.470 -0.7642 -0.2636  0.1844
  247MPD1     H 3802   3.899   3.926  16.647 -1.1783 -1.6250 -1.7012
  247MPD1    H1 3803   3.867   4.149  16.294 -1.2441  2.2815 -0.0355
  247MPD1    H2 3804   3.943   4.357  16.648 -0.7769  0.0229 -1.0834
  247MPD1    H3 3805   3.947   4.352  16.429  2.1055 -1.3961 -0.6083
  247MPD1     N 3806   3.820   3.909  16.401  0.0444  0.1285 -0.3113
  247MPD1    H5 3807   3.824   3.924  16.300  0.7467 -2.0539 -0.6097
  247MPD1    N1 3808   3.917   4.140  16.814 -0.0267 -0.1273 -0.1819
  247MPD1    H6 3809   3.955   4.215  16.870 -2.9055 -0.1011  1.7249
  247MPD1    H7 3810   3.931   4.051  16.861 -1.3221  1.2397  2.7684
  248MPD1     C 3811   0.061   3.489  17.273  0.0109  0.4107  0.6290
  248MPD1    C1 3812   4.694   3.547  17.332 -0.0408 -0.2458  0.0916
  248MPD1    C2 3813   4.590   3.466  17.372  0.0369 -0.5686  0.1319
  248MPD1    C3 3814   4.584   3.324  17.339 -0.0670  0.0291  0.2225
  248MPD1    C4 3815   4.701   3.271  17.283 -0.0350 -0.2529 -0.7895
  248MPD1    C5 3816   0.061   3.355  17.249 -1.0179  0.0164 -0.2631
  248MPD1     H 3817   4.511   3.508  17.432  0.0618  0.0379 -0.2540
  248MPD1    H1 3818   4.720   3.167  17.258  1.8341 -0.2935  0.8112
  248MPD1    H2 3819   0.148   3.543  17.239  0.9837 -1.4377  0.1937
  248MPD1    H3 3820   0.151   3.309  17.210 -0.2218  1.6605 -0.3640
  248MPD1     N 3821   4.469   3.248  17.384 -0.0071 -0.8933  0.4413
  248MPD1    H5 3822   4.397   3.294  17.439 -2.4861 -2.9620 -1.0642
  248MPD1    N1 3823   4.704   3.677  17.385  0.5128  0.2955 -0.8352
  248MPD1    H6 3824   4.614   3.719  17.406  0.8456  0.8996 -0.6108
  248MPD1    H7 3825   0.020   3.741  17.328 -0.8120  0.5810 -1.8030
  249MPD1     C 3826   1.919   4.481   9.188  0.5779  0.2956  0.1008
  249MPD1    C1 3827   2.035   4.479   9.265  0.8337 -0.4369 -0.5922
  249MPD1    C2 3828   2.046   4.391   9.372  0.5831 -0.2002  0.0120
  249MPD1    C3 3829   1.942   4.308   9.399  0.6801 -0.0874  0.7173
  249MPD1    C4 3830   1.822   4.326   9.333 -0.4001  0.1055 -0.5700
  249MPD1    C5 3831   1.811   4.406   9.225  0.4297  0.6663  0.8044
  249MPD1     H 3832   2.142   4.384   9.423  0.1671 -1.8376  0.5677
  249MPD1    H1 3833   1.739   4.260   9.356  0.8052 -1.6059 -1.1254
  249MPD1    H2 3834   1.901   4.544   9.102  2.8943  0.0737 -0.5527
  249MPD1    H3 3835   1.715   4.413   9.175  0.7956  2.0206  0.2808
  249MPD1     N 3836   1.965   4.205   9.496  0.5790  0.2279 -1.8499
  249MPD1    H5 3837   2.059   4.203   9.534 -0.1549 -0.4836 -0.0558
  249MPD1    N1 3838   2.141   4.566   9.233  0.6771  0.6580 -0.0093
  249MPD1    H6 3839   2.185   4.605   9.316  1.9762  0.7806 -0.7610
  249MPD1    H7 3840   2.123   4.649   9.178 -1.6736  0.5074  0.5002
  250MPD2     C 3841   2.775   1.938  12.550  0.0728 -0.7498  0.0160
  250MPD2    C1 3842   2.643   1.974  12.527  0.3697  0.1841 -0.1400
  250MPD2    C2 3843   2.576   1.920  12.420  0.1858 -1.1302 -0.7397
  250MPD2    C3 3844   2.639   1.819  12.348 -0.1557  0.4508 -0.6828
  250MPD2    C4 3845   2.765   1.781  12.371 -0.7813 -0.2732 -0.0113
  250MPD2    C5 3846   2.834   1.839  12.477  0.4588  0.7012 -0.0481
  250MPD2     H 3847   2.474   1.949  12.395  1.3867  2.3783 -1.5175
  250MPD2    H1 3848   2.797   1.700  12.306 -2.4277  0.6361 -1.9573
  250MPD2    H2 3849   2.834   1.983  12.629  0.2493 -0.1888 -0.4369
  250MPD2    H3 3850   2.934   1.800  12.490 -0.4260 -1.6872 -0.4944
  250MPD2     N 3851   2.574   1.747  12.249  0.1857 -0.1308 -0.9925
  250MPD2    H5 3852   2.615   1.656  12.231 -0.0672 -0.2100 -1.1662
  250MPD2    N1 3853   2.586   2.073  12.617  0.2830  0.1139 -0.0994
  250MPD2    H7 3854   2.654   2.103  12.686  0.3550  1.1453 -0.6133
  251TMC3    C1 3855   2.432   2.234  12.712 -0.9049  0.9173 -0.0209
  251TMC3    C2 3856   2.303   2.269  12.744 -0.1216  0.1822  0.2191
  251TMC3    C3 3857   2.295   2.387  12.816 -0.0854 -0.0578 -0.4263
  251TMC3    C4 3858   2.546   2.300  12.745 -0.2053  0.3287  0.6574
  251TMC3    C5 3859   2.524   2.419  12.816 -0.5079  0.4543 -0.5271
  251TMC3    C6 3860   2.402   2.465  12.855  0.3727  0.1462 -1.2410
  251TMC3     C 3861   2.452   2.120  12.621  0.7326  0.6731  0.0488
  251TMC3     O 3862   2.358   2.090  12.550  0.4721 -0.4060 -0.3555
  251TMC3     H 3863   2.215   2.207  12.730  0.3385 -0.5084  0.4138
  251TMC3    H1 3864   2.639   2.279  12.694 -1.7065  1.0446 -2.3973
  251TMC3    H2 3865   2.397   2.564  12.899  0.7462 -0.8931  1.1572
  251TMC3    C7 3866   2.642   2.488  12.863  0.1129 -0.6215 -0.3398
  251TMC3    C8 3867   2.173   2.414  12.898  1.0555 -0.0452 -0.1725
  251TMC3    O1 3868   2.627   2.596  12.913  0.6751  0.0696  0.1533
  251TMC3    O2 3869   2.182   2.522  12.957 -0.4696 -0.0466 -0.1502
  252TMC3    C1 3870   2.814   3.927   9.528  0.1951  0.1449  0.5498
  252TMC3    C2 3871   2.944   3.935   9.479 -0.0415  0.0416  0.0044
  252TMC3    C3 3872   3.024   3.828   9.489 -0.1625  0.4019  0.0144
  252TMC3    C4 3873   2.771   3.819   9.601 -0.1926  0.2975  0.8407
  252TMC3    C5 3874   2.854   3.713   9.608 -0.2805 -0.3476 -0.5205
  252TMC3    C6 3875   2.975   3.713   9.550 -0.2325  0.2761  0.3845
  252TMC3     C 3876   2.745   4.054   9.540  0.0243 -0.2175  0.1499
  252TMC3     O 3877   2.816   4.152   9.524 -0.0926 -0.0643  0.5040
  252TMC3     H 3878   2.991   4.022   9.433 -0.0691  0.6171  1.0583
  252TMC3    H1 3879   2.668   3.808   9.633 -0.8325 -1.7147 -1.9329
  252TMC3    H2 3880   3.042   3.628   9.554  0.3130  0.7500  1.5109
  252TMC3    C7 3881   2.798   3.584   9.648 -0.3249  0.4502  0.3152
  252TMC3    C8 3882   3.163   3.860   9.485 -0.1026  0.2380 -0.0751
  252TMC3    O1 3883   2.684   3.562   9.611 -0.3272  0.1590  0.2081
  252TMC3    O2 3884   3.202   3.948   9.410 -0.2639 -0.1529  0.5678
  253MPD2     C 3885   3.895   1.976  15.358 -0.0807  0.2266  0.0404
  253MPD2    C1 3886   3.756   2.001  15.368  0.6423 -0.5264  0.4443
  253MPD2    C2 3887   3.711   2.094  15.458  0.2676  0.9505 -0.2076
  253MPD2    C3 3888   3.792   2.146  15.553  0.0583 -0.1841 -1.4209
  253MPD2    C4 3889   3.924   2.107  15.556  0.2831 -0.6717  0.9579
  253MPD2    C5 3890   3.977   2.020  15.469  0.0614  0.3572  0.2969
  253MPD2     H 3891   3.604   2.106  15.469  0.2349 -0.1827  0.7472
  253MPD2    H1 3892   3.993   2.146  15.629  1.1453 -0.0477 -0.2007
  253MPD2    H2 3893   3.939   1.900  15.294 -1.4722 -1.3346  0.9367
  253MPD2    H3 3894   4.081   1.988  15.467 -0.0927 -0.1228 -0.2161
  253MPD2     N 3895   3.747   2.239  15.656  0.0425  0.2878  0.6047
  253MPD2    H5 3896   3.819   2.269  15.721  0.5851  1.8396 -0.7133
  253MPD2    N1 3897   3.672   1.946  15.274  0.8586 -0.6585  0.6220
  253MPD2    H7 3898   3.701   1.901  15.187  0.0958 -0.6565  0.3616
  254TMC3    C1 3899   3.614   2.376  15.786  0.1008 -0.0983  0.1748
  254TMC3    C2 3900   3.529   2.486  15.778 -0.7500 -0.1329  0.2129
  254TMC3    C3 3901   3.515   2.568  15.889 -0.2856 -0.1916 -0.2092
  254TMC3    C4 3902   3.671   2.342  15.905  0.3088 -0.2138  0.1015
  254TMC3    C5 3903   3.654   2.431  16.005  0.3267  0.2850 -0.8684
  254TMC3    C6 3904   3.584   2.543  16.003 -0.2086  0.1336  0.2483
  254TMC3     C 3905   3.618   2.286  15.670 -0.1326  0.3785 -0.0086
  254TMC3     O 3906   3.521   2.297  15.597  0.2830 -0.3161  0.0631
  254TMC3     H 3907   3.478   2.515  15.687  3.7697  0.9438 -1.9811
  254TMC3    H1 3908   3.728   2.252  15.925  1.0102 -0.3592 -2.5124
  254TMC3    H2 3909   3.555   2.591  16.096  0.7699  0.3771  0.4303
  254TMC3    C7 3910   3.708   2.389  16.137  0.3617  0.5904 -0.0281
  254TMC3    C8 3911   3.428   2.679  15.898 -0.2234 -0.4427 -0.4051
  254TMC3    O1 3912   3.716   2.271  16.155  0.1558 -0.7480 -0.8624
  254TMC3    O2 3913   3.416   2.728  16.012 -0.1072 -0.0961 -0.2509
  255MPD2     C 3914   2.328   0.615   9.945 -0.1231 -0.3355 -0.9501
  255MPD2    C1 3915   2.334   0.724   9.859 -0.0734 -0.6818  0.3338
  255MPD2    C2 3916   2.446   0.735   9.782 -0.3569  0.3386  0.8518
  255MPD2    C3 3917   2.551   0.644   9.786  0.5352  0.2894  0.2048
  255MPD2    C4 3918   2.548   0.538   9.879  0.5119 -0.4146  0.1448
  255MPD2    C5 3919   2.434   0.525   9.965 -0.5092  0.7509  0.0184
  255MPD2     H 3920   2.458   0.804   9.700  1.9415  0.9447  1.7012
  255MPD2    H1 3921   2.625   0.462   9.890 -1.1472 -2.2594 -1.0031
  255MPD2    H2 3922   2.237   0.597  10.002 -0.6854  3.1790 -0.7389
  255MPD2    H3 3923   2.423   0.435  10.025  0.0700  1.5167  1.2941
  255MPD2     N 3924   2.661   0.660   9.697  0.3622 -0.5740  0.2437
  255MPD2    H5 3925   2.647   0.718   9.616  1.2840 -0.0963  0.4229
  255MPD2    N1 3926   2.224   0.811   9.850 -0.5955 -0.1111  0.1831
  255MPD2    H7 3927   2.144   0.797   9.911 -1.6039  1.5956 -0.7491
  256TMC3    C1 3928   2.096   0.994   9.759  0.3005  0.0944 -0.1196
  256TMC3    C2 3929   2.114   1.125   9.722 -0.3838  0.2582 -0.0089
  256TMC3    C3 3930   2.015   1.168   9.640 -0.5218 -0.2981 -0.5267
  256TMC3    C4 3931   1.989   0.919   9.728 -0.2951  0.1834 -0.7900
  256TMC3    C5 3932   1.896   0.967   9.638  0.1559  0.1902  0.3518
  256TMC3    C6 3933   1.910   1.094   9.599  0.2173  0.8066  0.6136
  256TMC3     C 3934   2.225   0.934   9.785 -0.7123 -0.1509  0.0203
  256TMC3     O 3935   2.319   1.002   9.751 -0.0353  0.0482 -0.9193
  256TMC3     H 3936   2.191   1.190   9.763 -0.1406  0.9042 -1.4767
  256TMC3    H1 3937   1.987   0.813   9.753 -2.0186  0.6005  0.8448
  256TMC3    H2 3938   1.842   1.137   9.527  2.2325 -0.6212 -2.1312
  256TMC3    C7 3939   1.812   0.873   9.568  0.2457 -0.4267  0.6848
  256TMC3    C8 3940   2.028   1.299   9.574 -0.0640  0.1894 -0.0549
  256TMC3    O1 3941   1.861   0.762   9.542  0.2406 -0.3353  0.2182
  256TMC3    O2 3942   1.930   1.340   9.518 -0.4048 -0.3422 -0.1295
  257MPD2     C 3943   1.569   2.110  12.573  0.3125  0.5186 -0.8487
  257MPD2    C1 3944   1.699   2.085  12.623  0.2966 -0.1212 -0.2438
  257MPD2    C2 3945   1.716   2.026  12.752  0.6448 -0.6936  0.3514
  257MPD2    C3 3946   1.607   1.978  12.819  0.1744  0.1206 -0.0890
  257MPD2    C4 3947   1.477   2.003  12.765  0.0156  0.5154  0.1458
  257MPD2    C5 3948   1.461   2.072  12.644  0.0494  0.0091 -0.6071
  257MPD2     H 3949   1.817   2.015  12.789  0.6564 -1.7602 -0.0004
  257MPD2    H1 3950   1.387   1.963  12.811  0.2757  0.0148  0.2287
  257MPD2    H2 3951   1.559   2.160  12.478  0.8618  0.3449 -1.0000
  257MPD2    H3 3952   1.363   2.101  12.610 -0.0535 -1.1088 -1.2580
  257MPD2     N 3953   1.622   1.901  12.941 -0.1644 -0.1869  0.0663
  257MPD2    H5 3954   1.717   1.882  12.969  0.6876  1.0444 -2.0096
  257MPD2    N1 3955   1.803   2.113  12.533  0.0338 -0.2258 -0.0370
  257MPD2    H7 3956   1.776   2.153  12.444 -2.2030  0.7722  1.1092
  258TMC3    C1 3957   1.580   1.756  13.120  0.0032 -0.4781  0.1219
  258TMC3    C2 3958   1.659   1.651  13.078  0.0875 -0.2578 -0.4632
  258TMC3    C3 3959   1.704   1.558  13.167 -0.0898 -0.3570  0.5499
  258TMC3    C4 3960   1.551   1.777  13.254  0.3483  0.3939  0.0953
  258TMC3    C5 3961   1.605   1.683  13.339 -0.3819 -0.4352  0.9386
  258TMC3    C6 3962   1.668   1.570  13.300  0.4773  0.6147  0.7619
  258TMC3     C 3963   1.517   1.837  13.017 -0.0903  0.1115 -0.6970
  258TMC3     O 3964   1.399   1.863  13.023  0.0520  0.0381 -0.1036
  258TMC3     H 3965   1.674   1.630  12.973 -0.2509 -0.0150 -0.5606
  258TMC3    H1 3966   1.493   1.861  13.287 -0.7823  0.0342 -0.9959
  258TMC3    H2 3967   1.698   1.491  13.368  0.2979  1.2657  1.5922
  258TMC3    C7 3968   1.602   1.703  13.481 -0.2279  0.0054  0.0316
  258TMC3    C8 3969   1.737   1.427  13.121  0.1789 -0.3081 -0.0588
  258TMC3    O1 3970   1.532   1.800  13.514 -0.0066 -0.0778  0.0240
  258TMC3    O2 3971   1.697   1.401  13.012  0.3833 -0.2000  0.8432
  259MPD2     C 3972   0.455   4.142   1.237 -0.6510 -0.3079  0.3050
  259MPD2    C1 3973   0.430   4.015   1.192  0.2430 -0.3042 -0.0021
  259MPD2    C2 3974   0.390   3.991   1.060 -0.3599  0.2628 -0.0016
  259MPD2    C3 3975   0.389   4.095   0.970 -0.0485 -0.4995 -0.8701
  259MPD2    C4 3976   0.436   4.219   1.011  0.4412  0.2266  0.1171
  259MPD2    C5 3977   0.462   4.241   1.146  0.3281 -0.3670  0.3995
  259MPD2     H 3978   0.363   3.892   1.025  0.7406  0.1121 -0.3912
  259MPD2    H1 3979   0.439   4.308   0.949  2.5010 -0.4603 -0.7949
  259MPD2    H2 3980   0.482   4.156   1.341 -0.5614  0.1755  0.2159
  259MPD2    H3 3981   0.484   4.343   1.176 -0.8956 -0.2292  0.8566
  259MPD2     N 3982   0.359   4.054   0.839  0.2339 -0.2060  0.4215
  259MPD2    H5 3983   0.337   3.955   0.836 -0.5446 -0.1056  2.8197
  259MPD2    N1 3984   0.462   3.915   1.285 -0.1263 -0.2001 -0.3859
  259MPD2    H7 3985   0.497   3.950   1.373 -2.6639  1.2944 -0.0083
  260TMC3    C1 3986   0.362   4.058   0.603 -0.8651  0.1275  0.2850
  260TMC3    C2 3987   0.365   4.128   0.485  0.8171  1.0101 -0.2864
  260TMC3    C3 3988   0.364   4.071   0.362 -0.7036  0.1338  0.5251
  260TMC3    C4 3989   0.358   3.917   0.602  0.1308  0.2397 -0.0040
  260TMC3    C5 3990   0.362   3.862   0.475 -0.0500  0.3400  0.5012
  260TMC3    C6 3991   0.361   3.934   0.355  0.0236  0.7097  0.6433
  260TMC3     C 3992   0.389   4.130   0.726 -0.4205  0.0369 -1.0072
  260TMC3     O 3993   0.418   4.248   0.725 -0.2509  0.2352 -0.2050
  260TMC3     H 3994   0.382   4.235   0.484  2.0544  0.8278  1.3827
  260TMC3    H1 3995   0.358   3.857   0.692  0.2633  1.2714  0.6774
  260TMC3    H2 3996   0.362   3.873   0.265  1.3150  0.3732  0.8851
  260TMC3    C7 3997   0.373   3.718   0.458  0.5191  0.2052  0.2640
  260TMC3    C8 3998   0.450   4.142   0.257 -0.2784  0.7402 -0.4066
  260TMC3    O1 3999   0.292   3.670   0.378  0.5889  0.1502  0.0892
  260TMC3    O2 4000   0.453   4.261   0.245  0.4507 -0.2853 -0.3338
  261MPD2     C 4001   2.314   1.635  11.519  0.5849 -0.2538  0.9033
  261MPD2    C1 4002   2.372   1.711  11.617 -0.6580 -0.3475 -0.4663
  261MPD2    C2 4003   2.420   1.839  11.592  0.0087  0.2889 -0.5302
  261MPD2    C3 4004   2.416   1.885  11.463 -0.0919  1.0025 -0.0684
  261MPD2    C4 4005   2.361   1.807  11.359  0.0681  0.3618 -0.5654
  261MPD2    C5 4006   2.308   1.686  11.394 -0.3441  0.1355 -0.0144
  261MPD2     H 4007   2.473   1.896  11.667 -0.7991 -0.9066  0.9325
  261MPD2    H1 4008   2.356   1.841  11.256  0.5200  3.4781  0.4548
  261MPD2    H2 4009   2.263   1.543  11.546  1.9950 -1.5924 -1.0230
  261MPD2    H3 4010   2.253   1.631  11.318 -0.5986 -1.7548  1.5286
  261MPD2     N 4011   2.482   2.003  11.436 -0.2754 -0.1591 -0.3981
  261MPD2    H5 4012   2.528   2.044  11.517 -0.3676 -1.2989  0.2236
  261MPD2    N1 4013   2.393   1.673  11.747  0.1104 -0.2378 -0.0592
  261MPD2    H7 4014   2.402   1.754  11.807  0.1725  0.0251 -0.4250
  262TMC3    C1 4015   2.596   2.177  11.327 -0.0301  0.0034  0.3125
  262TMC3    C2 4016   2.600   2.269  11.226 -0.3745 -0.5637  0.2016
  262TMC3    C3 4017   2.706   2.357  11.235  0.4357 -0.3608  0.5354
  262TMC3    C4 4018   2.688   2.168  11.434 -0.4264  0.6126 -0.7513
  262TMC3    C5 4019   2.788   2.261  11.433 -0.3562  0.2801  0.0467
  262TMC3    C6 4020   2.804   2.352  11.333  0.2345  0.6415  0.3117
  262TMC3     C 4021   2.497   2.076  11.318  0.5277  0.2203  0.2959
  262TMC3     O 4022   2.431   2.069  11.213  0.5300  0.6355  0.0485
  262TMC3     H 4023   2.518   2.275  11.156  1.0041  0.0266 -1.3635
  262TMC3    H1 4024   2.703   2.079  11.494  1.3249  1.7549  0.5224
  262TMC3    H2 4025   2.881   2.428  11.332 -0.3360  1.2341  1.6890
  262TMC3    C7 4026   2.909   2.235  11.510 -0.6400 -0.0322 -1.0183
  262TMC3    C8 4027   2.709   2.473  11.148  0.2980  0.5550  0.2876
  262TMC3    O1 4028   2.919   2.126  11.572 -0.1125 -0.2059  0.1625
  262TMC3    O2 4029   2.793   2.558  11.172  0.0072  0.1642  0.0985
  263MPD2     C 4030   3.428   1.307  11.571 -0.5804 -0.2882  0.6600
  263MPD2    C1 4031   3.553   1.349  11.523 -0.3887 -0.4641 -0.3034
  263MPD2    C2 4032   3.562   1.441  11.423 -0.5598  0.6537  0.1757
  263MPD2    C3 4033   3.449   1.514  11.397 -1.3344  0.1215  0.2181
  263MPD2    C4 4034   3.320   1.478  11.445  0.5105 -0.1691 -0.5116
  263MPD2    C5 4035   3.313   1.365  11.521  0.1766  0.1853  0.7356
  263MPD2     H 4036   3.659   1.476  11.389 -2.3843  4.4771 -1.0640
  263MPD2    H1 4037   3.235   1.533  11.404  0.9047  0.0258 -1.0660
  263MPD2    H2 4038   3.424   1.230  11.647 -0.9440  1.4178  2.3622
  263MPD2    H3 4039   3.218   1.322  11.552 -0.2483  0.5977 -0.0068
  263MPD2     N 4040   3.473   1.624  11.318 -0.3120 -0.4524  0.2614
  263MPD2    H5 4041   3.555   1.621  11.258  1.0284  1.1211  1.9944
  263MPD2    N1 4042   3.673   1.300  11.585 -0.2257  0.1185 -0.2859
  263MPD2    H7 4043   3.668   1.224  11.652  1.6431 -1.2842 -1.7554
  264TMC3    C1 4044   3.468   1.842  11.244  0.0356  0.2048 -0.4330
  264TMC3    C2 4045   3.487   1.961  11.301  0.1372 -0.0695  0.1524
  264TMC3    C3 4046   3.588   2.037  11.247 -0.2891  0.4196  0.2894
  264TMC3    C4 4047   3.530   1.804  11.133 -0.2126  0.2142  0.0455
  264TMC3    C5 4048   3.630   1.885  11.082  0.0707  0.3687 -0.5456
  264TMC3    C6 4049   3.669   2.001  11.146  0.2784 -0.1073  0.3511
  264TMC3     C 4050   3.397   1.737  11.313  0.2110 -0.2787  0.1244
  264TMC3     O 4051   3.296   1.771  11.374  0.3966 -0.4965  0.3177
  264TMC3     H 4052   3.436   1.986  11.394 -2.2788  1.5725 -1.6104
  264TMC3    H1 4053   3.507   1.710  11.085  0.1344  0.4576 -0.5955
  264TMC3    H2 4054   3.749   2.068  11.117  0.6446  0.3772  2.4536
  264TMC3    C7 4055   3.686   1.875  10.953  0.2584  0.1679 -0.7201
  264TMC3    C8 4056   3.640   2.160  11.308 -1.1447  0.0995 -0.0155
  264TMC3    O1 4057   3.757   1.968  10.915 -0.8752 -0.0414 -0.2291
  264TMC3    O2 4058   3.670   2.244  11.225  0.5534  0.3413 -0.2414
  265MPD2     C 4059   0.529   1.966  15.414  0.8200  0.4004 -0.5017
  265MPD2    C1 4060   0.590   2.080  15.372  0.7971 -0.8572 -0.5145
  265MPD2    C2 4061   0.671   2.083  15.260  0.7436 -0.1124 -0.0869
  265MPD2    C3 4062   0.684   1.969  15.183  0.4065 -0.5306  0.2766
  265MPD2    C4 4063   0.611   1.858  15.223 -0.9628  0.3418  0.3115
  265MPD2    C5 4064   0.529   1.855  15.331  0.6619 -0.3743  0.2358
  265MPD2     H 4065   0.724   2.176  15.240 -1.3708  0.9707 -0.6074
  265MPD2    H1 4066   0.612   1.773  15.155  2.3135  1.2378 -0.8040
  265MPD2    H2 4067   0.478   1.956  15.510  0.1872  0.8961 -0.7857
  265MPD2    H3 4068   0.464   1.772  15.356 -1.1878  0.6227 -1.3003
  265MPD2     N 4069   0.753   1.947  15.060  0.4798  0.2186 -0.7627
  265MPD2    H5 4070   0.752   1.859  15.010  0.3466 -0.4403  0.4081
  265MPD2    N1 4071   0.588   2.194  15.456  0.6921  0.2191  0.7272
  265MPD2    H7 4072   0.633   2.272  15.408  0.1158 -0.0703 -0.2905
  266TMC3    C1 4073   0.544   2.359  15.624 -0.2287 -0.4608  0.0613
  266TMC3    C2 4074   0.533   2.389  15.756 -0.0107  0.4723 -0.5423
  266TMC3    C3 4075   0.569   2.515  15.786  0.4620 -0.6795 -0.0686
  266TMC3    C4 4076   0.550   2.456  15.528  0.6739 -0.4674  0.9762
  266TMC3    C5 4077   0.563   2.584  15.564  0.0879  0.4194 -0.1838
  266TMC3    C6 4078   0.573   2.618  15.695  0.1347 -0.1480  0.0184
  266TMC3     C 4079   0.533   2.216  15.581 -0.6278 -0.3153  0.1521
  266TMC3     O 4080   0.473   2.141  15.657 -0.1962  0.4979  0.5231
  266TMC3     H 4081   0.533   2.312  15.833 -3.2501 -0.6724 -1.7065
  266TMC3    H1 4082   0.533   2.427  15.425  0.7071  1.1535  0.5172
  266TMC3    H2 4083   0.592   2.722  15.721 -1.0218 -0.3097  1.5070
  266TMC3    C7 4084   0.535   2.686  15.468  0.1555  0.1637 -0.0935
  266TMC3    C8 4085   0.619   2.545  15.916  0.1343 -0.4046 -1.3706
  266TMC3    O1 4086   0.558   2.658  15.349  0.3302  0.1854  0.0105
  266TMC3    O2 4087   0.679   2.454  15.969 -0.1635  0.0862 -0.3366
  267MPD2     C 4088   2.602   3.831   0.094  0.7157  0.4112 -0.2799
  267MPD2    C1 4089   2.662   3.926   0.012 -0.6588  0.3454 -0.8238
  267MPD2    C2 4090   2.585   4.013  17.694  0.1423 -0.3094 -0.4094
  267MPD2    C3 4091   2.443   4.009  17.706 -0.0239 -0.7954 -0.7643
  267MPD2    C4 4092   2.390   3.912   0.026 -0.7221  0.0758 -0.0606
  267MPD2    C5 4093   2.465   3.820   0.093 -0.2487  0.7790  0.0194
  267MPD2     H 4094   2.632   4.091  17.635 -1.6739  0.3259 -1.0507
  267MPD2    H1 4095   2.285   3.892   0.045 -0.4132 -2.0322 -0.5766
  267MPD2    H2 4096   2.663   3.766   0.156 -2.0809 -1.9781 -0.0042
  267MPD2    H3 4097   2.416   3.749   0.158  0.5853 -0.6144 -0.8989
  267MPD2     N 4098   2.355   4.065  17.617 -0.7377  0.7100  0.0657
  267MPD2    H5 4099   2.262   4.024  17.621 -0.6811  0.5331 -0.5333
  267MPD2    N1 4100   2.800   3.920  17.756 -0.2375  0.0911  0.4461
  267MPD2    H7 4101   2.847   3.837   0.032 -0.0918 -0.6018 -1.5412
  268TMC3    C1 4102   2.996   3.939  17.634 -0.2521  0.3139  0.3449
  268TMC3    C2 4103   3.031   3.947  17.503 -0.2514 -0.5707 -0.1578
  268TMC3    C3 4104   3.147   3.885  17.474  0.5172 -0.0699  0.3667
  268TMC3    C4 4105   3.065   3.883  17.740  0.1767 -0.2988  0.3114
  268TMC3    C5 4106   3.182   3.823  17.705 -0.1179 -1.1494 -0.4941
  268TMC3    C6 4107   3.222   3.820  17.573 -0.0721  0.0492  0.5546
  268TMC3     C 4108   2.878   3.999  17.669 -0.1596  0.2056  0.0241
  268TMC3     O 4109   2.854   4.097  17.597  0.4044 -0.1453 -0.0620
  268TMC3     H 4110   2.969   4.001  17.433 -1.3931 -0.8798  0.6082
  268TMC3    H1 4111   3.033   3.901   0.085 -1.3034 -0.0650 -0.2033
  268TMC3    H2 4112   3.301   3.752  17.546 -0.5845 -0.4197  0.2290
  268TMC3    C7 4113   3.277   3.776   0.049 -0.1141  0.1576 -0.5199
  268TMC3    C8 4114   3.140   3.817  17.343  0.8704 -0.0026  0.0227
  268TMC3    O1 4115   3.358   3.694   0.013  0.1928 -0.7036  0.5511
  268TMC3    O2 4116   3.201   3.710  17.339  0.3041 -0.3529  0.5038
  269MPD2     C 4117   3.329   2.865  15.263 -0.3626  0.0572 -0.2757
  269MPD2    C1 4118   3.201   2.883  15.303 -0.1041 -0.2761  0.3587
  269MPD2    C2 4119   3.150   3.008  15.305 -0.4900 -0.4723 -0.4680
  269MPD2    C3 4120   3.217   3.119  15.249  0.5501  0.4732 -0.1077
  269MPD2    C4 4121   3.348   3.102  15.218 -0.4198  0.9076 -0.2760
  269MPD2    C5 4122   3.406   2.978  15.222 -0.1127  0.2804  0.2267
  269MPD2     H 4123   3.053   3.020  15.350  0.2467 -1.4337  1.3842
  269MPD2    H1 4124   3.413   3.184  15.188  1.1431 -0.2201  0.0034
  269MPD2    H2 4125   3.372   2.766  15.272  0.4423  0.4546  0.2768
  269MPD2    H3 4126   3.506   2.965  15.184  0.1099  0.2361  0.8269
  269MPD2     N 4127   3.152   3.243  15.246 -0.4119 -0.2351 -0.0615
  269MPD2    H5 4128   3.055   3.234  15.276  0.3761  0.0043  2.5718
  269MPD2    N1 4129   3.143   2.776  15.377  0.1578 -0.4123 -0.3678
  269MPD2    H7 4130   3.190   2.687  15.391 -0.6535 -0.8364 -0.3018
  270TMC3    C1 4131   2.988   2.646  15.497 -0.3288 -0.7967  0.2968
  270TMC3    C2 4132   2.855   2.611  15.511 -0.4465 -0.1033  0.3100
  270TMC3    C3 4133   2.822   2.505  15.600 -0.5795 -0.1038  0.6993
  270TMC3    C4 4134   3.090   2.588  15.571  0.2436 -0.0116  0.0298
  270TMC3    C5 4135   3.043   2.502  15.664 -0.0985 -0.0682 -0.2218
  270TMC3    C6 4136   2.917   2.459  15.682 -0.3835 -0.1544 -0.3966
  270TMC3     C 4137   3.013   2.772  15.422 -0.8382  0.8878 -0.0587
  270TMC3     O 4138   2.914   2.845  15.403  0.4827 -0.8817 -0.1960
  270TMC3     H 4139   2.780   2.651  15.443  0.0030 -0.8055 -0.5915
  270TMC3    H1 4140   3.194   2.612  15.557 -0.0189  1.7710  1.2662
  270TMC3    H2 4141   2.901   2.371  15.743  1.2049 -0.6430 -0.6986
  270TMC3    C7 4142   3.150   2.418  15.716  0.2913 -0.1286  0.1727
  270TMC3    C8 4143   2.715   2.422  15.560  0.0550 -0.1201  0.1682
  270TMC3    O1 4144   3.254   2.398  15.652  0.5770 -0.3868 -0.0524
  270TMC3    O2 4145   2.621   2.471  15.503  0.4224  0.2083  0.2063
  271MPD2     C 4146   2.545   1.974  13.646  0.0022  0.1899  0.3296
  271MPD2    C1 4147   2.473   1.992  13.765 -0.4765  0.6139 -0.2678
  271MPD2    C2 4148   2.353   2.057  13.781 -0.6503 -0.3056  0.7453
  271MPD2    C3 4149   2.307   2.120  13.669 -0.4177  0.4735  0.5996
  271MPD2    C4 4150   2.381   2.119  13.552 -0.0712  0.8405 -0.1246
  271MPD2    C5 4151   2.491   2.038  13.539  0.0634  0.3873 -0.6793
  271MPD2     H 4152   2.302   2.048  13.876 -2.8670 -0.2063 -0.4282
  271MPD2    H1 4153   2.347   2.172  13.463  2.0184 -1.6722 -2.4176
  271MPD2    H2 4154   2.631   1.909  13.635  0.1594  0.6834 -1.3887
  271MPD2    H3 4155   2.539   2.037  13.442  0.2830  1.7238 -0.5857
  271MPD2     N 4156   2.177   2.177  13.666  0.3512 -0.0665  0.0558
  271MPD2    H5 4157   2.158   2.216  13.575  1.6278  2.3395  0.8159
  271MPD2    N1 4158   2.523   1.933  13.887  0.3456 -0.3799  0.3253
  271MPD2    H7 4159   2.455   1.905  13.957 -0.6458 -0.4037 -0.6615
  272TMC3    C1 4160   2.664   1.835  14.045  0.5132 -0.0070 -0.2028
  272TMC3    C2 4161   2.778   1.771  14.076  0.4735  0.5240 -0.2961
  272TMC3    C3 4162   2.797   1.719  14.206  0.2866 -1.1156 -0.2548
  272TMC3    C4 4163   2.566   1.839  14.135  0.9654 -0.3019  0.5002
  272TMC3    C5 4164   2.588   1.798  14.264  0.0313  1.0708  0.2406
  272TMC3    C6 4165   2.701   1.722  14.301  0.2656 -0.2928  0.7166
  272TMC3     C 4166   2.649   1.896  13.914 -0.8037 -0.0393 -0.6952
  272TMC3     O 4167   2.747   1.893  13.838  0.5969  0.6090 -0.0213
  272TMC3     H 4168   2.860   1.762  14.005  0.4783 -0.5296 -0.1659
  272TMC3    H1 4169   2.473   1.886  14.103  1.0674 -0.7079 -0.3841
  272TMC3    H2 4170   2.724   1.693  14.403 -2.6332  0.7239  1.6518
  272TMC3    C7 4171   2.484   1.815  14.365 -0.1605  1.0817 -0.1021
  272TMC3    C8 4172   2.935   1.685  14.235  0.0507 -0.5267  0.2699
  272TMC3    O1 4173   2.462   1.729  14.450  0.0664  0.0462 -0.5106
  272TMC3    O2 4174   3.022   1.735  14.169  0.4263  0.7584 -0.4651
  273MPD2     C 4175   3.851   0.064  11.623  0.5935 -0.3896  0.2335
  273MPD2    C1 4176   3.959   0.150  11.626  0.3178  0.2960  0.9884
  273MPD2    C2 4177   4.003   0.208  11.512  0.6717  0.4203  0.3940
  273MPD2    C3 4178   3.950   0.173  11.390  0.5169  0.7152  0.1095
  273MPD2    C4 4179   3.834   0.099  11.394 -0.4846 -0.4275  0.0650
  273MPD2    C5 4180   3.789   0.040  11.504 -0.8871  1.0609 -0.2071
  273MPD2     H 4181   4.073   0.290  11.513  0.8568  0.2694 -0.1172
  273MPD2    H1 4182   3.781   0.069  11.305 -2.2644  1.3003  0.5359
  273MPD2    H2 4183   3.797   0.034  11.712  0.7120  0.5093  0.6075
  273MPD2    H3 4184   3.697   4.724  11.515 -1.5968  2.3508  0.3859
  273MPD2     N 4185   4.001   0.214  11.266  0.2017 -0.1552 -0.2259
  273MPD2    H5 4186   3.942   0.189  11.188  0.8368 -0.5846 -0.5663
  273MPD2    N1 4187   4.029   0.163  11.750  0.2286 -0.0087  0.2587
  273MPD2    H7 4188   3.988   0.120  11.832  2.6463 -0.5920  1.1592
  274TMC3    C1 4189   4.130   0.360  11.134  0.6827  0.2536 -0.0680
  274TMC3    C2 4190   4.017   0.390  11.066  0.4909 -0.4921  0.0857
  274TMC3    C3 4191   4.008   0.516  11.021  0.2266  0.3684  0.6056
  274TMC3    C4 4192   4.228   0.454  11.149  0.6278 -0.3518 -0.1387
  274TMC3    C5 4193   4.214   0.585  11.112 -0.6048 -0.0856 -0.5473
  274TMC3    C6 4194   4.107   0.613  11.043 -0.1163 -0.4197 -0.1092
  274TMC3     C 4195   4.116   0.283  11.254 -0.2739 -0.0626  0.0461
  274TMC3     O 4196   4.210   0.293  11.334 -0.4211  0.2543 -0.0886
  274TMC3     H 4197   3.955   0.316  11.017 -0.3935  0.0311  0.4139
  274TMC3    H1 4198   4.327   0.429  11.185  0.8230  2.5118  1.2412
  274TMC3    H2 4199   4.080   0.718  11.031 -2.1655 -0.8289  0.9643
  274TMC3    C7 4200   4.235   0.682  11.209 -0.4652 -0.2948  0.3300
  274TMC3    C8 4201   3.913   0.541  10.914 -0.2127 -0.4045  0.0461
  274TMC3    O1 4202   4.222   0.801  11.186  0.2352  0.0746  0.6963
  274TMC3    O2 4203   3.799   0.493  10.932  0.3185  0.2706  0.8895
  275MPD2     C 4204   4.184   2.285  14.851  0.4491  0.0536  0.4709
  275MPD2    C1 4205   4.086   2.384  14.832  0.0583  0.1033  1.0729
  275MPD2    C2 4206   3.977   2.357  14.749  0.2107  0.3572  0.2229
  275MPD2    C3 4207   3.962   2.237  14.685  0.2392  0.0459 -0.1430
  275MPD2    C4 4208   4.064   2.142  14.702  0.5046  0.0369 -0.0669
  275MPD2    C5 4209   4.177   2.177  14.764 -0.3616 -0.2136  0.6060
  275MPD2     H 4210   3.897   2.430  14.747 -0.2716 -0.1395  1.1507
  275MPD2    H1 4211   4.059   2.049  14.647 -2.1774 -0.0853  0.3547
  275MPD2    H2 4212   4.269   2.302  14.915  0.8823  0.4456 -0.2130
  275MPD2    H3 4213   4.263   2.111  14.761  1.4633  2.1892  0.2114
  275MPD2     N 4214   3.843   2.195  14.617 -0.2854 -0.4576  0.2509
  275MPD2    H5 4215   3.834   2.105  14.571  0.2101 -0.6547  0.5505
  275MPD2    N1 4216   4.075   2.495  14.912  0.7626 -0.0669 -0.3159
  275MPD2    H7 4217   3.991   2.551  14.902  0.2435 -0.2891  2.7678
  276TMC3    C1 4218   4.112   2.630  15.092 -0.2573  0.5241  0.4689
  276TMC3    C2 4219   3.975   2.636  15.094  0.0030  1.0830 -0.0446
  276TMC3    C3 4220   3.909   2.751  15.123  0.2089  0.0990  0.1154
  276TMC3    C4 4221   4.189   2.739  15.121 -0.0762  0.1483 -0.3268
  276TMC3    C5 4222   4.122   2.858  15.131  0.0533 -0.0806 -0.4690
  276TMC3    C6 4223   3.984   2.861  15.139  0.0521  0.1493 -0.0286
  276TMC3     C 4224   4.168   2.541  15.004 -0.2545  0.0918 -0.1740
  276TMC3     O 4225   4.287   2.514  15.019 -0.1385  0.2343  0.1510
  276TMC3     H 4226   3.922   2.542  15.086  0.8664  0.5884  0.0274
  276TMC3    H1 4227   4.297   2.726  15.117 -0.2359 -1.1053 -0.6429
  276TMC3    H2 4228   3.922   2.949  15.144  1.3426  1.0842 -0.4413
  276TMC3    C7 4229   4.195   2.986  15.144  0.7587  0.4772  0.3134
  276TMC3    C8 4230   3.763   2.755  15.087  0.3733  0.1119  0.2213
  276TMC3    O1 4231   4.123   3.078  15.186  0.0071 -0.0157  0.3855
  276TMC3    O2 4232   3.710   2.867  15.074  0.4371 -0.0638 -0.3045
  277MPD2     C 4233   1.072   1.903  13.155  0.2004 -0.3815  0.5274
  277MPD2    C1 4234   0.934   1.927  13.164 -0.2731  0.1540  0.0930
  277MPD2    C2 4235   0.862   1.895  13.274  0.1857 -0.4287  0.2268
  277MPD2    C3 4236   0.916   1.846  13.387 -0.2357  0.6836 -0.3015
  277MPD2    C4 4237   1.054   1.825  13.382  0.1275 -0.3025 -0.5263
  277MPD2    C5 4238   1.131   1.855  13.271 -0.1247 -0.3491  0.1635
  277MPD2     H 4239   0.756   1.918  13.273  0.3602  0.5593  3.1785
  277MPD2    H1 4240   1.110   1.796  13.470  0.0045 -0.1833 -0.4065
  277MPD2    H2 4241   1.136   1.940  13.076 -0.4987 -0.3748 -0.0386
  277MPD2    H3 4242   1.237   1.830  13.271 -0.0324  0.0277  1.9802
  277MPD2     N 4243   0.833   1.825  13.498  1.0077  0.1690  0.0048
  277MPD2    H5 4244   0.733   1.833  13.488  0.9074 -0.6127  0.4018
  277MPD2    N1 4245   0.876   2.002  13.054 -0.1949  0.5248 -0.1338
  277MPD2    H7 4246   0.950   2.038  12.995 -0.8869  3.9010  1.0796
  278TMC3    C1 4247   0.766   1.787  13.721 -0.4330  0.2061 -0.0633
  278TMC3    C2 4248   0.768   1.670  13.784 -0.2804 -0.3615 -0.0106
  278TMC3    C3 4249   0.649   1.606  13.793  0.5100 -0.6646 -0.1599
  278TMC3    C4 4250   0.652   1.847  13.676  0.3912  0.1256  0.1815
  278TMC3    C5 4251   0.535   1.782  13.686 -0.3065  0.1482  0.1111
  278TMC3    C6 4252   0.530   1.663  13.751 -0.2592 -0.6534  0.4700
  278TMC3     C 4253   0.880   1.799  13.627  0.4329  0.2237  0.6561
  278TMC3     O 4254   0.992   1.793  13.671  0.0994 -0.2488 -0.4846
  278TMC3     H 4255   0.857   1.619  13.819 -2.0645 -1.8955  2.2935
  278TMC3    H1 4256   0.658   1.939  13.619 -1.6721 -0.8905 -1.6757
  278TMC3    H2 4257   0.440   1.603  13.746 -1.4432  1.1054  0.8320
  278TMC3    C7 4258   0.456   1.798  13.564  0.7232  0.2476 -0.1399
  278TMC3    C8 4259   0.646   1.476  13.861  0.7179 -0.2468 -0.0698
  278TMC3    O1 4260   0.510   1.852  13.465  0.5393 -0.4879  0.1115
  278TMC3    O2 4261   0.726   1.467  13.954  0.5536 -0.6076 -0.1617
  279MPD2     C 4262   4.318   2.357   0.303  0.1300 -0.0982  0.0839
  279MPD2    C1 4263   4.278   2.299   0.183  0.0200 -0.1294 -0.0494
  279MPD2    C2 4264   4.370   2.243   0.101 -0.0348 -0.5106  0.1952
  279MPD2    C3 4265   4.506   2.257   0.119  0.2236 -0.1647 -0.3192
  279MPD2    C4 4266   4.546   2.329   0.231 -0.3963  0.2632 -0.9625
  279MPD2    C5 4267   4.454   2.364   0.330 -0.5365  0.2019  0.4329
  279MPD2     H 4268   4.343   2.206   0.002 -0.2268 -1.4840  0.6107
  279MPD2    H1 4269   4.649   2.345   0.263 -0.8391 -1.0607  1.1218
  279MPD2    H2 4270   4.254   2.388   0.384 -2.5448 -1.0823 -1.6617
  279MPD2    H3 4271   4.489   2.422   0.415 -1.4204  0.2615  0.7553
  279MPD2     N 4272   4.607   2.207   0.038  0.5562 -0.9342 -0.1168
  279MPD2    H5 4273   4.701   2.235   0.063  0.0842  0.1125  0.4803
  279MPD2    N1 4274   4.143   2.304   0.137  0.5995  0.4150 -0.1828
  279MPD2    H7 4275   4.135   2.272   0.041 -1.8729  1.1326 -0.2156
  280TMC3    C1 4276   3.925   2.356   0.108 -0.2437  0.3512 -0.5366
  280TMC3    C2 4277   3.924   2.271  17.750  0.0944  0.5787 -1.0379
  280TMC3    C3 4278   3.862   2.322  17.640 -0.2267 -0.8817 -0.4193
  280TMC3    C4 4279   3.860   2.474   0.112  0.0496 -0.2491 -0.2420
  280TMC3    C5 4280   3.786   2.506   0.002 -0.9379  0.6329 -0.2657
  280TMC3    C6 4281   3.794   2.441  17.641  0.5539  0.3489  0.5536
  280TMC3     C 4282   4.035   2.352   0.196 -0.0598 -0.2234  0.0081
  280TMC3     O 4283   4.035   2.403   0.309  0.0051  0.0303  0.1603
  280TMC3     H 4284   3.978   2.178  17.748  0.0515  0.5148  0.7966
  280TMC3    H1 4285   3.863   2.539   0.199 -1.0941  0.6934 -0.9094
  280TMC3    H2 4286   3.747   2.479  17.551 -0.0411  2.0316  1.5688
  280TMC3    C7 4287   3.752   2.647   0.001  0.5551 -0.0932 -0.2012
  280TMC3    C8 4288   3.864   2.242  17.521 -0.9185 -0.0269 -0.1914
  280TMC3    O1 4289   3.805   2.712   0.087  0.5724 -0.0819 -0.1477
  280TMC3    O2 4290   3.822   2.298  17.420  0.5079 -0.6627 -0.5668
  281TMC3    C1 4291   2.906   3.013  13.508 -0.3068 -1.0557  0.6019
  281TMC3    C2 4292   2.929   2.970  13.380 -0.4853 -0.0641  0.3368
  281TMC3    C3 4293   2.979   2.837  13.375  0.6232  0.2869  0.7440
  281TMC3    C4 4294   2.942   2.951  13.620 -0.8818  0.3832 -0.3008
  281TMC3    C5 4295   2.980   2.818  13.605  0.3001  0.1172 -0.0648
  281TMC3    C6 4296   2.996   2.757  13.483 -0.1747  0.0496 -0.1541
  281TMC3     C 4297   2.915   3.164  13.509 -0.2228  0.0321 -0.3913
  281TMC3     O 4298   2.978   3.206  13.606 -0.5179  0.1245  0.7647
  281TMC3     H 4299   2.913   3.027  13.289 -0.4663 -2.9489 -1.4970
  281TMC3    H1 4300   2.916   2.984  13.720 -0.4673  0.4116 -0.2004
  281TMC3    H2 4301   3.006   2.649  13.485 -1.1054  0.0227  3.4338
  281TMC3    C7 4302   2.917   2.732  13.704 -1.4592  0.3025  0.4758
  281TMC3    C8 4303   2.939   2.772  13.250 -0.3276  0.2274  0.1395
  281TMC3    O1 4304   2.812   2.769  13.756 -0.1746 -0.4160 -0.0569
  281TMC3    O2 4305   2.856   2.823  13.172 -0.0157  0.4109 -0.1890
  282MPD2     C 4306   0.650   3.713  15.121  0.2736  0.2308  0.1014
  282MPD2    C1 4307   0.518   3.736  15.126 -0.1211 -0.3951 -0.2460
  282MPD2    C2 4308   0.446   3.744  15.006 -0.2036 -0.7637 -0.3726
  282MPD2    C3 4309   0.495   3.725  14.884  0.0083  0.0342  0.2026
  282MPD2    C4 4310   0.629   3.711  14.875  0.1253  0.3809 -0.5080
  282MPD2    C5 4311   0.702   3.702  14.994  0.2432  0.9819 -0.2374
  282MPD2     H 4312   0.340   3.764  15.021 -0.3058 -1.8844  0.4297
  282MPD2    H1 4313   0.677   3.672  14.786 -1.2212  1.0324 -1.5267
  282MPD2    H2 4314   0.702   3.699  15.215 -1.5693 -1.2590  0.9214
  282MPD2    H3 4315   0.804   3.667  14.980  0.0950  0.4099  0.1135
  282MPD2     N 4316   0.406   3.739  14.776  0.0655  0.0116  0.3790
  282MPD2    H5 4317   0.307   3.753  14.794  0.2867  1.4154  0.5026
  282MPD2    N1 4318   0.450   3.769  15.246  0.8046 -0.4311 -0.3653
  282MPD2    H7 4319   0.349   3.781  15.241  1.1347  2.8459  1.0848
  283TMC3    C1 4320   0.413   3.823  15.468  1.0437 -0.0015  0.2913
  283TMC3    C2 4321   0.434   3.942  15.526  0.0008  0.7979 -0.6749
  283TMC3    C3 4322   0.350   3.965  15.637  0.2660 -0.0251 -0.8687
  283TMC3    C4 4323   0.315   3.738  15.503 -0.0510 -0.3236 -0.1986
  283TMC3    C5 4324   0.248   3.761  15.616  0.7421 -0.3791 -0.1134
  283TMC3    C6 4325   0.262   3.873  15.690  0.8858 -0.4620  0.0765
  283TMC3     C 4326   0.508   3.783  15.369 -0.0028 -0.1724 -0.2378
  283TMC3     O 4327   0.625   3.793  15.399  0.3890  0.5433  0.2840
  283TMC3     H 4328   0.514   4.006  15.489  0.7258 -0.3102 -1.0251
  283TMC3    H1 4329   0.300   3.642  15.456  0.0845 -0.6857  0.4972
  283TMC3    H2 4330   0.204   3.885  15.781 -1.0824 -2.0907 -0.9470
  283TMC3    C7 4331   0.169   3.653  15.673  0.5848  0.2703 -1.1633
  283TMC3    C8 4332   0.360   4.097  15.704 -0.5999 -0.3300 -0.4723
  283TMC3    O1 4333   0.159   3.645  15.795  0.8074 -0.2580 -0.8397
  283TMC3    O2 4334   0.321   4.098  15.818  0.1307  0.6435  0.6598
  284MPD2     C 4335   3.593   3.137  12.173 -0.7046  0.6923  0.4291
  284MPD2    C1 4336   3.726   3.178  12.179  0.1012  0.4169  0.0574
  284MPD2    C2 4337   3.818   3.112  12.256 -0.1064  1.0723  0.4890
  284MPD2    C3 4338   3.780   2.994  12.324 -0.6636 -0.2747  1.0578
  284MPD2    C4 4339   3.649   2.948  12.311 -0.4345 -0.2235  0.4738
  284MPD2    C5 4340   3.553   3.029  12.249  0.5648  0.7096 -0.4110
  284MPD2     H 4341   3.921   3.144  12.265  0.9965 -2.8232  1.9462
  284MPD2    H1 4342   3.629   2.853  12.357 -1.4782  0.2539  1.0074
  284MPD2    H2 4343   3.520   3.197  12.120 -0.3287  0.9185  0.1726
  284MPD2    H3 4344   3.449   2.998  12.246  0.5855  0.6476 -0.4930
  284MPD2     N 4345   3.882   2.912  12.383 -0.0897 -0.2396  0.4622
  284MPD2    H5 4346   3.972   2.957  12.383 -0.5543  0.6858 -0.8052
  284MPD2    N1 4347   3.779   3.291  12.102  0.0724 -0.7619 -0.2023
  284MPD2    H7 4348   3.876   3.315  12.116  0.9931 -3.9054 -1.1938
  285TMC3    C1 4349   3.791   3.451  11.947 -0.6902  0.1247 -0.2543
  285TMC3    C2 4350   3.907   3.398  11.899  0.0891  0.0260  0.2586
  285TMC3    C3 4351   3.963   3.458  11.790 -0.4042  0.1988 -0.5142
  285TMC3    C4 4352   3.722   3.557  11.880 -0.0196  0.2027  0.0439
  285TMC3    C5 4353   3.794   3.622  11.785  0.0774 -0.2726  0.0702
  285TMC3    C6 4354   3.914   3.571  11.731 -0.2583  0.4828  0.1440
  285TMC3     C 4355   3.706   3.360  12.011 -0.0515  0.7207 -0.1803
  285TMC3     O 4356   3.588   3.351  11.976 -0.1063 -0.5957 -0.1107
  285TMC3     H 4357   3.948   3.307  11.942  1.4169 -0.2190 -1.5103
  285TMC3    H1 4358   3.631   3.590  11.930 -1.5022 -2.7351 -0.7456
  285TMC3    H2 4359   3.953   3.621  11.643  0.2489 -3.4634 -1.8489
  285TMC3    C7 4360   3.753   3.747  11.730 -0.0045  0.1278 -0.1008
  285TMC3    C8 4361   4.050   3.365  11.719  0.4874  0.0948 -0.4603
  285TMC3    O1 4362   3.849   3.817  11.698 -0.5073  0.2903 -0.3743
  285TMC3    O2 4363   4.036   3.244  11.739 -0.4028  0.0227  0.0827
  286MPD2     C 4364   3.610   1.991   1.226 -0.2962  0.3383  0.5503
  286MPD2    C1 4365   3.580   1.910   1.119  0.2170  0.1338  0.0219
  286MPD2    C2 4366   3.602   1.780   1.133 -0.7974 -0.6115 -0.1818
  286MPD2    C3 4367   3.676   1.725   1.246 -0.7096  0.2809  0.6123
  286MPD2    C4 4368   3.701   1.809   1.352 -0.5100 -0.5846  0.1136
  286MPD2    C5 4369   3.662   1.938   1.339  0.2444  0.3660 -0.1741
  286MPD2     H 4370   3.581   1.725   1.042  1.3653 -0.3609 -0.8345
  286MPD2    H1 4371   3.739   1.778   1.449  0.6463 -1.6628 -0.6767
  286MPD2    H2 4372   3.586   2.097   1.234 -0.1495  0.1759  3.0745
  286MPD2    H3 4373   3.678   2.000   1.426  1.3172  1.0733 -0.8796
  286MPD2     N 4374   3.695   1.584   1.262 -0.0424 -0.1399  0.2807
  286MPD2    H5 4375   3.757   1.563   1.339 -1.6526  0.2270  1.6732
  286MPD2    N1 4376   3.526   1.950   0.999  0.1007  0.2297 -0.6709
  286MPD2    H7 4377   3.509   1.874   0.935 -2.2801 -0.2134  0.5034
  287TMC3    C1 4378   3.735   1.366   1.191 -0.5381 -0.3886  0.0538
  287TMC3    C2 4379   3.680   1.275   1.103  0.0966 -0.2857  0.3849
  287TMC3    C3 4380   3.757   1.187   1.031  0.3883 -0.6185  0.0450
  287TMC3    C4 4381   3.866   1.365   1.217  0.4514 -0.8874 -0.3512
  287TMC3    C5 4382   3.943   1.273   1.149  0.5090 -0.4502 -0.3331
  287TMC3    C6 4383   3.889   1.182   1.062 -0.0560 -0.3001 -0.3951
  287TMC3     C 4384   3.671   1.488   1.165  0.8196 -0.5433 -0.3557
  287TMC3     O 4385   3.587   1.489   1.075 -0.1175 -0.0006 -0.0560
  287TMC3     H 4386   3.576   1.280   1.073  1.3345 -1.1179 -4.0561
  287TMC3    H1 4387   3.908   1.423   1.299 -1.0240 -0.0583 -0.1796
  287TMC3    H2 4388   3.955   1.130   0.993  1.8992  0.0235  1.2225
  287TMC3    C7 4389   4.076   1.240   1.210  0.0515 -0.2174  0.3368
  287TMC3    C8 4390   3.717   1.123   0.911  0.3743  0.0233  0.3057
  287TMC3    O1 4391   4.108   1.311   1.304  0.1433 -0.1573  0.1016
  287TMC3    O2 4392   3.779   1.027   0.868 -0.2028 -0.0849 -0.2417
  288TMC3    C1 4393   0.762   1.739  14.488 -0.0608 -0.2741 -0.9019
  288TMC3    C2 4394   0.739   1.729  14.624 -0.6452 -0.1596  0.4156
  288TMC3    C3 4395   0.648   1.632  14.663  0.1304  0.4828  0.1641
  288TMC3    C4 4396   0.701   1.656  14.402  0.2580 -0.0308 -0.2877
  288TMC3    C5 4397   0.612   1.561  14.446 -0.5762  0.2975 -0.8691
  288TMC3    C6 4398   0.578   1.555  14.574 -0.1196  0.3545  0.6321
  288TMC3     C 4399   0.865   1.831  14.440 -1.0004  0.1171  0.1476
  288TMC3     O 4400   0.961   1.861  14.515 -0.1225  0.1214  0.2663
  288TMC3     H 4401   0.799   1.799  14.681  0.4455 -2.1924  1.7715
  288TMC3    H1 4402   0.737   1.657  14.300 -1.0643  2.8277 -0.7431
  288TMC3    H2 4403   0.483   1.511  14.601  0.7609 -1.0348  1.4777
  288TMC3    C7 4404   0.536   1.476  14.348  0.6441  0.2938  0.3670
  288TMC3    C8 4405   0.608   1.628  14.804  0.8201 -0.3778 -0.5498
  288TMC3    O1 4406   0.499   1.365  14.384  0.2023  0.2092 -0.0991
  288TMC3    O2 4407   0.647   1.717  14.883 -0.0763  0.7706 -0.3686
  289MPD2     C 4408   0.858   0.691  14.192  0.8248 -0.5531 -0.2104
  289MPD2    C1 4409   0.823   0.778  14.295 -0.2826 -0.4029  0.1171
  289MPD2    C2 4410   0.689   0.811  14.305 -1.0899  0.4917  0.4050
  289MPD2    C3 4411   0.588   0.753  14.223  1.0448  0.2826 -0.4254
  289MPD2    C4 4412   0.629   0.665  14.119 -0.5204 -0.5309 -0.0302
  289MPD2    C5 4413   0.760   0.631  14.112  0.3616  0.2972  0.2275
  289MPD2     H 4414   0.664   0.889  14.376  1.2757  2.0599 -0.5001
  289MPD2    H1 4415   0.561   0.612  14.053 -2.4961  1.1832  0.5947
  289MPD2    H2 4416   0.961   0.658  14.179  1.4168  1.5205 -0.7905
  289MPD2    H3 4417   0.796   0.548  14.052  1.7652  1.2485 -0.2491
  289MPD2     N 4418   0.448   0.770  14.227  0.1764 -0.0023 -0.7647
  289MPD2    H5 4419   0.406   0.715  14.153 -1.0997  0.9201 -0.7244
  289MPD2    N1 4420   0.926   0.852  14.353  0.0080 -0.1191 -0.5435
  289MPD2    H7 4421   1.018   0.854  14.310  0.8148  2.1797  1.2789
  290TMC3    C1 4422   0.244   0.878  14.284  0.0453 -0.4859 -0.3788
  290TMC3    C2 4423   0.189   0.989  14.349 -0.9468 -0.7482  0.2514
  290TMC3    C3 4424   0.054   1.013  14.317 -1.3707 -0.3833 -0.3733
  290TMC3    C4 4425   0.170   0.781  14.230 -0.3858  0.4494 -1.1578
  290TMC3    C5 4426   0.035   0.797  14.222  0.2720 -0.3600 -0.1631
  290TMC3    C6 4427   4.717   0.919  14.253  0.0530  0.4597 -0.0301
  290TMC3     C 4428   0.381   0.859  14.306 -0.5048 -0.0028  0.4818
  290TMC3     O 4429   0.446   0.954  14.356  0.0133  0.4224 -0.0521
  290TMC3     H 4430   0.251   1.069  14.389 -1.3011  0.1971 -1.0883
  290TMC3    H1 4431   0.215   0.685  14.207 -1.5670 -0.2605 -0.5090
  290TMC3    H2 4432   4.616   0.944  14.223 -0.3771 -1.0122  0.1921
  290TMC3    C7 4433   4.684   0.682  14.214  0.4865 -0.5988  0.3627
  290TMC3    C8 4434   0.023   1.140  14.259 -0.1881 -0.0696 -0.1031
  290TMC3    O1 4435   4.570   0.705  14.174 -0.6785 -0.2889 -0.0322
  290TMC3    O2 4436   4.728   1.146  14.144 -0.4185  0.2442 -0.6894
  291MPD2     C 4437   4.451   1.043   0.270  0.2071 -0.3426 -0.2864
  291MPD2    C1 4438   4.584   1.014   0.252  0.3562  0.1800  0.2199
  291MPD2    C2 4439   4.674   1.119   0.281 -0.5146  0.2652  0.0202
  291MPD2    C3 4440   4.624   1.238   0.310  0.1559 -0.2263 -0.2527
  291MPD2    C4 4441   4.490   1.267   0.314 -0.2018  0.2674  0.2584
  291MPD2    C5 4442   4.396   1.168   0.300  0.2603 -0.3877 -0.0222
  291MPD2     H 4443   0.040   1.096   0.268 -0.3494  0.7764  0.4733
  291MPD2    H1 4444   4.454   1.360   0.357 -0.0884  0.8526 -0.9140
  291MPD2    H2 4445   4.370   0.970   0.273 -1.5452  1.6223  0.1945
  291MPD2    H3 4446   4.289   1.180   0.315  0.0484 -1.7795 -0.3798
  291MPD2     N 4447   4.699   1.352   0.335 -0.3591  0.2079  0.4568
  291MPD2    H5 4448   4.644   1.438   0.343  1.7656  1.6038  0.0979
  291MPD2    N1 4449   4.619   0.890   0.198 -0.0259 -0.6773  0.3199
  291MPD2    H7 4450   4.718   0.874   0.180 -0.4274 -0.8332 -1.6902
  292TMC3    C1 4451   4.615   0.672   0.100 -0.5252 -0.3904 -0.7789
  292TMC3    C2 4452   4.702   0.628   0.202 -0.6457 -0.4354  0.5008
  292TMC3    C3 4453   4.733   0.493   0.206 -0.0573  0.1347  0.3690
  292TMC3    C4 4454   4.546   0.586   0.016  0.6104 -0.1053  0.1779
  292TMC3    C5 4455   4.578   0.448   0.028 -0.5824  0.5424 -0.1382
  292TMC3    C6 4456   4.661   0.401   0.129 -0.4106  0.3005 -0.5663
  292TMC3     C 4457   4.538   0.793   0.135 -0.4118  0.2677 -0.2331
  292TMC3     O 4458   4.417   0.783   0.121  0.0937 -0.3649 -0.3538
  292TMC3     H 4459   4.737   0.693   0.282 -1.6610 -0.1986  0.7476
  292TMC3    H1 4460   4.491   0.622  17.687  0.1447  0.9079  0.9018
  292TMC3    H2 4461   4.705   0.303   0.132 -0.5999  0.1988 -1.0471
  292TMC3    C7 4462   4.564   0.355  17.673 -0.6231  0.0883 -0.5172
  292TMC3    C8 4463   0.074   0.451   0.316  0.6023  0.2832  0.2810
  292TMC3    O1 4464   4.638   0.256  17.663  0.2395 -0.5672  0.2749
  292TMC3    O2 4465   0.164   0.528   0.352 -0.1610 -0.1772  0.1064
  293MPD2     C 4466   2.072   1.730  12.386 -1.0388 -0.1385  0.1002
  293MPD2    C1 4467   1.975   1.668  12.462 -0.3293  0.0528  0.3105
  293MPD2    C2 4468   1.964   1.691  12.596  0.5762 -0.0413  0.3089
  293MPD2    C3 4469   2.049   1.792  12.652  0.7336  0.2837 -0.0081
  293MPD2    C4 4470   2.134   1.854  12.565 -0.1477  0.6989 -0.4123
  293MPD2    C5 4471   2.148   1.821  12.434  0.4407 -0.3562  0.3409
  293MPD2     H 4472   1.899   1.631  12.659  2.5444 -0.5672  1.8465
  293MPD2    H1 4473   2.179   1.947  12.598  1.9082 -0.2180 -0.6922
  293MPD2    H2 4474   2.109   1.699  12.290  0.9912  2.0923  0.1657
  293MPD2    H3 4475   2.211   1.880  12.367 -1.0531 -0.1226 -0.8683
  293MPD2     N 4476   2.048   1.830  12.787 -0.1631  0.4536  0.2290
  293MPD2    H5 4477   1.980   1.775  12.838 -1.8479  1.4241 -0.9679
  293MPD2    N1 4478   1.907   1.566  12.390 -0.5271 -0.1789 -0.7395
  293MPD2    H7 4479   1.932   1.553  12.292 -0.5846 -1.1808 -0.6170
  294TMC3    C1 4480   1.713   1.435  12.324  0.1872 -0.3245 -0.1217
  294TMC3    C2 4481   1.586   1.402  12.363 -0.4286 -0.2878 -0.3322
  294TMC3    C3 4482   1.505   1.355  12.265  0.1474 -0.1418  0.0273
  294TMC3    C4 4483   1.767   1.409  12.199  0.4218  0.2408  0.2068
  294TMC3    C5 4484   1.681   1.362  12.109 -0.3447  0.4450  1.1969
  294TMC3    C6 4485   1.544   1.347  12.132  0.0863 -0.3142 -0.1854
  294TMC3     C 4486   1.784   1.515  12.424  0.6757  0.8215  0.4502
  294TMC3     O 4487   1.721   1.529  12.527 -0.3698 -0.8400  0.0537
  294TMC3     H 4488   1.541   1.394  12.461 -1.1351  0.5808 -0.5876
  294TMC3    H1 4489   1.869   1.428  12.166  0.2637  1.4980  0.4467
  294TMC3    H2 4490   1.483   1.304  12.054 -0.5881 -1.4826  1.0020
  294TMC3    C7 4491   1.719   1.341  11.970  0.0724 -0.6713  0.3583
  294TMC3    C8 4492   1.364   1.312  12.303 -0.1223  0.6333  0.1408
  294TMC3    O1 4493   1.629   1.351  11.891  0.5683 -0.4138  0.4358
  294TMC3    O2 4494   1.306   1.377  12.387  0.0224 -0.7983  0.7345
  295MPD2     C 4495   2.874   0.648   0.713  0.0017 -0.8817 -0.9988
  295MPD2    C1 4496   2.756   0.693   0.777 -0.3646 -0.5521  0.0865
  295MPD2    C2 4497   2.691   0.596   0.846  0.5889  0.2756 -0.1629
  295MPD2    C3 4498   2.737   0.472   0.871 -0.2063 -0.1802  0.3375
  295MPD2    C4 4499   2.856   0.431   0.811  0.0242  0.2566  0.2121
  295MPD2    C5 4500   2.918   0.518   0.729 -0.0979  0.4518 -0.3223
  295MPD2     H 4501   2.596   0.631   0.884  1.4327 -0.2485  2.4408
  295MPD2    H1 4502   2.912   0.339   0.827  1.4423  1.0854  0.0231
  295MPD2    H2 4503   2.935   0.712   0.650  1.9445 -1.5448  0.1976
  295MPD2    H3 4504   3.007   0.474   0.687  0.6194  0.5569  1.0752
  295MPD2     N 4505   2.673   0.371   0.944 -1.3626 -0.2033 -0.1668
  295MPD2    H5 4506   2.717   0.280   0.947  2.1461  1.4334 -1.7107
  295MPD2    N1 4507   2.691   0.817   0.752 -0.0290 -0.5146  0.3088
  295MPD2    H7 4508   2.592   0.820   0.773  0.4255  0.5564  2.2630
  296TMC3    C1 4509   2.505   0.269   1.072 -0.9132 -0.4023 -0.2198
  296TMC3    C2 4510   2.386   0.281   1.150 -0.2460 -0.2681 -0.2242
  296TMC3    C3 4511   2.339   0.170   1.206 -0.6291  0.4054  0.4512
  296TMC3    C4 4512   2.575   0.150   1.065  0.6511  0.3125  0.5330
  296TMC3    C5 4513   2.522   0.047   1.136  0.0830  0.1121  0.2420
  296TMC3    C6 4514   2.411   0.057   1.204 -0.3008  0.2002 -0.0220
  296TMC3     C 4515   2.558   0.392   1.020  0.1041 -0.4664 -0.5545
  296TMC3     O 4516   2.480   0.490   1.029 -0.4306  0.0854 -0.5055
  296TMC3     H 4517   2.316   0.361   1.127 -0.2622 -0.1026  0.4110
  296TMC3    H1 4518   2.660   0.127   1.001  0.1054 -1.5699  0.4642
  296TMC3    H2 4519   2.373   4.698   1.230 -0.2423  0.6976  2.0226
  296TMC3    C7 4520   2.619   4.690   1.182 -0.2025 -0.2408  0.9622
  296TMC3    C8 4521   2.202   0.167   1.249  0.0165  0.3891  0.2684
  296TMC3    O1 4522   2.691   4.643   1.097  0.5231 -0.1874 -0.3345
  296TMC3    O2 4523   2.151   0.056   1.270 -0.1786  0.2531 -0.0402
  297MPD2     C 4524   4.145   2.797  16.200 -0.0612 -0.8584 -0.1353
  297MPD2    C1 4525   4.174   2.837  16.077  0.2130  0.4224 -0.4185
  297MPD2    C2 4526   4.289   2.911  16.050 -0.3049  0.1216 -0.1193
  297MPD2    C3 4527   4.370   2.955  16.145  0.3522 -0.3965 -0.6499
  297MPD2    C4 4528   4.342   2.906  16.273 -0.0842  0.3461  0.0710
  297MPD2    C5 4529   4.229   2.828  16.298  0.3752  0.6295  0.0162
  297MPD2     H 4530   4.295   2.950  15.949 -0.4754  2.1775  0.6723
  297MPD2    H1 4531   4.408   2.926  16.357 -1.2081  0.1300  1.0046
  297MPD2    H2 4532   4.058   2.738  16.228  0.1507 -0.2180  1.8882
  297MPD2    H3 4533   4.214   2.780  16.394 -0.9815  1.3719  0.1659
  297MPD2     N 4534   4.491   3.029  16.122  0.4256  0.3302 -0.1093
  297MPD2    H5 4535   4.546   3.056  16.203 -0.2507  1.6816 -0.0984
  297MPD2    N1 4536   4.085   2.813  15.971 -0.6817  0.4397 -0.1679
  297MPD2    H7 4537   4.117   2.837  15.878 -2.0795  0.3251 -0.6764
  298TMC3    C1 4538   3.873   2.786  15.874  0.1070  0.2468 -0.3452
  298TMC3    C2 4539   3.885   2.698  15.768 -0.4505  0.1244  0.0111
  298TMC3    C3 4540   3.802   2.723  15.665 -0.9242  0.1373  0.7365
  298TMC3    C4 4541   3.769   2.866  15.890  0.6970  0.9885 -0.1207
  298TMC3    C5 4542   3.688   2.884  15.780 -0.5506 -0.3545  0.2797
  298TMC3    C6 4543   3.702   2.809  15.665  0.3260 -0.1750 -0.5283
  298TMC3     C 4544   3.951   2.767  15.985 -0.5984 -0.2893  0.1724
  298TMC3     O 4545   3.898   2.711  16.082  0.1505  0.1362  0.3589
  298TMC3     H 4546   3.958   2.618  15.769 -1.5844 -0.9044  1.2425
  298TMC3    H1 4547   3.754   2.930  15.976  0.7697 -1.6427  1.8650
  298TMC3    H2 4548   3.643   2.835  15.578 -1.8235 -0.4566  0.8151
  298TMC3    C7 4549   3.582   2.986  15.787  0.1458 -0.3684 -0.2956
  298TMC3    C8 4550   3.797   2.633  15.550  0.6751 -0.3096  0.2575
  298TMC3    O1 4551   3.551   3.014  15.902 -0.2451 -0.1827  0.3366
  298TMC3    O2 4552   3.693   2.622  15.492 -0.5468  0.4874  0.0377
  299MPD2     C 4553   4.691   2.853  10.856  0.6513 -0.3963 -0.0380
  299MPD2    C1 4554   4.737   2.900  10.738  0.4185 -0.4616 -0.0622
  299MPD2    C2 4555   4.676   2.864  10.623 -1.0161  0.4519  0.3229
  299MPD2    C3 4556   4.562   2.779  10.631  0.1405  0.0822 -0.5563
  299MPD2    C4 4557   4.520   2.736  10.752 -0.9750  0.4577 -0.1486
  299MPD2    C5 4558   4.582   2.771  10.868  0.9886 -0.0784  0.5058
  299MPD2     H 4559   4.695   2.904  10.524  0.0157 -1.5865 -0.3129
  299MPD2    H1 4560   4.433   2.672  10.761 -2.5497  2.6015 -0.1494
  299MPD2    H2 4561   4.736   2.889  10.948  3.7478 -0.9250 -1.3129
  299MPD2    H3 4562   4.548   2.736  10.965  1.8578  2.7425  1.8194
  299MPD2     N 4563   4.501   2.729  10.514 -0.1837 -0.4543  0.6135
  299MPD2    H5 4564   4.441   2.649  10.530 -0.8984  0.0095  0.2973
  299MPD2    N1 4565   0.120   2.963  10.747  0.4764 -0.0200 -0.7801
  299MPD2    H7 4566   0.155   2.979  10.841 -1.1150 -0.9125 -0.0465
  300TMC3    C1 4567   4.406   2.718  10.287 -0.0907 -0.1621  0.0800
  300TMC3    C2 4568   4.412   2.759  10.156 -0.2612  1.0895 -0.3829
  300TMC3    C3 4569   4.306   2.754  10.070 -1.0579  0.4181  0.5929
  300TMC3    C4 4570   4.296   2.664  10.330 -0.2609 -0.3281 -0.2195
  300TMC3    C5 4571   4.191   2.650  10.241 -0.2026 -0.1799  0.2174
  300TMC3    C6 4572   4.194   2.688  10.111  0.4217  0.5516 -0.2366
  300TMC3     C 4573   4.509   2.775  10.386 -0.0737  0.7723  0.2840
  300TMC3     O 4574   4.560   2.878  10.345 -0.0171  0.6975  0.0628
  300TMC3     H 4575   4.507   2.794  10.119  0.8668 -0.4597  1.0159
  300TMC3    H1 4576   4.281   2.633  10.433  0.0355 -1.8117 -0.6175
  300TMC3    H2 4577   4.118   2.679  10.035  0.0700  1.7833 -0.0277
  300TMC3    C7 4578   4.067   2.602  10.304  0.0197  0.4773 -0.2123
  300TMC3    C8 4579   4.284   2.894  10.025  0.9030  0.7042  0.7832
  300TMC3    O1 4580   4.004   2.520  10.240  0.1707  0.2571 -0.4165
  300TMC3    O2 4581   4.194   2.923   9.949  0.2320 -0.6533  0.3837
  301MPD2     C 4582   2.846   4.062   0.944 -1.0784  0.4377  0.1373
  301MPD2    C1 4583   2.716   4.012   0.906  0.0009 -0.2906 -0.7334
  301MPD2    C2 4584   2.695   3.880   0.887  0.6306 -0.9037  0.0609
  301MPD2    C3 4585   2.798   3.783   0.905 -0.3943 -0.0649  0.0068
  301MPD2    C4 4586   2.925   3.826   0.942 -0.6465  0.2350  0.0023
  301MPD2    C5 4587   2.943   3.960   0.958 -0.2475 -0.4527  0.0737
  301MPD2     H 4588   2.597   3.852   0.849  0.5109 -1.5219  0.8466
  301MPD2    H1 4589   3.000   3.755   0.974 -0.8705 -0.2985 -0.6512
  301MPD2    H2 4590   2.864   4.166   0.967  2.0650 -0.5207  2.0650
  301MPD2    H3 4591   3.040   3.997   0.990 -0.7836  3.2480 -2.6206
  301MPD2     N 4592   2.770   3.640   0.891 -0.0737  0.1268  0.4254
  301MPD2    H5 4593   2.838   3.567   0.911 -0.4021 -0.8476 -1.9368
  301MPD2    N1 4594   2.607   4.105   0.885  0.8274 -0.2480 -0.1948
  301MPD2    H7 4595   2.517   4.068   0.857  1.5320 -1.7512 -0.5081
  302TMC3    C1 4596   2.641   3.447   0.845  0.1870  0.2042 -0.4712
  302TMC3    C2 4597   2.718   3.372   0.926  0.3971  0.7601  0.5611
  302TMC3    C3 4598   2.699   3.235   0.935 -0.9721  0.0807 -0.2849
  302TMC3    C4 4599   2.539   3.391   0.772 -0.1234  1.2357 -0.1578
  302TMC3    C5 4600   2.525   3.253   0.781  0.2475 -0.2618 -1.0810
  302TMC3    C6 4601   2.599   3.178   0.864 -0.1477  0.6107  0.1290
  302TMC3     C 4602   2.647   3.594   0.851 -0.1462  0.0813 -0.4706
  302TMC3     O 4603   2.544   3.649   0.818 -0.0042  0.7106  0.0981
  302TMC3     H 4604   2.799   3.413   0.985  2.2160 -1.0887 -0.6694
  302TMC3    H1 4605   2.476   3.454   0.711 -2.1556 -0.1653  0.4737
  302TMC3    H2 4606   2.574   3.072   0.865  2.4305  0.0006  1.5169
  302TMC3    C7 4607   2.395   3.192   0.745 -0.2484 -0.2768  0.2629
  302TMC3    C8 4608   2.771   3.148   1.030  0.1955 -0.5200  0.1072
  302TMC3    O1 4609   2.383   3.075   0.731  0.3624  0.0122 -0.6183
  302TMC3    O2 4610   2.738   3.031   1.017 -0.3877 -0.6269  0.4052
  303MPD2     C 4611   3.079   2.074  10.655  0.0525 -0.0851  0.0885
  303MPD2    C1 4612   2.949   2.038  10.639 -0.2751 -0.1806 -0.4524
  303MPD2    C2 4613   2.888   2.066  10.516 -0.2285 -0.3387  0.8537
  303MPD2    C3 4614   2.959   2.140  10.422  0.0417 -0.5855  0.0802
  303MPD2    C4 4615   3.083   2.178  10.440 -0.7786  0.1263  0.9343
  303MPD2    C5 4616   3.145   2.145  10.558 -0.1893  0.3783  0.3734
  303MPD2     H 4617   2.789   2.024  10.502 -0.0911 -0.8315  1.3489
  303MPD2    H1 4618   3.128   2.246  10.369 -2.4737  0.4704  0.2035
  303MPD2    H2 4619   3.132   2.058  10.748 -0.8192  1.9755  0.9304
  303MPD2    H3 4620   3.248   2.174  10.576 -0.5108 -1.4304  5.0024
  303MPD2     N 4621   2.899   2.168  10.300  0.2914 -0.0940  0.5079
  303MPD2    H5 4622   2.946   2.229  10.235 -0.0688  0.2646  0.5806
  303MPD2    N1 4623   2.885   1.988  10.754 -0.2435  0.7306  0.1654
  303MPD2    H7 4624   2.941   1.971  10.838 -0.4632 -0.3720  0.0903
  304TMC3    C1 4625   2.710   1.928  10.896  1.0791 -0.0609 -0.2647
  304TMC3    C2 4626   2.582   1.948  10.926 -0.0775 -0.6280 -0.1860
  304TMC3    C3 4627   2.512   1.854  10.991  0.3384  0.4910  0.5669
  304TMC3    C4 4628   2.755   1.800  10.923  0.6503  0.0770  0.0663
  304TMC3    C5 4629   2.692   1.711  11.003 -0.0088 -0.0680 -0.0794
  304TMC3    C6 4630   2.565   1.742  11.043  0.2301  0.1710 -0.8464
  304TMC3     C 4631   2.753   1.981  10.766 -0.7210 -0.1990 -0.3856
  304TMC3     O 4632   2.663   2.003  10.686 -0.1170 -0.1159  0.2044
  304TMC3     H 4633   2.528   2.028  10.878  1.3999  1.2929  1.3691
  304TMC3    H1 4634   2.850   1.772  10.878  2.0330 -0.2273  3.1510
  304TMC3    H2 4635   2.512   1.676  11.112 -2.0205  1.8109 -0.9972
  304TMC3    C7 4636   2.697   1.583  10.933  0.3015 -0.5553  0.0618
  304TMC3    C8 4637   2.382   1.830  10.944  0.9396  0.5989 -0.5242
  304TMC3    O1 4638   2.804   1.551  10.883 -0.0529  0.5363 -0.4338
  304TMC3    O2 4639   2.346   1.718  10.934  0.2032 -0.2672  0.2167
  305MPD2     C 4640   0.614   4.318  13.943 -0.7001 -0.7688  0.0948
  305MPD2    C1 4641   0.692   4.208  13.958  0.3739  0.0778  0.3162
  305MPD2    C2 4642   0.701   4.127  13.847 -0.6228  0.0790 -0.6962
  305MPD2    C3 4643   0.615   4.141  13.739  0.0042 -0.0045  0.0777
  305MPD2    C4 4644   0.531   4.250  13.734 -0.0820  0.2616 -0.2579
  305MPD2    C5 4645   0.536   4.343  13.834 -0.0994  0.3139 -0.2643
  305MPD2     H 4646   0.763   4.038  13.851 -1.2252 -0.3993 -2.1148
  305MPD2    H1 4647   0.462   4.276  13.655 -1.1448  0.7727  0.8311
  305MPD2    H2 4648   0.593   4.395  14.017  1.0024 -0.1760 -0.0480
  305MPD2    H3 4649   0.483   4.437  13.827 -1.0145 -0.1449  0.3674
  305MPD2     N 4650   0.619   4.061  13.620  0.1689  0.7145  0.1498
  305MPD2    H5 4651   0.549   4.072  13.547 -0.4483 -0.3135  0.5953
  305MPD2    N1 4652   0.766   4.191  14.075  0.1499  0.3165 -0.1643
  305MPD2    H7 4653   0.734   4.248  14.153 -1.2739 -2.5423  1.3221
  306TMC3    C1 4654   0.873   4.077  14.246 -0.1161  0.1152 -0.8779
  306TMC3    C2 4655   0.909   3.953  14.286 -0.5694 -0.0319  1.0470
  306TMC3    C3 4656   0.956   3.935  14.418 -1.1801 -0.2459  0.2701
  306TMC3    C4 4657   0.887   4.186  14.327  0.4769 -0.4362 -0.3783
  306TMC3    C5 4658   0.942   4.169  14.446  0.3888  0.1002  0.0580
  306TMC3    C6 4659   0.975   4.045  14.498  0.5292  0.2905 -0.1214
  306TMC3     C 4660   0.850   4.089  14.099  0.1091 -0.2131  0.6365
  306TMC3     O 4661   0.906   4.014  14.017  0.2328 -0.2333 -0.0092
  306TMC3     H 4662   0.895   3.867  14.222  1.1870  0.5927 -0.1721
  306TMC3    H1 4663   0.890   4.283  14.278 -0.6400  0.1858  0.7881
  306TMC3    H2 4664   1.017   4.023  14.595 -1.8015  0.8007  1.0188
  306TMC3    C7 4665   0.919   4.280  14.534 -1.2227 -0.1605 -0.0516
  306TMC3    C8 4666   1.051   3.826  14.433 -0.0925  0.7174 -0.6384
  306TMC3    O1 4667   0.877   4.384  14.483 -0.8012  0.9073  0.2822
  306TMC3    O2 4668   1.163   3.846  14.473  0.5788  0.0266  0.6188
  307MPD2     C 4669   3.043   2.274   0.124 -0.6079  0.4264  0.0259
  307MPD2    C1 4670   3.039   2.402   0.163 -0.1901 -0.1386 -0.0650
  307MPD2    C2 4671   3.003   2.439   0.294 -0.7133  0.0353  0.2652
  307MPD2    C3 4672   3.011   2.344   0.394  0.7625 -0.3479  0.6230
  307MPD2    C4 4673   3.025   2.208   0.363  0.2784  0.0130 -0.1544
  307MPD2    C5 4674   3.045   2.181   0.227  0.0006 -0.1464 -0.3267
  307MPD2     H 4675   3.007   2.546   0.309 -0.1390 -0.1566  1.4597
  307MPD2    H1 4676   3.020   2.123   0.431  0.9771 -0.2902 -0.4814
  307MPD2    H2 4677   3.071   2.234   0.027 -1.6814  1.9246 -0.8956
  307MPD2    H3 4678   3.064   2.077   0.205  0.7734  0.2668 -1.6165
  307MPD2     N 4679   2.981   2.386   0.525  0.1728 -1.0950  0.0044
  307MPD2    H5 4680   2.933   2.474   0.537 -2.0018 -2.2008 -0.6717
  307MPD2    N1 4681   3.067   2.502   0.067  0.2607 -0.1863  0.0669
  307MPD2    H7 4682   3.079   2.594   0.109 -3.2305  0.2883  0.0481
  308TMC3    C1 4683   2.800   2.379   0.967  0.3086 -0.3557 -0.0170
  308TMC3    C2 4684   2.827   2.515   0.971 -0.1181 -0.1235 -0.3720
  308TMC3    C3 4685   2.904   2.576   0.874 -0.1769 -0.4911 -0.8341
  308TMC3    C4 4686   2.846   2.313   0.851 -0.3089 -0.5951  0.0255
  308TMC3    C5 4687   2.923   2.376   0.755 -0.8143 -0.3862 -1.0672
  308TMC3    C6 4688   2.948   2.511   0.760  0.0458  0.0538  0.2521
  308TMC3     C 4689   2.679   2.334   1.024 -0.0548  0.4228  0.0287
  308TMC3     O 4690   2.662   2.213   1.040  0.6401  0.4403  0.2389
  308TMC3     H 4691   2.804   2.565   1.064 -0.9375 -0.1713 -0.5435
  308TMC3    H1 4692   2.819   2.209   0.835  2.2067 -1.7231  3.2003
  308TMC3    H2 4693   3.014   2.563   0.692  1.3384 -1.1761  0.5397
  308TMC3    C7 4694   2.978   2.304   0.633  0.3637  0.6263 -0.0360
  308TMC3    C8 4695   2.956   2.702   0.911 -0.2565 -0.0137  0.0778
  308TMC3    O1 4696   3.020   2.191   0.651 -0.4199 -0.3270 -0.1994
  308TMC3    O2 4697   2.949   2.731   1.031 -0.5642  0.2099  0.2831
  309MPD2     C 4698   2.235   2.607  17.281  0.3522 -0.0874  0.5244
  309MPD2    C1 4699   2.225   2.724  17.213  0.0208  0.0047  0.0073
  309MPD2    C2 4700   2.133   2.815  17.255  0.0929  0.9702  0.0056
  309MPD2    C3 4701   2.069   2.807  17.382  0.3029 -0.0334 -0.1795
  309MPD2    C4 4702   2.085   2.686  17.445  0.0513 -0.2323 -0.1328
  309MPD2    C5 4703   2.163   2.590  17.399  0.3514 -0.2423  0.3944
  309MPD2     H 4704   2.105   2.903  17.197 -2.8110  0.2582  0.3605
  309MPD2    H1 4705   2.023   2.651  17.527 -1.4548 -1.2062 -1.6922
  309MPD2    H2 4706   2.294   2.526  17.241  0.5827  0.8847 -1.0887
  309MPD2    H3 4707   2.174   2.494  17.448  2.1761  0.2038  0.8839
  309MPD2     N 4708   1.963   2.901  17.423  0.3426  0.3648  0.7439
  309MPD2    H5 4709   1.929   2.973  17.359 -1.5182 -2.2890 -1.2435
  309MPD2    N1 4710   2.296   2.738  17.091  0.0716  0.3705 -0.5821
  309MPD2    H7 4711   2.345   2.655  17.060 -0.6170 -0.6360  1.0522
  310TMC3    C1 4712   2.366   2.838  16.891  0.7767 -0.0156 -0.2480
  310TMC3    C2 4713   2.303   2.870  16.777 -0.5013  0.7459  0.3634
  310TMC3    C3 4714   2.358   2.851  16.657 -0.7811 -0.5845  0.1355
  310TMC3    C4 4715   2.486   2.758  16.884  0.0285 -0.1269 -0.2550
  310TMC3    C5 4716   2.542   2.742  16.759  0.1394 -0.4025 -0.2385
  310TMC3    C6 4717   2.476   2.777  16.641  0.6014 -0.4913  0.8172
  310TMC3     C 4718   2.277   2.843  17.004  0.6656 -0.2749 -0.0126
  310TMC3     O 4719   2.221   2.952  17.017 -0.6622 -0.2810  0.0735
  310TMC3     H 4720   2.219   2.938  16.788 -0.0828  1.3584 -0.1814
  310TMC3    H1 4721   2.545   2.743  16.974 -0.3765 -0.6253 -0.0746
  310TMC3    H2 4722   2.523   2.765  16.544 -0.6010 -2.8917  0.5377
  310TMC3    C7 4723   2.656   2.648  16.757  0.7846  0.0905 -0.1621
  310TMC3    C8 4724   2.287   2.896  16.542  0.3237  0.0156 -0.4001
  310TMC3    O1 4725   2.684   2.583  16.855  0.0114 -0.8015 -0.7223
  310TMC3    O2 4726   2.165   2.913  16.553 -0.4411 -0.0317  0.3405
  311MPD2     C 4727   4.291   3.365  12.755 -0.2732  0.1018  0.2341
  311MPD2    C1 4728   4.246   3.484  12.800  0.3675  0.1945 -0.5028
  311MPD2    C2 4729   4.140   3.479  12.886 -0.9775 -0.4744 -0.2755
  311MPD2    C3 4730   4.076   3.359  12.918 -0.5395 -0.5113  0.9796
  311MPD2    C4 4731   4.120   3.243  12.861 -0.3113 -0.0188 -0.5096
  311MPD2    C5 4732   4.228   3.248  12.778 -0.4274 -0.0422  1.0438
  311MPD2     H 4733   4.097   3.571  12.922  0.1461 -0.1191  0.1607
  311MPD2    H1 4734   4.067   3.148  12.867 -0.9652  0.4796  1.5602
  311MPD2    H2 4735   4.379   3.348  12.693 -0.4901  0.4064 -0.1572
  311MPD2    H3 4736   4.264   3.156  12.733  0.3520  0.5727  0.4276
  311MPD2     N 4737   3.964   3.364  13.002 -0.1428 -0.4092 -0.3566
  311MPD2    H5 4738   3.938   3.461  13.013  0.0328 -0.5593  1.4518
  311MPD2    N1 4739   4.299   3.610  12.765  0.0851 -0.2515  0.4995
  311MPD2    H7 4740   4.268   3.687  12.824  2.6100  1.5289 -0.5110
  312TMC3    C1 4741   3.762   3.310  13.092  0.1506  0.3486 -0.0214
  312TMC3    C2 4742   3.651   3.244  13.044 -0.4519 -0.0573 -0.6515
  312TMC3    C3 4743   3.533   3.306  13.066  0.0956  0.0733 -0.3698
  312TMC3    C4 4744   3.753   3.428  13.157  0.0788 -0.2409 -0.4208
  312TMC3    C5 4745   3.624   3.473  13.189  0.0479 -0.3214  0.4692
  312TMC3    C6 4746   3.517   3.419  13.135  0.0661 -0.8996 -0.5763
  312TMC3     C 4747   3.889   3.259  13.047 -0.1446 -0.5322 -0.2735
  312TMC3     O 4748   3.904   3.137  13.040 -0.3224  0.2675  0.6012
  312TMC3     H 4749   3.659   3.138  13.020 -0.2101 -0.2176  0.1427
  312TMC3    H1 4750   3.833   3.476  13.212  0.9109  0.4724 -2.2684
  312TMC3    H2 4751   3.421   3.468  13.135  0.6943  0.3200 -0.3820
  312TMC3    C7 4752   3.597   3.605  13.247  0.0411 -0.5640  0.1457
  312TMC3    C8 4753   3.412   3.260  12.995  0.3199 -0.4849 -0.0558
  312TMC3    O1 4754   3.495   3.661  13.217 -0.4312 -0.1777  0.1624
  312TMC3    O2 4755   3.382   3.145  13.012 -0.1210 -0.2048  0.7780
  313MPD2     C 4756   3.758   3.199  11.478  0.7539 -0.4989 -0.0155
  313MPD2    C1 4757   3.693   3.227  11.355  0.2061 -0.2250  0.6895
  313MPD2    C2 4758   3.686   3.130  11.256 -0.5126  0.5594  0.4943
  313MPD2    C3 4759   3.720   3.001  11.281 -0.4758 -0.0713 -0.0163
  313MPD2    C4 4760   3.783   2.973  11.403  0.2664  0.7329  0.9318
  313MPD2    C5 4761   3.800   3.069  11.498 -0.1901 -0.5454  0.1134
  313MPD2     H 4762   3.628   3.159  11.169 -1.5161 -2.1869  0.2678
  313MPD2    H1 4763   3.823   2.874  11.421  2.6176  0.8123 -4.1114
  313MPD2    H2 4764   3.785   3.274  11.552 -0.8478  0.2045 -0.1392
  313MPD2    H3 4765   3.854   3.056  11.591  0.9465  0.4219 -0.4037
  313MPD2     N 4766   3.700   2.910  11.177 -0.5734 -0.2099  0.4659
  313MPD2    H5 4767   3.655   2.936  11.090  0.6395 -0.5025 -0.2434
  313MPD2    N1 4768   3.631   3.351  11.324  0.5522 -0.3611  0.1210
  313MPD2    H7 4769   3.624   3.374  11.225  1.0064  0.5951  0.3125
  314TMC3    C1 4770   3.564   3.576  11.348 -0.7928 -0.3407  0.4287
  314TMC3    C2 4771   3.657   3.675  11.329 -0.0657 -1.2355  0.2096
  314TMC3    C3 4772   3.635   3.775  11.239  0.3240 -0.1814  0.0496
  314TMC3    C4 4773   3.450   3.574  11.275 -1.3241 -0.2340  0.9965
  314TMC3    C5 4774   3.427   3.676  11.184 -0.5868 -0.6708 -0.5160
  314TMC3    C6 4775   3.520   3.779  11.168  0.0006 -0.4812  0.3908
  314TMC3     C 4776   3.622   3.455  11.409  0.3376 -1.0046  0.9835
  314TMC3     O 4777   3.657   3.455  11.525 -0.4586 -0.1313 -0.4199
  314TMC3     H 4778   3.745   3.673  11.392 -0.3303  2.4376  0.7431
  314TMC3    H1 4779   3.377   3.494  11.275 -2.1447  0.5202 -1.0108
  314TMC3    H2 4780   3.493   3.863  11.104 -0.2942 -2.0038 -1.4558
  314TMC3    C7 4781   3.354   3.624  11.065  0.3291  0.8422  0.2562
  314TMC3    C8 4782   3.746   3.865  11.205 -0.0897 -0.3562  0.7818
  314TMC3    O1 4783   3.249   3.565  11.088 -0.1027 -0.1464  0.0104
  314TMC3    O2 4784   3.723   3.955  11.125  0.1743 -0.5109  0.5738
  315MPD2     C 4785   3.292   2.313  16.867  0.5478 -0.5227  0.4443
  315MPD2    C1 4786   3.334   2.355  16.989  0.7000  0.2053 -0.2552
  315MPD2    C2 4787   3.355   2.487  17.005  0.2903  0.2387  0.2236
  315MPD2    C3 4788   3.336   2.578  16.903  0.4568 -0.0570  0.2778
  315MPD2    C4 4789   3.304   2.531  16.782 -0.8456  0.2119 -0.2006
  315MPD2    C5 4790   3.276   2.402  16.769 -0.3170 -0.0780 -0.2954
  315MPD2     H 4791   3.395   2.531  17.096 -2.1289 -0.5849  1.6676
  315MPD2    H1 4792   3.297   2.599  16.698  0.2508  0.8782  0.2439
  315MPD2    H2 4793   3.257   2.213  16.844 -0.0471 -0.0851 -0.5613
  315MPD2    H3 4794   3.233   2.358  16.680 -0.4895  1.9511 -1.2032
  315MPD2     N 4795   3.373   2.712  16.934 -0.0673  0.2646  0.1374
  315MPD2    H5 4796   3.406   2.733  17.028 -1.2095 -1.1559  0.8614
  315MPD2    N1 4797   3.358   2.265  17.095  0.6004  0.5923 -0.4921
  315MPD2    H7 4798   3.406   2.310  17.172 -0.6212 -1.0033  1.1699
  316TMC3    C1 4799   3.379   2.944  16.909  0.4480  0.0462  0.3719
  316TMC3    C2 4800   3.428   2.958  17.039  1.1112 -0.4446  0.5956
  316TMC3    C3 4801   3.400   3.074  17.105 -0.4780 -0.0751  0.4064
  316TMC3    C4 4802   3.302   3.041  16.859 -0.6169 -0.6926  0.0884
  316TMC3    C5 4803   3.272   3.157  16.929 -0.0104  0.4725 -0.3372
  316TMC3    C6 4804   3.314   3.166  17.054 -0.1082 -0.2685 -0.2547
  316TMC3     C 4805   3.367   2.816  16.849  0.0945 -0.4935  0.5775
  316TMC3     O 4806   3.310   2.823  16.739 -0.7112  0.0749  0.2529
  316TMC3     H 4807   3.508   2.894  17.072  3.1310  1.5684 -0.4276
  316TMC3    H1 4808   3.262   3.025  16.760  1.1820  1.1972 -0.9624
  316TMC3    H2 4809   3.303   3.253  17.117  0.5092 -1.0865  0.9755
  316TMC3    C7 4810   3.141   3.211  16.904  0.6870 -0.1638  0.6310
  316TMC3    C8 4811   3.476   3.097  17.231  0.3972 -0.0034 -0.9165
  316TMC3    O1 4812   3.092   3.285  16.989  1.1661 -0.2802  0.0494
  316TMC3    O2 4813   3.512   3.208  17.256  0.2039  0.8775 -0.7669
  317MPD2     C 4814   0.402   0.572  12.457  0.3962  0.2178  0.5230
  317MPD2    C1 4815   0.465   0.455  12.475  0.4749 -0.8896  0.2047
  317MPD2    C2 4816   0.507   0.417  12.600 -0.3547  0.0602 -0.5086
  317MPD2    C3 4817   0.503   0.498  12.711  0.4881  0.2563 -0.2675
  317MPD2    C4 4818   0.444   0.617  12.686 -0.6365  0.3897 -0.5238
  317MPD2    C5 4819   0.389   0.653  12.567 -0.3032 -0.0402  0.3180
  317MPD2     H 4820   0.553   0.319  12.597 -1.9620 -0.7109 -0.1142
  317MPD2    H1 4821   0.431   0.695  12.760  1.3122  0.2609 -0.0446
  317MPD2    H2 4822   0.390   0.615  12.358  2.9958  0.9392  0.5352
  317MPD2    H3 4823   0.330   0.743  12.558 -0.2106 -0.0343 -0.2611
  317MPD2     N 4824   0.564   0.457  12.831 -0.2487 -0.0590  0.2488
  317MPD2    H5 4825   0.592   0.360  12.841 -0.7113 -0.1903  0.2775
  317MPD2    N1 4826   0.473   0.360  12.371  0.6893 -0.7228 -0.3793
  317MPD2    H7 4827   0.523   0.272  12.382  1.7388  0.0850  1.2792
  318TMC3    C1 4828   0.681   0.476  13.035 -0.2642 -0.2690  0.1261
  318TMC3    C2 4829   0.656   0.344  13.051  1.2776 -0.4001  0.7518
  318TMC3    C3 4830   0.750   0.275  13.119  1.5758  0.5494  0.5741
  318TMC3    C4 4831   0.801   0.539  13.073 -0.1773 -0.2332  0.2392
  318TMC3    C5 4832   0.901   0.458  13.128 -0.1758 -0.7228 -0.3335
  318TMC3    C6 4833   0.879   0.322  13.148 -0.2602  0.6823  0.1772
  318TMC3     C 4834   0.597   0.543  12.932 -0.9851 -0.2051  0.4810
  318TMC3     O 4835   0.588   0.663  12.940  0.4937  0.1467  0.2369
  318TMC3     H 4836   0.564   0.303  13.011  1.8585 -0.8057 -0.1663
  318TMC3    H1 4837   0.819   0.636  13.027 -0.4978 -1.1983 -1.9263
  318TMC3    H2 4838   0.955   0.268  13.204  0.8478 -0.2267 -2.2158
  318TMC3    C7 4839   1.043   0.506  13.094 -0.4967  0.0694  0.2568
  318TMC3    C8 4840   0.710   0.143  13.177  0.0795  0.2104 -0.6617
  318TMC3    O1 4841   1.065   0.563  12.989 -0.4867 -0.5789  0.6372
  318TMC3    O2 4842   0.798   0.078  13.229 -0.0877 -0.5127 -0.0307
  319MPD2     C 4843   1.626   2.563  16.965 -0.1103  0.4282  0.2018
  319MPD2    C1 4844   1.563   2.445  17.000 -0.5957  0.3899 -0.6389
  319MPD2    C2 4845   1.505   2.364  16.906  0.3568  0.2661  0.0732
  319MPD2    C3 4846   1.523   2.388  16.769  0.0662  0.1820  0.2510
  319MPD2    C4 4847   1.579   2.514  16.741 -0.4038  0.1607  0.5496
  319MPD2    C5 4848   1.633   2.593  16.832 -0.0753  0.0776  0.0019
  319MPD2     H 4849   1.453   2.273  16.935  0.6627  0.4112  1.0505
  319MPD2    H1 4850   1.599   2.536  16.637  0.2759  0.8024  0.8212
  319MPD2    H2 4851   1.677   2.634  17.029  1.0346  0.8008 -1.1220
  319MPD2    H3 4852   1.686   2.683  16.802  0.4055 -0.4797 -0.8217
  319MPD2     N 4853   1.488   2.301  16.662  0.1539  0.5963 -0.5545
  319MPD2    H5 4854   1.489   2.344  16.570 -0.7089 -1.1388 -1.3720
  319MPD2    N1 4855   1.552   2.418  17.140  0.1205  0.2179 -0.3130
  319MPD2    H7 4856   1.609   2.470  17.206 -1.0268 -0.8089  1.4854
  320TMC3    C1 4857   1.411   2.110  16.527 -0.4670 -0.1172 -0.0701
  320TMC3    C2 4858   1.349   2.193  16.439  0.4090 -0.5576  0.5446
  320TMC3    C3 4859   1.276   2.135  16.339  0.5190  0.9903  0.1232
  320TMC3    C4 4860   1.394   1.976  16.517  0.2084  0.6738  0.9399
  320TMC3    C5 4861   1.317   1.920  16.416  0.4864  0.3900  0.1218
  320TMC3    C6 4862   1.261   2.004  16.321  0.2533 -0.2627  0.2494
  320TMC3     C 4863   1.452   2.168  16.658  0.8701  0.1011 -0.8446
  320TMC3     O 4864   1.463   2.087  16.750  0.0634 -0.2565 -0.0220
  320TMC3     H 4865   1.333   2.299  16.460  1.5219 -0.3093  0.1391
  320TMC3    H1 4866   1.443   1.909  16.586  1.5236 -1.5857 -2.2115
  320TMC3    H2 4867   1.202   1.960  16.241 -1.7637  0.9497  1.0654
  320TMC3    C7 4868   1.254   1.794  16.444  0.3559  1.0002 -0.2593
  320TMC3    C8 4869   1.222   2.224  16.246  0.2598 -0.5141  0.5650
  320TMC3    O1 4870   1.160   1.767  16.362  0.0538  0.1644  0.5423
  320TMC3    O2 4871   1.218   2.341  16.276  0.2857 -0.3080 -0.0197
  321TMC3    C1 4872   1.494   2.324  17.348  0.1985 -0.3420  0.9008
  321TMC3    C2 4873   1.487   2.202  17.415  0.3693  0.8339 -0.7750
  321TMC3    C3 4874   1.485   2.203  17.552  0.0674 -0.9501 -0.3551
  321TMC3    C4 4875   1.507   2.444  17.416  0.1767  0.5824 -1.2170
  321TMC3    C5 4876   1.504   2.440  17.551  0.4855 -0.8703  0.5706
  321TMC3    C6 4877   1.479   2.324  17.615  0.4701  0.2520 -0.7331
  321TMC3     C 4878   1.481   2.324  17.203 -0.9318  0.3532  0.3999
  321TMC3     O 4879   1.426   2.226  17.156  0.5622  0.2187  0.2221
  321TMC3     H 4880   1.481   2.112  17.355 -0.4333  0.6437 -0.4091
  321TMC3    H1 4881   1.510   2.541  17.368 -0.8432  2.2696  2.1023
  321TMC3    H2 4882   1.455   2.324  17.721  2.8035  1.2462 -0.2143
  321TMC3    C7 4883   1.621   2.503  17.605  0.2287  0.2667  0.4172
  321TMC3    C8 4884   1.563   2.111  17.624  0.2043  0.9575  0.8744
  321TMC3    O1 4885   1.664   2.601  17.543  0.6653  0.7705 -0.0413
  321TMC3    O2 4886   1.621   2.151  17.729  0.8318 -0.1296 -0.1949
  322MPD2     C 4887   0.484   3.007  13.362  0.2709 -0.3883 -0.1319
  322MPD2    C1 4888   0.516   2.947  13.482  0.0505 -0.1676 -0.1746
  322MPD2    C2 4889   0.565   2.814  13.484 -0.3538 -0.1252  0.4364
  322MPD2    C3 4890   0.583   2.754  13.359  0.5624 -0.2217  0.0961
  322MPD2    C4 4891   0.548   2.810  13.241 -1.3759  0.6735  0.1143
  322MPD2    C5 4892   0.494   2.938  13.243 -0.3289 -0.1718 -0.1101
  322MPD2     H 4893   0.584   2.759  13.576 -1.8193 -0.2051  0.6959
  322MPD2    H1 4894   0.557   2.763  13.144  0.5244  1.8122 -0.2615
  322MPD2    H2 4895   0.453   3.109  13.345  0.4259 -0.1307  1.1745
  322MPD2    H3 4896   0.457   2.982  13.152  1.9341 -0.6205 -1.2602
  322MPD2     N 4897   0.625   2.625  13.362  0.5669  0.5540 -0.1392
  322MPD2    H5 4898   0.656   2.590  13.452  1.4707 -0.6925 -0.9319
  322MPD2    N1 4899   0.527   3.034  13.592  0.0116  0.0707 -1.3926
  322MPD2    H7 4900   0.503   3.132  13.583  2.1313  0.3610 -3.7293
  323TMC3    C1 4901   0.598   3.104  13.809  0.1693  0.6252 -0.2900
  323TMC3    C2 4902   0.653   3.220  13.749 -0.2998 -0.2089  0.0010
  323TMC3    C3 4903   0.724   3.297  13.838 -0.7169  0.2238  0.2608
  323TMC3    C4 4904   0.588   3.089  13.939 -0.0488  0.8093  0.1649
  323TMC3    C5 4905   0.651   3.174  14.030 -0.2953 -0.2514  0.0066
  323TMC3    C6 4906   0.716   3.278  13.975 -0.6134 -0.4560 -0.8851
  323TMC3     C 4907   0.565   2.989  13.718  0.1730 -0.2622  0.1725
  323TMC3     O 4908   0.572   2.877  13.762 -0.1754  0.0540  0.3199
  323TMC3     H 4909   0.670   3.211  13.642 -0.4110  2.1126 -0.2107
  323TMC3    H1 4910   0.535   3.005  13.983 -2.1775 -0.0460 -4.0500
  323TMC3    H2 4911   0.765   3.352  14.037  2.0217 -2.1391 -0.9201
  323TMC3    C7 4912   0.673   3.142  14.178  0.0702  0.3197  0.4799
  323TMC3    C8 4913   0.852   3.352  13.804  0.2367  0.0082 -0.3224
  323TMC3    O1 4914   0.683   3.023  14.206  0.3869  0.3562 -0.2276
  323TMC3    O2 4915   0.934   3.356  13.895 -0.4906  1.0168  0.1000
  324MPD2     C 4916   2.035   4.166  14.466 -0.2138 -0.1621 -0.5804
  324MPD2    C1 4917   2.060   4.297  14.450  0.0235 -0.2934 -0.3293
  324MPD2    C2 4918   1.968   4.376  14.380  0.0890 -0.1247  0.6944
  324MPD2    C3 4919   1.851   4.327  14.333 -0.6215  0.3486  0.2711
  324MPD2    C4 4920   1.827   4.195  14.361 -0.6272 -0.7785 -0.1565
  324MPD2    C5 4921   1.914   4.117  14.426 -0.3596  0.2911 -0.5584
  324MPD2     H 4922   1.989   4.481  14.363  0.0659 -0.6509 -2.5887
  324MPD2    H1 4923   1.736   4.143  14.334 -1.8387  0.2900  1.8760
  324MPD2    H2 4924   2.108   4.096  14.504 -1.4251 -0.9345  0.3050
  324MPD2    H3 4925   1.881   4.015  14.445  3.9876 -1.3384 -1.6709
  324MPD2     N 4926   1.755   4.414  14.274  0.4661  0.1587 -0.0469
  324MPD2    H5 4927   1.663   4.379  14.251 -0.0400  1.2496  0.3261
  324MPD2    N1 4928   2.184   4.350  14.489  0.4774  0.1766  0.1178
  324MPD2    H7 4929   2.210   4.444  14.460 -0.0634 -0.7913 -3.5222
  325TMC3    C1 4930   1.647   4.600  14.169  0.4484 -0.2701 -0.4322
  325TMC3    C2 4931   1.544   4.520  14.131  0.3198  0.4388  0.0397
  325TMC3    C3 4932   1.432   4.571  14.068 -0.4605  0.1801 -0.1101
  325TMC3    C4 4933   1.653   4.736  14.147  0.3809 -0.2816  0.4181
  325TMC3    C5 4934   1.554   0.039  14.067  0.5360 -0.0253  0.0106
  325TMC3    C6 4935   1.437   4.704  14.032  0.0574  0.3338  0.3508
  325TMC3     C 4936   1.766   4.549  14.240 -0.2270  0.3387 -0.5554
  325TMC3     O 4937   1.857   4.629  14.263  0.1339 -0.5739 -0.1623
  325TMC3     H 4938   1.561   4.413  14.136  1.3339  0.5941 -0.0873
  325TMC3    H1 4939   1.741   0.056  14.171  1.2113 -0.5203 -2.0144
  325TMC3    H2 4940   1.365   0.004  13.962  1.5418  2.1476 -0.1397
  325TMC3    C7 4941   1.542   0.184  14.077  0.3956 -0.6540  0.6921
  325TMC3    C8 4942   1.367   4.472  13.978 -0.2127  0.2151 -0.3266
  325TMC3    O1 4943   1.635   0.252  14.116 -0.6857  1.1218 -0.1050
  325TMC3    O2 4944   1.415   4.360  13.959  0.1713  0.1936 -0.0356
  326MPD2     C 4945   3.654   0.832  10.898 -0.6327 -0.6302 -0.0741
  326MPD2    C1 4946   3.615   0.872  10.772 -0.2088  0.4350  0.0466
  326MPD2    C2 4947   3.694   0.950  10.702  0.2824 -0.2985 -0.0744
  326MPD2    C3 4948   3.813   1.005  10.749  0.1797  0.2157  0.6835
  326MPD2    C4 4949   3.853   0.966  10.876  0.7200 -0.1679 -0.0173
  326MPD2    C5 4950   3.766   0.883  10.949 -0.6627 -0.1214 -0.2780
  326MPD2     H 4951   3.665   0.977  10.601 -0.4409  1.7149  0.6642
  326MPD2    H1 4952   3.944   0.997  10.926  0.9487 -3.6828  1.7289
  326MPD2    H2 4953   3.595   0.770  10.965 -1.9618 -1.4759 -2.0305
  326MPD2    H3 4954   3.793   0.841  11.045 -1.5277  1.9557  0.8738
  326MPD2     N 4955   3.894   1.091  10.682  0.1967 -0.6624 -0.0172
  326MPD2    H5 4956   3.983   1.125  10.718  1.0047 -1.1871 -1.5083
  326MPD2    N1 4957   3.496   0.834  10.715 -0.6213  0.1508 -0.2395
  326MPD2    H7 4958   3.480   0.881  10.627 -1.5056  0.4084  0.0559
  327TMC3    C1 4959   3.318   0.721  10.660 -0.8853 -0.0734 -0.9067
  327TMC3    C2 4960   3.294   0.841  10.592  0.6640 -0.3599  0.5276
  327TMC3    C3 4961   3.292   0.847  10.455  0.5565 -0.1072  0.0773
  327TMC3    C4 4962   3.360   0.615  10.590  0.2903 -0.6071  0.4700
  327TMC3    C5 4963   3.361   0.623  10.456  0.3895 -0.8528 -0.7816
  327TMC3    C6 4964   3.321   0.733  10.384 -1.3217  0.0740  0.0484
  327TMC3     C 4965   3.412   0.744  10.763  0.5816 -0.6580  0.4435
  327TMC3     O 4966   3.428   0.662  10.852 -0.0674  0.2672 -0.7039
  327TMC3     H 4967   3.277   0.928  10.654 -0.5582 -1.8848  2.3322
  327TMC3    H1 4968   3.377   0.522  10.642 -0.2368 -0.2559  1.2640
  327TMC3    H2 4969   3.319   0.727  10.276 -3.3607 -0.7456  0.1437
  327TMC3    C7 4970   3.494   0.603  10.407  0.2693 -0.1256 -0.1263
  327TMC3    C8 4971   3.285   0.975  10.402 -1.2136 -0.4856 -0.3521
  327TMC3    O1 4972   3.525   0.651  10.300 -0.6165 -0.9092 -0.0379
  327TMC3    O2 4973   3.324   1.069  10.476 -0.3880  0.2392 -0.5035
  328MPD2     C 4974   0.772   0.876  17.255  0.3502  0.4267  0.5186
  328MPD2    C1 4975   0.867   0.977  17.275 -0.3817  0.0329 -0.4003
  328MPD2    C2 4976   0.895   1.056  17.164  0.1954 -0.2022 -0.4431
  328MPD2    C3 4977   0.836   1.027  17.042 -0.2270  0.2034  0.2407
  328MPD2    C4 4978   0.759   0.908  17.028 -0.0738 -0.6472  0.0527
  328MPD2    C5 4979   0.720   0.835  17.131  0.4291 -0.1143  0.4195
  328MPD2     H 4980   0.962   1.141  17.171  0.4435 -0.5951  1.6788
  328MPD2    H1 4981   0.712   0.882  16.934 -1.4624  3.1520 -0.2709
  328MPD2    H2 4982   0.737   0.821  17.342  0.9251  1.8205  1.6350
  328MPD2    H3 4983   0.649   0.756  17.112 -0.4399  0.8993 -0.5259
  328MPD2     N 4984   0.849   1.106  16.927 -0.0521 -0.1099  0.6159
  328MPD2    H5 4985   0.810   1.062  16.844 -0.0408  1.0036  0.0246
  328MPD2    N1 4986   0.913   0.999  17.408  0.8485 -0.1276  0.4094
  328MPD2    H7 4987   0.852   0.967  17.483 -1.2679  3.1051  0.0221
  329TMC3    C1 4988   1.039   1.076  17.587 -0.5280 -0.0260  0.3171
  329TMC3    C2 4989   1.107   1.190  17.635  0.0104 -0.0370  0.2917
  329TMC3    C3 4990   1.079   1.223   0.007 -0.2020 -0.2521  0.9271
  329TMC3    C4 4991   0.957   0.997  17.661 -0.1588  0.4742  0.2071
  329TMC3    C5 4992   0.936   1.037   0.036 -0.3021 -0.5233 -0.0907
  329TMC3    C6 4993   1.004   1.145   0.093  0.7523  0.6364  0.2300
  329TMC3     C 4994   1.014   1.079  17.441  0.0507  0.6281  0.0651
  329TMC3     O 4995   1.072   1.161  17.367 -0.1873  0.0508  0.4911
  329TMC3     H 4996   1.158   1.254  17.563  0.4351  0.2688  0.8703
  329TMC3    H1 4997   0.916   0.906  17.619 -1.7056  2.1094 -1.7960
  329TMC3    H2 4998   0.986   1.162   0.198  0.3240 -0.8347  0.3930
  329TMC3    C7 4999   0.868   0.949   0.129 -0.4133 -0.0440 -0.0085
  329TMC3    C8 5000   1.055   1.371   0.025 -0.7270 -0.1648 -0.1160
  329TMC3    O1 5001   0.882   0.975   0.246 -0.3580 -0.0894  0.1149
  329TMC3    O2 5002   1.133   1.448  17.735 -0.3727  0.7651  0.3800
  330TMC3    C1 5003   3.866   0.543   9.482 -0.0558 -0.5272 -0.5563
  330TMC3    C2 5004   3.786   0.455   9.419 -0.0453 -0.2422 -0.3791
  330TMC3    C3 5005   3.768   0.336   9.485  0.0697 -0.7211  0.2901
  330TMC3    C4 5006   3.934   0.514   9.598 -0.4915 -0.0168  0.3942
  330TMC3    C5 5007   3.925   0.389   9.653  0.5962  0.3539 -1.3878
  330TMC3    C6 5008   3.832   0.305   9.603  0.6759 -0.1366 -0.4898
  330TMC3     C 5009   3.845   0.682   9.455  1.2614  0.4226  0.1685
  330TMC3     O 5010   3.907   0.763   9.521  0.5589 -0.0205 -0.4627
  330TMC3     H 5011   3.744   0.471   9.321 -0.1079  1.2935 -0.1007
  330TMC3    H1 5012   3.988   0.591   9.652  0.2005 -0.4233  0.2891
  330TMC3    H2 5013   3.814   0.208   9.648 -0.1727  0.4452  0.4271
  330TMC3    C7 5014   3.997   0.345   9.765 -0.5452 -0.0341  0.0855
  330TMC3    C8 5015   3.669   0.254   9.429  0.0839 -0.1968  0.1245
  330TMC3    O1 5016   3.963   0.239   9.821  0.0321  0.6565 -0.0939
  330TMC3    O2 5017   3.613   0.302   9.335 -0.2712  0.1897 -0.0386
  331MPD2     C 5018   2.053   4.055  12.833  0.0545 -0.0533  0.4965
  331MPD2    C1 5019   2.112   4.016  12.718  0.1228  0.1679  0.4748
  331MPD2    C2 5020   2.045   3.915  12.641 -0.1872 -0.7797 -0.2040
  331MPD2    C3 5021   1.937   3.843  12.692 -0.8555  0.2927  0.4891
  331MPD2    C4 5022   1.878   3.890  12.806  0.6777 -0.0363  0.6937
  331MPD2    C5 5023   1.934   3.999  12.875 -0.0303  0.4828 -0.2430
  331MPD2     H 5024   2.075   3.874  12.545  1.9441  3.4928 -1.3424
  331MPD2    H1 5025   1.782   3.849  12.834 -0.0761  0.2786 -1.3505
  331MPD2    H2 5026   2.097   4.121  12.907  0.2774  2.5553 -1.9626
  331MPD2    H3 5027   1.881   4.040  12.960  1.6593  0.9066  0.5990
  331MPD2     N 5028   1.881   3.737  12.619 -0.0023 -0.7076  0.3407
  331MPD2    H5 5029   1.917   3.735  12.524  0.1605 -4.5613  0.5115
  331MPD2    N1 5030   2.241   4.066  12.678 -0.5764 -0.1269 -0.6945
  331MPD2    H7 5031   2.288   4.132  12.739  1.0925 -0.0687 -2.0658
  332TMC3    C1 5032   1.746   3.554  12.557  0.4081 -0.3274  0.0945
  332TMC3    C2 5033   1.747   3.611  12.434 -0.7155  0.8822 -0.5506
  332TMC3    C3 5034   1.813   3.539  12.340 -0.1873  0.1914  0.2314
  332TMC3    C4 5035   1.803   3.433  12.585  0.1033  0.5999  0.6690
  332TMC3    C5 5036   1.860   3.361  12.487  0.3373 -0.6584  1.2358
  332TMC3    C6 5037   1.871   3.416  12.362  0.4374  0.2176 -0.0357
  332TMC3     C 5038   1.791   3.643  12.668 -0.1657  0.3614  0.8159
  332TMC3     O 5039   1.764   3.622  12.785  0.0828  0.5803 -0.0095
  332TMC3     H 5040   1.708   3.712  12.431 -2.5925  0.1807 -0.1051
  332TMC3    H1 5041   1.807   3.397  12.687 -0.2557 -2.7718 -0.5271
  332TMC3    H2 5042   1.924   3.359  12.287  0.9744  0.8549 -0.1455
  332TMC3    C7 5043   1.942   3.249  12.525  0.1245 -0.6841 -0.3449
  332TMC3    C8 5044   1.803   3.586  12.200  0.7936 -0.4850 -0.1774
  332TMC3    O1 5045   2.047   3.229  12.467  0.3885  0.2166 -0.4054
  332TMC3    O2 5046   1.887   3.540  12.122 -0.2911 -0.3161  0.0497
  333MPD2     C 5047   2.107   4.426  10.630  0.5309 -0.1681  0.7959
  333MPD2    C1 5048   2.123   4.342  10.522 -0.4662  0.4725 -0.5596
  333MPD2    C2 5049   2.156   4.212  10.541  0.1400 -0.1279 -0.4578
  333MPD2    C3 5050   2.169   4.163  10.665  0.3897 -0.1694 -0.3689
  333MPD2    C4 5051   2.143   4.249  10.776 -0.0337  0.5792 -0.3442
  333MPD2    C5 5052   2.103   4.381  10.763 -0.1844  0.0546  0.0292
  333MPD2     H 5053   2.194   4.148  10.461 -1.7802 -1.5196 -0.2365
  333MPD2    H1 5054   2.137   4.224  10.882  1.1046 -1.0937 -0.6877
  333MPD2    H2 5055   2.078   4.530  10.620  2.6172  0.0555 -2.7949
  333MPD2    H3 5056   2.068   4.440  10.847  1.4833 -0.6490  1.2102
  333MPD2     N 5057   2.196   4.023  10.678 -0.0802  0.1683 -0.2207
  333MPD2    H5 5058   2.205   3.967  10.594  1.9298 -0.3720  0.3606
  333MPD2    N1 5059   2.129   4.395  10.390 -0.5866  0.2871  0.0221
  333MPD2    H7 5060   2.142   4.495  10.379  0.9483  0.1956  0.9539
  334TMC3    C1 5061   2.198   4.381  10.160  0.0131 -0.4669  0.2760
  334TMC3    C2 5062   2.276   4.289  10.094  0.5907 -0.2225  0.6742
  334TMC3    C3 5063   2.384   4.320  10.016  0.7791  0.0278 -0.1480
  334TMC3    C4 5064   2.242   4.514  10.159  0.2345  0.5309  0.2324
  334TMC3    C5 5065   2.346   4.544  10.074  0.0646 -0.4109  0.1971
  334TMC3    C6 5066   2.415   4.451  10.003 -0.9639 -0.3153 -0.1809
  334TMC3     C 5067   2.136   4.315  10.278 -0.4011  0.1106  0.7869
  334TMC3     O 5068   2.092   4.200  10.266 -0.1111 -0.1864  0.1204
  334TMC3     H 5069   2.238   4.188  10.103  0.0160 -0.1651 -1.1454
  334TMC3    H1 5070   2.169   4.583  10.201 -1.8434 -1.7803  0.4092
  334TMC3    H2 5071   2.491   4.482   9.933 -0.7822  0.4904  0.3603
  334TMC3    C7 5072   2.401   4.673  10.095 -0.1489  0.2035 -0.3437
  334TMC3    C8 5073   2.487   4.228  10.065  0.8850  0.2936  0.0926
  334TMC3    O1 5074   2.361   4.736  10.190  0.1710 -0.0520  0.1428
  334TMC3    O2 5075   2.452   4.120  10.111  0.5875  0.0836  0.3585
  335TMC3    C1 5076   1.878   0.879  17.455  0.1538  0.0133 -0.8133
  335TMC3    C2 5077   1.802   0.819  17.359  0.1127 -0.5943  0.3551
  335TMC3    C3 5078   1.868   0.764  17.254  0.3448 -0.0409 -1.0476
  335TMC3    C4 5079   2.011   0.894  17.453  0.1324 -0.2726 -0.0513
  335TMC3    C5 5080   2.072   0.841  17.344  0.1531 -0.8054  0.4231
  335TMC3    C6 5081   2.003   0.769  17.248  0.4375  0.4741  0.2158
  335TMC3     C 5082   1.798   0.972  17.536 -0.2236 -0.0327  0.1158
  335TMC3     O 5083   1.685   0.934  17.554 -0.0183 -0.5733  0.3997
  335TMC3     H 5084   1.694   0.832  17.351  0.2331  0.7720  1.0356
  335TMC3    H1 5085   2.062   0.958  17.525 -2.7862 -0.3366  2.0985
  335TMC3    H2 5086   2.054   0.734  17.158  0.2014  0.7303 -0.0167
  335TMC3    C7 5087   2.211   0.876  17.308 -0.3668  0.5325 -0.2737
  335TMC3    C8 5088   1.798   0.718  17.136 -0.5724  0.0100 -0.0012
  335TMC3    O1 5089   2.270   0.808  17.226  0.5197  0.5257 -0.5457
  335TMC3    O2 5090   1.848   0.733  17.022 -0.5049 -0.0223  0.0981
  336MPD2     C 5091   1.467   3.404  15.959 -0.2320  0.2014  0.1741
  336MPD2    C1 5092   1.416   3.294  15.896 -0.0649 -0.2840  0.3312
  336MPD2    C2 5093   1.428   3.178  15.969  1.3293  0.1429 -0.0385
  336MPD2    C3 5094   1.491   3.175  16.093 -0.2600 -0.7746 -0.8074
  336MPD2    C4 5095   1.519   3.297  16.154  0.0462 -0.5753  0.6671
  336MPD2    C5 5096   1.511   3.408  16.085  0.0650 -0.4944 -0.0343
  336MPD2     H 5097   1.383   3.089  15.927  2.3241 -0.5026  0.2637
  336MPD2    H1 5098   1.557   3.310  16.254  0.3475 -0.6387  0.5610
  336MPD2    H2 5099   1.464   3.494  15.899 -0.2651  1.3502  1.9024
  336MPD2    H3 5100   1.555   3.498  16.126 -2.1062  0.9947 -0.9376
  336MPD2     N 5101   1.496   3.058  16.179  0.2528  0.7683 -0.2683
  336MPD2    H5 5102   1.534   3.081  16.270 -0.3928  0.8976 -0.0341
  336MPD2    N1 5103   1.369   3.288  15.765  0.2570 -0.5999 -0.2445
  336MPD2    H7 5104   1.352   3.195  15.728  0.7149 -0.2202 -1.3911
  337TMC3    C1 5105   1.299   3.349  15.555  0.2938  0.2760 -0.3634
  337TMC3    C2 5106   1.181   3.283  15.549  0.5744  0.2426 -0.2949
  337TMC3    C3 5107   1.111   3.271  15.430  0.0132  0.7308  0.1065
  337TMC3    C4 5108   1.354   3.414  15.448  0.6399 -0.5383 -0.4137
  337TMC3    C5 5109   1.277   3.406  15.330  0.5351  0.2108  0.2441
  337TMC3    C6 5110   1.157   3.334  15.318 -0.2745  0.1796 -0.5143
  337TMC3     C 5111   1.350   3.394  15.682 -0.0006 -0.1263 -0.0274
  337TMC3     O 5112   1.363   3.516  15.698  0.3208 -0.5444  0.5052
  337TMC3     H 5113   1.158   3.240  15.646  2.0119 -0.2794 -0.1866
  337TMC3    H1 5114   1.435   3.485  15.459 -0.7389  1.1250 -1.0454
  337TMC3    H2 5115   1.111   3.325  15.221 -0.8904 -2.6515  0.0562
  337TMC3    C7 5116   1.314   3.494  15.221  0.1050 -0.8198 -0.2232
  337TMC3    C8 5117   0.974   3.241  15.452 -0.2071  0.4901 -0.5599
  337TMC3    O1 5118   1.388   3.584  15.256 -0.2715  0.5896  0.4751
  337TMC3    O2 5119   0.950   3.226  15.575 -0.2249  0.4343  0.1080
  338MPD2     C 5120   1.751   3.269   1.257 -0.2353  0.5362 -1.0632
  338MPD2    C1 5121   1.706   3.218   1.134  0.4398  0.4863 -0.3604
  338MPD2    C2 5122   1.570   3.222   1.102  0.5592  0.6172 -0.2093
  338MPD2    C3 5123   1.472   3.278   1.190  0.1904 -0.3852  0.2586
  338MPD2    C4 5124   1.521   3.319   1.309  0.1042 -0.3444 -0.3264
  338MPD2    C5 5125   1.656   3.326   1.334 -0.9632 -0.4043  0.2287
  338MPD2     H 5126   1.528   3.184   1.010  2.2816  0.5124 -0.9553
  338MPD2    H1 5127   1.454   3.350   1.389 -2.0857 -2.2472 -1.3944
  338MPD2    H2 5128   1.855   3.267   1.287 -0.6458  0.2844  0.3374
  338MPD2    H3 5129   1.693   3.366   1.428 -1.5285 -1.5851  0.9516
  338MPD2     N 5130   1.337   3.269   1.151 -0.4421 -0.0893 -0.2961
  338MPD2    H5 5131   1.315   3.232   1.060 -0.5028  0.1839 -0.3933
  338MPD2    N1 5132   1.782   3.152   1.037 -0.5859  0.0527 -0.5040
  338MPD2    H7 5133   1.744   3.144   0.944 -1.4117 -0.5686 -0.1149
  339TMC3    C1 5134   1.105   3.279   1.164  0.3945  0.2773 -0.3149
  339TMC3    C2 5135   1.013   3.202   1.226 -0.1415  0.1361 -0.3255
  339TMC3    C3 5136   0.925   3.136   1.151  0.6673 -0.4498 -0.0175
  339TMC3    C4 5137   1.108   3.300   1.033  0.4163  0.1052  0.4199
  339TMC3    C5 5138   1.007   3.240   0.963  0.2179  0.2977 -0.1297
  339TMC3    C6 5139   0.926   3.147   1.020 -0.7433  0.5142 -0.3880
  339TMC3     C 5140   1.233   3.301   1.239 -0.0001 -0.1459 -0.2790
  339TMC3     O 5141   1.237   3.366   1.341 -0.0216 -0.3949  0.4568
  339TMC3     H 5142   1.015   3.191   1.333 -1.9789 -1.9665 -0.4906
  339TMC3    H1 5143   1.175   3.374   0.989 -0.6615  0.9366  0.1581
  339TMC3    H2 5144   0.861   3.093   0.953  1.2118  0.6384 -2.4125
  339TMC3    C7 5145   1.023   3.242   0.819  0.3504 -0.1225 -0.2432
  339TMC3    C8 5146   0.844   3.040   1.210  0.5045  0.7618 -0.5531
  339TMC3    O1 5147   1.108   3.320   0.782 -0.6180 -0.2524 -0.0105
  339TMC3    O2 5148   0.798   3.060   1.322  0.2312 -0.1852 -0.2942
  340MPD2     C 5149   1.437   0.771   9.244  0.3856 -0.3189 -0.0372
  340MPD2    C1 5150   1.551   0.698   9.271  0.2216 -0.2618 -0.3893
  340MPD2    C2 5151   1.644   0.754   9.357  0.6099 -0.3453 -0.3616
  340MPD2    C3 5152   1.620   0.878   9.421  0.2561 -0.6316  0.6449
  340MPD2    C4 5153   1.517   0.949   9.372 -0.7924  0.2679 -0.5886
  340MPD2    C5 5154   1.425   0.898   9.295 -0.7454  0.0893 -0.6538
  340MPD2     H 5155   1.739   0.702   9.367  1.1700  0.8732  0.6414
  340MPD2    H1 5156   1.493   1.038   9.429  3.2666 -0.4204  2.2713
  340MPD2    H2 5157   1.362   0.737   9.174 -0.2387  0.2274  0.3707
  340MPD2    H3 5158   1.337   0.953   9.265 -1.4853  0.0517  1.4650
  340MPD2     N 5159   1.702   0.935   9.529  1.0293  0.4967  0.2897
  340MPD2    H5 5160   1.683   1.027   9.567  1.5434 -0.3966  2.7390
  340MPD2    N1 5161   1.564   0.572   9.209  0.3384  0.0134  0.0852
  340MPD2    H7 5162   1.479   0.549   9.159  0.0931  3.0715 -0.9133
  341TMC3    C1 5163   1.645   0.368   9.139 -0.8706 -0.7447 -0.5167
  341TMC3    C2 5164   1.516   0.313   9.127  0.1759 -0.5829  0.1900
  341TMC3    C3 5165   1.495   0.200   9.063 -0.8317  0.4811 -0.5197
  341TMC3    C4 5166   1.753   0.290   9.097 -0.0695  0.7907  0.1542
  341TMC3    C5 5167   1.719   0.174   9.031 -0.1632 -0.1555  0.2905
  341TMC3    C6 5168   1.592   0.128   9.007 -0.1229 -0.3020  0.0092
  341TMC3     C 5169   1.668   0.486   9.216 -0.2512  0.3509  0.2858
  341TMC3     O 5170   1.780   0.506   9.264 -0.5100 -0.0951 -0.9158
  341TMC3     H 5171   1.439   0.373   9.174 -0.4942 -1.4314  0.1705
  341TMC3    H1 5172   1.858   0.311   9.110 -0.1209 -0.2098  2.2495
  341TMC3    H2 5173   1.570   0.029   8.968  0.0260 -0.1483 -0.4594
  341TMC3    C7 5174   1.818   0.081   8.997  0.5659 -0.1788  0.2572
  341TMC3    C8 5175   1.361   0.149   9.054  0.3696  0.3190 -0.4066
  341TMC3    O1 5176   1.916   0.091   9.071  0.2742 -0.4937  0.2456
  341TMC3    O2 5177   1.355   0.030   9.017 -0.1001  0.3410 -0.1102
  342MPD2     C 5178   4.140   3.682  17.423 -0.4964 -0.1080  0.5158
  342MPD2    C1 5179   4.223   3.698  17.322  0.4079  0.1854 -0.6506
  342MPD2    C2 5180   4.293   3.816  17.304  0.7327 -0.7587 -0.0888
  342MPD2    C3 5181   4.278   3.924  17.399  0.0967 -0.1127 -0.3861
  342MPD2    C4 5182   4.183   3.908  17.500 -0.0039  0.7218 -0.0638
  342MPD2    C5 5183   4.121   3.786  17.519  0.0431  0.2900  0.0445
  342MPD2     H 5184   4.367   3.824  17.226  0.5077  1.1968 -0.1082
  342MPD2    H1 5185   4.147   3.994  17.556 -0.9809 -0.5524  1.2809
  342MPD2    H2 5186   4.085   3.590  17.437 -1.0682  0.0654 -0.5262
  342MPD2    H3 5187   4.044   3.778  17.595  0.4155 -0.9605  0.2982
  342MPD2     N 5188   4.346   4.047  17.399  0.4188  0.3674 -0.2838
  342MPD2    H5 5189   4.331   4.108  17.479  0.7810 -0.1798  0.2063
  342MPD2    N1 5190   4.266   3.589  17.234 -0.3109  0.5856  0.0353
  342MPD2    H7 5191   4.328   3.618  17.159  0.2914  0.3729  0.4428
  343TMC3    C1 5192   4.287   3.398  17.125  0.3100 -0.0819  0.0762
  343TMC3    C2 5193   4.407   3.441  17.076 -0.4539  0.3757 -0.9858
  343TMC3    C3 5194   4.471   3.364  16.978  0.2668 -0.2089 -0.8054
  343TMC3    C4 5195   4.244   3.272  17.100  0.2101  0.5498  0.3907
  343TMC3    C5 5196   4.311   3.194  17.002 -0.2763  0.3837 -0.0850
  343TMC3    C6 5197   4.416   3.245  16.931 -0.3622 -0.8249 -0.0184
  343TMC3     C 5198   4.216   3.463  17.231 -0.0504  0.4927 -0.4167
  343TMC3     O 5199   4.162   3.391  17.317 -0.7692 -0.3643  0.2949
  343TMC3     H 5200   4.446   3.539  17.100 -2.1229  0.5769  0.9006
  343TMC3    H1 5201   4.166   3.232  17.163  1.7955  1.8467  3.1796
  343TMC3    H2 5202   4.449   3.194  16.842 -0.1837 -1.4689  0.4180
  343TMC3    C7 5203   4.263   3.060  16.978  0.1271 -0.7526  0.0075
  343TMC3    C8 5204   4.596   3.415  16.919  0.4745  0.1687 -0.1012
  343TMC3    O1 5205   4.143   3.033  16.988  0.3593 -0.1418 -0.1423
  343TMC3    O2 5206   4.625   3.528  16.950 -0.1400  0.1590  0.1976
  344MPD2     C 5207   0.896   3.286  10.447 -0.5106  0.2342  1.0635
  344MPD2    C1 5208   0.769   3.338  10.455 -0.1387 -0.2953  0.8527
  344MPD2    C2 5209   0.752   3.463  10.395 -0.3798  0.4459 -0.2176
  344MPD2    C3 5210   0.859   3.527  10.336  0.0911 -0.0594 -0.0878
  344MPD2    C4 5211   0.980   3.471  10.339  0.3600  0.0252  0.2403
  344MPD2    C5 5212   0.998   3.340  10.383  0.1102 -0.2066 -0.3030
  344MPD2     H 5213   0.656   3.512  10.389 -0.7907 -0.1704  1.3907
  344MPD2    H1 5214   1.070   3.521  10.305  0.5999  0.3056  1.2985
  344MPD2    H2 5215   0.916   3.194  10.500 -0.3915 -2.0196 -2.8487
  344MPD2    H3 5216   1.098   3.302  10.372  0.2045 -0.3838  1.1895
  344MPD2     N 5217   0.848   3.664  10.295 -0.7190 -0.0849  0.3925
  344MPD2    H5 5218   0.937   3.712  10.283 -0.4468 -1.1957 -2.0571
  344MPD2    N1 5219   0.675   3.272  10.532  0.2864  0.0661  0.2204
  344MPD2    H7 5220   0.717   3.203  10.594 -2.0203 -0.3818  1.2605
  345TMC3    C1 5221   0.754   3.880  10.278  0.5403  0.8268 -0.4909
  345TMC3    C2 5222   0.887   3.921  10.312 -0.3662  0.2084 -0.1564
  345TMC3    C3 5223   0.905   4.056  10.283  0.0666 -0.0599  0.0860
  345TMC3    C4 5224   0.648   3.950  10.237 -0.0327  0.6757 -0.3991
  345TMC3    C5 5225   0.677   4.078  10.207 -0.1818 -0.3484  0.3592
  345TMC3    C6 5226   0.798   4.128  10.236 -0.0768 -0.1163 -0.0357
  345TMC3     C 5227   0.733   3.739  10.277 -0.1901 -0.2522 -0.0550
  345TMC3     O 5228   0.621   3.692  10.253 -0.2892  0.1856 -0.0332
  345TMC3     H 5229   0.955   3.860  10.371 -1.2998 -1.7746 -1.1528
  345TMC3    H1 5230   0.555   3.900  10.213  0.3862 -0.6752  0.8069
  345TMC3    H2 5231   0.809   4.234  10.215  1.5624 -0.8824 -3.0576
  345TMC3    C7 5232   0.583   4.173  10.141  0.1563  1.2194  0.4637
  345TMC3    C8 5233   1.037   4.115  10.255  1.1578  0.7151  0.4703
  345TMC3    O1 5234   0.627   4.274  10.088  0.3564 -0.0393 -0.1136
  345TMC3    O2 5235   1.038   4.221  10.193  0.4225 -0.1947  0.1446
  346MPD2     C 5236   0.299   0.085  13.985  0.2655  0.3220  0.9611
  346MPD2    C1 5237   0.432   0.055  13.980  0.4758  0.8787  0.1230
  346MPD2    C2 5238   0.510   0.105  14.079  0.1795 -0.4485  0.3732
  346MPD2    C3 5239   0.451   0.183  14.183 -0.5059 -0.2066 -0.0088
  346MPD2    C4 5240   0.323   0.204  14.189 -0.1802 -0.1479  0.1671
  346MPD2    C5 5241   0.240   0.162  14.089 -0.3329 -0.1006  0.0869
  346MPD2     H 5242   0.617   0.089  14.070  0.8812  3.1062  2.5881
  346MPD2    H1 5243   0.280   0.270  14.263  2.0708  1.0786  0.3986
  346MPD2    H2 5244   0.228   0.055  13.908  1.0134  1.0610 -0.0176
  346MPD2    H3 5245   0.137   0.196  14.081 -1.1907 -2.9736 -1.2901
  346MPD2     N 5246   0.541   0.243  14.275  0.8880 -0.1352 -0.1719
  346MPD2    H5 5247   0.638   0.230  14.250  0.8544 -1.4062  0.3493
  346MPD2    N1 5248   0.489   0.002  13.861  0.1489 -0.1444 -0.9587
  346MPD2    H7 5249   0.591   4.735  13.859  0.1172 -2.1101  2.4566
  347TMC3    C1 5250   0.636   0.382  14.446  0.3346 -0.0696 -0.5824
  347TMC3    C2 5251   0.748   0.384  14.369  0.4033 -0.2781 -0.3703
  347TMC3    C3 5252   0.860   0.419  14.422 -0.1783 -0.2686 -0.5816
  347TMC3    C4 5253   0.640   0.406  14.578  0.1842  0.0482 -0.3167
  347TMC3    C5 5254   0.763   0.446  14.631  0.6352  0.1209 -0.4253
  347TMC3    C6 5255   0.874   0.446  14.554 -0.0053  0.4348  0.4079
  347TMC3     C 5256   0.520   0.326  14.383 -0.4263 -0.1860  0.7671
  347TMC3     O 5257   0.416   0.357  14.435 -0.0793 -0.1708  0.4565
  347TMC3     H 5258   0.744   0.369  14.262 -2.9534 -1.6196 -0.0396
  347TMC3    H1 5259   0.548   0.390  14.633  0.8733  1.0524  1.1602
  347TMC3    H2 5260   0.977   0.456  14.587 -0.1789 -1.5492  1.4960
  347TMC3    C7 5261   0.780   0.482  14.763  0.3357 -0.3997 -0.5280
  347TMC3    C8 5262   0.977   0.377  14.337 -0.4085  0.3145  0.9783
  347TMC3    O1 5263   0.897   0.518  14.791  0.7231  0.1693 -0.6750
  347TMC3    O2 5264   0.954   0.305  14.242 -0.4507 -0.4715 -0.0890
  348MPD2     C 5265   4.278   4.435  11.880 -0.3178  0.3968 -0.2675
  348MPD2    C1 5266   4.400   4.399  11.823  0.7489 -0.0265 -1.0191
  348MPD2    C2 5267   4.439   4.451  11.696  0.1574  0.1542 -0.2964
  348MPD2    C3 5268   4.359   4.550  11.636  0.4316  0.2029  0.1926
  348MPD2    C4 5269   4.245   4.590  11.702 -0.2202  0.6677 -0.2534
  348MPD2    C5 5270   4.197   4.528  11.811 -0.4328  0.4239  0.4870
  348MPD2     H 5271   4.520   4.408  11.639 -1.8896 -2.2521 -1.3800
  348MPD2    H1 5272   4.188   4.670  11.658 -0.9049 -0.3708 -1.2423
  348MPD2    H2 5273   4.243   4.382  11.968  0.4484  2.2906  1.1682
  348MPD2    H3 5274   4.101   4.554  11.853  0.0389  0.8878  1.2937
  348MPD2     N 5275   4.393   4.607  11.508 -0.4069 -0.1228  0.5230
  348MPD2    H5 5276   4.313   4.653  11.465 -1.2867 -0.2441  2.0199
  348MPD2    N1 5277   4.490   4.314  11.898  0.0741  0.0954 -0.0302
  348MPD2    H7 5278   4.573   4.301  11.842  0.7693  1.9979  0.5449
  349TMC3    C1 5279   4.538   4.110  11.987 -0.0410 -0.7862  0.6016
  349TMC3    C2 5280   4.482   4.006  12.065 -0.0805  0.0657 -0.3671
  349TMC3    C3 5281   4.459   3.886  12.008 -0.0104  0.4241 -0.1257
  349TMC3    C4 5282   4.580   4.088  11.858  0.3427 -0.5993 -0.3870
  349TMC3    C5 5283   4.545   3.964  11.799 -0.1130  0.4759  0.6013
  349TMC3    C6 5284   4.477   3.870  11.873  0.1956 -0.5189 -0.7009
  349TMC3     C 5285   4.459   4.229  12.001  0.1730  1.0072  0.9234
  349TMC3     O 5286   4.366   4.223  12.073  0.3565 -0.3820 -0.0423
  349TMC3     H 5287   4.465   4.022  12.171  1.9220 -1.3950  0.1852
  349TMC3    H1 5288   4.634   4.160  11.798 -1.9059  0.5521 -1.0186
  349TMC3    H2 5289   4.472   3.773  11.825 -2.5363  0.3849 -2.2600
  349TMC3    C7 5290   4.512   3.975  11.659 -0.6836 -0.0480 -0.0839
  349TMC3    C8 5291   4.486   3.771  12.098  0.0096  0.3295 -0.1301
  349TMC3    O1 5292   4.411   3.911  11.627  0.0778 -0.7668 -0.8060
  349TMC3    O2 5293   4.429   3.776  12.211 -0.0046 -0.5135  0.0649
  350MPD2     C 5294   3.679   2.797  10.185  0.0649  0.0190 -0.1472
  350MPD2    C1 5295   3.641   2.675  10.231 -0.0881 -0.3136  0.5982
  350MPD2    C2 5296   3.626   2.666  10.364 -0.3929 -0.2274 -0.6586
  350MPD2    C3 5297   3.657   2.755  10.466  0.0796 -0.5598 -0.2453
  350MPD2    C4 5298   3.711   2.879  10.417 -0.2436  0.5359 -0.2299
  350MPD2    C5 5299   3.720   2.896  10.281  0.1390 -0.4504 -0.6951
  350MPD2     H 5300   3.589   2.570  10.399  0.1511 -0.6685 -1.2897
  350MPD2    H1 5301   3.747   2.960  10.480 -0.6139  1.0199 -0.6406
  350MPD2    H2 5302   3.692   2.827  10.082 -1.2196  1.5427  0.1441
  350MPD2    H3 5303   3.762   2.987  10.240  2.2287 -0.5732  1.1885
  350MPD2     N 5304   3.646   2.721  10.602  0.2482 -0.3838 -0.9795
  350MPD2    H5 5305   3.626   2.625  10.625  0.9612 -0.4468 -0.6024
  350MPD2    N1 5306   3.588   2.572  10.145  0.6297 -0.0000  0.1633
  350MPD2    H7 5307   3.550   2.496  10.201  0.8233 -0.0247  0.2613
  351TMC3    C1 5308   3.556   2.432   9.959  0.3707 -0.0217  0.5636
  351TMC3    C2 5309   3.601   2.404   9.842  1.2638 -0.7001 -1.0083
  351TMC3    C3 5310   3.555   2.287   9.786 -0.3404  0.8538  0.6527
  351TMC3    C4 5311   3.446   2.363  10.018  0.0848  0.4508  0.0382
  351TMC3    C5 5312   3.416   2.245   9.966 -0.5535  0.1482  0.2686
  351TMC3    C6 5313   3.473   2.195   9.850  0.0341 -0.3304 -0.0784
  351TMC3     C 5314   3.605   2.562  10.014  0.1289 -0.2149 -0.3424
  351TMC3     O 5315   3.680   2.630   9.945 -0.5999 -0.2109  0.2733
  351TMC3     H 5316   3.672   2.476   9.802  1.5214 -1.4051 -1.8160
  351TMC3    H1 5317   3.410   2.393  10.116 -0.5454  0.4517 -0.1949
  351TMC3    H2 5318   3.438   2.105   9.802 -1.0799 -1.3467  2.6122
  351TMC3    C7 5319   3.306   2.175  10.034 -0.3413  0.1352  0.2036
  351TMC3    C8 5320   3.567   2.269   9.642 -0.3219  0.0071 -0.1647
  351TMC3    O1 5321   3.283   2.220  10.150  0.1412 -0.7995 -0.0104
  351TMC3    O2 5322   3.495   2.178   9.598  0.3002  0.3350  0.3199
  352MPD2     C 5323   2.295   0.388   0.767  0.6021  0.7491  0.4432
  352MPD2    C1 5324   2.210   0.302   0.831 -0.6034 -0.2621 -0.5308
  352MPD2    C2 5325   2.243   0.167   0.841 -0.2807  0.1921  0.2827
  352MPD2    C3 5326   2.370   0.125   0.793  0.1523 -0.4025 -0.1110
  352MPD2    C4 5327   2.459   0.219   0.730  0.0134 -0.0908  0.2126
  352MPD2    C5 5328   2.417   0.349   0.726  0.5305  0.2691  0.5924
  352MPD2     H 5329   2.175   0.098   0.889 -0.1881  0.2530  0.5035
  352MPD2    H1 5330   2.563   0.200   0.707 -0.3649 -0.1881 -1.4481
  352MPD2    H2 5331   2.275   0.494   0.777 -0.0822  0.8314 -1.8296
  352MPD2    H3 5332   2.495   0.420   0.699 -0.4888  0.9301 -0.6086
  352MPD2     N 5333   2.415   4.729   0.805  0.2059  0.3790  0.3279
  352MPD2    H5 5334   2.500   4.704   0.755  0.1860 -1.2165  1.0874
  352MPD2    N1 5335   2.088   0.355   0.877  0.2187 -0.2662 -0.4125
  352MPD2    H7 5336   2.074   0.454   0.858  1.2826 -0.0308  0.0741
  353TMC3    C1 5337   2.376   4.489   0.823 -0.4306  0.6536  0.4656
  353TMC3    C2 5338   2.498   4.439   0.850  0.4602 -0.1079  0.0134
  353TMC3    C3 5339   2.512   4.306   0.820  0.2692 -0.0434 -0.7373
  353TMC3    C4 5340   2.265   4.416   0.790 -0.0337 -0.1967 -0.0362
  353TMC3    C5 5341   2.286   4.283   0.767 -0.2343 -0.4751  0.0149
  353TMC3    C6 5342   2.409   4.230   0.763 -0.1243  0.0040 -0.0411
  353TMC3     C 5343   2.339   4.626   0.865  0.0097 -0.4271  0.2631
  353TMC3     O 5344   2.233   4.631   0.929 -0.0282 -0.0282  0.2444
  353TMC3     H 5345   2.578   4.498   0.892 -1.0264  2.4196 -0.6937
  353TMC3    H1 5346   2.172   4.460   0.758  0.9599 -0.3037 -3.0192
  353TMC3    H2 5347   2.422   4.126   0.735  0.9774 -0.0229  0.5735
  353TMC3    C7 5348   2.163   4.202   0.781 -0.5321  0.0543 -0.0424
  353TMC3    C8 5349   2.615   4.241   0.894 -0.2232  0.4078 -0.1028
  353TMC3    O1 5350   2.161   4.092   0.732  0.2166 -0.8899  0.0888
  353TMC3    O2 5351   2.704   4.313   0.942 -0.2975 -0.1345 -0.3413
  354TMC3    C1 5352   3.230   1.182  13.132  0.2924 -0.3970 -0.4445
  354TMC3    C2 5353   3.221   1.319  13.095  0.0223  0.1851 -0.8161
  354TMC3    C3 5354   3.291   1.362  12.984  0.6576  0.4172  0.5741
  354TMC3    C4 5355   3.308   1.093  13.058 -0.5970 -0.3384 -0.1682
  354TMC3    C5 5356   3.376   1.142  12.949  0.0374  0.5240 -0.9146
  354TMC3    C6 5357   3.358   1.270  12.906  0.2713  0.5588 -0.0142
  354TMC3     C 5358   3.183   1.128  13.254  0.1415 -0.2820  0.1735
  354TMC3     O 5359   3.221   1.011  13.276  0.2847 -0.2464  0.1303
  354TMC3     H 5360   3.156   1.395  13.138 -1.2688 -1.8505  0.8538
  354TMC3    H1 5361   3.287   0.990  13.082 -1.0217 -0.3680 -0.6579
  354TMC3    H2 5362   3.384   1.295  12.804 -1.5027 -1.8768 -1.0598
  354TMC3    C7 5363   3.476   1.062  12.884 -0.1313 -0.1068 -0.0172
  354TMC3    C8 5364   3.291   1.504  12.943 -0.3027 -0.2242 -0.3577
  354TMC3    O1 5365   3.521   1.093  12.773 -0.1878  0.3591 -0.0970
  354TMC3    O2 5366   3.200   1.579  12.979 -0.2527  0.1844  0.5824
  355MPD2     C 5367   3.989   1.605  11.712 -0.6086  0.0010  0.2040
  355MPD2    C1 5368   4.003   1.677  11.599 -0.9321 -0.6984 -0.6725
  355MPD2    C2 5369   4.127   1.728  11.567 -0.0801  0.6272 -0.2920
  355MPD2    C3 5370   4.231   1.720  11.658 -0.0692 -0.2499  0.1273
  355MPD2    C4 5371   4.213   1.644  11.769  0.2697  0.4509  0.2244
  355MPD2    C5 5372   4.097   1.587  11.793 -0.2796  0.3175 -0.4172
  355MPD2     H 5373   4.140   1.775  11.471 -0.6683  0.1574 -0.6020
  355MPD2    H1 5374   4.280   1.642  11.855 -1.2933  0.6775  1.4449
  355MPD2    H2 5375   3.896   1.561  11.745 -1.0582  0.4889 -0.4155
  355MPD2    H3 5376   4.079   1.540  11.889 -2.9533  2.3722  0.0854
  355MPD2     N 5377   4.348   1.795  11.648  0.3178  0.1121 -0.3015
  355MPD2    H5 5378   4.432   1.778  11.703 -0.2255 -2.0152 -0.1272
  355MPD2    N1 5379   3.877   1.698  11.530  0.5306  0.0428 -0.1162
  355MPD2    H7 5380   3.804   1.633  11.556  0.3082  0.3188 -0.0507
  356TMC3    C1 5381   4.460   1.987  11.580 -0.6011 -0.2716  0.7759
  356TMC3    C2 5382   4.467   2.094  11.485  0.1134 -0.2554 -0.4091
  356TMC3    C3 5383   4.512   2.212  11.531  0.0513 -0.3790 -0.3120
  356TMC3    C4 5384   4.485   2.005  11.718  0.0141 -0.5745 -0.1864
  356TMC3    C5 5385   4.518   2.128  11.753  0.5453 -0.6671  0.5243
  356TMC3    C6 5386   4.551   2.232  11.665 -0.1819  0.2561 -0.1044
  356TMC3     C 5387   4.371   1.878  11.544  0.6979  0.3435 -0.3310
  356TMC3     O 5388   4.329   1.878  11.429 -0.1462 -0.4138 -0.0823
  356TMC3     H 5389   4.433   2.090  11.382 -0.5456  2.4457 -0.2973
  356TMC3    H1 5390   4.485   1.922  11.789  1.7382  0.0853  0.5914
  356TMC3    H2 5391   4.560   2.330  11.712 -0.4770  0.8969 -1.3827
  356TMC3    C7 5392   4.522   2.149  11.895 -0.1934  0.3297 -0.7891
  356TMC3    C8 5393   4.555   2.311  11.432 -1.0093 -0.4701  0.9643
  356TMC3    O1 5394   4.485   2.060  11.968 -0.5068  0.3131  0.0505
  356TMC3    O2 5395   4.515   2.310  11.316 -0.1679 -0.2329  0.0300
  357MPD2     C 5396   2.706   1.329   0.714  0.6915  0.2493  0.1373
  357MPD2    C1 5397   2.774   1.234   0.791 -0.0246 -0.0076 -0.0539
  357MPD2    C2 5398   2.701   1.152   0.872 -0.4667 -0.1532 -0.0912
  357MPD2    C3 5399   2.563   1.147   0.867  0.0429 -0.3119 -0.1027
  357MPD2    C4 5400   2.497   1.240   0.794  0.0379 -0.2121  0.9197
  357MPD2    C5 5401   2.566   1.328   0.711  0.0622 -1.4624 -0.2134
  357MPD2     H 5402   2.754   1.078   0.931 -0.1975  0.1972  0.1095
  357MPD2    H1 5403   2.389   1.239   0.800 -0.0096 -0.9830 -0.1577
  357MPD2    H2 5404   2.767   1.388   0.646  1.3728 -0.2254  0.3356
  357MPD2    H3 5405   2.509   1.398   0.650 -1.2767  0.0215  2.6935
  357MPD2     N 5406   2.487   1.054   0.947  0.4350  0.5733 -0.0282
  357MPD2    H5 5407   2.388   1.053   0.924 -0.1441  1.3260  2.5124
  357MPD2    N1 5408   2.910   1.220   0.771 -0.1066 -0.9120  0.2384
  357MPD2    H7 5409   2.942   1.269   0.688 -0.0657  0.9771  1.3511
  358TMC3    C1 5410   3.132   1.130   0.785  0.5355 -0.8005 -0.1950
  358TMC3    C2 5411   3.117   1.084   0.650  1.1841  1.0714 -0.0799
  358TMC3    C3 5412   3.189   0.972   0.610 -0.0035  0.3233  0.1482
  358TMC3    C4 5413   3.219   1.069   0.863 -0.0851  0.0240 -0.5113
  358TMC3    C5 5414   3.285   0.958   0.823  0.8544  0.3562  0.1148
  358TMC3    C6 5415   3.273   0.910   0.696  0.0543 -0.4711  0.1671
  358TMC3     C 5416   3.005   1.163   0.851 -0.8029 -0.0349  0.4457
  358TMC3     O 5417   2.988   1.121   0.966  0.2916  0.4042  0.0485
  358TMC3     H 5418   3.044   1.123   0.580  2.7904  0.9969 -1.7815
  358TMC3    H1 5419   3.227   1.101   0.966 -1.8209 -1.6300  0.1392
  358TMC3    H2 5420   3.351   0.850   0.651 -0.9939 -1.6597 -0.0415
  358TMC3    C7 5421   3.411   0.923   0.899 -0.2405  0.3808 -0.7313
  358TMC3    C8 5422   3.141   0.913   0.487 -0.5814  0.0686 -0.2857
  358TMC3    O1 5423   3.428   0.985   1.004  0.2400 -1.0117 -1.2396
  358TMC3    O2 5424   3.093   0.984   0.398  0.0610  0.4864 -0.2062
  359MPD2     C 5425   3.677   0.291  12.344  0.1153 -0.3226  0.2971
  359MPD2    C1 5426   3.741   0.208  12.252 -0.0961 -0.7190  0.1818
  359MPD2    C2 5427   3.675   0.092  12.216  0.1434 -0.1649  0.4348
  359MPD2    C3 5428   3.558   0.053  12.281  0.2124 -0.1801  0.5352
  359MPD2    C4 5429   3.509   0.137  12.380 -0.4634  0.0728 -0.3545
  359MPD2    C5 5430   3.566   0.257  12.407  0.1300  0.5437 -0.1485
  359MPD2     H 5431   3.706   0.038  12.127  0.7853 -0.2803  0.7314
  359MPD2    H1 5432   3.422   0.105  12.436  3.0133 -2.3660  3.7146
  359MPD2    H2 5433   3.732   0.375  12.384  0.2946 -0.4733  0.3656
  359MPD2    H3 5434   3.531   0.311  12.494 -2.4116  0.5798 -1.2025
  359MPD2     N 5435   3.473   4.688  12.251  0.0846 -0.4730  0.2166
  359MPD2    H5 5436   3.388   4.681  12.306  0.4223 -1.7190  0.5751
  359MPD2    N1 5437   3.861   0.229  12.191 -0.2913 -0.1486  0.2200
  359MPD2    H7 5438   3.885   0.171  12.111  2.2484  0.0123  0.8660
  360TMC3    C1 5439   4.044   0.347  12.116  0.1298  0.6469 -0.6912
  360TMC3    C2 5440   4.155   0.417  12.153  0.2043 -0.7527 -0.8261
  360TMC3    C3 5441   4.258   0.418  12.072 -0.6780  0.1543  0.0728
  360TMC3    C4 5442   4.034   0.287  11.992 -0.6942  0.3265 -0.0589
  360TMC3    C5 5443   4.142   0.293  11.910  0.7657 -0.3618  1.0684
  360TMC3    C6 5444   4.257   0.351  11.952  0.3780  0.2107 -0.4246
  360TMC3     C 5445   3.945   0.332  12.220 -0.3976 -0.0796  0.0502
  360TMC3     O 5446   3.948   0.407  12.317 -0.6191  0.2001  0.5929
  360TMC3     H 5447   4.178   0.442  12.256  2.0704  0.8178 -1.6294
  360TMC3    H1 5448   3.936   0.265  11.952 -1.0962 -0.9453  1.6383
  360TMC3    H2 5449   4.341   0.349  11.884  0.1594  4.5893 -0.8334
  360TMC3    C7 5450   4.141   0.240  11.774 -0.1500 -0.1139  0.4856
  360TMC3    C8 5451   4.363   0.520  12.084 -0.5260 -0.7495  0.2007
  360TMC3    O1 5452   4.230   0.276  11.696  0.0589 -0.8480 -0.0651
  360TMC3    O2 5453   4.333   0.605  12.166 -0.5055  0.7160  0.1358
  361MPD2     C 5454   0.969   4.222  16.665 -0.4228 -0.1787 -0.0296
  361MPD2    C1 5455   0.908   4.239  16.785  0.1443 -0.0518 -0.0327
  361MPD2    C2 5456   0.947   4.153  16.884  0.5202  0.1777  0.4350
  361MPD2    C3 5457   1.045   4.054  16.856 -0.0809 -0.5978  0.4598
  361MPD2    C4 5458   1.098   4.036  16.728 -0.3110  0.4341  0.6847
  361MPD2    C5 5459   1.062   4.127  16.636 -0.1172  0.0551  0.1708
  361MPD2     H 5460   0.898   4.168  16.979 -1.0852  0.4218 -0.4350
  361MPD2    H1 5461   1.174   3.961  16.709  0.3081  1.0512  0.7525
  361MPD2    H2 5462   0.946   4.297  16.590 -1.0148 -1.3600 -1.0243
  361MPD2    H3 5463   1.099   4.123  16.535  0.7623 -1.6127  0.5670
  361MPD2     N 5464   1.084   3.965  16.962  0.0971  0.3115  0.6023
  361MPD2    H5 5465   1.149   3.888  16.949 -0.4722 -0.3153  1.4597
  361MPD2    N1 5466   0.803   4.327  16.789  0.1328  0.0644 -0.5225
  361MPD2    H7 5467   0.778   4.361  16.697 -1.4899 -0.8550 -0.4273
  362TMC3    C1 5468   0.639   4.466  16.875 -0.5447 -0.6390 -0.1687
  362TMC3    C2 5469   0.531   4.471  16.958  0.1145 -0.0213 -0.8559
  362TMC3    C3 5470   0.433   4.568  16.934 -0.5476  0.2277  0.2565
  362TMC3    C4 5471   0.663   4.568  16.795  1.2856  0.6848  0.1368
  362TMC3    C5 5472   0.582   4.680  16.792 -0.3274 -0.0753  0.0329
  362TMC3    C6 5473   0.456   4.676  16.858 -0.0896  0.4267 -1.0799
  362TMC3     C 5474   0.737   4.364  16.899  0.1698 -0.0396  0.0027
  362TMC3     O 5475   0.761   4.329  17.014 -0.0962  0.3143  0.1932
  362TMC3     H 5476   0.522   4.389  17.029 -0.0594  0.7475  0.0145
  362TMC3    H1 5477   0.753   4.571  16.735  0.5558  1.1713 -0.9423
  362TMC3    H2 5478   0.377   0.010  16.849  0.3119  0.9268 -0.5309
  362TMC3    C7 5479   0.582   0.036  16.680  0.7734 -0.3088  0.8504
  362TMC3    C8 5480   0.304   4.536  16.985 -0.3871 -0.4759 -0.1384
  362TMC3    O1 5481   0.497   0.128  16.685  0.1164  0.1693 -0.3050
  362TMC3    O2 5482   0.261   4.419  16.977  0.5576 -0.7489 -0.0141
  363TMC3    C1 5483   3.843   1.714   8.449  0.1336  0.3446 -0.3545
  363TMC3    C2 5484   3.934   1.730   8.549  0.3081 -0.0215 -0.0390
  363TMC3    C3 5485   3.973   1.859   8.574  0.2519  0.2304  0.2408
  363TMC3    C4 5486   3.783   1.822   8.382  0.2484  0.4995  0.5170
  363TMC3    C5 5487   3.837   1.943   8.402 -0.5165 -0.5484 -0.4938
  363TMC3    C6 5488   3.933   1.967   8.500 -0.6602 -0.0190 -0.4537
  363TMC3     C 5489   3.780   1.580   8.444  0.4831 -0.9181  0.4688
  363TMC3     O 5490   3.792   1.511   8.544 -0.4450 -0.3470  0.4086
  363TMC3     H 5491   3.963   1.643   8.607 -1.9724 -0.1417  0.9629
  363TMC3    H1 5492   3.693   1.811   8.323  0.4723 -1.7729  0.5662
  363TMC3    H2 5493   3.983   2.063   8.498  1.3223 -1.0556 -0.8318
  363TMC3    C7 5494   3.781   2.051   8.322  0.6192  0.3837  0.2930
  363TMC3    C8 5495   4.088   1.887   8.656  0.3070 -0.0793 -0.5692
  363TMC3    O1 5496   3.758   2.030   8.202 -0.1130 -0.0646 -0.8279
  363TMC3    O2 5497   4.119   2.001   8.680 -0.2371 -0.2944 -0.0026
  364MPD2     C 5498   3.308   1.287   9.997  0.5745 -0.1342  0.4199
  364MPD2    C1 5499   3.342   1.310  10.125 -0.1190 -0.6927 -0.3292
  364MPD2    C2 5500   3.324   1.202  10.213 -0.4969  0.3852 -0.0538
  364MPD2    C3 5501   3.281   1.076  10.180  0.7545  0.0432 -0.1776
  364MPD2    C4 5502   3.245   1.058  10.044  0.1632 -0.7034 -0.3131
  364MPD2    C5 5503   3.265   1.163   9.951  0.1135  0.0741 -0.2914
  364MPD2     H 5504   3.345   1.218  10.318 -3.1581  0.5837  0.4648
  364MPD2    H1 5505   3.200   0.970  10.001 -1.7574  0.5989 -0.9957
  364MPD2    H2 5506   3.314   1.358   9.916  0.5929  2.3122  2.5547
  364MPD2    H3 5507   3.233   1.159   9.847 -0.6177 -0.7018 -0.0303
  364MPD2     N 5508   3.261   0.970  10.266  0.1262 -0.2635 -0.1265
  364MPD2    H5 5509   3.218   0.886  10.231 -0.2715 -0.1365  0.0563
  364MPD2    N1 5510   3.377   1.443  10.173  0.1662  0.0321 -0.1534
  364MPD2    H7 5511   3.379   1.515  10.102 -1.5341  1.8336  1.6157
  365TMC3    C1 5512   3.435   1.620  10.307 -0.7094  0.1719 -0.4631
  365TMC3    C2 5513   3.474   1.681  10.186 -0.2707  0.8991 -0.1114
  365TMC3    C3 5514   3.501   1.812  10.202  0.1480  0.0254  0.1866
  365TMC3    C4 5515   3.416   1.681  10.428  0.8218 -0.4843 -0.3824
  365TMC3    C5 5516   3.431   1.817  10.429 -0.0140 -0.6188  0.0413
  365TMC3    C6 5517   3.487   1.884  10.318  0.0529 -0.4948 -0.0552
  365TMC3     C 5518   3.410   1.479  10.300  0.1727 -0.1210 -0.5483
  365TMC3     O 5519   3.418   1.423  10.411  0.3980  0.2073 -0.2413
  365TMC3     H 5520   3.489   1.629  10.091  1.2644 -1.7122  1.5463
  365TMC3    H1 5521   3.382   1.631  10.518  0.2673 -2.5743 -1.7555
  365TMC3    H2 5522   3.484   1.992  10.318 -0.6603 -0.5215  1.3697
  365TMC3    C7 5523   3.421   1.890  10.552  0.1095  0.2316 -0.1469
  365TMC3    C8 5524   3.570   1.883  10.091 -0.3418  0.0265  0.6942
  365TMC3    O1 5525   3.491   1.991  10.554  0.0046 -0.7332 -0.2553
  365TMC3    O2 5526   3.623   1.990  10.116  0.4023 -0.2666  0.8511
  366MPD2     C 5527   0.956   2.133  15.469 -0.0223 -0.3535 -0.0747
  366MPD2    C1 5528   1.040   2.227  15.418  0.2234 -0.2294 -0.1167
  366MPD2    C2 5529   1.174   2.185  15.397 -0.2568 -0.4897 -0.1833
  366MPD2    C3 5530   1.222   2.060  15.426 -0.2665 -0.1539 -0.7281
  366MPD2    C4 5531   1.136   1.971  15.487 -0.3873  0.2595  0.6417
  366MPD2    C5 5532   1.007   2.010  15.501  0.4688  0.2159 -0.1392
  366MPD2     H 5533   1.248   2.257  15.364 -0.7150 -0.5222 -1.2529
  366MPD2    H1 5534   1.164   1.878  15.536 -1.2403  0.4256  1.4308
  366MPD2    H2 5535   0.852   2.150  15.496  0.3160  0.2564  0.8513
  366MPD2    H3 5536   0.945   1.940  15.556 -1.6632  1.9224 -0.3954
  366MPD2     N 5537   1.360   2.049  15.421 -0.2456  0.3607 -0.1120
  366MPD2    H5 5538   1.412   2.120  15.371 -1.0500  0.9589 -0.0973
  366MPD2    N1 5539   1.008   2.366  15.400 -0.3530  0.4401  0.4424
  366MPD2    H7 5540   1.091   2.423  15.390 -0.3019  0.0884 -1.1473
  367TMC3    C1 5541   0.894   2.558  15.367  0.2640 -0.3424 -0.2305
  367TMC3    C2 5542   0.996   2.625  15.429 -0.1879  0.0055  0.1584
  367TMC3    C3 5543   1.025   2.756  15.392 -0.7503 -0.2514  0.1225
  367TMC3    C4 5544   0.837   2.609  15.253 -0.3021 -0.1840 -0.0393
  367TMC3    C5 5545   0.865   2.740  15.223 -0.8514  0.3761 -0.4018
  367TMC3    C6 5546   0.953   2.818  15.289 -0.0297 -0.0054 -0.2828
  367TMC3     C 5547   0.881   2.420  15.387  0.4953  0.5709 -0.4725
  367TMC3     O 5548   0.773   2.363  15.366  0.1699  0.0515 -0.4115
  367TMC3     H 5549   1.042   2.571  15.511 -0.4224 -0.4258  0.0020
  367TMC3    H1 5550   0.748   2.560  15.216  1.0063 -0.0815 -3.3440
  367TMC3    H2 5551   0.983   2.921  15.270 -0.4671  0.4453  1.4047
  367TMC3    C7 5552   0.791   2.802  15.116 -0.4924 -0.3532  0.1573
  367TMC3    C8 5553   1.128   2.820  15.464  0.1035 -0.5118 -0.2196
  367TMC3    O1 5554   0.815   2.917  15.099  0.0990 -0.1189 -0.4716
  367TMC3    O2 5555   1.151   2.771  15.575  0.1594 -0.1742 -0.2761
  368MPD2     C 5556   2.699   4.080  13.458 -0.6749  0.3357 -0.3548
  368MPD2    C1 5557   2.721   4.183  13.371 -0.4569  0.5850  0.0613
  368MPD2    C2 5558   2.833   4.181  13.290 -0.4817  0.0299 -0.8736
  368MPD2    C3 5559   2.927   4.086  13.291 -1.2764 -0.0109  0.2730
  368MPD2    C4 5560   2.913   3.988  13.390 -0.1735 -0.1626  0.1391
  368MPD2    C5 5561   2.800   3.982  13.468 -0.0765 -0.0264 -0.1359
  368MPD2     H 5562   2.822   4.235  13.196 -0.5809  3.1417  0.9134
  368MPD2    H1 5563   2.991   3.913  13.398 -1.4266 -1.2439  2.2234
  368MPD2    H2 5564   2.611   4.081  13.522  0.1736 -0.6869  0.8268
  368MPD2    H3 5565   2.768   3.902  13.534  0.0500 -2.3090 -2.8230
  368MPD2     N 5566   3.035   4.070  13.201  0.0917  0.0306 -0.0680
  368MPD2    H5 5567   3.092   3.987  13.212  0.1372 -0.1593 -1.7222
  368MPD2    N1 5568   2.619   4.286  13.360  0.1495  0.1241  0.1930
  368MPD2    H7 5569   2.526   4.264  13.395  0.6669 -1.6361  0.4478
  369TMC3    C1 5570   2.512   4.449  13.231 -0.2053  0.7405  0.5728
  369TMC3    C2 5571   2.532   4.575  13.178  0.1793 -0.3177  0.3189
  369TMC3    C3 5572   2.435   4.627  13.096 -0.1127 -0.4891 -0.0869
  369TMC3    C4 5573   2.403   4.377  13.212 -0.7188 -0.1475 -0.5017
  369TMC3    C5 5574   2.302   4.434  13.147  0.5588 -0.0361  0.2363
  369TMC3    C6 5575   2.320   4.560  13.084 -0.0323 -0.0928 -0.5394
  369TMC3     C 5576   2.635   4.397  13.275 -0.3768  0.4696  0.3985
  369TMC3     O 5577   2.734   4.455  13.242 -0.4956  0.2483  0.6700
  369TMC3     H 5578   2.621   4.633  13.200  0.4760 -0.9081  0.6700
  369TMC3    H1 5579   2.384   4.280  13.255  1.4638 -0.2819  0.1617
  369TMC3    H2 5580   2.244   4.598  13.017  1.7609 -0.4973 -2.7933
  369TMC3    C7 5581   2.172   4.356  13.138 -0.6357  0.3149 -0.0059
  369TMC3    C8 5582   2.477   4.702  12.978 -0.0729 -0.2850 -0.7308
  369TMC3    O1 5583   2.150   4.274  13.227 -0.1805 -0.1342  0.0837
  369TMC3    O2 5584   2.401   0.033  12.912  0.1967 -0.4391 -0.1240
  370TMC3    C1 5585   1.846   0.440  16.105 -0.2763 -0.6256  0.4252
  370TMC3    C2 5586   1.783   0.359  16.198  0.5153  0.2792  0.1548
  370TMC3    C3 5587   1.713   0.255  16.157  0.1388  0.5058 -0.5437
  370TMC3    C4 5588   1.838   0.409  15.970 -0.0027 -0.3922  0.1760
  370TMC3    C5 5589   1.773   0.293  15.936  0.1978 -0.2294  0.0443
  370TMC3    C6 5590   1.712   0.214  16.025 -0.3509  0.0868 -0.3770
  370TMC3     C 5591   1.974   0.491  16.136  0.5217  0.6998 -0.0638
  370TMC3     O 5592   2.042   0.413  16.199 -0.1549 -0.0375  0.1042
  370TMC3     H 5593   1.819   0.375  16.299 -0.7703 -0.4309  0.7284
  370TMC3    H1 5594   1.905   0.455  15.898  1.4497  0.6638  2.2186
  370TMC3    H2 5595   1.648   0.140  15.978  0.1958  0.6328 -1.9854
  370TMC3    C7 5596   1.827   0.230  15.817  0.3926 -0.1738  0.2816
  370TMC3    C8 5597   1.648   0.169  16.254  0.0257  0.6484  0.4792
  370TMC3    O1 5598   1.862   0.308  15.731 -0.2189  0.1012  0.0297
  370TMC3    O2 5599   1.597   0.065  16.215 -0.5767 -0.0342  0.1017
  371TMC3    C1 5600   3.114   3.474  15.268 -0.0618  0.7473  0.6219
  371TMC3    C2 5601   2.995   3.452  15.332 -0.2167 -0.5019 -0.1767
  371TMC3    C3 5602   2.931   3.556  15.397  0.1206 -0.0399  0.3765
  371TMC3    C4 5603   3.167   3.601  15.258 -0.3366  0.5518 -0.2267
  371TMC3    C5 5604   3.102   3.697  15.323 -0.7030  0.2020 -0.6983
  371TMC3    C6 5605   2.994   3.681  15.404  0.2556 -0.1476  0.2363
  371TMC3     C 5606   3.207   3.366  15.230 -0.1611  0.9876  0.6435
  371TMC3     O 5607   3.319   3.396  15.203 -0.0470 -0.1531  0.2076
  371TMC3     H 5608   2.950   3.354  15.331 -1.5801  0.1228 -0.2889
  371TMC3    H1 5609   3.254   3.618  15.197 -0.4756  0.5188 -0.4334
  371TMC3    H2 5610   2.950   3.764  15.459 -1.2195  0.4797 -1.9045
  371TMC3    C7 5611   3.153   3.837  15.315 -0.1735  0.1447  0.3290
  371TMC3    C8 5612   2.853   3.511  15.509 -0.3638  0.4312 -0.5175
  371TMC3    O1 5613   3.099   3.923  15.384 -0.3744 -0.1018 -0.1370
  371TMC3    O2 5614   2.868   3.397  15.550 -0.1986  0.1789  0.6059
  372MPD2     C 5615   2.488   0.179  13.299 -0.6581 -0.2660  0.2729
  372MPD2    C1 5616   2.563   0.096  13.370 -0.3388  0.0584  0.8294
  372MPD2    C2 5617   2.491   4.735  13.439  0.1499  0.4839  0.0223
  372MPD2    C3 5618   2.356   4.728  13.424  0.2140  0.2253  0.5676
  372MPD2    C4 5619   2.286   0.075  13.350 -0.2424  0.0363 -0.2521
  372MPD2    C5 5620   2.351   0.176  13.287 -0.7009  0.1106 -0.0492
  372MPD2     H 5621   2.544   4.667  13.505  0.6800  0.1026 -0.7885
  372MPD2    H1 5622   2.180   0.077  13.330 -0.1262 -0.4562 -0.9297
  372MPD2    H2 5623   2.534   0.260  13.243 -0.6610 -0.9766 -0.7736
  372MPD2    H3 5624   2.296   0.254  13.236  0.4649  0.7899 -0.2709
  372MPD2     N 5625   2.287   4.627  13.492  0.1572 -0.7016 -0.2164
  372MPD2    H5 5626   2.342   4.574  13.558 -0.6140 -1.8894 -0.5375
  372MPD2    N1 5627   2.705   0.101  13.375 -0.6972 -0.6350  0.4002
  372MPD2    H7 5628   2.750   0.025  13.425 -1.2265 -0.1275  1.6379
  373TMC3    C1 5629   2.117   4.501  13.565  0.3808 -0.2332  0.0524
  373TMC3    C2 5630   2.154   4.510  13.699  0.7448  0.3429 -0.1513
  373TMC3    C3 5631   2.134   4.406  13.776  0.0312  0.4955  0.1029
  373TMC3    C4 5632   2.041   4.395  13.521  0.0835  0.0766  0.2562
  373TMC3    C5 5633   2.029   4.288  13.604  0.5644 -0.6076 -0.4739
  373TMC3    C6 5634   2.062   4.297  13.730  1.0096 -0.4569  0.3447
  373TMC3     C 5635   2.155   4.593  13.467 -0.7900  0.1888 -0.5368
  373TMC3     O 5636   2.071   4.606  13.381 -0.5992  0.1255 -0.4069
  373TMC3     H 5637   2.222   4.585  13.738 -0.2423  2.1302 -1.8766
  373TMC3    H1 5638   2.014   4.399  13.416  1.7350 -3.2939 -0.3057
  373TMC3    H2 5639   2.055   4.204  13.785  0.2536 -0.2549  0.5936
  373TMC3    C7 5640   1.963   4.165  13.562 -0.3032  0.3500 -0.1116
  373TMC3    C8 5641   2.229   4.394  13.892 -0.5351  0.5227  0.0719
  373TMC3    O1 5642   1.911   4.090  13.642 -0.6398  0.1053  0.1616
  373TMC3    O2 5643   2.330   4.463  13.891  0.6406  0.1820  0.2434
  374TMC3    C1 5644   3.239   4.709   9.787  0.1378  0.3307 -0.5841
  374TMC3    C2 5645   3.322   0.078   9.783  0.0078 -0.3098 -0.0260
  374TMC3    C3 5646   3.283   0.178   9.700  0.1533  0.2475 -0.3567
  374TMC3    C4 5647   3.119   4.712   9.722 -0.6818 -0.2247 -0.4719
  374TMC3    C5 5648   3.082   0.083   9.643 -0.4244  0.0973  0.0193
  374TMC3    C6 5649   3.165   0.190   9.628  0.2178  0.4582 -0.1336
  374TMC3     C 5650   3.271   4.597   9.877  0.1342  0.2067  0.5358
  374TMC3     O 5651   3.179   4.519   9.881  0.3269 -0.4484  0.3510
  374TMC3     H 5652   3.420   0.074   9.828  0.9576 -0.5436 -2.1099
  374TMC3    H1 5653   3.047   4.633   9.739 -0.4162  0.2354  2.6384
  374TMC3    H2 5654   3.143   0.272   9.560  1.9081  3.0077  2.3891
  374TMC3    C7 5655   2.947   0.097   9.593 -0.3591 -0.0705 -0.0928
  374TMC3    C8 5656   3.380   0.294   9.681 -0.3994 -0.3000 -0.4204
  374TMC3    O1 5657   2.910   0.213   9.581 -0.2952  0.2423  0.6585
  374TMC3    O2 5658   3.350   0.388   9.610 -0.0045 -0.4332  0.4860
  375MPD2     C 5659   3.441   0.478  17.194  0.6610 -0.2313 -0.7990
  375MPD2    C1 5660   3.378   0.465  17.067  0.5203  0.2814  0.1596
  375MPD2    C2 5661   3.425   0.371  16.982  1.1788 -0.2801  0.0050
  375MPD2    C3 5662   3.539   0.298  17.016  0.6237 -0.0706  0.2201
  375MPD2    C4 5663   3.587   0.306  17.144  0.3072 -0.1732  0.1109
  375MPD2    C5 5664   3.539   0.389  17.229  0.8259  0.2689  0.1937
  375MPD2     H 5665   3.370   0.350  16.891  1.6636  2.8056 -0.9955
  375MPD2    H1 5666   3.666   0.240  17.178 -0.5806 -1.3428 -0.1157
  375MPD2    H2 5667   3.394   0.535  17.275  0.5737 -0.7174 -0.5092
  375MPD2    H3 5668   3.580   0.378  17.328  0.1567 -2.7225  0.1254
  375MPD2     N 5669   3.589   0.186  16.938 -0.3363 -0.0992  0.2227
  375MPD2    H5 5670   3.636   0.116  16.995  3.0131  1.8502 -0.1539
  375MPD2    N1 5671   3.260   0.542  17.041 -0.2368 -0.0636  0.1480
  375MPD2    H7 5672   3.203   0.513  16.963 -0.3218 -2.4308  1.1161
  376TMC3    C1 5673   3.620   0.035  16.751 -0.6056  0.2882  0.2006
  376TMC3    C2 5674   3.741   4.736  16.803 -0.0610  0.5199 -0.1553
  376TMC3    C3 5675   3.827   4.657  16.729 -0.5528 -0.1675 -0.6780
  376TMC3    C4 5676   3.582   4.738  16.625  0.1447 -0.1849  0.5417
  376TMC3    C5 5677   3.655   4.646  16.557 -0.0268 -0.5111  0.0528
  376TMC3    C6 5678   3.780   4.621  16.604  0.1547  0.4821 -0.1752
  376TMC3     C 5679   3.563   0.159  16.805  0.1993 -0.7972 -0.3151
  376TMC3     O 5680   3.503   0.219  16.720 -0.1309  0.8381 -0.0171
  376TMC3     H 5681   3.761   0.025  16.905 -0.4245  1.3065 -0.2997
  376TMC3    H1 5682   3.490   0.029  16.577  1.0293  0.1123 -0.9626
  376TMC3    H2 5683   3.848   4.568  16.538  1.1266  1.1265  0.3094
  376TMC3    C7 5684   3.640   4.642  16.410 -0.9414 -0.0418 -0.5720
  376TMC3    C8 5685   3.975   4.669  16.747  0.0855  0.0619 -0.2332
  376TMC3    O1 5686   3.685   4.542  16.356  0.4493 -0.0534  0.3013
  376TMC3    O2 5687   4.034   4.647  16.650  0.6336  0.3919 -0.3226
  377MPD2     C 5688   1.854   4.699  12.840 -0.2008 -0.1201 -0.3680
  377MPD2    C1 5689   1.794   4.708  12.717 -0.1154  1.0819  0.1772
  377MPD2    C2 5690   1.660   4.675  12.712  0.1572 -0.3672 -0.7557
  377MPD2    C3 5691   1.580   4.644  12.822  0.7504  0.0966 -0.3800
  377MPD2    C4 5692   1.643   4.644  12.943  0.4640 -0.2681  0.3421
  377MPD2    C5 5693   1.778   4.669  12.949 -0.0215 -0.4269 -0.7077
  377MPD2     H 5694   1.617   4.675  12.613  0.8110 -0.2884 -1.0426
  377MPD2    H1 5695   1.592   4.616  13.035  1.2212  1.2399  1.2175
  377MPD2    H2 5696   1.961   4.712  12.844 -0.5619  3.2446 -0.9174
  377MPD2    H3 5697   1.824   4.658  13.047  0.5044  1.5322 -0.7318
  377MPD2     N 5698   1.447   4.605  12.826  1.0063  0.5752  0.2848
  377MPD2    H5 5699   1.418   4.573  12.917  0.4829  1.0030  0.2679
  377MPD2    N1 5700   1.879   4.735  12.607  0.6414  0.0470  0.1268
  377MPD2    H7 5701   1.979   4.735  12.624  1.0193  0.7846 -2.1833
  378TMC3    C1 5702   1.995   0.036  12.143 -0.3836 -0.5700  0.1400
  378TMC3    C2 5703   1.897   0.023  12.239 -0.2206  0.0958 -0.2752
  378TMC3    C3 5704   1.939   0.016  12.372 -0.2172 -0.4806  1.3831
  378TMC3    C4 5705   2.124   0.037  12.187  0.0802 -0.1459 -1.0699
  378TMC3    C5 5706   2.161   0.034  12.320 -0.0495  0.2131  0.8344
  378TMC3    C6 5707   2.067   0.019  12.412 -0.6111 -0.2536  0.1934
  378TMC3     C 5708   1.974   0.036  11.989  0.2515  1.1259 -0.5424
  378TMC3     O 5709   2.068   0.028  11.913  0.0354  0.3649 -0.6141
  378TMC3     H 5710   1.793   0.004  12.211 -1.5506  2.2917  3.2007
  378TMC3    H1 5711   2.202   0.064  12.116 -0.2535  2.6600 -0.3831
  378TMC3    H2 5712   2.095   0.008  12.516 -0.3454 -0.5975  0.0868
  378TMC3    C7 5713   2.289   4.718  12.355  0.9703 -0.1014  0.3929
  378TMC3    C8 5714   1.833   4.735  12.475  0.6710 -0.4686 -0.0516
  378TMC3    O1 5715   2.295   4.704  12.476 -0.6586 -0.8266 -0.4313
  378TMC3    O2 5716   1.719   4.726  12.432 -0.0359  0.4165  0.0937
  379MPD2     C 5717   2.247   3.091  16.079 -0.3443  0.3031 -0.2176
  379MPD2    C1 5718   2.165   2.999  16.138  0.4414 -0.0444  0.4834
  379MPD2    C2 5719   2.205   2.960  16.266 -0.0172  0.5126 -0.8534
  379MPD2    C3 5720   2.320   2.995  16.322  0.0297 -0.1064 -0.9000
  379MPD2    C4 5721   2.409   3.071  16.247 -0.2565 -0.2531 -0.3604
  379MPD2    C5 5722   2.367   3.128  16.130 -0.3813 -0.9134  0.3465
  379MPD2     H 5723   2.132   2.900  16.319  2.6859 -2.4660 -0.4449
  379MPD2    H1 5724   2.512   3.088  16.276 -0.4494  1.5945 -0.7743
  379MPD2    H2 5725   2.221   3.133  15.982 -0.7865 -1.7662 -0.9850
  379MPD2    H3 5726   2.433   3.188  16.069  0.5813 -2.5161 -0.1915
  379MPD2     N 5727   2.369   2.944  16.444 -0.2721  0.3219  0.5211
  379MPD2    H5 5728   2.465   2.963  16.472 -0.0352  0.4509 -0.3902
  379MPD2    N1 5729   2.048   2.964  16.073  0.3544 -0.1560 -0.3754
  379MPD2    H7 5730   2.024   3.005  15.984 -2.0039 -0.3398  0.1771
  380TMC3    C1 5731   1.881   2.815  16.000 -0.3046  0.3124 -0.5346
  380TMC3    C2 5732   1.857   2.687  15.970  0.1656 -0.6174  0.1512
  380TMC3    C3 5733   1.757   2.645  15.880 -0.4038 -0.4727 -0.2634
  380TMC3    C4 5734   1.805   2.916  15.945 -0.6661  0.7864  0.0574
  380TMC3    C5 5735   1.707   2.876  15.852  0.7418  0.2510 -0.2981
  380TMC3    C6 5736   1.683   2.748  15.821  0.1785  0.2099 -0.3444
  380TMC3     C 5737   1.975   2.852  16.108 -0.5642 -0.5261  0.4676
  380TMC3     O 5738   1.987   2.778  16.204 -0.2322  0.0986 -0.0892
  380TMC3     H 5739   1.924   2.613  16.011 -0.0528  0.0061  1.6118
  380TMC3    H1 5740   1.838   3.018  15.961 -0.1770  0.7323 -0.6227
  380TMC3    H2 5741   1.624   2.721  15.734 -0.5125  0.1285  0.1550
  380TMC3    C7 5742   1.678   2.968  15.750  0.6637 -0.0609 -0.0633
  380TMC3    C8 5743   1.795   2.540  15.793  0.0738  0.2845 -0.1438
  380TMC3    O1 5744   1.770   3.050  15.719  0.2648 -0.2091  0.4671
  380TMC3    O2 5745   1.760   2.557  15.677 -0.3182 -0.3339  0.1359
  381TMC3    C1 5746   1.550   4.120  16.056  0.3638  0.3149 -0.2413
  381TMC3    C2 5747   1.632   4.225  16.025  0.2782  0.1315  0.2262
  381TMC3    C3 5748   1.671   4.308  16.125 -0.2979 -0.1785  0.2071
  381TMC3    C4 5749   1.491   4.101  16.172  0.3539 -0.4456  0.2418
  381TMC3    C5 5750   1.527   4.197  16.270 -0.2526 -0.6149  0.2650
  381TMC3    C6 5751   1.615   4.300  16.245 -0.4421  1.2137  0.8129
  381TMC3     C 5752   1.494   4.046  15.943  0.3842 -1.0520  0.5177
  381TMC3     O 5753   1.574   3.985  15.871 -0.0284  0.5127 -0.2991
  381TMC3     H 5754   1.683   4.234  15.930 -2.5254 -0.4154 -1.3558
  381TMC3    H1 5755   1.424   4.018  16.193  1.3832 -1.6808 -1.2967
  381TMC3    H2 5756   1.649   4.368  16.322 -0.8484  0.3926  1.7151
  381TMC3    C7 5757   1.495   4.156  16.403  0.2247  0.7733  0.6097
  381TMC3    C8 5758   1.794   4.387  16.104  0.5336  0.1709  0.3083
  381TMC3    O1 5759   1.491   4.035  16.435 -0.2067  0.3081 -0.5068
  381TMC3    O2 5760   1.854   4.372  15.997 -0.1739  0.0525 -0.1834
  382MPD2     C 5761   1.133   2.230  16.718 -0.1069  0.0892  0.4737
  382MPD2    C1 5762   1.144   2.237  16.857  0.3218 -0.2335 -0.1538
  382MPD2    C2 5763   1.137   2.118  16.926 -0.0799  0.7871 -0.3259
  382MPD2    C3 5764   1.097   2.003  16.869 -0.5305 -0.2314  0.1499
  382MPD2    C4 5765   1.061   2.005  16.730 -0.7386  0.3735  0.6378
  382MPD2    C5 5766   1.093   2.115  16.662 -0.5611 -0.1099  0.2542
  382MPD2     H 5767   1.157   2.119  17.032 -1.1724 -1.2239 -0.0953
  382MPD2    H1 5768   1.012   1.926  16.673 -2.9857  1.0032  1.6751
  382MPD2    H2 5769   1.174   2.304  16.651 -2.8233  0.9588 -0.2138
  382MPD2    H3 5770   1.068   2.126  16.557 -0.8246 -0.5146  0.2758
  382MPD2     N 5771   1.072   1.891  16.941 -0.1241 -0.3142  0.4889
  382MPD2    H5 5772   0.998   1.833  16.902 -0.4611 -0.1110  0.8241
  382MPD2    N1 5773   1.164   2.361  16.930 -0.5895  0.6913  0.0839
  382MPD2    H7 5774   1.173   2.364  17.032  0.0680 -1.2734  0.0957
  383TMC3    C1 5775   1.100   1.730  17.112  0.2978 -0.0597  0.1932
  383TMC3    C2 5776   0.972   1.700  17.122 -0.5631 -0.1898  0.0343
  383TMC3    C3 5777   0.936   1.573  17.159  0.0639  0.7430 -0.3654
  383TMC3    C4 5778   1.197   1.636  17.134  0.0124  0.2783 -0.9101
  383TMC3    C5 5779   1.157   1.512  17.177 -0.5352  0.2936 -0.0504
  383TMC3    C6 5780   1.024   1.478  17.198 -0.6606  0.3554  0.0429
  383TMC3     C 5781   1.145   1.855  17.050  0.2770 -0.6051 -0.8894
  383TMC3     O 5782   1.258   1.892  17.082 -0.4161 -0.3144  0.1833
  383TMC3     H 5783   0.897   1.775  17.100  0.6219  1.3032  1.1302
  383TMC3    H1 5784   1.300   1.657  17.106  0.0311 -1.2209 -2.0073
  383TMC3    H2 5785   1.003   1.378  17.235 -1.5913  0.0067 -1.4057
  383TMC3    C7 5786   1.267   1.423  17.187 -0.3757 -0.0545  0.4556
  383TMC3    C8 5787   0.803   1.537  17.136  0.6079  0.7007 -0.4031
  383TMC3    O1 5788   1.367   1.474  17.238 -0.3620 -0.4935 -0.2731
  383TMC3    O2 5789   0.719   1.627  17.119  0.5851 -0.1408 -0.2554
  384MPD2     C 5790   2.646   2.960  12.071 -0.0953 -0.1656 -0.1218
  384MPD2    C1 5791   2.742   2.899  12.151 -0.5550  1.0111  1.0218
  384MPD2    C2 5792   2.799   2.788  12.098  0.3139  0.4017  0.3737
  384MPD2    C3 5793   2.757   2.731  11.979  0.3456  0.7549 -0.2158
  384MPD2    C4 5794   2.645   2.784  11.912 -0.2291 -0.4669 -0.4708
  384MPD2    C5 5795   2.594   2.904  11.954 -0.5028  0.5071  0.5016
  384MPD2     H 5796   2.887   2.746  12.144 -2.7956 -1.5050  4.5388
  384MPD2    H1 5797   2.612   2.746  11.817 -1.6124 -1.3866  0.3874
  384MPD2    H2 5798   2.605   3.050  12.117  1.2229  0.0373  0.6813
  384MPD2    H3 5799   2.515   2.939  11.889 -0.0278  1.9503  0.6914
  384MPD2     N 5800   2.836   2.616  11.937  0.5452  0.1600 -0.0636
  384MPD2    H5 5801   2.913   2.591  11.998  1.3859  1.0403 -0.7973
  384MPD2    N1 5802   2.764   2.958  12.275  0.1349 -0.2001  0.1047
  384MPD2    H7 5803   2.704   3.034  12.305  0.3659  0.5667 -1.3600
  385TMC3    C1 5804   2.908   2.426  11.819 -0.7719 -0.7218  0.1568
  385TMC3    C2 5805   2.831   2.312  11.840  0.1114  0.1645 -0.2027
  385TMC3    C3 5806   2.877   2.239  11.946  0.7110  0.0634  0.3187
  385TMC3    C4 5807   3.022   2.450  11.890  0.9110  0.1534  0.3860
  385TMC3    C5 5808   3.066   2.370  11.993  0.7872 -0.1915 -0.0235
  385TMC3    C6 5809   2.988   2.258  12.027 -0.9008  0.2015 -0.4677
  385TMC3     C 5810   2.822   2.541  11.819 -0.4256  0.2596  0.0302
  385TMC3     O 5811   2.738   2.532  11.728  0.0977 -0.3330 -0.0786
  385TMC3     H 5812   2.734   2.302  11.792  0.4146 -1.1208 -0.5318
  385TMC3    H1 5813   3.069   2.543  11.859  1.9110 -0.1131  1.1180
  385TMC3    H2 5814   3.016   2.189  12.105 -0.8002 -0.7730 -1.3754
  385TMC3    C7 5815   3.104   2.449  12.110 -0.6956 -0.0982 -0.5180
  385TMC3    C8 5816   2.818   2.105  11.964  0.2874  0.3613  0.1960
  385TMC3    O1 5817   3.066   2.564  12.101 -0.2944 -0.1501  0.6396
  385TMC3    O2 5818   2.800   2.053  12.075  0.4077  0.0895  0.0912
  386TMC3    C1 5819   3.285   4.534  11.482  0.7643 -0.3012  0.6586
  386TMC3    C2 5820   3.274   4.552  11.344  0.1467 -0.4857  0.2308
  386TMC3    C3 5821   3.148   4.590  11.293  0.2130 -0.2959 -0.9971
  386TMC3    C4 5822   3.173   4.559  11.563 -0.2033 -0.1504 -0.2683
  386TMC3    C5 5823   3.051   4.600  11.502  0.3854 -0.8386 -0.1613
  386TMC3    C6 5824   3.034   4.611  11.368  0.5340  0.1597 -0.4887
  386TMC3     C 5825   3.394   4.457  11.527  0.3231  0.1215  0.6411
  386TMC3     O 5826   3.497   4.454  11.459 -0.3782  0.0815 -0.6411
  386TMC3     H 5827   3.353   4.525  11.275  0.0526 -0.0293 -0.0518
  386TMC3    H1 5828   3.193   4.561  11.669  0.1398 -1.2025 -0.3141
  386TMC3    H2 5829   2.956   4.663  11.315  1.0674  2.6670  1.2069
  386TMC3    C7 5830   2.945   4.644  11.588 -0.4916 -0.0249  1.1169
  386TMC3    C8 5831   3.139   4.635  11.153  0.4439  0.6789 -0.3857
  386TMC3    O1 5832   2.981   4.675  11.698 -0.8194 -0.5443  0.6741
  386TMC3    O2 5833   3.027   4.652  11.101  0.4277  0.2525 -0.4361
  387MPD2     C 5834   0.546   0.559   9.336 -0.1548 -0.7277 -0.3068
  387MPD2    C1 5835   0.592   0.527   9.462  0.5253  1.0581 -0.4147
  387MPD2    C2 5836   0.530   0.425   9.535 -0.5381  0.0572 -0.5871
  387MPD2    C3 5837   0.421   0.360   9.482 -0.0238 -0.0210 -0.2632
  387MPD2    C4 5838   0.357   0.396   9.362  0.2636 -0.4653  0.3053
  387MPD2    C5 5839   0.430   0.497   9.290 -0.4877  0.6094  0.4102
  387MPD2     H 5840   0.578   0.402   9.629 -1.3271  0.1490 -0.1617
  387MPD2    H1 5841   0.278   0.340   9.314  1.3510 -1.5618 -0.1966
  387MPD2    H2 5842   0.592   0.633   9.272 -0.1980  0.3918  0.9446
  387MPD2    H3 5843   0.393   0.535   9.196  1.4125  0.0653 -0.5581
  387MPD2     N 5844   0.373   0.255   9.563  0.0405 -0.4886 -0.3831
  387MPD2    H5 5845   0.431   0.231   9.643 -1.7391 -0.3117  0.9561
  387MPD2    N1 5846   0.699   0.597   9.531 -0.2516 -0.7848 -0.1247
  387MPD2    H7 5847   0.737   0.537   9.603 -0.8482 -0.9128  0.0848
  388TMC3    C1 5848   0.822   0.776   9.634 -0.0726  0.1527 -0.3088
  388TMC3    C2 5849   0.841   0.913   9.641 -0.1852 -0.4653  0.2258
  388TMC3    C3 5850   0.872   0.975   9.761 -0.6063 -0.2222  0.3078
  388TMC3    C4 5851   0.832   0.702   9.752 -0.4147 -0.7465  0.1327
  388TMC3    C5 5852   0.868   0.772   9.871  0.3304 -0.1838 -0.0386
  388TMC3    C6 5853   0.900   0.904   9.875 -0.0626 -0.1871  0.2010
  388TMC3     C 5854   0.750   0.730   9.517 -0.5474  0.1303 -0.6427
  388TMC3     O 5855   0.710   0.809   9.433  0.3002  0.3788  0.0783
  388TMC3     H 5856   0.826   0.974   9.552  2.1073  2.0520  1.5393
  388TMC3    H1 5857   0.849   0.595   9.747  0.5151 -0.6965  2.0647
  388TMC3    H2 5858   0.920   0.954   9.969  3.4188 -0.4137 -0.4024
  388TMC3    C7 5859   0.821   0.708   9.995  0.1939  0.0834  0.5211
  388TMC3    C8 5860   0.857   1.120   9.771  1.0023 -0.3313 -0.6165
  388TMC3    O1 5861   0.863   0.754  10.101  0.2270  0.7556  0.5391
  388TMC3    O2 5862   0.786   1.175   9.684  0.1109  0.2071  0.3959
  389MPD2     C 5863   4.441   3.079  10.785 -0.0381  0.2111 -0.4033
  389MPD2    C1 5864   4.537   3.160  10.842  1.0684  0.8225 -0.2098
  389MPD2    C2 5865   4.556   3.171  10.977 -0.3726  0.2259 -0.0316
  389MPD2    C3 5866   4.483   3.083  11.054  1.1242  0.0110 -0.1334
  389MPD2    C4 5867   4.387   3.005  10.996  0.5837  0.2292 -0.2953
  389MPD2    C5 5868   4.364   3.003  10.864  0.1866 -0.2366 -0.5344
  389MPD2     H 5869   4.631   3.237  11.019 -0.7213  1.2526 -1.0348
  389MPD2    H1 5870   4.330   2.944  11.065  1.5479 -0.1124  0.1990
  389MPD2    H2 5871   4.445   3.066  10.677 -0.0148  0.1421 -0.3941
  389MPD2    H3 5872   4.286   2.948  10.814 -0.2954  1.5370 -1.7582
  389MPD2     N 5873   4.491   3.056  11.193 -0.3042  0.6247  0.0834
  389MPD2    H5 5874   4.428   2.987  11.234  0.8339  0.9848  2.4656
  389MPD2    N1 5875   4.606   3.236  10.748 -0.0830 -0.1902 -0.2789
  389MPD2    H7 5876   4.599   3.204  10.652  1.2002  0.5672 -0.6267
  390TMC3    C1 5877   4.559   3.058  11.411 -0.5780 -0.3632 -0.0697
  390TMC3    C2 5878   4.519   2.923  11.414 -0.5263  0.5125  0.4113
  390TMC3    C3 5879   4.491   2.862  11.537 -0.3824 -0.1130  0.2650
  390TMC3    C4 5880   4.571   3.127  11.533 -0.8186 -0.1628 -0.5676
  390TMC3    C5 5881   4.540   3.066  11.651 -0.0473  0.0974  0.2508
  390TMC3    C6 5882   4.508   2.928  11.657  0.2090  0.1805  0.8301
  390TMC3     C 5883   4.577   3.120  11.280  0.7323 -0.2709 -0.3593
  390TMC3     O 5884   4.630   3.227  11.263  0.5035 -0.1312  0.0974
  390TMC3     H 5885   4.496   2.853  11.334 -1.0199  0.9716  0.1589
  390TMC3    H1 5886   4.604   3.230  11.536  2.0659 -1.1001  0.6145
  390TMC3    H2 5887   4.510   2.868  11.747 -1.5459  0.9412  1.3867
  390TMC3    C7 5888   4.549   3.128  11.785 -0.3336  0.4256 -0.4199
  390TMC3    C8 5889   4.419   2.735  11.542 -0.1834  1.1071  0.4740
  390TMC3    O1 5890   4.644   3.201  11.808 -0.2249 -0.0058 -0.2154
  390TMC3    O2 5891   4.372   2.695  11.437  0.4709 -0.3690  0.1732
  391MPD2     C 5892   3.982   4.726  11.027  0.2590 -0.4180 -0.0782
  391MPD2    C1 5893   4.103   0.028  10.978 -0.2966  0.0329  0.0180
  391MPD2    C2 5894   4.098   0.099  10.857 -0.2266  0.0571 -0.1124
  391MPD2    C3 5895   3.987   0.128  10.784  0.6238 -0.5041 -0.3767
  391MPD2    C4 5896   3.871   0.080  10.839 -0.6703 -0.0945  0.1922
  391MPD2    C5 5897   3.871   0.008  10.953  0.1127 -0.3849  0.0134
  391MPD2     H 5898   4.187   0.149  10.819 -1.9909  0.9189 -3.0957
  391MPD2    H1 5899   3.776   0.101  10.792 -0.8269  0.1146  0.6092
  391MPD2    H2 5900   3.976   4.669  11.119 -0.9682  0.7939  0.6007
  391MPD2    H3 5901   3.777   4.703  10.986  0.0736  0.1005  0.5507
  391MPD2     N 5902   4.006   0.211  10.672 -0.4943  0.4586  0.1690
  391MPD2    H5 5903   4.099   0.220  10.632 -0.0815  0.0863  1.0376
  391MPD2    N1 5904   4.219   4.734  11.054  0.2285  0.1857  0.2036
  391MPD2    H7 5905   4.197   4.687  11.141  0.4463 -1.7837 -0.8168
  392TMC3    C1 5906   3.951   0.355  10.494  0.2575 -0.4704 -0.5547
  392TMC3    C2 5907   3.861   0.382  10.399 -0.2475 -0.4535 -0.4861
  392TMC3    C3 5908   3.896   0.439  10.285  0.2334  0.3436 -0.1649
  392TMC3    C4 5909   4.081   0.385  10.478 -0.2233  0.0806 -0.5117
  392TMC3    C5 5910   4.107   0.483  10.383 -0.5306  0.4929 -0.1247
  392TMC3    C6 5911   4.022   0.503  10.276 -0.4621 -0.5595  0.1184
  392TMC3     C 5912   3.903   0.277  10.606  0.7283 -0.0915 -0.0701
  392TMC3     O 5913   3.783   0.273  10.632  0.1538 -0.0982 -0.6284
  392TMC3     H 5914   3.762   0.339  10.404 -0.2200 -0.1682  2.2893
  392TMC3    H1 5915   4.157   0.375  10.555  0.8679 -0.3776 -1.6408
  392TMC3    H2 5916   4.062   0.559  10.192  1.4448 -1.6600  0.3148
  392TMC3    C7 5917   4.220   0.575  10.406 -0.3528  0.2738 -0.4572
  392TMC3    C8 5918   3.810   0.409  10.175  0.9943  0.1214  0.6864
  392TMC3    O1 5919   4.294   0.552  10.503  0.3956  0.2548 -0.1155
  392TMC3    O2 5920   3.739   0.309  10.184  0.1518  0.8527  0.1637
  393TMC3    C1 5921   2.838   2.528  10.517 -0.1311  0.1825 -0.2190
  393TMC3    C2 5922   2.752   2.450  10.443  0.7289  0.2680  0.1457
  393TMC3    C3 5923   2.684   2.354  10.509  0.1643  0.5379 -0.5759
  393TMC3    C4 5924   2.877   2.498  10.643  0.8264 -0.1662  0.5239
  393TMC3    C5 5925   2.811   2.388  10.703  0.3483 -0.3468  0.6467
  393TMC3    C6 5926   2.710   2.321  10.641 -0.5541  0.6596 -0.6153
  393TMC3     C 5927   2.867   2.652  10.469 -0.1562  0.0925 -0.0453
  393TMC3     O 5928   2.778   2.706  10.407  0.0926  0.3268 -0.2421
  393TMC3     H 5929   2.729   2.471  10.340  1.1011 -0.0684 -0.0086
  393TMC3    H1 5930   2.936   2.553  10.715  0.6760 -0.8717  1.1986
  393TMC3    H2 5931   2.647   2.249  10.692 -0.3270  1.3903  0.6832
  393TMC3    C7 5932   2.854   2.340  10.835  0.1308  0.0711 -0.6758
  393TMC3    C8 5933   2.561   2.314  10.445  0.1750 -0.4890 -0.0741
  393TMC3    O1 5934   2.779   2.262  10.891  0.1700 -0.3771 -0.4550
  393TMC3    O2 5935   2.507   2.384  10.358  0.3205  0.1181 -0.4364
  394TMC3    C1 5936   4.734   3.393  10.640  0.0063  0.0157 -0.2595
  394TMC3    C2 5937   4.628   3.400  10.545  0.4415  0.1485 -1.1323
  394TMC3    C3 5938   4.628   3.499  10.454  0.2709 -0.1707 -0.3044
  394TMC3    C4 5939   0.097   3.483  10.631  0.0554 -0.0865 -0.3409
  394TMC3    C5 5940   0.104   3.574  10.525  0.2568 -0.0472 -0.7525
  394TMC3    C6 5941   4.737   3.584  10.434 -0.5130 -0.3470 -0.3195
  394TMC3     C 5942   4.692   3.340  10.767  0.4463  0.5182 -0.7473
  394TMC3     O 5943   0.005   3.386  10.868 -0.3623  0.3161 -0.1575
  394TMC3     H 5944   4.538   3.342  10.560 -0.3203  1.4519 -0.7482
  394TMC3    H1 5945   0.174   3.480  10.708  1.2349  0.2620 -1.5096
  394TMC3    H2 5946   4.732   3.662  10.359  0.0127  1.0563  1.0970
  394TMC3    C7 5947   0.206   3.681  10.520  0.1565 -0.0710  0.6319
  394TMC3    C8 5948   4.536   3.491  10.347 -0.1539 -0.9917  0.3714
  394TMC3    O1 5949   0.171   3.783  10.460 -0.2082  0.5109  0.3150
  394TMC3    O2 5950   4.518   3.587  10.277  0.1159  0.3729  0.3758
  395TMC3    C1 5951   4.239   4.719  15.074 -0.2504 -0.2690 -0.2177
  395TMC3    C2 5952   4.167   4.680  14.969 -0.4396 -0.5245  0.7575
  395TMC3    C3 5953   4.213   4.727  14.848  0.7584 -0.0179 -0.8489
  395TMC3    C4 5954   4.347   0.071  15.066  0.1563  0.5877 -0.0354
  395TMC3    C5 5955   4.378   0.125  14.942 -0.2469  0.6036  0.8366
  395TMC3    C6 5956   4.317   0.084  14.831 -0.3842 -0.0199  0.5844
  395TMC3     C 5957   4.179   4.708  15.206 -0.2713 -0.1085 -0.1955
  395TMC3     O 5958   4.204   0.059  15.284  0.5532 -0.1812  0.3414
  395TMC3     H 5959   4.084   4.611  14.981 -0.2361 -0.9409 -0.2273
  395TMC3    H1 5960   4.398   0.095  15.159  0.0482 -2.4877  0.8040
  395TMC3    H2 5961   4.341   0.123  14.732  2.7609 -3.3092  0.0874
  395TMC3    C7 5962   4.451   0.257  14.943  0.0218 -0.0127  0.1656
  395TMC3    C8 5963   4.142   4.704  14.728  0.0022 -0.1623 -0.3365
  395TMC3    O1 5964   4.477   0.315  15.048 -0.4179  0.4352  0.2410
  395TMC3    O2 5965   4.196   4.693  14.620 -0.1042 -0.3717 -0.2491
  396MPD2     C 5966   3.847   1.338  17.116 -0.2850 -0.1700 -0.0406
  396MPD2    C1 5967   3.958   1.406  17.164  0.2224 -0.0274 -0.2029
  396MPD2    C2 5968   4.007   1.508  17.090 -0.0511 -0.3553  0.6117
  396MPD2    C3 5969   3.939   1.555  16.980 -0.2233  0.0533  0.0504
  396MPD2    C4 5970   3.822   1.497  16.936  0.1400  0.6879 -0.3904
  396MPD2    C5 5971   3.781   1.386  17.007 -0.6179  0.1991 -0.4620
  396MPD2     H 5972   4.100   1.559  17.114 -0.4069  1.8086 -2.5280
  396MPD2    H1 5973   3.761   1.526  16.851 -0.5489 -1.4156 -0.6162
  396MPD2    H2 5974   3.824   1.242  17.160 -2.3759 -0.7939 -2.4712
  396MPD2    H3 5975   3.687   1.335  16.986  0.1686 -1.0425 -0.9537
  396MPD2     N 5976   4.008   1.652  16.902 -0.4364  0.1278 -0.2360
  396MPD2    H5 5977   4.088   1.702  16.937  0.6814 -0.1817 -2.3704
  396MPD2    N1 5978   4.030   1.351  17.274 -0.0038 -0.2638 -0.8306
  396MPD2    H7 5979   3.988   1.281  17.335 -0.9673  1.9384  1.0218
  397TMC3    C1 5980   4.206   1.311  17.422  0.2934 -0.5304 -0.6866
  397TMC3    C2 5981   4.339   1.307  17.399  0.5553  0.0169  0.1752
  397TMC3    C3 5982   4.395   1.209  17.319 -0.1995 -1.0637 -0.8168
  397TMC3    C4 5983   4.142   1.186  17.422  0.5878 -0.3746  0.4306
  397TMC3    C5 5984   4.205   1.074  17.375  0.3819 -0.7853  0.3392
  397TMC3    C6 5985   4.322   1.088  17.306  0.2399 -0.3027 -0.1263
  397TMC3     C 5986   4.152   1.400  17.330 -0.9773 -0.2622  0.0705
  397TMC3     O 5987   4.200   1.509  17.312  0.4618 -0.1025  0.7000
  397TMC3     H 5988   4.373   1.409  17.389  3.4082 -0.9807 -0.2563
  397TMC3    H1 5989   4.039   1.181  17.455  0.6932 -0.2423  0.7779
  397TMC3    H2 5990   4.364   1.014  17.240 -0.6839 -1.2475  0.3561
  397TMC3    C7 5991   4.131   0.954  17.349  0.2409  0.2766  0.6129
  397TMC3    C8 5992   4.436   1.251  17.186 -0.2236 -0.0989  0.8691
  397TMC3    O1 5993   4.164   0.890  17.257 -0.8121  0.3160  0.1710
  397TMC3    O2 5994   4.420   1.172  17.092  0.3233  0.2467  0.0487
  398MPD2     C 5995   2.320   3.108   0.218 -0.0886  0.3509 -0.2812
  398MPD2    C1 5996   2.385   3.067   0.332 -0.1770 -0.6903 -0.1311
  398MPD2    C2 5997   2.486   3.144   0.381  0.8976 -0.9470  0.0584
  398MPD2    C3 5998   2.509   3.276   0.330  0.4882 -0.4404  0.4989
  398MPD2    C4 5999   2.433   3.321   0.222 -0.0644  0.0153 -0.1817
  398MPD2    C5 6000   2.344   3.234   0.165  0.4708  0.2755  0.0902
  398MPD2     H 6001   2.550   3.106   0.460 -0.0450  1.6240  2.0363
  398MPD2    H1 6002   2.463   3.417   0.181 -0.5329  0.4735  0.5442
  398MPD2    H2 6003   2.233   3.055   0.182  0.4399 -0.3789 -0.5027
  398MPD2    H3 6004   2.288   3.265   0.078  0.3014  1.7118  0.6989
  398MPD2     N 6005   2.609   3.350   0.393 -0.0527 -0.2755 -0.1392
  398MPD2    H5 6006   2.671   3.297   0.453  0.8894  1.5109  0.4553
  398MPD2    N1 6007   2.347   2.952   0.413  0.0780 -0.5346  0.2332
  398MPD2    H7 6008   2.398   2.936   0.499 -0.5755 -1.0113  0.5251
  399TMC3    C1 6009   2.234   2.756   0.485  0.3775  0.4783  0.4628
  399TMC3    C2 6010   2.350   2.708   0.543  0.2977 -0.3580 -0.3278
  399TMC3    C3 6011   2.331   2.585   0.608  0.1010 -0.1233 -0.2769
  399TMC3    C4 6012   2.109   2.697   0.486  0.1773 -0.1097  0.6546
  399TMC3    C5 6013   2.099   2.579   0.553  0.0178  0.0674 -0.1183
  399TMC3    C6 6014   2.210   2.527   0.616 -0.5048 -0.4286 -0.0871
  399TMC3     C 6015   2.242   2.866   0.389  0.4880  0.0092  0.3407
  399TMC3     O 6016   2.160   2.864   0.295 -0.4314  0.4629 -0.1179
  399TMC3     H 6017   2.443   2.752   0.508  1.0174 -1.8024 -0.2287
  399TMC3    H1 6018   2.026   2.745   0.436  0.7146 -0.3296 -0.4694
  399TMC3    H2 6019   2.193   2.434   0.670  0.8130 -0.4790  0.2342
  399TMC3    C7 6020   1.987   2.495   0.518  0.1250 -0.0256 -0.0318
  399TMC3    C8 6021   2.451   2.500   0.608 -0.6372 -0.0836 -0.1361
  399TMC3    O1 6022   1.996   2.373   0.518  0.2016 -0.0500 -0.3322
  399TMC3    O2 6023   2.550   2.559   0.563 -0.3039 -0.0651  0.5533
  400TMC3    C1 6024   0.851   1.302  16.811 -1.1372 -0.2377  0.5935
  400TMC3    C2 6025   0.750   1.254  16.738  0.4950  0.0400 -0.1509
  400TMC3    C3 6026   0.687   1.338  16.653 -0.7596  0.1506  0.3003
  400TMC3    C4 6027   0.875   1.437  16.821 -0.7671 -1.1580 -0.3945
  400TMC3    C5 6028   0.812   1.519  16.736  0.7183 -0.3765  0.9615
  400TMC3    C6 6029   0.716   1.470  16.654 -0.6506 -0.1080  0.6464
  400TMC3     C 6030   0.906   1.230  16.924  0.9956  0.3026  0.7209
  400TMC3     O 6031   0.989   1.280  16.997 -0.1391  0.4809  0.0500
  400TMC3     H 6032   0.726   1.148  16.740  0.4242  0.0673  0.6244
  400TMC3    H1 6033   0.950   1.480  16.887 -0.4555 -0.1897 -1.3726
  400TMC3    H2 6034   0.654   1.543  16.604  1.3677  1.2905  0.2029
  400TMC3    C7 6035   0.830   1.662  16.760 -0.0113  0.1945 -0.6175
  400TMC3    C8 6036   0.561   1.304  16.590  1.0322 -0.5553  0.1565
  400TMC3    O1 6037   0.913   1.692  16.847  0.3059 -0.2461  0.0482
  400TMC3    O2 6038   0.481   1.392  16.570 -0.4280  0.0766  0.8170
  401MPD2     C 6039   3.886   4.544   0.707  0.1817  0.8487  0.2539
  401MPD2    C1 6040   3.997   4.472   0.756 -0.1393  0.8609 -0.1359
  401MPD2    C2 6041   3.990   4.332   0.744  0.4986 -0.1178 -0.2863
  401MPD2    C3 6042   3.899   4.268   0.662 -0.6729  0.8906  0.0152
  401MPD2    C4 6043   3.793   4.342   0.615  0.2837 -0.1657  1.0544
  401MPD2    C5 6044   3.795   4.476   0.631 -0.4239  0.1487 -0.0737
  401MPD2     H 6045   4.066   4.276   0.798 -0.0924  0.3994  1.0985
  401MPD2    H1 6046   3.714   4.287   0.566 -0.5247 -0.0876  2.2683
  401MPD2    H2 6047   3.871   4.651   0.717 -0.9994  0.7756 -0.8485
  401MPD2    H3 6048   3.706   4.526   0.596  1.4961  1.9322 -2.4457
  401MPD2     N 6049   3.913   4.129   0.636 -0.3409 -0.4963  0.5178
  401MPD2    H5 6050   3.985   4.074   0.683  1.2228  2.6904  1.8672
  401MPD2    N1 6051   4.108   4.524   0.820  0.5488 -0.2182  0.0563
  401MPD2    H7 6052   4.182   4.456   0.835  2.3318  1.6005 -0.6234
  402TMC3    C1 6053   3.864   3.928   0.523 -0.5302 -0.3709 -0.4661
  402TMC3    C2 6054   3.942   3.854   0.607 -0.0336  0.3800  0.2684
  402TMC3    C3 6055   3.990   3.731   0.564 -0.5552  0.6361  0.0765
  402TMC3    C4 6056   3.828   3.875   0.401  0.8054  0.0673  0.2148
  402TMC3    C5 6057   3.873   3.753   0.360 -0.0899 -0.2960  0.2320
  402TMC3    C6 6058   3.965   3.682   0.437 -0.8108  0.0189 -0.5525
  402TMC3     C 6059   3.845   4.069   0.535 -0.5121 -0.4767  0.1759
  402TMC3     O 6060   3.805   4.126   0.428 -0.0896 -0.0589  0.7944
  402TMC3     H 6061   3.969   3.897   0.702 -3.2827  0.3041  1.2154
  402TMC3    H1 6062   3.769   3.924   0.324 -0.7564 -0.0371  1.3279
  402TMC3    H2 6063   4.022   3.599   0.398  0.5514  1.1346 -0.9215
  402TMC3    C7 6064   3.856   3.717   0.221  0.6935  0.4616  0.3547
  402TMC3    C8 6065   4.071   3.645   0.654  0.5239  0.1252 -0.1375
  402TMC3    O1 6066   3.806   3.798   0.150 -0.0112 -0.4494 -0.2000
  402TMC3    O2 6067   4.119   3.543   0.609 -0.2195  0.0542 -0.1665
  403MPD2     C 6068   2.573   2.298  13.185  0.2296 -0.0374  0.2053
  403MPD2    C1 6069   2.435   2.312  13.218  0.4890 -0.5690  0.0894
  403MPD2    C2 6070   2.402   2.416  13.302 -0.1505  0.3567 -0.3871
  403MPD2    C3 6071   2.507   2.491  13.356 -0.2648  0.4371 -0.9348
  403MPD2    C4 6072   2.643   2.462  13.328  0.0305  0.5035  0.2027
  403MPD2    C5 6073   2.669   2.366  13.242 -0.3380 -0.2750  0.6155
  403MPD2     H 6074   2.298   2.434  13.327 -0.3273  0.1368 -0.9647
  403MPD2    H1 6075   2.729   2.505  13.378  1.4779  1.1002 -2.8269
  403MPD2    H2 6076   2.602   2.219  13.116  0.5858  0.4411 -0.2003
  403MPD2    H3 6077   2.769   2.345  13.208 -0.2646  0.8312  0.1497
  403MPD2     N 6078   2.478   2.584  13.447 -0.5593  0.3929 -0.3083
  403MPD2    H5 6079   2.384   2.578  13.484 -0.1783  0.9826  0.7767
  403MPD2    N1 6080   2.337   2.225  13.169  0.4528  0.1326  0.4570
  403MPD2    H7 6081   2.354   2.159  13.094 -3.0522  0.6713 -0.8004
  404TMC3    C1 6082   2.132   2.117  13.153 -0.0952 -0.2130  0.6310
  404TMC3    C2 6083   2.038   2.059  13.227 -0.6447 -0.2315  0.3767
  404TMC3    C3 6084   1.984   1.937  13.182 -0.1203 -0.3775 -0.6156
  404TMC3    C4 6085   2.175   2.061  13.030  0.2524  0.0890  0.8214
  404TMC3    C5 6086   2.114   1.939  12.985  0.5301 -0.3804 -0.8941
  404TMC3    C6 6087   2.021   1.879  13.061  0.1781  0.0497 -0.0311
  404TMC3     C 6088   2.212   2.218  13.216  0.4957  0.0813 -0.1924
  404TMC3     O 6089   2.162   2.257  13.320  0.1838  0.1824 -0.0704
  404TMC3     H 6090   2.004   2.095  13.323  0.5407  0.9317  0.3543
  404TMC3    H1 6091   2.255   2.110  12.975  0.0840  0.9395  1.3423
  404TMC3    H2 6092   1.983   1.785  13.024  1.0052  0.2904 -1.4804
  404TMC3    C7 6093   2.138   1.907  12.848 -0.3576 -0.5598 -0.1830
  404TMC3    C8 6094   1.980   1.835  13.284  0.1145  0.2060 -0.4614
  404TMC3    O1 6095   2.251   1.947  12.817 -0.0629 -0.4128  0.3297
  404TMC3    O2 6096   2.012   1.718  13.254 -0.3013  0.1217  0.5297
  405MPD2     C 6097   2.346   3.358  14.604 -0.3305  0.4373  0.4264
  405MPD2    C1 6098   2.377   3.277  14.495  0.5338 -0.6158 -0.3490
  405MPD2    C2 6099   2.425   3.343  14.379 -0.7434  0.2305  0.1062
  405MPD2    C3 6100   2.431   3.484  14.373  0.3205 -0.3322  0.3205
  405MPD2    C4 6101   2.400   3.564  14.486 -0.1475 -0.7283 -0.5658
  405MPD2    C5 6102   2.353   3.496  14.596  0.0471 -0.6979 -0.5965
  405MPD2     H 6103   2.472   3.280  14.304  0.1136  1.0174 -0.0164
  405MPD2    H1 6104   2.400   3.673  14.491 -0.4213 -0.7575  0.0235
  405MPD2    H2 6105   2.307   3.313  14.695 -0.3731  0.7061  0.5412
  405MPD2    H3 6106   2.320   3.550  14.684  1.5607  0.4194 -0.7284
  405MPD2     N 6107   2.458   3.542  14.243 -0.2633 -0.6393 -0.0167
  405MPD2    H5 6108   2.463   3.471  14.170  0.0612 -0.8317  0.1913
  405MPD2    N1 6109   2.352   3.132  14.502  0.1187  0.1260 -0.2527
  405MPD2    H7 6110   2.338   3.082  14.589 -1.2356  0.2688 -0.3876
  406TMC3    C1 6111   2.342   3.853  13.927 -0.3615 -0.1424 -0.0119
  406TMC3    C2 6112   2.337   3.758  13.832 -0.0442  0.2874 -0.0141
  406TMC3    C3 6113   2.391   3.632  13.862  0.4465 -0.7845 -0.3495
  406TMC3    C4 6114   2.397   3.824  14.048  0.2931  0.0297  0.7561
  406TMC3    C5 6115   2.458   3.711  14.071  0.1253  0.3497  0.6547
  406TMC3    C6 6116   2.457   3.604  13.978 -0.2478  0.4742 -0.0523
  406TMC3     C 6117   2.208   3.908  13.946 -0.2198 -0.4201 -0.6995
  406TMC3     O 6118   2.167   3.985  13.862  0.9138 -0.4266  0.6123
  406TMC3     H 6119   2.274   3.769  13.745  1.6791  0.1067 -1.2799
  406TMC3    H1 6120   2.393   3.894  14.130 -1.7764 -0.4559  1.0706
  406TMC3    H2 6121   2.520   3.515  13.980  2.3944  2.3381 -0.7509
  406TMC3    C7 6122   2.457   3.675  14.213 -0.0581  0.3827 -0.0065
  406TMC3    C8 6123   2.322   3.522  13.794 -1.0721  0.2106  0.8227
  406TMC3    O1 6124   2.429   3.758  14.297 -0.6240 -0.5246 -0.6998
  406TMC3    O2 6125   2.241   3.547  13.710  0.4542 -0.2280 -0.3342
  407MPD2     C 6126   4.498   0.162   9.776 -0.0031  0.0452  0.0181
  407MPD2    C1 6127   4.583   0.204   9.681  0.3980 -0.4082  0.4828
  407MPD2    C2 6128   4.668   0.311   9.710  0.5846  0.4552  0.3253
  407MPD2    C3 6129   4.671   0.358   9.847 -0.6032 -0.5558 -0.1406
  407MPD2    C4 6130   4.596   0.297   9.945  0.2054  0.2456 -0.0153
  407MPD2    C5 6131   4.506   0.203   9.905 -0.3516 -0.6453 -0.6012
  407MPD2     H 6132   4.733   0.359   9.638  1.4573 -0.2540  0.6368
  407MPD2    H1 6133   4.600   0.323  10.050 -1.8371  0.1623  0.0808
  407MPD2    H2 6134   4.415   0.095   9.756  1.5972 -1.4552 -1.5912
  407MPD2    H3 6135   4.446   0.145   9.974 -0.1123  0.8303  0.8507
  407MPD2     N 6136   0.016   0.467   9.879  0.2726  0.1127  0.3257
  407MPD2    H5 6137   0.062   0.506   9.797 -0.2068  2.1410  1.0277
  407MPD2    N1 6138   4.576   0.158   9.546  0.3951 -0.0507 -0.1448
  407MPD2    H7 6139   4.636   0.201   9.477 -0.4794 -1.2043 -1.6194
  408TMC3    C1 6140   4.502   0.047   9.353 -1.0451  0.4491 -0.6576
  408TMC3    C2 6141   4.589   4.684   9.314  0.0959  0.3271  0.9281
  408TMC3    C3 6142   4.692   4.706   9.227 -0.4381  0.0658  0.1438
  408TMC3    C4 6143   4.511   0.172   9.298 -0.2737 -0.0344 -0.1852
  408TMC3    C5 6144   4.613   0.193   9.207 -0.0401 -0.3110 -0.5637
  408TMC3    C6 6145   4.704   0.090   9.172  0.9217 -0.2834  0.1540
  408TMC3     C 6146   4.493   0.059   9.496 -0.1561  0.5662 -0.7281
  408TMC3     O 6147   4.423   4.721   9.559  0.3544 -0.2581 -0.3937
  408TMC3     H 6148   4.575   4.588   9.362 -0.8018 -0.8696 -1.6967
  408TMC3    H1 6149   4.446   0.254   9.325  1.8256  1.3808  0.5954
  408TMC3    H2 6150   0.037   0.109   9.094 -0.7472  0.0899 -1.3087
  408TMC3    C7 6151   4.653   0.328   9.202  0.6939  0.4810  0.0861
  408TMC3    C8 6152   0.071   4.649   9.275 -0.5700 -0.0022  0.6718
  408TMC3    O1 6153   4.628   0.400   9.302  0.8987  0.2467  0.0356
  408TMC3    O2 6154   0.057   4.574   9.374  0.8268  0.4417 -0.1197
  409MPD2     C 6155   4.296   0.781  16.846  0.1106 -0.2200  0.0474
  409MPD2    C1 6156   4.399   0.806  16.936 -0.2629 -0.4323 -0.0247
  409MPD2    C2 6157   4.483   0.911  16.911  0.6304  0.0414  0.0554
  409MPD2    C3 6158   4.460   1.003  16.810 -0.8224 -0.0034 -0.0457
  409MPD2    C4 6159   4.347   0.982  16.724  0.4581  0.5009  0.9523
  409MPD2    C5 6160   4.276   0.869  16.743  0.0858  0.1428 -0.6674
  409MPD2     H 6161   4.571   0.927  16.973  1.7308 -2.7846 -0.7646
  409MPD2    H1 6162   4.321   1.044  16.640  3.7661  0.1254 -0.3312
  409MPD2    H2 6163   4.242   0.686  16.845  1.0001 -0.7240 -0.0250
  409MPD2    H3 6164   4.202   0.852  16.665 -0.7287  1.1571 -0.1047
  409MPD2     N 6165   4.532   1.125  16.800 -0.9179  0.1330  0.0045
  409MPD2    H5 6166   4.496   1.185  16.727 -1.2608 -1.0666 -0.8212
  409MPD2    N1 6167   4.443   0.722  17.043 -0.0820 -0.5570  1.3334
  409MPD2    H7 6168   4.525   0.757  17.091 -0.0786  0.8078  0.3268
  410TMC3    C1 6169   4.707   1.286  16.838 -0.3140  0.0943 -0.4247
  410TMC3    C2 6170   0.079   1.313  16.916  0.5743  0.2797  0.0828
  410TMC3    C3 6171   0.176   1.409  16.870 -0.9575  0.1176  0.0618
  410TMC3    C4 6172   4.708   1.314  16.710 -0.0185  0.2136 -0.2120
  410TMC3    C5 6173   0.070   1.402  16.671 -0.3407 -0.0450 -0.2211
  410TMC3    C6 6174   0.177   1.446  16.741  0.4494 -0.1478 -0.1117
  410TMC3     C 6175   4.640   1.159  16.878 -0.3903 -0.5161 -0.7301
  410TMC3     O 6176   4.700   1.099  16.967  0.2814 -0.0867 -0.1757
  410TMC3     H 6177   0.059   1.307  17.023 -0.6988  0.9937 -0.1055
  410TMC3    H1 6178   4.632   1.277  16.642  0.9992  2.2795 -2.4590
  410TMC3    H2 6179   0.262   1.505  16.707  0.5905 -0.1024  0.3297
  410TMC3    C7 6180   0.049   1.457  16.540  0.3645  0.1707  0.8751
  410TMC3    C8 6181   0.296   1.423  16.947  0.4889  0.5360 -0.0809
  410TMC3    O1 6182   0.005   1.378  16.458 -0.3422 -0.6735 -0.0745
  410TMC3    O2 6183   0.368   1.521  16.928  0.1918  0.1967 -0.2698
  411MPD2     C 6184   4.439   1.119  14.380  0.0115 -0.3687 -0.1964
  411MPD2    C1 6185   4.453   1.082  14.511  0.3456 -0.0622 -0.0967
  411MPD2    C2 6186   4.392   0.972  14.557  0.7444  0.3064 -0.1452
  411MPD2    C3 6187   4.329   0.884  14.477  0.2119 -0.3033 -0.3081
  411MPD2    C4 6188   4.333   0.912  14.336  0.0394 -0.2500 -0.3759
  411MPD2    C5 6189   4.393   1.029  14.287  0.0710 -0.3998 -0.0861
  411MPD2     H 6190   4.406   0.948  14.661 -0.4086 -0.4519 -0.1546
  411MPD2    H1 6191   4.284   0.847  14.264  0.7999  1.9900 -2.9174
  411MPD2    H2 6192   4.486   1.210  14.344 -1.9298  0.9985  0.7169
  411MPD2    H3 6193   4.399   1.072  14.188  0.2366 -2.0429 -0.7799
  411MPD2     N 6194   4.279   0.768  14.525  0.3442 -0.2902 -0.6806
  411MPD2    H5 6195   4.257   0.699  14.454  0.8275 -0.3695 -0.7516
  411MPD2    N1 6196   4.514   1.175  14.600 -0.1735  0.3314  0.5535
  411MPD2    H7 6197   4.530   1.265  14.556 -2.8270 -0.0861 -1.3091
  412TMC3    C1 6198   4.198   0.607  14.667  0.8351 -0.4814  0.4872
  412TMC3    C2 6199   4.094   0.588  14.753 -0.0458  0.1998  0.0939
  412TMC3    C3 6200   4.045   0.461  14.755 -0.0095  0.4072 -0.5007
  412TMC3    C4 6201   4.244   0.512  14.579  0.1569  0.0399 -0.4585
  412TMC3    C5 6202   4.189   0.390  14.586  0.3876  0.2752 -0.5189
  412TMC3    C6 6203   4.096   0.363  14.684  0.2140  0.3483 -0.2403
  412TMC3     C 6204   4.251   0.739  14.661 -0.0036 -0.6570 -0.0735
  412TMC3     O 6205   4.233   0.805  14.765  0.4056 -0.4942 -0.3990
  412TMC3     H 6206   4.047   0.668  14.809 -0.4954  1.3532 -1.9360
  412TMC3    H1 6207   4.325   0.527  14.508  1.5309  0.6486  1.2340
  412TMC3    H2 6208   4.052   0.264  14.691  1.3174  0.0039  1.6173
  412TMC3    C7 6209   4.141   0.351  14.452 -0.4200 -0.2718  0.2719
  412TMC3    C8 6210   3.900   0.445  14.779 -0.3453  0.1909 -0.2229
  412TMC3    O1 6211   4.225   0.350  14.366 -0.3777 -0.1463  0.4096
  412TMC3    O2 6212   3.847   0.374  14.691 -0.4120 -0.6114  0.6785
  413MPD2     C 6213   1.637   4.193  15.551 -0.1020  0.3862  0.1123
  413MPD2    C1 6214   1.575   4.077  15.500  0.1875 -0.2389 -0.0476
  413MPD2    C2 6215   1.659   3.973  15.454  0.1963  0.1569  0.3245
  413MPD2    C3 6216   1.793   3.983  15.450 -0.3026 -0.0140 -0.3405
  413MPD2    C4 6217   1.854   4.096  15.507 -0.2260 -0.1723 -0.1591
  413MPD2    C5 6218   1.769   4.198  15.549 -0.2401 -0.2655  0.0313
  413MPD2     H 6219   1.615   3.887  15.403 -0.9393  1.2563 -0.5530
  413MPD2    H1 6220   1.960   4.115  15.498 -0.2906  0.1445 -0.2754
  413MPD2    H2 6221   1.584   4.282  15.582  0.7482  1.2247 -0.8370
  413MPD2    H3 6222   1.821   4.292  15.564  1.0925 -0.9424 -0.3718
  413MPD2     N 6223   1.876   3.884  15.393  0.7013  0.1246  0.2114
  413MPD2    H5 6224   1.825   3.803  15.359 -2.2537  1.8943  0.4759
  413MPD2    N1 6225   1.439   4.073  15.475  0.6993  0.5894  0.3410
  413MPD2    H7 6226   1.401   3.991  15.429 -1.1325  1.7818 -0.2660
  414TMC3    C1 6227   2.068   3.779  15.304 -0.6164  0.5152  0.6837
  414TMC3    C2 6228   2.014   3.655  15.331 -1.2679  0.0697 -0.1910
  414TMC3    C3 6229   2.055   3.550  15.253  0.0401  0.0939  0.3540
  414TMC3    C4 6230   2.175   3.798  15.228  0.1854  0.0170 -0.1825
  414TMC3    C5 6231   2.222   3.693  15.153 -0.1951 -0.4471  0.2843
  414TMC3    C6 6232   2.163   3.568  15.168 -0.3650  0.4417 -0.0650
  414TMC3     C 6233   2.011   3.896  15.373  0.7961 -0.3987 -0.1849
  414TMC3     O 6234   2.061   4.000  15.338 -0.0512  0.0490 -0.3593
  414TMC3     H 6235   1.935   3.639  15.403  0.4368 -0.1199  1.6016
  414TMC3    H1 6236   2.216   3.897  15.208 -0.2019  0.1756 -0.1949
  414TMC3    H2 6237   2.211   3.479  15.128 -1.3918 -0.6263  1.0942
  414TMC3    C7 6238   2.354   3.706  15.105 -0.3027  0.7655  0.3728
  414TMC3    C8 6239   2.065   3.414  15.301  0.2126  0.2060 -0.9157
  414TMC3    O1 6240   2.415   3.811  15.128 -0.0737 -0.0516 -0.2206
  414TMC3    O2 6241   2.037   3.332  15.214  0.3313  0.1006  0.1863
  415TMC3    C1 6242   2.756   2.146  10.109 -0.5776 -0.5068 -0.1756
  415TMC3    C2 6243   2.860   2.162  10.021 -0.4888  0.2957 -0.0911
  415TMC3    C3 6244   2.831   2.155   9.887 -0.7355 -0.2553 -0.5551
  415TMC3    C4 6245   2.629   2.124  10.069  0.2781 -0.6432  0.6543
  415TMC3    C5 6246   2.614   2.099   9.942  1.1864 -0.6999  0.1534
  415TMC3    C6 6247   2.710   2.110   9.847 -0.2448 -0.0428 -0.1991
  415TMC3     C 6248   2.778   2.117  10.253  0.8824  0.2463 -1.2052
  415TMC3     O 6249   2.696   2.048  10.310 -0.1200 -0.4607  0.3431
  415TMC3     H 6250   2.966   2.159  10.046 -0.7067 -0.4287  0.7659
  415TMC3    H1 6251   2.543   2.125  10.135 -1.3268  1.6612 -1.4949
  415TMC3    H2 6252   2.683   2.101   9.743 -0.1376 -2.3240 -0.0133
  415TMC3    C7 6253   2.492   2.041   9.891 -0.3329 -0.4888 -0.3193
  415TMC3    C8 6254   2.918   2.216   9.789  0.3366 -0.7058 -0.3201
  415TMC3    O1 6255   2.458   2.058   9.771  0.7757 -0.4759 -0.5832
  415TMC3    O2 6256   2.908   2.167   9.680  0.2427  0.2349  0.0843
  416MPD2     C 6257   4.261   0.754  11.723 -0.0038  0.0121  0.0467
  416MPD2    C1 6258   4.235   0.848  11.626  0.2087 -0.2467 -0.6019
  416MPD2    C2 6259   4.242   0.805  11.492  0.0477  0.1170 -0.5222
  416MPD2    C3 6260   4.263   0.668  11.460  0.2904 -0.4898  0.0916
  416MPD2    C4 6261   4.268   0.574  11.565 -0.6046  0.3076 -0.6980
  416MPD2    C5 6262   4.277   0.620  11.695 -0.1783  1.0680  0.6216
  416MPD2     H 6263   4.221   0.872  11.410 -0.4782 -0.1824 -0.6333
  416MPD2    H1 6264   4.283   0.468  11.552  0.3028  0.4054 -0.4432
  416MPD2    H2 6265   4.265   0.780  11.828 -0.3411  1.2583 -0.2488
  416MPD2    H3 6266   4.291   0.542  11.769  1.7136 -0.9012 -1.8032
  416MPD2     N 6267   4.259   0.612  11.325 -0.0660 -0.0474  1.2011
  416MPD2    H5 6268   4.267   0.511  11.319 -0.3247  0.0092  0.0134
  416MPD2    N1 6269   4.203   0.978  11.669 -0.3842 -0.1765  0.2129
  416MPD2    H7 6270   4.179   0.983  11.767  2.6422 -1.2675  1.0160
  417TMC3    C1 6271   4.124   1.197  11.652  0.5066  0.0281  0.0938
  417TMC3    C2 6272   4.114   1.196  11.793  0.0498  0.0307  0.2997
  417TMC3    C3 6273   3.998   1.240  11.847 -0.2102 -0.1691  0.2471
  417TMC3    C4 6274   4.018   1.239  11.578  0.6480  0.3470 -0.3006
  417TMC3    C5 6275   3.903   1.270  11.637 -0.4406  1.3228  0.2188
  417TMC3    C6 6276   3.892   1.279  11.772 -0.4358  0.3623  0.0976
  417TMC3     C 6277   4.188   1.087  11.588 -0.0356 -0.6009  0.1083
  417TMC3     O 6278   4.213   1.096  11.471 -0.3995  0.6602  0.3482
  417TMC3     H 6279   4.204   1.170  11.847  0.3365 -2.8891 -1.5742
  417TMC3    H1 6280   4.015   1.235  11.470 -4.3914  0.3933 -0.1596
  417TMC3    H2 6281   3.807   1.320  11.824 -1.4477 -1.9453  0.2662
  417TMC3    C7 6282   3.799   1.328  11.547  0.2619 -0.4482  0.0840
  417TMC3    C8 6283   3.992   1.275  11.988 -0.6979 -0.1531  0.5442
  417TMC3    O1 6284   3.844   1.382  11.445  0.1656 -0.3438 -0.2978
  417TMC3    O2 6285   3.909   1.363  12.014  0.1497 -0.0363  0.0133
  418TMC3    C1 6286   2.977   3.539   0.346  0.2912 -0.0316  0.1683
  418TMC3    C2 6287   2.845   3.588   0.371 -0.0219 -0.4245 -0.6167
  418TMC3    C3 6288   2.760   3.512   0.447 -0.0005 -0.1479 -0.6614
  418TMC3    C4 6289   3.014   3.418   0.407 -0.0612 -0.4950 -0.5174
  418TMC3    C5 6290   2.928   3.361   0.496 -0.1808  0.8691 -0.0472
  418TMC3    C6 6291   2.807   3.404   0.523  0.0476 -0.0230 -0.0298
  418TMC3     C 6292   3.009   3.548   0.203 -0.2751 -0.3670  0.0619
  418TMC3     O 6293   2.967   3.641   0.135  0.7995 -0.1992  0.0535
  418TMC3     H 6294   2.803   3.663   0.305 -2.3467 -1.1757  0.0372
  418TMC3    H1 6295   3.108   3.370   0.383  0.4639  0.4651 -0.3765
  418TMC3    H2 6296   2.750   3.346   0.594  0.1827 -1.3269 -0.9775
  418TMC3    C7 6297   2.955   3.224   0.532  0.1555  0.3898 -0.7310
  418TMC3    C8 6298   2.644   3.481   0.372  0.2310 -0.3723 -0.7626
  418TMC3    O1 6299   2.875   3.137   0.498 -0.2218  0.1525 -0.1105
  418TMC3    O2 6300   2.572   3.571   0.329 -0.0036  0.8039  0.3904
  419MPD2     C 6301   1.438   0.556  12.421  0.4054  0.1891  0.2211
  419MPD2    C1 6302   1.296   0.568  12.395 -0.8630  0.2412  0.5615
  419MPD2    C2 6303   1.219   0.606  12.506 -0.0165  0.1559 -0.3095
  419MPD2    C3 6304   1.270   0.635  12.631  0.0405  0.5044 -0.1029
  419MPD2    C4 6305   1.407   0.604  12.657  0.7777 -0.2330 -0.7357
  419MPD2    C5 6306   1.487   0.570  12.554  0.5239 -0.1923 -0.4159
  419MPD2     H 6307   1.117   0.640  12.498 -1.0453 -2.8174  0.3301
  419MPD2    H1 6308   1.451   0.616  12.755 -2.4273  0.2944  0.6135
  419MPD2    H2 6309   1.510   0.511  12.353  0.5844  0.6326  0.1162
  419MPD2    H3 6310   1.591   0.555  12.581  0.0062 -2.4341  0.3223
  419MPD2     N 6311   1.185   0.719  12.707  0.2326 -0.2097  0.4846
  419MPD2    H5 6312   1.091   0.732  12.670  0.2123 -0.8655  0.3057
  419MPD2    N1 6313   1.245   0.538  12.261  0.0814 -0.1569 -0.6400
  419MPD2    H7 6314   1.309   0.517  12.185 -0.0119  0.8776 -1.0041
  420TMC3    C1 6315   1.149   0.906  12.849  0.1864 -0.4753  0.2881
  420TMC3    C2 6316   1.069   0.962  12.754 -0.3918  0.8575 -0.1895
  420TMC3    C3 6317   0.979   1.061  12.791  0.5299 -0.3143 -0.6086
  420TMC3    C4 6318   1.148   0.956  12.978  0.1116 -0.4965  0.3356
  420TMC3    C5 6319   1.079   1.071  13.004  0.3463 -0.5564 -0.0915
  420TMC3    C6 6320   0.992   1.118  12.914  0.5668 -1.0394  0.3845
  420TMC3     C 6321   1.231   0.794  12.820  0.4834  0.3645  0.6040
  420TMC3     O 6322   1.334   0.786  12.888 -0.2226 -0.1970 -0.6420
  420TMC3     H 6323   1.085   0.927  12.653 -0.0351  0.2701  0.0741
  420TMC3    H1 6324   1.206   0.902  13.052  0.3706 -1.2147 -0.3896
  420TMC3    H2 6325   0.918   1.194  12.937  0.6753 -1.2633  1.4713
  420TMC3    C7 6326   1.054   1.105  13.144  0.4600  0.2169 -0.1113
  420TMC3    C8 6327   0.881   1.111  12.699 -0.0099  0.7571  0.9455
  420TMC3    O1 6328   1.050   1.010  13.217  0.0353 -0.0328  0.3650
  420TMC3    O2 6329   0.854   1.231  12.711  0.1725  0.3587 -0.4530
  421TMC3    C1 6330   2.501   2.784  13.580 -0.4593  0.0199 -0.3657
  421TMC3    C2 6331   2.540   2.916  13.592  0.3691 -0.0531 -0.8204
  421TMC3    C3 6332   2.532   2.966  13.720  1.1517 -0.1174  0.2377
  421TMC3    C4 6333   2.462   2.711  13.689  0.5400  0.5596  0.0625
  421TMC3    C5 6334   2.445   2.769  13.809 -0.5339 -0.7891 -0.0789
  421TMC3    C6 6335   2.472   2.898  13.827  0.2009 -1.1040 -0.7599
  421TMC3     C 6336   2.551   2.698  13.472 -0.5856 -0.1810  0.4917
  421TMC3     O 6337   2.658   2.730  13.429 -0.1562 -0.1901  0.6837
  421TMC3     H 6338   2.609   2.956  13.519 -0.6532  1.9748 -0.6821
  421TMC3    H1 6339   2.446   2.603  13.685  0.0312  0.5360  2.5675
  421TMC3    H2 6340   2.461   2.942  13.926 -1.1842 -0.4076 -1.2262
  421TMC3    C7 6341   2.492   2.700  13.927 -0.4584  0.5756 -0.6033
  421TMC3    C8 6342   2.570   3.106  13.746 -0.1019  0.2555  0.0990
  421TMC3    O1 6343   2.588   2.746  13.987  0.3040  0.6098  0.3135
  421TMC3    O2 6344   2.629   3.119  13.849 -0.2923  0.4586 -0.7962
  422TMC3    C1 6345   4.579   3.926  12.558  0.5644  0.1219  0.4626
  422TMC3    C2 6346   4.555   4.012  12.663  0.2088  0.3788  0.0807
  422TMC3    C3 6347   4.461   3.971  12.753 -0.1752  0.0176 -0.4229
  422TMC3    C4 6348   4.503   3.811  12.542 -0.2532  0.5313 -0.9862
  422TMC3    C5 6349   4.415   3.774  12.646  0.3741 -0.1065 -0.3250
  422TMC3    C6 6350   4.379   3.862  12.744 -0.3644 -0.3278 -0.0023
  422TMC3     C 6351   4.639   4.003  12.452 -0.5755  0.3419  0.3730
  422TMC3     O 6352   4.609   4.120  12.430  0.0394 -0.7905 -0.2077
  422TMC3     H 6353   4.615   4.102  12.669  0.5789  0.2113 -1.2762
  422TMC3    H1 6354   4.518   3.736  12.465  1.0752  0.7554 -0.9423
  422TMC3    H2 6355   4.312   3.844  12.827 -1.2917 -0.4715 -0.7806
  422TMC3    C7 6356   4.369   3.639  12.648 -0.9213  0.1908 -0.8035
  422TMC3    C8 6357   4.438   4.067  12.857 -0.2791  0.2385  0.4154
  422TMC3    O1 6358   4.411   3.551  12.569  0.4930  0.1172  0.4783
  422TMC3    O2 6359   4.536   4.134  12.878 -0.0514  0.3375  0.0334
  423MPD2     C 6360   1.649   0.550   0.300 -0.2775 -0.4368 -0.8157
  423MPD2    C1 6361   1.624   0.432   0.364 -0.0422 -0.2090  0.4336
  423MPD2    C2 6362   1.574   0.328   0.292 -0.2012 -0.5726  0.0645
  423MPD2    C3 6363   1.546   0.343   0.159  0.9770 -0.5636 -0.6897
  423MPD2    C4 6364   1.552   0.466   0.098 -0.0432  0.5776  0.0481
  423MPD2    C5 6365   1.603   0.567   0.169  0.7526 -0.3042 -0.0377
  423MPD2     H 6366   1.548   0.242   0.354  2.1512  0.3932  2.3899
  423MPD2    H1 6367   1.515   0.481  17.754 -0.0436  2.4459  0.3259
  423MPD2    H2 6368   1.696   0.640   0.338  1.2512 -1.5920  0.0476
  423MPD2    H3 6369   1.614   0.667   0.129 -1.7492  0.5793  1.4573
  423MPD2     N 6370   1.514   0.239   0.071 -0.3877 -0.4606  0.2961
  423MPD2    H5 6371   1.507   0.257  17.728 -2.2108 -0.4683  0.4218
  423MPD2    N1 6372   1.652   0.413   0.504  0.2469  0.2028  0.5783
  423MPD2    H7 6373   1.634   0.324   0.549  1.6304 -1.3373 -1.9160
  424TMC3    C1 6374   1.731   0.446   0.720 -0.0504  0.2657 -0.1370
  424TMC3    C2 6375   1.852   0.423   0.776 -0.0737 -0.0727 -0.6542
  424TMC3    C3 6376   1.856   0.354   0.891  0.8390 -0.3091  0.1178
  424TMC3    C4 6377   1.610   0.418   0.777  0.0288 -0.2222 -0.5790
  424TMC3    C5 6378   1.622   0.345   0.897 -0.9567  0.7099  0.4882
  424TMC3    C6 6379   1.742   0.305   0.944 -0.3382  0.3139  0.0293
  424TMC3     C 6380   1.730   0.493   0.584  0.2768  0.3752  0.0969
  424TMC3     O 6381   1.796   0.591   0.564 -0.1332 -0.0211  0.0753
  424TMC3     H 6382   1.931   0.455   0.709 -0.5520  1.6446 -0.3963
  424TMC3    H1 6383   1.515   0.448   0.735  1.0135  1.8961 -1.2500
  424TMC3    H2 6384   1.749   0.232   1.023 -0.4214  1.8086  1.4141
  424TMC3    C7 6385   1.505   0.299   0.966 -0.3481 -0.0197 -0.0024
  424TMC3    C8 6386   1.976   0.286   0.922 -0.0074  0.5182 -0.0702
  424TMC3    O1 6387   1.511   0.287   1.087  0.3207 -0.1950 -0.1165
  424TMC3    O2 6388   1.968   0.168   0.958 -0.2655 -0.4589 -0.0694
  425MPD2     C 6389   0.537   4.220  17.477  0.2603 -0.7163  0.1589
  425MPD2    C1 6390   0.485   4.205  17.349  0.1113 -0.5144  0.1365
  425MPD2    C2 6391   0.356   4.242  17.315  0.5419 -0.3220 -0.2272
  425MPD2    C3 6392   0.280   4.300  17.413 -0.5206 -0.8878 -0.1499
  425MPD2    C4 6393   0.338   4.327  17.538 -0.6624 -0.4158 -0.1061
  425MPD2    C5 6394   0.464   4.296  17.563  0.0742 -0.5487  0.7178
  425MPD2     H 6395   0.314   4.212  17.219  0.3528  1.5120 -0.7297
  425MPD2    H1 6396   0.281   4.376  17.615  0.4835  0.9212 -0.1074
  425MPD2    H2 6397   0.640   4.191  17.497  0.0728 -0.7658  1.0463
  425MPD2    H3 6398   0.497   4.319  17.663 -1.3384 -2.8033  1.7160
  425MPD2     N 6399   0.145   4.319  17.383 -0.1613 -0.1878  0.1789
  425MPD2    H5 6400   0.110   4.282  17.295 -1.9960  1.8485  0.0465
  425MPD2    N1 6401   0.571   4.133  17.262 -0.4545 -0.5543 -0.4161
  425MPD2    H7 6402   0.667   4.126  17.294 -0.3162 -1.2020 -0.9724
  426TMC3    C1 6403   0.634   3.997  17.076 -0.3952 -0.1097  0.7589
  426TMC3    C2 6404   0.637   4.003  16.941 -0.3576 -0.3248  0.3935
  426TMC3    C3 6405   0.705   3.902  16.882 -0.4898 -0.2531 -0.0688
  426TMC3    C4 6406   0.673   3.890  17.155 -0.3728 -0.2510 -0.0462
  426TMC3    C5 6407   0.733   3.787  17.091 -0.6014  0.3887 -0.2156
  426TMC3    C6 6408   0.762   3.796  16.955  0.3138 -0.3536  0.1768
  426TMC3     C 6409   0.534   4.084  17.136 -0.4050 -0.1226 -0.4254
  426TMC3     O 6410   0.450   4.127  17.058 -0.1989  0.5842 -0.3130
  426TMC3     H 6411   0.593   4.092  16.898  1.6752  1.8059  2.6513
  426TMC3    H1 6412   0.648   3.898  17.260 -2.3049  0.7070 -0.5874
  426TMC3    H2 6413   0.801   3.709  16.904 -1.3181 -0.8798 -0.1796
  426TMC3    C7 6414   0.732   3.654  17.142  1.0255 -0.7850 -0.2864
  426TMC3    C8 6415   0.705   3.890  16.734 -0.2708  0.5882 -0.3120
  426TMC3    O1 6416   0.805   3.563  17.098 -0.2641 -0.2386  0.5293
  426TMC3    O2 6417   0.791   3.826  16.678  0.2171  0.7175 -0.4589
  427MPD2     C 6418   3.912   0.904  14.903 -0.4369  0.0794 -0.1909
  427MPD2    C1 6419   3.852   0.944  15.020 -0.8398 -0.9507  0.5535
  427MPD2    C2 6420   3.720   0.989  15.018 -0.0015 -0.5233  0.4425
  427MPD2    C3 6421   3.646   0.974  14.901 -0.5820  0.7230 -0.7001
  427MPD2    C4 6422   3.710   0.946  14.780  0.0082 -0.3839  0.1190
  427MPD2    C5 6423   3.847   0.920  14.783 -0.2122  0.2596  0.0893
  427MPD2     H 6424   3.673   1.026  15.108  2.9953 -2.2022  2.7157
  427MPD2    H1 6425   3.650   0.935  14.690 -0.4222  1.2203  0.2228
  427MPD2    H2 6426   4.014   0.869  14.890 -1.3602 -2.0453 -1.5639
  427MPD2    H3 6427   3.890   0.874  14.695 -0.3111 -0.8332  0.6069
  427MPD2     N 6428   3.502   0.998  14.889  0.1097 -0.0747  0.2839
  427MPD2    H5 6429   3.455   0.993  14.799  1.2673 -1.6076 -0.2157
  427MPD2    N1 6430   3.911   0.941  15.150 -0.1791 -0.1612  0.7506
  427MPD2    H7 6431   3.852   0.979  15.223 -1.5361 -1.5704  0.3889
  428TMC3    C1 6432   4.069   0.954  15.327  0.4546  0.0285 -0.2014
  428TMC3    C2 6433   3.988   0.910  15.433  0.0729  0.0754  0.1963
  428TMC3    C3 6434   4.031   0.930  15.560  0.3932  0.0959  0.0702
  428TMC3    C4 6435   4.180   1.024  15.346 -0.2889  0.2572  0.4925
  428TMC3    C5 6436   4.217   1.049  15.479 -0.1424  0.1198  0.2352
  428TMC3    C6 6437   4.143   1.001  15.586  0.3096  0.2695  0.5143
  428TMC3     C 6438   4.043   0.927  15.188 -0.2909  0.0436 -1.0594
  428TMC3     O 6439   4.142   0.931  15.119 -0.1506  0.3115 -0.4487
  428TMC3     H 6440   3.888   0.870  15.417  1.2318 -2.4689 -0.6932
  428TMC3    H1 6441   4.245   1.074  15.275 -1.3692  0.0169 -0.6771
  428TMC3    H2 6442   4.192   1.012  15.682  1.5511 -1.1073  0.0382
  428TMC3    C7 6443   4.341   1.123  15.510  0.1212 -0.0244 -0.6379
  428TMC3    C8 6444   3.985   0.836  15.651  0.4319  0.5638 -0.0840
  428TMC3    O1 6445   4.365   1.144  15.628 -0.0927  0.3732  1.1002
  428TMC3    O2 6446   3.908   0.751  15.617 -0.1245 -0.4594 -0.0209
  429MPD2     C 6447   0.271   1.929  17.675 -0.4612  0.0915 -0.3797
  429MPD2    C1 6448   0.342   1.852  17.583 -0.3764  0.4230  0.4868
  429MPD2    C2 6449   0.413   1.916  17.489  0.9570 -0.3087  0.2334
  429MPD2    C3 6450   0.423   2.054  17.493 -0.2256  0.4866 -0.0182
  429MPD2    C4 6451   0.348   2.131  17.572 -0.2645 -0.5135 -0.2108
  429MPD2    C5 6452   0.277   2.063  17.670  0.0702  0.5254  0.3788
  429MPD2     H 6453   0.480   1.866  17.420 -1.2097 -1.8402 -0.7814
  429MPD2    H1 6454   0.342   2.240  17.575 -2.5391 -0.6791  1.4575
  429MPD2    H2 6455   0.214   1.887  17.756  0.2146  0.5269  0.3179
  429MPD2    H3 6456   0.228   2.121  17.748 -1.3866 -1.2389  0.7901
  429MPD2     N 6457   0.499   2.116  17.391  0.2060  0.0061 -0.0055
  429MPD2    H5 6458   0.566   2.056  17.343  2.0796  1.0402  1.2945
  429MPD2    N1 6459   0.346   1.712  17.589 -0.3531  0.2115  0.2904
  429MPD2    H7 6460   0.418   1.678  17.526  0.0888 -1.0247  1.4427
  430TMC3    C1 6461   0.615   2.296  17.283  0.2696  0.5421 -0.6760
  430TMC3    C2 6462   0.596   2.419  17.223  0.0756  0.2539  0.8121
  430TMC3    C3 6463   0.662   2.438  17.104 -0.2179  0.7068  0.3814
  430TMC3    C4 6464   0.696   2.200  17.240  0.3763 -0.1566 -0.3218
  430TMC3    C5 6465   0.777   2.238  17.129  0.2745  0.3329 -0.1677
  430TMC3    C6 6466   0.759   2.351  17.056 -0.6495 -0.1901 -0.0724
  430TMC3     C 6467   0.509   2.256  17.376 -0.5508  0.2674 -0.5852
  430TMC3     O 6468   0.435   2.349  17.409 -0.2752  0.6243 -0.2540
  430TMC3     H 6469   0.522   2.482  17.269 -0.7747  0.9209 -1.4831
  430TMC3    H1 6470   0.736   2.112  17.289  0.5509  0.2814  0.3189
  430TMC3    H2 6471   0.825   2.375  16.973 -1.2536  2.4468  0.1820
  430TMC3    C7 6472   0.791   2.126  17.036  0.4463 -0.3780 -0.2613
  430TMC3    C8 6473   0.586   2.508  17.000 -0.2458  1.0086 -0.3527
  430TMC3    O1 6474   0.797   2.014  17.084 -0.1227 -0.7430  0.0112
  430TMC3    O2 6475   0.617   2.498  16.882  0.2884  0.0847 -0.2975
  431MPD2     C 6476   1.077   1.210  12.279 -0.5314  0.2069 -0.1092
  431MPD2    C1 6477   1.187   1.165  12.207  0.1613 -0.5384  0.0163
  431MPD2    C2 6478   1.167   1.057  12.121 -0.2628  0.9166 -0.1800
  431MPD2    C3 6479   1.032   1.017  12.104 -0.0642  0.7601 -1.4130
  431MPD2    C4 6480   0.923   1.075  12.163 -0.5797 -0.4533  0.3429
  431MPD2    C5 6481   0.948   1.175  12.253  0.2179 -0.7267 -0.4858
  431MPD2     H 6482   1.248   1.011  12.064 -0.6205  0.7174 -0.5316
  431MPD2    H1 6483   0.824   1.050  12.129 -2.0109  0.1060  4.0760
  431MPD2    H2 6484   1.089   1.303  12.335  1.6594 -0.1090 -0.0909
  431MPD2    H3 6485   0.865   1.233  12.291  1.6235  0.3093  0.9677
  431MPD2     N 6486   0.995   0.915  12.009  0.0480 -0.5452 -0.1608
  431MPD2    H5 6487   0.897   0.886  12.011  0.0026 -0.4514 -0.9664
  431MPD2    N1 6488   1.320   1.216  12.214 -0.4588 -0.2024  0.6786
  431MPD2    H7 6489   1.388   1.164  12.159 -0.1188  1.0993 -0.1358
  432TMC3    C1 6490   1.037   0.708  11.913 -0.4010 -0.0868 -0.0701
  432TMC3    C2 6491   1.119   0.639  11.827  0.1264 -0.3412 -0.6854
  432TMC3    C3 6492   1.182   0.529  11.872 -0.0919  0.1926  0.8126
  432TMC3    C4 6493   1.015   0.648  12.032 -0.6662  0.3020  0.0662
  432TMC3    C5 6494   1.084   0.541  12.082  0.1209 -0.6131 -0.1543
  432TMC3    C6 6495   1.164   0.475  12.001 -0.3633  0.8818  0.4075
  432TMC3     C 6496   1.079   0.845  11.922  0.2784  0.1574 -0.2266
  432TMC3     O 6497   1.192   0.877  11.888  0.0317 -0.0124  0.0439
  432TMC3     H 6498   1.141   0.674  11.727 -0.9134 -1.1656 -1.2059
  432TMC3    H1 6499   0.943   0.695  12.097  1.7515  0.7361  2.4031
  432TMC3    H2 6500   1.233   0.396  12.029  1.5762  2.6588  0.5592
  432TMC3    C7 6501   1.109   0.554  12.226  0.2541  0.3271  0.6894
  432TMC3    C8 6502   1.278   0.465  11.791  0.8012 -1.2397  0.0914
  432TMC3    O1 6503   1.024   0.604  12.297 -0.1357 -0.2684 -0.7167
  432TMC3    O2 6504   1.285   0.345  11.808 -0.1853  0.1712 -0.0205
  433MPD2     C 6505   0.147   0.607  10.685  0.0122 -0.8705  0.0965
  433MPD2    C1 6506   0.162   0.478  10.729  0.0979  0.0964  0.7000
  433MPD2    C2 6507   0.196   0.467  10.862  0.2097  0.1482 -0.0616
  433MPD2    C3 6508   0.203   0.570  10.954  0.0264  0.2857 -0.2022
  433MPD2    C4 6509   0.208   0.702  10.897 -0.3972  0.2985 -0.2493
  433MPD2    C5 6510   0.172   0.716  10.759  0.2580 -0.0191 -0.9364
  433MPD2     H 6511   0.206   0.367  10.900 -0.7993 -0.0260 -0.2738
  433MPD2    H1 6512   0.230   0.797  10.945 -2.2249  0.6039 -0.0309
  433MPD2    H2 6513   0.112   0.629  10.584 -0.5176 -4.9956 -0.6065
  433MPD2    H3 6514   0.153   0.812  10.712  1.4155 -0.2001 -1.7807
  433MPD2     N 6515   0.221   0.534  11.090  0.8532  0.1849 -0.1735
  433MPD2    H5 6516   0.212   0.434  11.103 -0.8843  0.0546 -2.3558
  433MPD2    N1 6517   0.148   0.362  10.644 -0.8728 -0.0093  0.1014
  433MPD2    H7 6518   0.149   0.278  10.700  2.2406 -0.0912 -0.0628
  434TMC3    C1 6519   0.129   0.222  10.458 -0.2115  0.2858  0.2011
  434TMC3    C2 6520   0.233   0.147  10.505  0.2259 -0.2097 -0.7909
  434TMC3    C3 6521   0.216   0.014  10.546  0.0454 -0.1020 -0.8090
  434TMC3    C4 6522   0.005   0.165  10.445  0.2353  0.9237 -0.9917
  434TMC3    C5 6523   4.739   0.031  10.487 -0.7792  0.2627  0.8964
  434TMC3    C6 6524   0.098   4.694  10.540 -0.1920  0.1680 -0.4219
  434TMC3     C 6525   0.135   0.357  10.505  0.3524 -0.2686  0.0883
  434TMC3     O 6526   0.129   0.450  10.422  0.2897 -0.3233  0.3832
  434TMC3     H 6527   0.329   0.196  10.520 -0.0898  0.4248 -0.8793
  434TMC3    H1 6528   4.663   0.220  10.399 -1.0008 -0.3688 -0.3427
  434TMC3    H2 6529   0.086   4.605  10.600  2.3840  0.4071  0.4917
  434TMC3    C7 6530   4.617   4.697  10.445 -0.4478 -0.6421 -0.5318
  434TMC3    C8 6531   0.322   4.689  10.613  0.0426 -0.0648 -0.3387
  434TMC3    O1 6532   4.518   0.030  10.430  0.2079  0.2133  0.0055
  434TMC3    O2 6533   0.295   4.618  10.708 -0.1461 -0.2041  0.3081
  435MPD2     C 6534   2.178   0.412  15.256  1.2794 -0.6482  0.5926
  435MPD2    C1 6535   2.098   0.377  15.361 -1.0613  0.4193 -0.4038
  435MPD2    C2 6536   2.145   0.300  15.463 -0.2430  0.4320  0.1021
  435MPD2    C3 6537   2.277   0.262  15.459  0.4200 -0.1382  0.2933
  435MPD2    C4 6538   2.362   0.305  15.352 -0.2719 -0.0325 -0.0880
  435MPD2    C5 6539   2.304   0.365  15.247 -0.1858  0.0144 -0.1433
  435MPD2     H 6540   2.083   0.260  15.543  0.3154  1.2145  0.9108
  435MPD2    H1 6541   2.468   0.286  15.342 -0.6149 -0.7870 -2.3099
  435MPD2    H2 6542   2.137   0.461  15.169  3.1469  1.8411  1.1117
  435MPD2    H3 6543   2.349   0.390  15.152 -3.6869  1.4766 -1.4037
  435MPD2     N 6544   2.330   0.186  15.567  0.3776 -0.7579  0.0275
  435MPD2    H5 6545   2.262   0.189  15.641  0.6728  0.9533  0.2365
  435MPD2    N1 6546   1.964   0.422  15.370  0.3921  0.4369  0.4363
  435MPD2    H7 6547   1.906   0.375  15.439 -1.5425  1.4940 -0.4517
  436TMC3    C1 6548   1.574   0.396  15.379  0.0503 -0.1835 -0.1119
  436TMC3    C2 6549   1.697   0.456  15.398  0.2674 -0.4589  0.2816
  436TMC3    C3 6550   1.756   0.508  15.286 -0.5496  0.0158  0.3048
  436TMC3    C4 6551   1.521   0.394  15.254  0.0257  0.1316  0.1454
  436TMC3    C5 6552   1.589   0.434  15.145 -0.0301  0.3621 -0.7388
  436TMC3    C6 6553   1.703   0.500  15.156 -1.1526 -0.4800  0.2380
  436TMC3     C 6554   1.500   0.339  15.492  0.3419  0.0822 -0.7111
  436TMC3     O 6555   1.426   0.250  15.457 -0.1234 -0.6366  0.0655
  436TMC3     H 6556   1.744   0.455  15.495 -1.2936  2.9902  1.0799
  436TMC3    H1 6557   1.417   0.363  15.247  0.0938 -0.1533  0.4124
  436TMC3    H2 6558   1.760   0.536  15.071 -1.2534 -0.3768  0.2148
  436TMC3    C7 6559   1.540   0.407  15.013 -0.6306  0.0037  0.4275
  436TMC3    C8 6560   1.900   0.516  15.280  0.7094 -0.8054 -0.0338
  436TMC3    O1 6561   1.576   0.477  14.919 -0.0082 -0.4549  0.0818
  436TMC3    O2 6562   1.954   0.576  15.190 -0.2776  0.0390 -0.3081
  437TMC3    C1 6563   2.064   2.101  11.293  0.0414  0.0225 -0.1866
  437TMC3    C2 6564   1.984   2.067  11.185 -0.5898 -0.5965 -0.4317
  437TMC3    C3 6565   1.923   1.944  11.181 -0.2330  0.6310  1.1927
  437TMC3    C4 6566   2.080   2.007  11.388  0.3969  0.2730  0.6398
  437TMC3    C5 6567   2.013   1.888  11.381  0.2246 -0.0738 -0.0437
  437TMC3    C6 6568   1.943   1.846  11.271  0.9820 -0.2950  0.4452
  437TMC3     C 6569   2.148   2.222  11.288 -0.7491 -0.5802 -0.2675
  437TMC3     O 6570   2.144   2.280  11.179  0.6088 -0.1835 -0.3966
  437TMC3     H 6571   1.969   2.132  11.099  1.8469  0.0628 -0.3882
  437TMC3    H1 6572   2.151   2.034  11.466  1.9591 -0.8207 -0.4021
  437TMC3    H2 6573   1.889   1.752  11.269 -1.0987  0.9243 -1.2765
  437TMC3    C7 6574   2.014   1.805  11.503 -0.6427 -0.4544 -0.1001
  437TMC3    C8 6575   1.826   1.919  11.071  0.0069 -0.4102 -0.4241
  437TMC3    O1 6576   1.958   1.700  11.492 -0.0112 -0.0721  0.1247
  437TMC3    O2 6577   1.770   2.016  11.019 -0.0648  0.0388 -0.8995
  438MPD2     C 6578   2.609   3.090  16.729 -0.9008  0.0211  0.0632
  438MPD2    C1 6579   2.727   3.014  16.745 -0.4648  0.3178 -0.3744
  438MPD2    C2 6580   2.763   2.989  16.876  0.1324  0.5213  0.3825
  438MPD2    C3 6581   2.685   3.031  16.985  0.7236  0.3664 -0.5411
  438MPD2    C4 6582   2.577   3.114  16.964 -0.4725  0.9136 -1.0429
  438MPD2    C5 6583   2.546   3.150  16.831  0.1291 -0.9095  0.1985
  438MPD2     H 6584   2.851   2.931  16.902 -0.5830 -0.0978  1.4019
  438MPD2    H1 6585   2.517   3.150  17.048 -0.6530  0.7070 -1.0819
  438MPD2    H2 6586   2.572   3.117  16.630 -3.2038 -1.0128  0.6270
  438MPD2    H3 6587   2.457   3.209  16.816  0.9872  0.6329  1.2142
  438MPD2     N 6588   2.713   2.991  17.123 -0.4786 -0.7811  0.1385
  438MPD2    H5 6589   2.658   3.039  17.194  0.7373 -0.4429  0.8541
  438MPD2    N1 6590   2.815   2.976  16.641 -0.1582  0.3111  0.2157
  438MPD2    H7 6591   2.903   2.931  16.661  0.5359  1.2263 -0.7639
  439TMC3    C1 6592   2.898   2.955  16.416  0.7481  0.5294 -0.0912
  439TMC3    C2 6593   2.867   2.932  16.288 -0.2364  0.1104 -0.4410
  439TMC3    C3 6594   2.967   2.952  16.198 -1.0979 -0.4100 -0.2590
  439TMC3    C4 6595   3.021   2.983  16.462 -0.5274 -0.1308 -0.3434
  439TMC3    C5 6596   3.120   2.978  16.367 -0.0538  0.3683 -0.4114
  439TMC3    C6 6597   3.095   2.975  16.232  0.1858 -0.6196  0.5258
  439TMC3     C 6598   2.786   2.982  16.508  0.6252 -0.3047 -0.4102
  439TMC3     O 6599   2.681   3.001  16.454 -0.1186  0.0523  0.5754
  439TMC3     H 6600   2.763   2.922  16.262 -0.7258  1.5454  0.9398
  439TMC3    H1 6601   3.053   3.000  16.564 -1.6478 -1.4895  0.2396
  439TMC3    H2 6602   3.171   2.963  16.156 -2.0569 -1.5366 -1.5530
  439TMC3    C7 6603   3.239   2.907  16.401  0.0903  0.1314  0.3570
  439TMC3    C8 6604   2.974   2.855  16.098  0.4718 -0.0109  0.8334
  439TMC3    O1 6605   3.290   2.945  16.506  0.2252  0.6628 -0.3641
  439TMC3    O2 6606   3.036   2.752  16.132  0.0754 -0.1430  0.4855
  440MPD2     C 6607   1.606   2.948  14.893  0.1002 -0.2378  0.0536
  440MPD2    C1 6608   1.707   3.026  14.951 -0.7221  0.2179 -0.2823
  440MPD2    C2 6609   1.825   2.960  14.984  0.0730  0.3901 -0.2451
  440MPD2    C3 6610   1.835   2.823  14.986  0.2179  0.0099  0.1008
  440MPD2    C4 6611   1.728   2.744  14.943  0.6048  0.4124  0.3229
  440MPD2    C5 6612   1.619   2.809  14.894  0.5165  0.0769 -0.2067
  440MPD2     H 6613   1.910   3.016  15.022  0.4672  0.0392 -0.6151
  440MPD2    H1 6614   1.726   2.636  14.945 -1.4089  0.4520  0.5113
  440MPD2    H2 6615   1.517   2.994  14.854  0.8027  0.9409 -0.1384
  440MPD2    H3 6616   1.545   2.744  14.849 -0.5828  1.4067 -0.3091
  440MPD2     N 6617   1.948   2.758  15.034  0.0686 -0.0814 -0.1279
  440MPD2    H5 6618   1.949   2.658  15.017 -0.9617  0.1224 -1.3933
  440MPD2    N1 6619   1.701   3.162  14.976  1.1763  0.3907 -0.6728
  440MPD2    H7 6620   1.774   3.194  15.039  1.0798 -0.0953 -0.3059
  441TMC3    C1 6621   2.146   2.707  15.143  0.1336 -0.4989 -0.2024
  441TMC3    C2 6622   2.244   2.760  15.213 -0.1463 -0.5058 -0.7121
  441TMC3    C3 6623   2.301   2.709  15.325 -0.0415  0.5827 -0.9627
  441TMC3    C4 6624   2.094   2.586  15.183 -0.0972  0.1396  0.8050
  441TMC3    C5 6625   2.141   2.540  15.299 -0.5482  0.7900  0.8233
  441TMC3    C6 6626   2.246   2.600  15.370 -0.0656  0.8694  0.6078
  441TMC3     C 6627   2.054   2.810  15.099 -0.1241 -1.1444 -0.0830
  441TMC3     O 6628   2.073   2.926  15.141  0.5246  0.1141 -0.0974
  441TMC3     H 6629   2.289   2.849  15.169 -0.0106  0.0546  0.5374
  441TMC3    H1 6630   2.014   2.531  15.135  1.1084 -0.4949 -0.4780
  441TMC3    H2 6631   2.268   2.572  15.472 -1.6091 -0.3333  0.6089
  441TMC3    C7 6632   2.053   2.442  15.367  0.3143 -0.4298 -0.0560
  441TMC3    C8 6633   2.322   2.813  15.426 -0.5192 -0.0148  0.2102
  441TMC3    O1 6634   1.930   2.455  15.352  0.3117 -0.3696 -0.0841
  441TMC3    O2 6635   2.370   2.768  15.528  0.0789 -0.1699 -0.2693
  442MPD2     C 6636   0.004   3.998  16.227 -0.2236  0.0298  0.4812
  442MPD2    C1 6637   4.675   3.899  16.306  0.2125  0.4592 -0.4213
  442MPD2    C2 6638   4.683   3.761  16.265  0.2815 -0.4922  0.0989
  442MPD2    C3 6639   0.025   3.725  16.164 -0.5263 -0.4342  0.5655
  442MPD2    C4 6640   0.091   3.820  16.088  0.1058  0.1831  0.1177
  442MPD2    C5 6641   0.081   3.956  16.118  0.1670  0.0463 -0.7574
  442MPD2     H 6642   4.608   3.691  16.302 -0.1905  0.6186  1.2515
  442MPD2    H1 6643   0.151   3.797  16.001  2.9361  0.2455  2.0662
  442MPD2    H2 6644   4.727   4.103  16.246 -0.7107 -0.1673  1.1470
  442MPD2    H3 6645   0.116   4.024  16.041 -0.9259  0.3572 -0.9882
  442MPD2     N 6646   0.027   3.596  16.110  0.0171  0.2032  0.0109
  442MPD2    H5 6647   0.089   3.578  16.032  0.4985 -1.6015  0.7895
  442MPD2    N1 6648   4.597   3.953  16.411  0.1232  0.3297 -0.6782
  442MPD2    H7 6649   4.605   4.052  16.430  0.0903  0.0194  0.9569
  443TMC3    C1 6650   4.472   3.954  16.612  0.6974  0.0736  0.0895
  443TMC3    C2 6651   4.421   4.080  16.578  0.1573 -0.4620 -0.8157
  443TMC3    C3 6652   4.315   4.122  16.647  0.6360  0.0689 -0.8282
  443TMC3    C4 6653   4.427   3.884  16.713 -0.0896 -0.1410  0.2186
  443TMC3    C5 6654   4.309   3.923  16.767  0.1013 -0.1249  0.9148
  443TMC3    C6 6655   4.256   4.044  16.741 -0.5558  0.1944  0.0124
  443TMC3     C 6656   4.536   3.877  16.504 -0.5324  0.1159 -0.0753
  443TMC3     O 6657   4.550   3.758  16.523 -0.2067  0.1745  0.1791
  443TMC3     H 6658   4.443   4.144  16.493  0.5812  1.7739  0.9975
  443TMC3    H1 6659   4.463   3.784  16.733 -1.8411 -0.8838 -0.2666
  443TMC3    H2 6660   4.154   4.071  16.767 -0.4164  3.7506 -3.0672
  443TMC3    C7 6661   4.234   3.836  16.857 -0.3156 -0.0335 -0.0900
  443TMC3    C8 6662   4.247   4.255  16.615 -0.3941  0.1912  0.7972
  443TMC3    O1 6663   4.241   3.715  16.836 -0.6113 -0.2436 -0.3160
  443TMC3    O2 6664   4.218   4.321  16.718  0.0762 -0.0898 -0.2548
  444MPD2     C 6665   0.146   3.426  16.848 -0.1942 -0.1505  0.4349
  444MPD2    C1 6666   0.061   3.317  16.819 -0.1041  0.5229  0.1656
  444MPD2    C2 6667   0.109   3.204  16.749 -0.1161  0.1463 -0.7669
  444MPD2    C3 6668   0.242   3.199  16.702  0.4606  0.3644  0.2128
  444MPD2    C4 6669   0.324   3.309  16.733 -0.2024  0.4330  0.8069
  444MPD2    C5 6670   0.273   3.415  16.807 -0.2579  0.0645  0.5047
  444MPD2     H 6671   0.042   3.118  16.751  0.6305 -0.4169  0.1659
  444MPD2    H1 6672   0.428   3.313  16.704 -0.5999 -0.8281 -0.8183
  444MPD2    H2 6673   0.110   3.512  16.903  0.2952 -0.3450  1.0640
  444MPD2    H3 6674   0.345   3.493  16.829 -0.0154  0.2954 -1.0483
  444MPD2     N 6675   0.297   3.085  16.632 -0.3349 -0.0544  0.1146
  444MPD2    H5 6676   0.397   3.089  16.611 -0.1113  2.0741  1.6669
  444MPD2    N1 6677   4.664   3.319  16.857  0.6061  0.5624 -0.3216
  444MPD2    H7 6678   4.624   3.226  16.856 -0.4288  0.9992  1.2017
  445TMC3    C1 6679   0.306   2.872  16.520 -0.0262 -0.0541 -0.5642
  445TMC3    C2 6680   0.246   2.805  16.419 -0.2790 -0.4562  0.0284
  445TMC3    C3 6681   0.321   2.737  16.330  0.2282  0.4717 -0.0059
  445TMC3    C4 6682   0.435   2.870  16.552 -0.2895 -0.0621 -0.2964
  445TMC3    C5 6683   0.505   2.790  16.468  0.3618 -0.1311  0.2787
  445TMC3    C6 6684   0.458   2.738  16.352 -0.0904 -0.5156 -0.4956
  445TMC3     C 6685   0.226   2.976  16.586  0.0956 -0.0105  0.4254
  445TMC3     O 6686   0.105   2.960  16.591  0.5900 -0.8708 -0.1123
  445TMC3     H 6687   0.143   2.830  16.399  0.5097  3.1614  0.5788
  445TMC3    H1 6688   0.468   2.895  16.652 -0.5785  1.4373 -0.5815
  445TMC3    H2 6689   0.528   2.693  16.282  0.3166 -0.8858  0.1502
  445TMC3    C7 6690   0.651   2.773  16.483  0.3387 -0.2363 -0.3717
  445TMC3    C8 6691   0.255   2.662  16.228 -0.8245  0.0604  0.0890
  445TMC3    O1 6692   0.702   2.666  16.445 -0.4004  0.1756  0.7539
  445TMC3    O2 6693   0.133   2.677  16.207 -0.0399 -0.0572  0.2975
  446MPD2     C 6694   0.022   4.389  11.059  0.3831 -0.4535  0.5665
  446MPD2    C1 6695   0.002   4.465  10.945 -0.0581  0.7545 -0.3341
  446MPD2    C2 6696   0.091   4.568  10.917  0.2794 -0.3765  0.5359
  446MPD2    C3 6697   0.207   4.595  11.001 -0.8291 -0.0050  0.3631
  446MPD2    C4 6698   0.228   4.508  11.107  0.0428  0.0938  0.2550
  446MPD2    C5 6699   0.138   4.406  11.130  0.4033  0.5057 -0.2192
  446MPD2     H 6700   0.063   4.636  10.837 -2.1987 -0.1979  1.5478
  446MPD2    H1 6701   0.307   4.513  11.181  0.1109  3.5160 -0.0465
  446MPD2    H2 6702   4.694   4.311  11.092  0.5844 -0.8339  0.0773
  446MPD2    H3 6703   0.155   4.337  11.212  1.8159  1.4986  0.3006
  446MPD2     N 6704   0.295   4.704  10.972 -0.0584 -0.0965 -0.4857
  446MPD2    H5 6705   0.273   0.037  10.904  0.7232  2.5099  2.0918
  446MPD2    N1 6706   4.624   4.441  10.871 -0.1729  1.0226  0.4256
  446MPD2    H7 6707   4.603   4.504  10.795 -1.5758 -1.0224 -0.8570
  447TMC3    C1 6708   0.496   0.087  11.011 -0.0712  0.5769 -0.5714
  447TMC3    C2 6709   0.450   0.181  10.924  1.0860  0.4080  0.3789
  447TMC3    C3 6710   0.540   0.260  10.864  0.3008  0.6742  0.1803
  447TMC3    C4 6711   0.629   0.070  11.039 -0.7559 -0.3617 -0.0679
  447TMC3    C5 6712   0.720   0.157  10.986 -0.8293  0.6505 -0.1700
  447TMC3    C6 6713   0.676   0.253  10.895 -0.6177 -0.1194  0.0230
  447TMC3     C 6714   0.421   4.710  11.035  0.2776 -0.4410  1.0913
  447TMC3     O 6715   0.481   4.623  11.097  0.3226  0.1319  0.1363
  447TMC3     H 6716   0.346   0.202  10.901  1.3718  0.0779 -1.2798
  447TMC3    H1 6717   0.655   4.739  11.117  1.7396 -0.6705 -1.1814
  447TMC3    H2 6718   0.748   0.314  10.843  0.8541 -4.0003 -2.5294
  447TMC3    C7 6719   0.862   0.122  11.000  0.0070  0.4421  0.0336
  447TMC3    C8 6720   0.502   0.344  10.751 -0.0493  0.0985  0.3281
  447TMC3    O1 6721   0.934   0.180  10.922  0.1435 -0.5390 -0.3334
  447TMC3    O2 6722   0.473   0.299  10.647  0.4502 -0.2187  0.4414
  448TMC3    C1 6723   2.692   4.240  16.603 -0.3899  0.5750 -0.2619
  448TMC3    C2 6724   2.626   4.206  16.489 -0.5531  0.2542  0.5283
  448TMC3    C3 6725   2.568   4.080  16.478 -0.3472 -0.3825  0.2453
  448TMC3    C4 6726   2.701   4.157  16.712  0.3379 -0.1177  0.5842
  448TMC3    C5 6727   2.661   4.032  16.694  0.3866  0.0478 -0.4432
  448TMC3    C6 6728   2.588   3.990  16.580  0.4589 -0.0828  0.1210
  448TMC3     C 6729   2.673   4.378  16.629  0.3761  0.6381  0.0172
  448TMC3     O 6730   2.572   4.426  16.585  0.2936  0.2773  0.6711
  448TMC3     H 6731   2.613   4.282  16.412 -2.1712  1.4965  2.0294
  448TMC3    H1 6732   2.747   4.193  16.803  1.4091  0.4817 -0.1963
  448TMC3    H2 6733   2.547   3.890  16.570 -1.2757  0.6325  0.0802
  448TMC3    C7 6734   2.731   3.920  16.743  0.4805 -0.1735  0.2661
  448TMC3    C8 6735   2.585   4.007  16.348  0.2736 -0.1202  0.4616
  448TMC3    O1 6736   2.735   3.817  16.674  0.2754 -0.0419 -0.0923
  448TMC3    O2 6737   2.602   3.887  16.348 -0.3390  0.6481  0.0284
  449MPD2     C 6738   4.499   2.115  13.560 -0.2443 -0.0701  0.1116
  449MPD2    C1 6739   4.377   2.158  13.510 -0.0979 -0.2385  0.7025
  449MPD2    C2 6740   4.266   2.167  13.587 -1.0985  0.1211  0.2684
  449MPD2    C3 6741   4.274   2.134  13.718  0.3188 -0.2959  0.5395
  449MPD2    C4 6742   4.394   2.091  13.778  0.5921  0.2176 -0.4018
  449MPD2    C5 6743   4.507   2.081  13.694 -0.5540 -0.7340  0.2191
  449MPD2     H 6744   4.175   2.217  13.557 -0.8436  0.8054  0.6312
  449MPD2    H1 6745   4.395   2.074  13.885 -0.4889 -1.1517 -0.6040
  449MPD2    H2 6746   4.588   2.119  13.498 -1.7177 -0.1691 -2.0148
  449MPD2    H3 6747   4.603   2.055  13.738  0.4439  1.4321 -0.6090
  449MPD2     N 6748   4.152   2.156  13.786 -0.0802 -0.2477 -0.0896
  449MPD2    H5 6749   4.083   2.192  13.721  1.5065  3.1701  0.1209
  449MPD2    N1 6750   4.358   2.200  13.375  0.6741  0.4937  0.6495
  449MPD2    H7 6751   4.296   2.280  13.365  0.5682  0.2126 -0.8885
  450TMC3    C1 6752   4.391   2.261  13.146  0.5604  0.2023  0.5037
  450TMC3    C2 6753   4.486   2.316  13.061 -0.3614  0.3271 -0.2806
  450TMC3    C3 6754   4.433   2.403  12.968  0.2296 -0.1477 -0.2120
  450TMC3    C4 6755   4.257   2.296  13.149  0.0538 -0.0394  0.1553
  450TMC3    C5 6756   4.218   2.392  13.058  0.2742 -0.5480  0.5998
  450TMC3    C6 6757   4.305   2.446  12.968  0.4857  0.0185  0.4930
  450TMC3     C 6758   4.437   2.179  13.259  0.3106  0.9891  0.4377
  450TMC3     O 6759   4.540   2.117  13.249 -0.1618 -0.4409  0.4012
  450TMC3     H 6760   4.585   2.273  13.052 -1.2280 -1.7914  0.2748
  450TMC3    H1 6761   4.192   2.237  13.213  1.4937 -1.1681  0.5635
  450TMC3    H2 6762   4.273   2.527  12.904  0.5676  1.1744  1.9041
  450TMC3    C7 6763   4.097   2.466  13.081  0.1724 -0.4989  0.3985
  450TMC3    C8 6764   4.521   2.449  12.862  0.5799 -0.2135  0.0132
  450TMC3    O1 6765   4.048   2.528  12.987 -0.3398  0.2762  0.1046
  450TMC3    O2 6766   4.466   2.493  12.765  0.2173 -0.3069 -0.3829
  451MPD2     C 6767   0.516   1.002   0.749  0.8695  0.1219 -0.7489
  451MPD2    C1 6768   0.614   1.100   0.738 -0.5194  0.1456  0.0998
  451MPD2    C2 6769   0.747   1.069   0.723 -0.6723 -0.1177 -0.0732
  451MPD2    C3 6770   0.785   0.939   0.694  0.1019  0.5839  0.4367
  451MPD2    C4 6771   0.691   0.846   0.678 -0.6379 -0.2313 -0.3565
  451MPD2    C5 6772   0.560   0.870   0.724  0.1634 -0.1826 -0.4470
  451MPD2     H 6773   0.825   1.144   0.730  1.2209 -2.1948  1.1703
  451MPD2    H1 6774   0.720   0.742   0.665  0.4046  0.2734 -2.1166
  451MPD2    H2 6775   0.409   1.023   0.753  1.4126  2.7186 -0.5190
  451MPD2    H3 6776   0.481   0.796   0.727 -0.2413  0.3013  0.8476
  451MPD2     N 6777   0.919   0.901   0.666 -0.7318 -0.3751 -0.4493
  451MPD2    H5 6778   0.936   0.813   0.618  2.5446 -0.2299  0.4921
  451MPD2    N1 6779   0.566   1.232   0.738 -0.0170  0.4790  0.2054
  451MPD2    H7 6780   0.475   1.257   0.775 -0.0529  1.2169 -0.3824
  452TMC3    C1 6781   1.138   0.913   0.629 -0.7309 -1.0236  0.6416
  452TMC3    C2 6782   1.125   0.882   0.492 -0.4313  0.2531  0.1953
  452TMC3    C3 6783   1.233   0.902   0.410 -0.6515  0.4524 -0.3872
  452TMC3    C4 6784   1.254   0.960   0.681 -0.0781 -0.2024 -0.4512
  452TMC3    C5 6785   1.358   0.982   0.592  0.0837  0.3618 -0.4328
  452TMC3    C6 6786   1.350   0.958   0.460  0.0696  0.6655 -0.0728
  452TMC3     C 6787   1.026   0.977   0.687  0.3751 -0.2889  0.2566
  452TMC3     O 6788   1.038   1.086   0.744 -0.3669 -0.5396 -0.2118
  452TMC3     H 6789   1.036   0.839   0.448 -0.7068  0.5456  0.4651
  452TMC3    H1 6790   1.264   0.989   0.785  2.0013  1.0958 -1.0068
  452TMC3    H2 6791   1.437   0.964   0.396  0.1059  0.0447 -0.0836
  452TMC3    C7 6792   1.451   1.081   0.638 -0.2406  0.3479  0.0741
  452TMC3    C8 6793   1.215   0.852   0.273  0.3201 -0.0628  0.0909
  452TMC3    O1 6794   1.475   1.077   0.760  0.4041 -0.1690 -0.3905
  452TMC3    O2 6795   1.141   0.754   0.260 -0.2420 -0.4066  0.5254
  453TMC3    C1 6796   2.601   3.296  11.212  0.4937  0.3540  0.2325
  453TMC3    C2 6797   2.615   3.178  11.138 -0.0783  0.4989 -0.4091
  453TMC3    C3 6798   2.608   3.181  11.003 -0.6331  0.1768 -0.1467
  453TMC3    C4 6799   2.595   3.420  11.152 -0.5261 -0.2373 -0.1734
  453TMC3    C5 6800   2.610   3.416  11.012 -0.0042  0.1069 -0.0534
  453TMC3    C6 6801   2.613   3.305  10.940  0.0127 -0.7206  0.0920
  453TMC3     C 6802   2.627   3.296  11.357 -0.2198 -0.0358  0.0490
  453TMC3     O 6803   2.670   3.189  11.389 -0.1550 -0.4719 -0.9081
  453TMC3     H 6804   2.601   3.083  11.188 -0.0620 -0.0776 -1.4932
  453TMC3    H1 6805   2.606   3.508  11.215 -2.9502 -1.3594  1.8083
  453TMC3    H2 6806   2.608   3.311  10.832  0.7642  2.6797  0.2660
  453TMC3    C7 6807   2.656   3.537  10.954 -0.0609 -0.2621  0.5745
  453TMC3    C8 6808   2.600   3.068  10.917  0.5429  0.3254 -0.0514
  453TMC3    O1 6809   2.736   3.524  10.863 -0.4967  0.1062 -0.0100
  453TMC3    O2 6810   2.605   3.086  10.798 -0.0043 -0.1235  0.3580
  454MPD2     C 6811   1.188   3.124  16.293  0.1952  0.2151 -0.3797
  454MPD2    C1 6812   1.107   3.185  16.202  0.4705  0.6314  0.1344
  454MPD2    C2 6813   1.032   3.299  16.233  0.3424  0.5705 -0.0946
  454MPD2    C3 6814   1.034   3.345  16.362 -0.3103 -0.8427  0.6295
  454MPD2    C4 6815   1.110   3.289  16.462  0.6436  0.5052  0.2564
  454MPD2    C5 6816   1.181   3.173  16.427  0.1254  0.3239 -0.0291
  454MPD2     H 6817   0.987   3.357  16.153 -2.4148 -1.1768  0.1936
  454MPD2    H1 6818   1.111   3.314  16.568 -0.9563 -0.7005  0.5496
  454MPD2    H2 6819   1.241   3.032  16.271  0.8676 -0.2749  3.2937
  454MPD2    H3 6820   1.224   3.117  16.509  0.6676 -1.6177 -1.6597
  454MPD2     N 6821   0.950   3.458  16.405 -0.2829 -0.4988  0.2121
  454MPD2    H5 6822   0.980   3.504  16.490 -0.3315  0.1814 -0.1478
  454MPD2    N1 6823   1.078   3.127  16.072 -0.7020 -0.3407  0.4584
  454MPD2    H7 6824   1.028   3.187  16.007  3.4679  2.4829 -0.1652
  455TMC3    C1 6825   0.787   3.458  16.228 -1.0349 -0.0908 -0.1222
  455TMC3    C2 6826   0.729   3.542  16.140  0.4372  0.8218 -0.1765
  455TMC3    C3 6827   0.601   3.512  16.117 -0.0507  0.2883  0.3645
  455TMC3    C4 6828   0.727   3.344  16.276  0.1142 -0.1338  0.1373
  455TMC3    C5 6829   0.614   3.306  16.218  0.7100  0.6713  0.3383
  455TMC3    C6 6830   0.542   3.388  16.147  0.4367  0.0975  0.6131
  455TMC3     C 6831   0.870   3.528  16.321 -0.6683  0.0591  0.3004
  455TMC3     O 6832   0.842   3.646  16.332 -0.0947 -0.0008 -0.3268
  455TMC3     H 6833   0.780   3.633  16.110  1.9235  0.0148 -0.0571
  455TMC3    H1 6834   0.774   3.291  16.358  0.4732  1.5376  1.0034
  455TMC3    H2 6835   0.449   3.358  16.100  1.4050 -0.5921 -0.8830
  455TMC3    C7 6836   0.591   3.164  16.190  0.1035  0.8254 -0.4566
  455TMC3    C8 6837   0.517   3.618  16.164 -0.0263  0.0040 -0.4615
  455TMC3    O1 6838   0.478   3.136  16.158 -0.7034  0.1734  0.0279
  455TMC3    O2 6839   0.395   3.597  16.164  0.0148  0.2633  0.1511
  456MPD2     C 6840   3.508   3.248  15.529  1.0209  0.3987 -0.1921
  456MPD2    C1 6841   3.481   3.167  15.643  0.2693  0.1727 -0.4153
  456MPD2    C2 6842   3.380   3.206  15.731  0.1354  0.1046 -0.0215
  456MPD2    C3 6843   3.298   3.313  15.717  0.1669 -0.0158 -0.4896
  456MPD2    C4 6844   3.318   3.382  15.600 -0.5721 -1.3129  0.2988
  456MPD2    C5 6845   3.421   3.357  15.511 -0.1844 -0.8860 -0.3857
  456MPD2     H 6846   3.357   3.142  15.815  2.9484 -1.2126 -0.2575
  456MPD2    H1 6847   3.268   3.475  15.577  2.0515  0.3370  1.2316
  456MPD2    H2 6848   3.592   3.219  15.467 -0.6273 -2.5229 -1.0638
  456MPD2    H3 6849   3.436   3.420  15.424  0.5242 -0.5792 -0.0473
  456MPD2     N 6850   3.208   3.351  15.819 -0.0226 -0.4912  0.3723
  456MPD2    H5 6851   3.197   3.285  15.895  1.7060 -2.5478 -1.1782
  456MPD2    N1 6852   3.565   3.051  15.668  0.2080 -0.5763  0.2680
  456MPD2    H7 6853   3.625   3.006  15.600  0.8571 -0.3356  0.6811
  457TMC3    C1 6854   3.034   3.466  15.934 -0.0121  0.2450  0.3786
  457TMC3    C2 6855   2.928   3.550  15.921  0.2092 -0.0460 -0.0256
  457TMC3    C3 6856   2.850   3.564  16.031  0.8355 -0.3295 -0.6746
  457TMC3    C4 6857   3.069   3.405  16.054  0.6793 -0.7608 -0.7191
  457TMC3    C5 6858   2.991   3.435  16.163  0.5010 -0.3675  0.4578
  457TMC3    C6 6859   2.877   3.511  16.154 -0.3849  1.0006 -0.7861
  457TMC3     C 6860   3.124   3.463  15.819 -0.3571  0.5495 -0.3517
  457TMC3     O 6861   3.141   3.570  15.761 -0.5797 -0.2182  0.3836
  457TMC3     H 6862   2.888   3.589  15.828  0.4755 -1.8444 -0.8877
  457TMC3    H1 6863   3.164   3.354  16.064  0.8746 -0.3515 -0.4818
  457TMC3    H2 6864   2.823   3.543  16.243  2.0277  0.0310  1.0047
  457TMC3    C7 6865   3.015   3.361  16.290  0.0231 -0.3116  0.1771
  457TMC3    C8 6866   2.753   3.671  16.033 -0.4947  0.4689 -0.1994
  457TMC3    O1 6867   3.123   3.302  16.301  0.4231  0.8609  0.1602
  457TMC3    O2 6868   2.666   3.661  16.116  0.1304 -0.5470  0.0221
  458MPD2     C 6869   2.008   1.707  12.010 -0.0632  0.1657 -0.0351
  458MPD2    C1 6870   2.020   1.840  11.993  0.0580 -0.1216 -0.1582
  458MPD2    C2 6871   2.033   1.895  11.861 -1.0266  0.1780  0.9751
  458MPD2    C3 6872   2.031   1.812  11.749 -1.8969 -0.7844  0.4642
  458MPD2    C4 6873   2.024   1.676  11.773 -0.2272 -0.4256 -0.7942
  458MPD2    C5 6874   2.006   1.626  11.901 -0.3567 -0.0237  0.1978
  458MPD2     H 6875   2.046   2.002  11.854 -2.3074  0.2506 -0.4307
  458MPD2    H1 6876   2.025   1.607  11.689  0.1103 -2.1079  0.5968
  458MPD2    H2 6877   1.995   1.664  12.109  0.3378 -0.6426 -0.3377
  458MPD2    H3 6878   2.006   1.519  11.913 -1.9740 -0.1443 -0.8832
  458MPD2     N 6879   2.044   1.868  11.621 -0.0704  0.0750  0.0856
  458MPD2    H5 6880   2.083   1.962  11.619 -0.9174  0.5151  3.7310
  458MPD2    N1 6881   2.039   1.918  12.108  0.3979  0.2652  0.3678
  458MPD2    H7 6882   2.001   1.869  12.189  0.1506  1.9672  1.2898
  459TMC3    C1 6883   2.111   2.098  12.246  0.3111  0.3847  0.6595
  459TMC3    C2 6884   2.211   2.185  12.263 -0.0781  0.4723  0.4582
  459TMC3    C3 6885   2.203   2.272  12.368 -0.0362 -0.7575  0.4664
  459TMC3    C4 6886   2.011   2.082  12.345  0.1373 -0.3203  0.1983
  459TMC3    C5 6887   2.012   2.164  12.452  0.3823 -0.2974 -0.2949
  459TMC3    C6 6888   2.111   2.259  12.469 -0.5525  0.3677  0.1419
  459TMC3     C 6889   2.090   2.048  12.114  0.2530 -0.2845 -0.1898
  459TMC3     O 6890   2.151   2.107  12.024 -1.0245 -0.8932  0.2687
  459TMC3     H 6891   2.283   2.202  12.184 -1.3265 -0.6310 -0.9203
  459TMC3    H1 6892   1.935   2.005  12.336  1.3467 -1.4630 -0.2276
  459TMC3    H2 6893   2.110   2.333  12.548  1.1285  0.2943  0.2201
  459TMC3    C7 6894   1.927   2.149  12.566  0.4819 -0.2551  0.0010
  459TMC3    C8 6895   2.308   2.379  12.389 -1.2260 -0.8868 -0.5383
  459TMC3    O1 6896   1.978   2.161  12.677 -0.3782 -0.1354  0.3377
  459TMC3    O2 6897   2.277   2.464  12.475 -0.7627  0.6707  0.2909
  460MPD2     C 6898   0.596   0.696  10.707 -0.1079 -0.2013  0.3827
  460MPD2    C1 6899   0.528   0.581  10.682 -1.0372  0.4863  0.5089
  460MPD2    C2 6900   0.448   0.583  10.566  0.3535  1.0239 -0.3942
  460MPD2    C3 6901   0.443   0.692  10.476  1.0192 -0.4867  0.1628
  460MPD2    C4 6902   0.526   0.797  10.498  0.2521  0.5193 -0.1998
  460MPD2    C5 6903   0.592   0.806  10.618 -0.2036  0.2257  0.3271
  460MPD2     H 6904   0.375   0.503  10.555  1.9674 -0.5982  0.7813
  460MPD2    H1 6905   0.529   0.890  10.442  0.3895 -0.4297 -1.7577
  460MPD2    H2 6906   0.660   0.704  10.794  0.4452  3.7347 -0.3995
  460MPD2    H3 6907   0.650   0.894  10.643  0.8061  0.1783 -1.8235
  460MPD2     N 6908   0.360   0.688  10.354  0.0597  0.1505 -0.8141
  460MPD2    H5 6909   0.321   0.595  10.341  2.1452 -0.3083 -3.7105
  460MPD2    N1 6910   0.545   0.471  10.775  0.0837  0.0485 -0.0748
  460MPD2    H7 6911   0.580   0.496  10.867 -1.0041 -0.8817  0.5987
  461TMC3    C1 6912   0.268   0.756  10.144  0.4425 -0.4994  0.8041
  461TMC3    C2 6913   0.212   0.636  10.127  0.3860 -0.4540 -0.1396
  461TMC3    C3 6914   0.140   0.616  10.009  0.2170  0.5746 -1.2350
  461TMC3    C4 6915   0.232   0.862  10.064 -0.5499 -0.2593 -0.7960
  461TMC3    C5 6916   0.160   0.845   9.952  0.6793  0.2189  0.3701
  461TMC3    C6 6917   0.105   0.720   9.927 -1.1283  0.5728 -0.4209
  461TMC3     C 6918   0.325   0.791  10.275 -0.0352 -0.3683 -0.2131
  461TMC3     O 6919   0.343   0.909  10.299  0.4366  0.1474 -0.1079
  461TMC3     H 6920   0.231   0.545  10.183 -2.8200 -0.4513  0.9409
  461TMC3    H1 6921   0.277   0.959  10.082 -1.2717 -0.2534  0.9345
  461TMC3    H2 6922   0.040   0.707   9.842 -0.1879 -0.4980 -0.9639
  461TMC3    C7 6923   0.128   0.955   9.853 -0.3773  0.2840 -0.3000
  461TMC3    C8 6924   0.059   0.498  10.008 -0.7171  0.2309  0.8535
  461TMC3    O1 6925   0.055   0.915   9.763  0.3872 -0.0461  0.7474
  461TMC3    O2 6926   0.036   0.442  10.112  0.0609 -0.2449 -0.2288
  462TMC3    C1 6927   0.141   1.684   0.483  0.2326 -0.1204  0.0816
  462TMC3    C2 6928   0.267   1.728   0.444 -0.1757  0.3614  0.3085
  462TMC3    C3 6929   0.327   1.643   0.353 -0.8344 -0.2887 -0.0948
  462TMC3    C4 6930   0.074   1.576   0.433  0.1699  0.3282 -0.0555
  462TMC3    C5 6931   0.142   1.503   0.349 -0.0512 -0.1096 -0.2968
  462TMC3    C6 6932   0.270   1.527   0.301  0.6158  0.7209 -0.0630
  462TMC3     C 6933   0.038   1.785   0.509 -0.2233  0.2761 -0.4116
  462TMC3     O 6934   4.666   1.761   0.470 -0.0008 -0.0907 -0.2150
  462TMC3     H 6935   0.313   1.819   0.481 -1.4973  0.5303  1.5496
  462TMC3    H1 6936   4.723   1.540   0.480  0.4469  1.9093  1.6866
  462TMC3    H2 6937   0.308   1.466   0.221  2.6446 -1.0029  2.2211
  462TMC3    C7 6938   0.091   1.369   0.319 -0.1578  0.4420  0.2361
  462TMC3    C8 6939   0.445   1.692   0.289  0.8911 -0.1214  0.6529
  462TMC3    O1 6940   0.173   1.292   0.275  0.3524 -0.0240 -0.7425
  462TMC3    O2 6941   0.451   1.811   0.257 -0.6232  0.3182 -0.2551
  463MPD2     C 6942   2.082   3.451   1.030 -0.2549 -0.0898 -0.2821
  463MPD2    C1 6943   2.085   3.583   1.058 -0.1774 -0.5355 -0.4207
  463MPD2    C2 6944   2.201   3.649   1.100  0.8627  0.1580 -0.0676
  463MPD2    C3 6945   2.322   3.575   1.113 -0.2903 -0.0610  0.2514
  463MPD2    C4 6946   2.318   3.442   1.072 -0.4445 -0.5489 -0.0417
  463MPD2    C5 6947   2.201   3.385   1.030  0.3558 -0.5493 -0.2096
  463MPD2     H 6948   2.189   3.747   1.145 -0.9386  0.0663 -0.3775
  463MPD2    H1 6949   2.406   3.378   1.074 -0.1871 -0.0792  3.8050
  463MPD2    H2 6950   1.991   3.398   1.002  0.3584 -1.7732  0.8805
  463MPD2    H3 6951   2.206   3.282   0.997  3.6740 -0.1959 -0.8178
  463MPD2     N 6952   2.445   3.622   1.157 -0.0966 -0.0499  0.1589
  463MPD2    H5 6953   2.525   3.560   1.168 -1.3888 -1.7956 -0.2435
  463MPD2    N1 6954   1.956   3.652   1.062  0.4560 -0.3702  0.4291
  463MPD2    H7 6955   1.958   3.747   1.098  1.7172  1.1465 -3.5865
  464TMC3    C1 6956   1.714   3.641   1.093  0.2293  0.7368 -0.2356
  464TMC3    C2 6957   1.721   3.748   1.175  0.4021 -0.0739  0.3497
  464TMC3    C3 6958   1.605   3.796   1.230  0.1766  0.1798  0.3627
  464TMC3    C4 6959   1.596   3.587   1.051 -0.8461  0.2135 -0.3153
  464TMC3    C5 6960   1.482   3.641   1.109  0.2039  0.1477  0.8154
  464TMC3    C6 6961   1.483   3.742   1.204 -0.4747 -0.5618 -0.1047
  464TMC3     C 6962   1.833   3.591   1.023 -0.5650  0.0233  0.6886
  464TMC3     O 6963   1.812   3.508   0.937  0.4502  0.5303  0.2957
  464TMC3     H 6964   1.818   3.777   1.212  0.6993 -1.4458  0.6407
  464TMC3    H1 6965   1.588   3.496   0.992 -0.0776  1.3848 -2.2357
  464TMC3    H2 6966   1.393   3.794   1.236 -0.4937 -0.7061  0.0777
  464TMC3    C7 6967   1.360   3.609   1.043  0.3393 -0.1969 -0.3624
  464TMC3    C8 6968   1.607   3.926   1.293 -0.3152  0.3737  0.6171
  464TMC3    O1 6969   1.364   3.544   0.937 -0.3730 -0.0338  0.5954
  464TMC3    O2 6970   1.498   3.964   1.337 -0.1760 -0.3125  0.7739
  465MPD2     C 6971   2.507   3.576  16.866 -0.4213 -0.6497  0.4146
  465MPD2    C1 6972   2.399   3.499  16.914 -0.3304  0.0505 -0.2094
  465MPD2    C2 6973   2.322   3.422  16.824  0.2642 -1.1352 -0.6245
  465MPD2    C3 6974   2.353   3.428  16.690  0.6320 -0.0221  0.1302
  465MPD2    C4 6975   2.455   3.503  16.641  0.2691  0.0364  0.2952
  465MPD2    C5 6976   2.526   3.581  16.729  0.6400 -0.2006  0.1729
  465MPD2     H 6977   2.244   3.355  16.856 -1.5462  1.4736  0.4781
  465MPD2    H1 6978   2.486   3.517  16.538  1.0201  1.1698  0.6687
  465MPD2    H2 6979   2.572   3.633  16.931 -1.0215  2.4538 -1.6955
  465MPD2    H3 6980   2.608   3.637  16.683 -1.0294  1.4650 -0.7847
  465MPD2     N 6981   2.261   3.361  16.597 -0.2014  0.0122 -1.0551
  465MPD2    H5 6982   2.177   3.319  16.634  0.1755 -0.4640 -0.7359
  465MPD2    N1 6983   2.388   3.462  17.053  0.6398  0.2601  0.0124
  465MPD2    H7 6984   2.335   3.379  17.076  0.6332  1.0450  2.7963
  466TMC3    C1 6985   1.938   3.223  16.492  0.4148  0.5365 -0.1499
  466TMC3    C2 6986   1.874   3.298  16.400 -0.0286  0.2444  0.3373
  466TMC3    C3 6987   1.943   3.364  16.296  0.0933  0.4303  0.5809
  466TMC3    C4 6988   2.075   3.211  16.490 -0.3680 -0.6698 -0.0568
  466TMC3    C5 6989   2.150   3.290  16.397  0.1985 -0.5767 -0.2088
  466TMC3    C6 6990   2.082   3.349  16.295  0.0700 -0.5011  0.2994
  466TMC3     C 6991   1.867   3.178  16.610  0.8666 -0.0762 -0.2413
  466TMC3     O 6992   1.771   3.243  16.642  0.1355 -0.5485 -0.0640
  466TMC3     H 6993   1.768   3.320  16.402 -0.2293 -0.5305 -1.9625
  466TMC3    H1 6994   2.126   3.166  16.575 -1.7492 -0.1952  1.0315
  466TMC3    H2 6995   2.143   3.411  16.230 -2.4230  0.1391 -1.4407
  466TMC3    C7 6996   2.264   3.362  16.460 -0.6257 -0.7879 -0.1609
  466TMC3    C8 6997   1.885   3.476  16.219  0.2982  0.1742  0.5011
  466TMC3    O1 6998   2.333   3.430  16.381 -0.0881 -0.6311  0.1261
  466TMC3    O2 6999   1.909   3.481  16.100 -0.2239  0.2131  0.8446
  467TMC3    C1 7000   3.265   1.808  13.568 -0.1353  0.6331 -0.4228
  467TMC3    C2 7001   3.246   1.915  13.653 -0.8163 -0.1767 -0.0525
  467TMC3    C3 7002   3.116   1.947  13.690 -0.8478  0.1271  0.7239
  467TMC3    C4 7003   3.165   1.743  13.507 -0.5519 -0.2316 -0.1854
  467TMC3    C5 7004   3.041   1.773  13.553  0.2591  0.6832  0.9231
  467TMC3    C6 7005   3.014   1.876  13.646 -0.6485  0.1326 -0.3525
  467TMC3     C 7006   3.403   1.781  13.528 -0.1717  0.1465  0.0783
  467TMC3     O 7007   3.490   1.812  13.610 -0.3730  0.1698  0.0927
  467TMC3     H 7008   3.328   1.976  13.688 -1.1417  1.2509 -1.7563
  467TMC3    H1 7009   3.167   1.656  13.442  0.2109 -1.7281  1.8620
  467TMC3    H2 7010   2.912   1.903  13.671 -0.5583 -0.0832  0.2521
  467TMC3    C7 7011   2.941   1.685  13.510  0.1388  0.3647 -0.6293
  467TMC3    C8 7012   3.101   2.089  13.711  0.6700 -0.2820 -0.4392
  467TMC3    O1 7013   2.963   1.620  13.407  0.0405  0.0609  0.2280
  467TMC3    O2 7014   3.202   2.159  13.696  0.2775 -0.0715  0.6784
  468MPD2     C 7015   2.765   0.286  10.007  0.0783  0.2879  0.2854
  468MPD2    C1 7016   2.710   0.242  10.131  0.3173  0.1193  0.3264
  468MPD2    C2 7017   2.616   0.141  10.123 -0.3875  0.5585 -0.0458
  468MPD2    C3 7018   2.574   0.081  10.000 -0.1754 -0.0263  0.1661
  468MPD2    C4 7019   2.632   0.126   9.880  0.2061  0.8645  0.7434
  468MPD2    C5 7020   2.724   0.223   9.892 -0.1086  0.5602 -0.8070
  468MPD2     H 7021   2.568   0.124  10.218  1.5057  0.3496  0.8808
  468MPD2    H1 7022   2.609   0.076   9.786 -1.1526  4.1449 -0.6529
  468MPD2    H2 7023   2.847   0.356  10.004 -0.0684  0.5414  2.3065
  468MPD2    H3 7024   2.777   0.249   9.801 -0.6234 -1.2302 -1.6172
  468MPD2     N 7025   2.483   4.716   9.995 -0.4068 -0.2523  0.4265
  468MPD2    H5 7026   2.488   4.661   9.910 -1.2403  0.5179 -0.1242
  468MPD2    N1 7027   2.747   0.290  10.258 -0.3140  0.1127  0.6200
  468MPD2    H7 7028   2.711   0.241  10.340  0.9079  0.9690  1.6614
  469TMC3    C1 7029   2.878   0.392  10.414  0.2068  0.1149  0.7124
  469TMC3    C2 7030   3.000   0.334  10.442 -0.2286  0.0187  0.0128
  469TMC3    C3 7031   3.047   0.341  10.570 -0.2720 -0.1696 -0.0599
  469TMC3    C4 7032   2.787   0.430  10.509  0.0763 -0.4148  0.3316
  469TMC3    C5 7033   2.834   0.411  10.640  0.2851 -0.3563  0.0305
  469TMC3    C6 7034   2.962   0.375  10.670  0.5163  0.4622  0.4702
  469TMC3     C 7035   2.840   0.386  10.281  0.2604  0.6259  0.4926
  469TMC3     O 7036   2.922   0.428  10.203 -0.3255  0.0423  0.4639
  469TMC3     H 7037   3.053   0.298  10.355 -0.2389  3.6452 -1.4787
  469TMC3    H1 7038   2.692   0.471  10.478  0.3539  0.8281  1.1629
  469TMC3    H2 7039   3.005   0.368  10.770  0.0787  1.7236  0.7444
  469TMC3    C7 7040   2.751   0.477  10.741  0.0268  0.5545 -0.7401
  469TMC3    C8 7041   3.147   0.239  10.591 -0.1395 -0.0545  0.0344
  469TMC3    O1 7042   2.663   0.557  10.712  0.0781 -0.2675 -0.0253
  469TMC3    O2 7043   3.232   0.225  10.504  0.4388  0.5111 -0.6418
  470TMC3    C1 7044   4.372   0.429   0.432 -0.8513 -0.0395  0.5061
  470TMC3    C2 7045   4.335   0.552   0.387 -0.5205 -0.4141  0.6109
  470TMC3    C3 7046   4.398   0.664   0.432  0.2174  1.0013 -0.0827
  470TMC3    C4 7047   4.479   0.412   0.521 -0.1511 -0.9388  0.2017
  470TMC3    C5 7048   4.546   0.528   0.548  0.9981  0.0630  0.7617
  470TMC3    C6 7049   4.513   0.655   0.513 -0.1903 -0.5061  0.5184
  470TMC3     C 7050   4.317   0.311   0.365  0.0120  0.2035  0.5715
  470TMC3     O 7051   4.282   0.326   0.246  0.1537 -0.4946 -0.4401
  470TMC3     H 7052   4.253   0.549   0.315  1.3129  3.3298 -1.5986
  470TMC3    H1 7053   4.512   0.316   0.559  0.3715 -1.0720 -0.5962
  470TMC3    H2 7054   4.560   0.743   0.556 -0.3693  1.0653 -2.5353
  470TMC3    C7 7055   4.640   0.529   0.660 -0.1455 -0.1683  0.1822
  470TMC3    C8 7056   4.320   0.789   0.465  1.1509 -0.1469  0.1965
  470TMC3    O1 7057   4.738   0.602   0.643 -0.1668 -0.2767 -0.4642
  470TMC3    O2 7058   4.382   0.871   0.526  0.1995 -0.0040 -0.1181
  471MPD2     C 7059   0.114   2.620  16.849  0.9531 -0.6603 -0.0501
  471MPD2    C1 7060   0.216   2.547  16.788  0.6287  0.9876  0.0862
  471MPD2    C2 7061   0.336   2.523  16.852  0.4645  0.2081  0.0832
  471MPD2    C3 7062   0.353   2.577  16.977 -0.4028 -0.6750 -0.3956
  471MPD2    C4 7063   0.253   2.644  17.037  0.2221 -0.1341 -0.0490
  471MPD2    C5 7064   0.135   2.665  16.975 -0.2585 -0.1111  0.3496
  471MPD2     H 7065   0.414   2.463  16.807  0.9656  2.2586 -1.7858
  471MPD2    H1 7066   0.257   2.696  17.131  1.0752 -0.8490  0.3070
  471MPD2    H2 7067   0.017   2.649  16.809  0.6105 -1.8703 -0.0769
  471MPD2    H3 7068   0.046   2.710  17.018  1.5777 -0.0010  4.1291
  471MPD2     N 7069   0.469   2.559  17.051 -0.0694  0.1666 -0.3286
  471MPD2    H5 7070   0.477   2.590  17.148 -0.4605 -0.3670 -0.1238
  471MPD2    N1 7071   0.198   2.506  16.655 -0.1213 -0.0219 -0.3468
  471MPD2    H7 7072   0.275   2.460  16.607  0.2741  0.1534  0.1261
  472TMC3    C1 7073   0.066   2.426  16.471  0.4322  0.1402 -0.2771
  472TMC3    C2 7074   4.681   2.431  16.403  0.6616 -0.5683  0.2733
  472TMC3    C3 7075   4.656   2.330  16.315  0.2430  0.3464 -1.2757
  472TMC3    C4 7076   0.147   2.319  16.447  0.1819  0.2786  0.0849
  472TMC3    C5 7077   0.115   2.222  16.357 -0.2933  0.5162 -0.4040
  472TMC3    C6 7078   4.737   2.223  16.294  0.1608 -0.2440  0.4209
  472TMC3     C 7079   0.077   2.513  16.589 -0.5474 -0.2809  0.8544
  472TMC3     O 7080   4.722   2.589  16.606  0.2947 -0.2472 -0.3722
  472TMC3     H 7081   4.604   2.506  16.421  1.7405  0.0372  2.3557
  472TMC3    H1 7082   0.241   2.320  16.503 -0.6881 -0.2710  1.5569
  472TMC3    H2 7083   4.715   2.161  16.207  0.2472  2.4449 -1.5100
  472TMC3    C7 7084   0.182   2.092  16.385  0.2984 -0.1375 -0.8150
  472TMC3    C8 7085   4.521   2.327  16.262  0.9871  0.4167 -0.3140
  472TMC3    O1 7086   0.232   2.063  16.492 -0.2670 -0.2696 -0.0306
  472TMC3    O2 7087   4.464   2.431  16.261  0.8723  0.1089 -0.0315
  473MPD2     C 7088   0.448   3.894  14.019 -0.2097 -0.3938  0.0783
  473MPD2    C1 7089   0.348   3.968  13.966  0.1260  0.0574 -0.1788
  473MPD2    C2 7090   0.318   4.086  14.036 -0.3545 -0.7180 -0.3446
  473MPD2    C3 7091   0.390   4.123  14.151  0.0494  0.1436 -0.0713
  473MPD2    C4 7092   0.491   4.043  14.202  0.4446  0.5191  0.0571
  473MPD2    C5 7093   0.510   3.924  14.134 -0.2551  0.5136  0.4413
  473MPD2     H 7094   0.237   4.147  13.997 -0.2850  0.1898  0.9306
  473MPD2    H1 7095   0.540   4.061  14.297 -1.4521 -1.4408  1.3926
  473MPD2    H2 7096   0.489   3.812  13.961 -2.3340 -0.5729 -1.1584
  473MPD2    H3 7097   0.586   3.856  14.170 -0.4645 -0.5186 -1.0588
  473MPD2     N 7098   0.351   4.233  14.226 -0.2756  0.1001  0.2853
  473MPD2    H5 7099   0.418   4.256  14.299  2.5232  0.3215 -2.3427
  473MPD2    N1 7100   0.293   3.946  13.839  0.5274  0.2460  0.4136
  473MPD2    H7 7101   0.205   3.990  13.814 -0.2171 -0.3793  1.9504
  474TMC3    C1 7102   0.237   4.434  14.297 -0.1355  0.9758 -0.4336
  474TMC3    C2 7103   0.122   4.503  14.323  0.5511  0.3185  0.2589
  474TMC3    C3 7104   0.128   4.624  14.387 -0.6559  0.4553  0.2397
  474TMC3    C4 7105   0.358   4.473  14.347 -0.3089  0.2120 -0.0610
  474TMC3    C5 7106   0.361   4.590  14.423 -0.6856  0.5742  0.1839
  474TMC3    C6 7107   0.252   4.665  14.437 -0.1294  0.2267  0.4826
  474TMC3     C 7108   0.242   4.316  14.209  0.4029  0.0835  0.0743
  474TMC3     O 7109   0.144   4.305  14.130  0.9255  0.0260 -0.1952
  474TMC3     H 7110   0.028   4.476  14.275  1.2788  0.0361 -1.0026
  474TMC3    H1 7111   0.451   4.422  14.327 -0.2162  0.6065 -0.6404
  474TMC3    H2 7112   0.268   0.020  14.488  0.6081 -0.1657  0.9705
  474TMC3    C7 7113   0.484   4.655  14.441 -0.7342  0.1226  0.4529
  474TMC3    C8 7114   0.014   4.713  14.375  0.8797  0.3511  0.8334
  474TMC3    O1 7115   0.568   4.626  14.358  0.1456 -0.1930  0.0168
  474TMC3    O2 7116   4.645   4.659  14.365  0.3860  0.4223 -0.5676
  475MPD2     C 7117   3.215   2.336  11.199  0.1288  0.4836  0.2628
  475MPD2    C1 7118   3.267   2.390  11.083  0.5067  0.4346 -0.3458
  475MPD2    C2 7119   3.182   2.399  10.972  0.3937 -0.7691 -0.0432
  475MPD2    C3 7120   3.059   2.350  10.972  0.7518  0.3391  0.4670
  475MPD2    C4 7121   3.013   2.294  11.088  0.5252  0.0706 -0.4669
  475MPD2    C5 7122   3.092   2.283  11.196  0.0596  0.0253 -0.5319
  475MPD2     H 7123   3.218   2.447  10.882  1.8065 -0.6586  0.5763
  475MPD2    H1 7124   2.911   2.259  11.095  0.1696  1.1607 -0.1082
  475MPD2    H2 7125   3.260   2.330  11.297 -0.5111 -1.7153  0.4153
  475MPD2    H3 7126   3.050   2.246  11.289 -0.3551  0.5406 -0.5172
  475MPD2     N 7127   2.988   2.381  10.860 -0.0383  0.0203 -0.2577
  475MPD2    H5 7128   3.043   2.430  10.790 -1.3377  1.8596  0.0100
  475MPD2    N1 7129   3.409   2.431  11.071 -0.2281 -0.4428  0.8823
  475MPD2    H7 7130   3.452   2.436  11.162  1.3935  0.0220  0.0834
  476TMC3    C1 7131   3.562   2.563  10.945 -0.3978 -0.0734  0.0197
  476TMC3    C2 7132   3.580   2.613  10.819  0.1348  0.4004 -0.8114
  476TMC3    C3 7133   3.663   2.719  10.827  0.6925 -0.2616  0.2540
  476TMC3    C4 7134   3.609   2.608  11.063 -0.2373 -0.4918 -0.0470
  476TMC3    C5 7135   3.690   2.716  11.058  0.0167 -0.5477  0.2084
  476TMC3    C6 7136   3.724   2.778  10.935 -0.6988  0.2913  0.3685
  476TMC3     C 7137   3.475   2.449  10.952  0.3875  0.2670 -0.8037
  476TMC3     O 7138   3.445   2.399  10.843  0.6383 -0.1631 -0.6781
  476TMC3     H 7139   3.509   2.598  10.738 -3.1185 -0.8231  2.2751
  476TMC3    H1 7140   3.579   2.577  11.162 -2.1457 -1.9886 -1.0989
  476TMC3    H2 7141   3.801   2.854  10.934 -1.7889  1.3830 -0.1262
  476TMC3    C7 7142   3.727   2.773  11.185  0.2264 -0.5128  0.6501
  476TMC3    C8 7143   3.684   2.793  10.708 -0.0398  0.1734  0.4428
  476TMC3    O1 7144   3.757   2.696  11.278  0.3667  0.0919  0.3720
  476TMC3    O2 7145   3.744   2.897  10.714  0.3058  0.2101 -0.0817
  477MPD2     C 7146   1.379   4.249  11.207 -0.4738  0.7227  0.3510
  477MPD2    C1 7147   1.280   4.187  11.273  0.3575  0.5712  0.7840
  477MPD2    C2 7148   1.317   4.089  11.363  0.3677 -0.1211 -0.0226
  477MPD2    C3 7149   1.450   4.059  11.391 -0.0649 -0.1344  0.2831
  477MPD2    C4 7150   1.543   4.124  11.325  0.0233  0.1461  0.5012
  477MPD2    C5 7151   1.504   4.204  11.223 -0.5328  0.0203  0.0321
  477MPD2     H 7152   1.234   4.040  11.413  0.0588  0.1208 -0.2947
  477MPD2    H1 7153   1.647   4.099  11.343  0.2712  0.3811 -0.6282
  477MPD2    H2 7154   1.359   4.320  11.128 -1.4323 -2.1659 -1.9841
  477MPD2    H3 7155   1.580   4.252  11.163 -1.4368 -2.7873 -3.3830
  477MPD2     N 7156   1.494   3.960  11.482  0.0329 -0.4893 -0.4222
  477MPD2    H5 7157   1.595   3.949  11.493  0.1251  1.0269  0.2330
  477MPD2    N1 7158   1.148   4.210  11.234  0.7234 -0.2835  0.1032
  477MPD2    H7 7159   1.136   4.258  11.145 -0.9862 -0.6142  0.1581
  478TMC3    C1 7160   0.910   4.210  11.237  0.1516 -0.4314  0.3557
  478TMC3    C2 7161   0.812   4.242  11.324 -0.7280  0.3511 -0.2168
  478TMC3    C3 7162   0.707   4.317  11.269 -0.2041 -0.0938 -0.0122
  478TMC3    C4 7163   0.920   4.273  11.115 -0.2588  0.0871  0.0281
  478TMC3    C5 7164   0.816   4.352  11.072 -0.3010 -0.6737 -0.4415
  478TMC3    C6 7165   0.709   4.379  11.150 -0.8046  0.5624  0.3927
  478TMC3     C 7166   1.033   4.168  11.301 -0.3727 -0.0227  0.0665
  478TMC3     O 7167   1.021   4.126  11.415 -0.1320 -0.5481 -0.1405
  478TMC3     H 7168   0.811   4.201  11.424 -0.6954 -0.4107 -0.5270
  478TMC3    H1 7169   0.993   4.237  11.044 -0.7996 -1.1338  0.0948
  478TMC3    H2 7170   0.629   4.444  11.115 -1.2671 -0.7897 -1.0115
  478TMC3    C7 7171   0.838   4.408  10.939  0.3320  0.6150 -0.1597
  478TMC3    C8 7172   0.599   4.342  11.373 -0.3119 -0.9497  0.4193
  478TMC3    O1 7173   0.954   4.411  10.892 -0.0890 -0.5534 -0.4380
  478TMC3    O2 7174   0.568   4.246  11.440  0.1813 -0.0428  0.3732
  479MPD2     C 7175   4.571   1.291  15.285 -0.5925 -0.4626 -0.2362
  479MPD2    C1 7176   4.519   1.257  15.408  0.0724 -0.2007  0.4162
  479MPD2    C2 7177   4.560   1.322  15.524  0.4521 -0.0237 -0.6048
  479MPD2    C3 7178   4.654   1.420  15.508  0.0997 -0.4276 -0.2945
  479MPD2    C4 7179   4.701   1.464  15.383 -0.5266 -0.1199  0.3206
  479MPD2    C5 7180   4.661   1.392  15.271 -0.3096 -0.2033  0.2287
  479MPD2     H 7181   4.525   1.302  15.624  1.2859 -1.7564 -0.6659
  479MPD2    H1 7182   0.018   1.555  15.366 -2.1684  0.5952 -1.3320
  479MPD2    H2 7183   4.540   1.242  15.193 -3.2555 -1.6299  1.2905
  479MPD2    H3 7184   4.697   1.420  15.173 -1.5831  1.5591  0.2490
  479MPD2     N 7185   4.720   1.492  15.616  0.0119  0.2302 -0.2099
  479MPD2    H5 7186   0.054   1.553  15.583  0.4818 -0.9783 -1.3523
  479MPD2    N1 7187   4.415   1.167  15.405 -0.8516  0.0898 -0.0542
  479MPD2    H7 7188   4.391   1.126  15.315 -0.3903  0.8808 -0.5360
  480TMC3    C1 7189   4.427   1.370  15.965  0.3864  0.4236  0.2087
  480TMC3    C2 7190   4.312   1.409  15.895  0.0422  0.5125 -1.3272
  480TMC3    C3 7191   4.334   1.489  15.782 -0.1309 -0.8194 -0.4631
  480TMC3    C4 7192   4.552   1.384  15.913  0.1736 -0.5700  0.2449
  480TMC3    C5 7193   4.567   1.463  15.802 -0.0641 -0.1831  0.3070
  480TMC3    C6 7194   4.464   1.519  15.735  0.6972  0.2531  0.2521
  480TMC3     C 7195   4.411   1.275  16.071  0.3321  0.6778 -0.3401
  480TMC3     O 7196   4.508   1.216  16.118  0.2637 -0.0190  0.1746
  480TMC3     H 7197   4.213   1.374  15.918  0.4932  0.0758 -0.0788
  480TMC3    H1 7198   4.639   1.366  15.974 -0.1931  1.0328  1.2256
  480TMC3    H2 7199   4.474   1.580  15.646  0.4468  0.1812  0.1757
  480TMC3    C7 7200   4.701   1.497  15.756 -0.3151 -0.1119 -0.4414
  480TMC3    C8 7201   4.226   1.479  15.687  0.1005 -0.2512  0.8336
  480TMC3    O1 7202   0.034   1.548  15.840  0.5102 -0.4757 -0.1151
  480TMC3    O2 7203   4.133   1.405  15.721  0.3064 -0.4091  0.0043
  481MPD2     C 7204   1.493   0.992  14.044  0.4372 -0.4083 -0.1921
  481MPD2    C1 7205   1.381   0.947  14.106  0.6686  0.4624  0.5396
  481MPD2    C2 7206   1.385   0.928  14.242  0.1893 -0.0639  0.4794
  481MPD2    C3 7207   1.507   0.937  14.309  0.7335  0.2541  0.4451
  481MPD2    C4 7208   1.623   0.977  14.233  0.3290  0.1826 -0.1942
  481MPD2    C5 7209   1.614   1.001  14.095  0.4022 -0.1324 -0.3159
  481MPD2     H 7210   1.290   0.916  14.293 -1.6021  0.9817 -2.5908
  481MPD2    H1 7211   1.720   0.987  14.281 -0.0392  0.1884  0.5572
  481MPD2    H2 7212   1.489   1.015  13.938  1.0233  3.1535  0.5697
  481MPD2    H3 7213   1.698   1.035  14.035  0.6507  1.9645  1.2258
  481MPD2     N 7214   1.523   0.918  14.446  0.3357  0.9038  0.3781
  481MPD2    H5 7215   1.618   0.940  14.475  1.1700 -0.3832 -1.4148
  481MPD2    N1 7216   1.267   0.945  14.028  0.1243 -0.1766 -0.0651
  481MPD2    H7 7217   1.268   0.968  13.930 -0.1332 -1.2794 -0.3307
  482TMC3    C1 7218   1.044   0.944  13.980  0.4806 -0.5174  0.3723
  482TMC3    C2 7219   0.937   0.864  13.954  0.2234  0.6076 -0.2510
  482TMC3    C3 7220   0.847   0.902  13.854  0.2776  1.0414  0.6141
  482TMC3    C4 7221   1.044   1.073  13.928  0.8759  0.0616  0.3822
  482TMC3    C5 7222   0.931   1.120  13.855 -0.4793  0.8250  0.2736
  482TMC3    C6 7223   0.841   1.030  13.803 -0.0319  0.2284  0.1387
  482TMC3     C 7224   1.145   0.903  14.071  0.1808 -0.9559  0.0082
  482TMC3     O 7225   1.110   0.859  14.176 -0.7767  0.0330  0.2121
  482TMC3     H 7226   0.938   0.761  13.988  1.5059  0.5459 -0.4463
  482TMC3    H1 7227   1.122   1.147  13.940  0.1709  1.1939 -1.9070
  482TMC3    H2 7228   0.764   1.063  13.734 -1.3147 -0.2799  1.3224
  482TMC3    C7 7229   0.961   1.241  13.775  0.1770 -0.0586 -0.1418
  482TMC3    C8 7230   0.773   0.788  13.807 -0.0875 -0.4364  0.2689
  482TMC3    O1 7231   1.000   1.341  13.830  0.0791  0.2529 -0.0465
  482TMC3    O2 7232   0.823   0.682  13.832 -0.0406 -0.5064  0.4379
  483TMC3    C1 7233   4.253   4.667   0.924  0.2794  0.9892  0.5335
  483TMC3    C2 7234   4.339   0.009   0.846  0.3471  0.1731 -0.0547
  483TMC3    C3 7235   4.471   4.712   0.842  0.2341 -0.5425  0.4966
  483TMC3    C4 7236   4.303   4.551   0.986  0.3138  0.0763  0.1674
  483TMC3    C5 7237   4.438   4.525   0.976  0.1136  0.1837 -0.0290
  483TMC3    C6 7238   4.528   4.601   0.907 -0.4133  0.1376  0.2868
  483TMC3     C 7239   4.122   4.656   0.859 -0.1117  0.1912  0.2663
  483TMC3     O 7240   4.052   0.009   0.841 -0.4249 -0.1213  0.0457
  483TMC3     H 7241   4.304   0.091   0.783  2.9880  0.5514 -1.0114
  483TMC3    H1 7242   4.235   4.479   1.029  0.7887 -0.5190 -0.0725
  483TMC3    H2 7243   4.620   4.551   0.878 -0.9651 -0.0661 -1.1411
  483TMC3    C7 7244   4.461   4.384   0.996 -0.4389 -0.3232 -0.0859
  483TMC3    C8 7245   4.548   0.045   0.743  0.6524  0.0256 -0.1103
  483TMC3    O1 7246   4.479   4.320   0.895 -0.1405  0.0001 -0.0867
  483TMC3    O2 7247   4.482   0.115   0.664  0.4703  0.3095 -0.2434
  484MPD2     C 7248   2.660   2.304  12.340 -0.3302  0.4474 -0.0248
  484MPD2    C1 7249   2.555   2.379  12.385  0.0119 -0.6253  0.0554
  484MPD2    C2 7250   2.577   2.499  12.452 -0.1676  0.0383  0.4270
  484MPD2    C3 7251   2.710   2.539  12.493  0.1707  0.8572 -0.1194
  484MPD2    C4 7252   2.808   2.457  12.452 -0.5522  0.6731  0.2504
  484MPD2    C5 7253   2.788   2.342  12.372 -0.2314  0.1313 -0.8192
  484MPD2     H 7254   2.499   2.561  12.496 -1.6623 -0.3749 -1.6355
  484MPD2    H1 7255   2.909   2.486  12.478 -0.1466 -0.3364 -0.2280
  484MPD2    H2 7256   2.643   2.209  12.290 -0.9920  1.1282 -1.0738
  484MPD2    H3 7257   2.874   2.284  12.340  0.1955 -0.9555  2.2715
  484MPD2     N 7258   2.735   2.650  12.569 -0.0996  0.4285 -0.3085
  484MPD2    H5 7259   2.834   2.671  12.566 -0.2394  1.4077  2.4449
  484MPD2    N1 7260   2.429   2.334  12.347 -0.0199 -0.1628 -0.5567
  484MPD2    H7 7261   2.428   2.239  12.313 -0.1131  0.4547 -2.2584
  485TMC3    C1 7262   2.723   2.866  12.657 -0.4194  0.0186 -0.7260
  485TMC3    C2 7263   2.835   2.830  12.728 -0.4344  1.0569 -0.5557
  485TMC3    C3 7264   2.958   2.868  12.679 -0.1622 -0.3508  0.3707
  485TMC3    C4 7265   2.731   2.932  12.537  0.1710  0.3036 -0.8349
  485TMC3    C5 7266   2.858   2.963  12.489  0.1573 -0.3738 -0.0542
  485TMC3    C6 7267   2.967   2.930  12.562  0.4003  0.2016 -0.2990
  485TMC3     C 7268   2.651   2.745  12.625 -0.4242 -0.7342  0.3557
  485TMC3     O 7269   2.528   2.751  12.621  0.6048 -0.0915 -0.3604
  485TMC3     H 7270   2.831   2.752  12.803  1.0946  1.8441  0.3424
  485TMC3    H1 7271   2.635   2.942  12.488  0.0105 -0.0840 -0.6021
  485TMC3    H2 7272   3.066   2.938  12.519 -0.3514 -0.7033 -2.2158
  485TMC3    C7 7273   2.868   2.918  12.352 -0.6358 -0.0532  0.1684
  485TMC3    C8 7274   3.046   2.747  12.684 -0.6280 -0.4424 -0.1192
  485TMC3    O1 7275   2.963   2.843  12.330 -0.0653  0.0091  0.6607
  485TMC3    O2 7276   3.070   2.694  12.789  0.0375  0.2531 -0.1011
  486MPD2     C 7277   3.883   1.124  12.896  0.1171  0.4511 -0.5214
  486MPD2    C1 7278   3.903   1.165  13.025 -0.0975  0.7433  0.2025
  486MPD2    C2 7279   3.936   1.294  13.046  0.9316 -0.2149  0.0326
  486MPD2    C3 7280   3.943   1.389  12.947  0.2435  0.1497  0.6374
  486MPD2    C4 7281   3.926   1.350  12.819 -0.0749 -0.0254 -1.1042
  486MPD2    C5 7282   3.888   1.219  12.799  0.3628 -0.0226  0.4752
  486MPD2     H 7283   3.947   1.342  13.143 -0.2258 -3.8602  1.9598
  486MPD2    H1 7284   3.928   1.416  12.733 -0.6676  3.6010  1.6508
  486MPD2    H2 7285   3.852   1.022  12.877  1.4646  0.1028 -0.8367
  486MPD2    H3 7286   3.873   1.190  12.696  0.4205  2.3084 -0.1865
  486MPD2     N 7287   3.974   1.519  12.976 -0.6414 -0.6175 -0.1815
  486MPD2    H5 7288   3.993   1.539  13.073 -0.3792  1.7101 -0.7219
  486MPD2    N1 7289   3.875   1.074  13.122 -0.7906 -0.3116  0.6654
  486MPD2    H7 7290   3.835   0.985  13.095 -3.6554  0.4497  2.3280
  487TMC3    C1 7291   3.853   0.975  13.336 -0.6051 -0.1422 -0.3884
  487TMC3    C2 7292   3.872   0.860  13.267 -0.0742  0.0733 -0.0073
  487TMC3    C3 7293   3.814   0.755  13.324 -0.3663 -0.0922  0.3002
  487TMC3    C4 7294   3.794   0.976  13.457  0.0500  0.8624  0.5963
  487TMC3    C5 7295   3.753   0.857  13.518  0.0360  0.1045 -0.1907
  487TMC3    C6 7296   3.768   0.736  13.451  0.7633  0.3955  0.1009
  487TMC3     C 7297   3.872   1.100  13.262 -0.2238  0.4050 -0.2563
  487TMC3     O 7298   3.864   1.207  13.319  0.8050  0.0304 -0.7782
  487TMC3     H 7299   3.929   0.859  13.174 -2.7704 -2.0582 -1.6360
  487TMC3    H1 7300   3.795   1.066  13.517  1.3871  0.3527  1.3350
  487TMC3    H2 7301   3.710   0.648  13.478 -0.6307  1.8731  1.8531
  487TMC3    C7 7302   3.666   0.855  13.631  1.0185 -0.2285  0.6032
  487TMC3    C8 7303   3.835   0.630  13.251 -0.1617 -1.0515 -0.4262
  487TMC3    O1 7304   3.653   0.748  13.679 -0.6002 -0.3788 -0.1467
  487TMC3    O2 7305   3.871   0.533  13.316 -0.0029 -0.0523 -0.4548
  488MPD2     C 7306   4.018   3.083  16.354 -0.0702 -0.0441  0.0829
  488MPD2    C1 7307   4.037   3.200  16.416  0.1800 -0.3529 -0.8016
  488MPD2    C2 7308   4.003   3.216  16.549 -0.0577  0.0058  0.4951
  488MPD2    C3 7309   3.929   3.113  16.612  0.0414 -0.8500  0.5834
  488MPD2    C4 7310   3.903   2.995  16.542 -0.1847 -0.3838 -0.5750
  488MPD2    C5 7311   3.946   2.980  16.412 -0.2038 -0.1073  0.1775
  488MPD2     H 7312   4.012   3.304  16.611 -2.2102  1.2434 -0.9649
  488MPD2    H1 7313   3.852   2.909  16.585  0.8602  0.1412  1.7320
  488MPD2    H2 7314   4.041   3.062  16.250  1.3606  0.3690  0.3212
  488MPD2    H3 7315   3.930   2.885  16.363  1.3065  1.6620 -3.7864
  488MPD2     N 7316   3.891   3.130  16.753 -0.2872 -0.4618 -0.5678
  488MPD2    H5 7317   3.931   3.202  16.812 -0.9714 -0.7497  0.2524
  488MPD2    N1 7318   4.106   3.304  16.355 -0.4376 -0.1258 -0.0204
  488MPD2    H7 7319   4.148   3.372  16.417 -2.2180  0.6694  0.3270
  489TMC3    C1 7320   3.816   3.115  16.963  0.0536  1.1911  0.3398
  489TMC3    C2 7321   3.824   3.252  16.957 -0.1575 -0.4264  0.5383
  489TMC3    C3 7322   3.851   3.324  17.065  0.3844 -0.2665  0.2568
  489TMC3    C4 7323   3.848   3.037  17.070  0.2511 -0.1720  0.3357
  489TMC3    C5 7324   3.888   3.111  17.178 -0.6004  0.2317  1.2089
  489TMC3    C6 7325   3.893   3.250  17.175  0.3066 -0.1050  0.1552
  489TMC3     C 7326   3.826   3.044  16.835 -0.4184  0.1184  0.5497
  489TMC3     O 7327   3.777   2.938  16.807 -0.2775 -0.1147 -0.2495
  489TMC3     H 7328   3.782   3.300  16.869  1.1711  0.6515  0.4905
  489TMC3    H1 7329   3.860   2.930  17.057  0.7690 -0.2055  1.1419
  489TMC3    H2 7330   3.933   3.304  17.261 -0.0277 -1.5871  1.2368
  489TMC3    C7 7331   3.974   3.050  17.283 -0.2517  0.2422  0.0951
  489TMC3    C8 7332   3.921   3.448  17.037  0.4169  0.3789 -0.2421
  489TMC3    O1 7333   3.998   3.126  17.378 -0.5525  0.1195  0.5383
  489TMC3    O2 7334   3.984   3.456  16.934 -0.3703  0.5075  0.3155
  490MPD2     C 7335   0.046   2.699  17.340  0.0513  0.5866 -0.2165
  490MPD2    C1 7336   0.094   2.639  17.459 -0.5373 -0.1453 -1.0306
  490MPD2    C2 7337   0.139   2.718  17.556  0.4297  0.5732  0.1216
  490MPD2    C3 7338   0.155   2.848  17.541  0.8069  0.2099  0.3832
  490MPD2    C4 7339   0.119   2.914  17.420  0.1047  0.6994 -0.6202
  490MPD2    C5 7340   0.061   2.837  17.325  0.4759  0.1396 -0.1288
  490MPD2     H 7341   0.161   2.668  17.650 -2.0026 -0.9087 -0.0967
  490MPD2    H1 7342   0.141   3.019  17.409  2.7136  0.5679  3.6067
  490MPD2    H2 7343   4.733   2.641  17.265 -1.4965  3.8608 -1.6752
  490MPD2    H3 7344   0.023   2.881  17.233 -1.6521  1.6762  1.5186
  490MPD2     N 7345   0.238   2.928  17.625  0.1567 -0.0772  0.1193
  490MPD2    H5 7346   0.256   3.024  17.598 -1.4558  0.7697  2.0644
  490MPD2    N1 7347   0.103   2.499  17.479  0.2215 -0.5700 -0.1851
  490MPD2    H7 7348   0.120   2.467  17.574 -0.6447  1.4785  0.6612
  491TMC3    C1 7349   0.073   2.266  17.442 -0.1628  0.6902  0.0476
  491TMC3    C2 7350   0.006   2.255  17.556  0.6307  0.3607  0.3559
  491TMC3    C3 7351   4.684   2.138  17.580 -0.0232 -0.2255 -0.1894
  491TMC3    C4 7352   0.074   2.164  17.353  0.2500  0.1496  0.0537
  491TMC3    C5 7353   0.016   2.040  17.377  0.4694  0.6393  0.5020
  491TMC3    C6 7354   4.691   2.025  17.497  0.4244 -0.5076  0.5128
  491TMC3     C 7355   0.081   2.398  17.389  0.2547 -0.3967 -0.2715
  491TMC3     O 7356   0.048   2.412  17.272  0.4958  0.1385 -0.3289
  491TMC3     H 7357   4.730   2.341  17.620 -0.0368  0.2054  0.3977
  491TMC3    H1 7358   0.121   2.182  17.256  2.2790  0.6529  1.1337
  491TMC3    H2 7359   4.621   1.944  17.513 -0.0245 -1.0177 -3.9394
  491TMC3    C7 7360   4.679   2.000  17.257 -0.0211 -0.0164 -0.3914
  491TMC3    C8 7361   4.581   2.129  17.682  1.0341 -0.5505 -0.4210
  491TMC3    O1 7362   4.567   1.952  17.269  0.0678  0.0260 -0.4380
  491TMC3    O2 7363   4.483   2.059  17.661  0.4512 -0.0689 -0.0051
  492MPD2     C 7364   0.916   2.972  11.020  0.0713  0.1934 -0.1875
  492MPD2    C1 7365   0.781   2.958  11.048  0.4072  0.1313  0.3699
  492MPD2    C2 7366   0.741   2.891  11.163 -0.0878 -0.8541 -0.9043
  492MPD2    C3 7367   0.831   2.807  11.222  0.8003  0.3123  0.4386
  492MPD2    C4 7368   0.962   2.820  11.204 -0.0327  0.6565 -0.2667
  492MPD2    C5 7369   1.006   2.909  11.108 -0.4688 -0.6105  0.2228
  492MPD2     H 7370   0.637   2.897  11.193  0.0781 -0.4588 -0.4033
  492MPD2    H1 7371   1.040   2.763  11.253 -2.5174 -2.4784  0.0520
  492MPD2    H2 7372   0.952   3.028  10.934 -2.6768  1.3139 -0.5942
  492MPD2    H3 7373   1.111   2.926  11.085 -0.3279  0.4238  1.6399
  492MPD2     N 7374   0.786   2.707  11.308 -0.7108 -0.6912  0.3873
  492MPD2    H5 7375   0.859   2.656  11.356  1.6673  2.1825 -0.1953
  492MPD2    N1 7376   0.691   3.018  10.954 -0.5598  0.3078 -0.1991
  492MPD2    H7 7377   0.734   3.049  10.867  1.3066  0.1160  0.6512
  493TMC3    C1 7378   0.490   3.080  10.838  0.5915 -0.2758  1.1372
  493TMC3    C2 7379   0.554   3.183  10.758  0.0847 -0.9267  0.2184
  493TMC3    C3 7380   0.479   3.227  10.650 -0.4220  0.2203 -0.1481
  493TMC3    C4 7381   0.368   3.032  10.805  0.5317 -0.4835 -0.4795
  493TMC3    C5 7382   0.304   3.088  10.695  0.2868  0.8204 -0.5425
  493TMC3    C6 7383   0.355   3.183  10.612  0.3116  0.6480  0.8074
  493TMC3     C 7384   0.554   3.015  10.957 -0.2039 -0.2733  0.5927
  493TMC3     O 7385   0.484   2.946  11.034  0.3132  0.0826 -0.1372
  493TMC3     H 7386   0.650   3.228  10.780 -0.1127 -0.5821  0.3779
  493TMC3    H1 7387   0.330   2.952  10.867  0.2496 -1.7912 -2.3495
  493TMC3    H2 7388   0.300   3.228  10.530  1.1259  1.1516  0.5375
  493TMC3    C7 7389   0.176   3.036  10.649  0.7516  0.6006  0.2534
  493TMC3    C8 7390   0.550   3.309  10.553  0.3933 -0.7817  0.1270
  493TMC3    O1 7391   0.144   3.059  10.533  0.1227 -0.8324  0.2441
  493TMC3    O2 7392   0.471   3.383  10.486  0.1340  0.1006  0.8437
  494TMC3    C1 7393   0.952   4.509   0.496 -0.3112  0.3645  0.4116
  494TMC3    C2 7394   0.922   4.378   0.482 -0.0786 -0.3594 -0.1061
  494TMC3    C3 7395   0.945   4.314   0.364  0.3376  0.0984 -0.2457
  494TMC3    C4 7396   1.005   4.579   0.386 -0.5702  0.2780 -0.5149
  494TMC3    C5 7397   1.030   4.511   0.271  0.4389 -0.2484  0.2084
  494TMC3    C6 7398   0.989   4.381   0.249 -0.0367  0.7791 -0.1581
  494TMC3     C 7399   0.967   4.566   0.627 -0.0480  0.0751  0.4444
  494TMC3     O 7400   1.043   4.659   0.646  0.1738 -0.0389  0.4686
  494TMC3     H 7401   0.902   4.319   0.571  0.6862 -2.9507 -1.6493
  494TMC3    H1 7402   1.030   4.684   0.397 -0.9859  0.2810  0.4457
  494TMC3    H2 7403   1.033   4.331   0.164 -0.2754 -0.1641  0.2787
  494TMC3    C7 7404   1.064   4.579   0.151 -1.2287  0.1282 -0.0250
  494TMC3    C8 7405   1.006   4.187   0.378  1.1328 -0.4917  0.2916
  494TMC3    O1 7406   1.073   4.514   0.046 -0.4771 -0.1319  0.0044
  494TMC3    O2 7407   1.116   4.169   0.332 -0.3758  0.5903 -1.0294
  495TMC3    C1 7408   4.550   1.311  14.776 -1.2659 -0.0665 -0.1890
  495TMC3    C2 7409   4.573   1.413  14.683  0.0516  0.0733  0.5418
  495TMC3    C3 7410   4.522   1.539  14.696  0.3313 -0.1366  0.1445
  495TMC3    C4 7411   4.493   1.343  14.899 -0.1349  0.9566  0.5620
  495TMC3    C5 7412   4.459   1.476  14.925 -0.7289 -0.5168 -0.1398
  495TMC3    C6 7413   4.469   1.567  14.824 -0.4030  0.1305  0.0720
  495TMC3     C 7414   4.512   1.181  14.734  0.0770 -0.0160  0.2717
  495TMC3     O 7415   4.443   1.113  14.811 -0.2759 -0.1319 -0.0607
  495TMC3     H 7416   4.610   1.390  14.584 -2.2545  0.1068 -0.3046
  495TMC3    H1 7417   4.471   1.267  14.973 -0.9162 -0.4291 -1.0868
  495TMC3    H2 7418   4.439   1.669  14.845  2.2417  0.6692  1.2784
  495TMC3    C7 7419   4.387   1.518  15.047 -0.4504  0.9150 -0.3712
  495TMC3    C8 7420   4.409   1.564  14.615 -0.0155  0.5439  0.2567
  495TMC3    O1 7421   4.388   1.630  15.088  0.4088 -0.6576 -0.2291
  495TMC3    O2 7422   4.305   1.602  14.677 -0.4285 -0.6770  0.1081
  496MPD2     C 7423   1.659   1.479  15.233  0.2573  0.4290  0.6931
  496MPD2    C1 7424   1.713   1.562  15.322 -1.0185 -0.0058  0.2699
  496MPD2    C2 7425   1.672   1.560  15.454 -0.5031 -0.0655  0.4588
  496MPD2    C3 7426   1.572   1.463  15.487  0.2854  0.0543  0.9357
  496MPD2    C4 7427   1.519   1.370  15.394 -0.3631  0.1920  0.5426
  496MPD2    C5 7428   1.563   1.381  15.262 -0.6418 -0.7824  0.1937
  496MPD2     H 7429   1.712   1.626  15.530 -2.0840  2.9267 -1.3050
  496MPD2    H1 7430   1.444   1.297  15.421 -0.0530 -0.8503 -1.3817
  496MPD2    H2 7431   1.696   1.471  15.132  1.2309  0.0577  1.0828
  496MPD2    H3 7432   1.526   1.317  15.183 -3.0496  0.2896  0.4443
  496MPD2     N 7433   1.504   1.458  15.613  0.1306 -0.9644  0.4922
  496MPD2    H5 7434   1.420   1.401  15.610 -0.9394  0.4969  3.1236
  496MPD2    N1 7435   1.808   1.654  15.272  0.0621  0.6492 -0.4277
  496MPD2    H7 7436   1.825   1.653  15.172  1.3482  3.3957 -0.2262
  497TMC3    C1 7437   1.425   1.536  15.810 -0.2138 -0.4375  0.4658
  497TMC3    C2 7438   1.304   1.546  15.763 -0.5763 -0.1699 -0.1960
  497TMC3    C3 7439   1.188   1.555  15.838 -0.0425  0.0106  0.9414
  497TMC3    C4 7440   1.448   1.546  15.946 -0.2336 -0.3291  0.1908
  497TMC3    C5 7441   1.329   1.543  16.022  0.2373 -0.1529  0.5726
  497TMC3    C6 7442   1.201   1.537  15.971  0.0385 -0.7161  0.3763
  497TMC3     C 7443   1.529   1.539  15.720 -0.3979 -0.4054  0.1848
  497TMC3     O 7444   1.636   1.586  15.758  0.6398  0.1588 -0.4346
  497TMC3     H 7445   1.276   1.586  15.666 -3.1883  0.2437  0.7140
  497TMC3    H1 7446   1.547   1.541  15.989  0.3625 -1.8219 -1.3337
  497TMC3    H2 7447   1.115   1.534  16.037 -0.0592 -0.2122  0.2725
  497TMC3    C7 7448   1.339   1.478  16.153  0.7010 -0.1112 -0.2393
  497TMC3    C8 7449   1.066   1.573  15.770  0.1855 -0.6264 -0.4265
  497TMC3    O1 7450   1.250   1.401  16.176  0.0292  0.0771 -0.3050
  497TMC3    O2 7451   1.042   1.500  15.672 -0.1635 -0.6771  0.2277
  498MPD2     C 7452   3.317   2.515   9.643  0.2001  0.2315  0.1305
  498MPD2    C1 7453   3.274   2.553   9.770  0.0817 -0.7004 -0.2204
  498MPD2    C2 7454   3.166   2.487   9.825 -0.4901  0.6464 -0.3894
  498MPD2    C3 7455   3.095   2.381   9.762 -0.3539  0.4157 -0.1669
  498MPD2    C4 7456   3.139   2.342   9.642 -0.0664 -0.4428 -0.3398
  498MPD2    C5 7457   3.253   2.406   9.588  0.2906 -0.4905  0.9117
  498MPD2     H 7458   3.130   2.520   9.922 -0.2472  0.1056 -0.1156
  498MPD2    H1 7459   3.103   2.253   9.593 -0.0591  0.2381 -1.6061
  498MPD2    H2 7460   3.400   2.562   9.591 -0.1427  1.3653  0.6153
  498MPD2    H3 7461   3.284   2.373   9.490 -1.3082 -3.0016  1.2611
  498MPD2     N 7462   2.990   2.321   9.834 -0.1821 -0.4559 -0.5287
  498MPD2    H5 7463   2.978   2.345   9.932 -0.2619  1.1205 -0.9181
  498MPD2    N1 7464   3.326   2.662   9.837 -0.7047 -0.4133 -0.0863
  498MPD2    H7 7465   3.279   2.695   9.921  0.8240 -0.6747  0.8665
  499TMC3    C1 7466   3.414   2.872   9.829 -0.1013  0.0288 -0.1933
  499TMC3    C2 7467   3.531   2.943   9.853 -0.2292  0.2706 -0.2627
  499TMC3    C3 7468   3.530   3.058   9.926  0.7777 -0.2313  0.1639
  499TMC3    C4 7469   3.292   2.917   9.872  0.6285 -0.4602 -0.2304
  499TMC3    C5 7470   3.294   3.034   9.940 -0.1199  0.7827 -0.2644
  499TMC3    C6 7471   3.408   3.108   9.964  0.2451  0.3266 -0.4827
  499TMC3     C 7472   3.434   2.739   9.789 -0.6230 -0.1476 -0.1680
  499TMC3     O 7473   3.526   2.702   9.716 -0.0406 -0.0450  0.3683
  499TMC3     H 7474   3.625   2.904   9.815  0.7292  3.1690 -0.8391
  499TMC3    H1 7475   3.204   2.855   9.886  0.5953 -0.4707 -0.4912
  499TMC3    H2 7476   3.401   3.201  10.020 -0.0727  0.7114 -1.1633
  499TMC3    C7 7477   3.196   3.130   9.894  0.4131 -0.4421  0.4219
  499TMC3    C8 7478   3.635   3.152   9.910 -0.6291  0.4234 -0.5927
  499TMC3    O1 7479   3.230   3.245   9.888  0.1222 -0.2651  0.2026
  499TMC3    O2 7480   3.607   3.267   9.936 -0.4065  0.3085  0.8127
  500MPD2     C 7481   4.291   3.417  10.715 -0.4961 -0.1337 -0.2010
  500MPD2    C1 7482   4.287   3.535  10.645  0.9412  0.2316 -0.1110
  500MPD2    C2 7483   4.201   3.546  10.539  0.4321  0.2959  0.3555
  500MPD2    C3 7484   4.101   3.451  10.516 -0.1301 -0.1983  0.0125
  500MPD2    C4 7485   4.100   3.336  10.590 -0.1788  0.1629  1.1013
  500MPD2    C5 7486   4.200   3.322  10.684 -0.3192  0.4127 -0.0495
  500MPD2     H 7487   4.192   3.643  10.491  0.0932  0.5531  0.9551
  500MPD2    H1 7488   4.028   3.256  10.576 -0.1782 -0.1069  2.6709
  500MPD2    H2 7489   4.349   3.399  10.804 -1.0297 -0.5562  0.0588
  500MPD2    H3 7490   4.193   3.232  10.744  0.7232  0.0017 -0.5624
  500MPD2     N 7491   3.996   3.472  10.435 -0.4002 -0.5772 -0.4119
  500MPD2    H5 7492   3.920   3.405  10.435 -1.9269  1.1640 -0.6195
  500MPD2    N1 7493   4.394   3.636  10.658 -0.1751  0.1401  0.4414
  500MPD2    H7 7494   4.411   3.701  10.582 -0.5547 -1.0372 -0.6408
  501TMC3    C1 7495   4.588   3.746  10.749 -0.6605 -0.0376 -0.0156
  501TMC3    C2 7496   4.570   3.858  10.671 -0.2904  0.1378 -0.1049
  501TMC3    C3 7497   4.672   3.950  10.666 -0.1252 -0.4450  0.1637
  501TMC3    C4 7498   4.701   3.717  10.820 -0.3944  0.4012  0.2699
  501TMC3    C5 7499   0.058   3.812  10.813 -0.8103  0.2665  0.0707
  501TMC3    C6 7500   0.050   3.924  10.732  0.1503 -0.9416 -0.6727
  501TMC3     C 7501   4.489   3.644  10.759  0.3565  0.6497  0.1796
  501TMC3     O 7502   4.478   3.582  10.862  0.5153  0.0646  0.4525
  501TMC3     H 7503   4.477   3.886  10.624  0.0784 -1.0970 -1.5967
  501TMC3    H1 7504   4.708   3.624  10.875  0.3616  0.0615 -0.4115
  501TMC3    H2 7505   0.143   3.980  10.733  0.9865 -2.2726 -2.8283
  501TMC3    C7 7506   0.184   3.780  10.871  0.0029  0.4416  0.2806
  501TMC3    C8 7507   4.661   4.081  10.602  0.1852 -0.0954 -0.1679
  501TMC3    O1 7508   0.212   3.662  10.878  0.6113  0.0957 -0.2732
  501TMC3    O2 7509   0.028   4.142  10.595  0.2936 -1.1442  0.2042
  502TMC3    C1 7510   3.459   1.966  15.164  0.0532  0.1820 -0.7500
  502TMC3    C2 7511   3.519   2.012  15.055  0.0017  0.5080 -0.2598
  502TMC3    C3 7512   3.449   2.062  14.949  0.1449 -0.3808 -0.7964
  502TMC3    C4 7513   3.322   1.953  15.174 -0.8266  0.4853  0.2773
  502TMC3    C5 7514   3.251   2.007  15.069  0.2058  0.5197 -0.4489
  502TMC3    C6 7515   3.307   2.066  14.955 -0.2733  0.5646 -0.1028
  502TMC3     C 7516   3.540   1.953  15.286 -0.3988  0.0556  0.1704
  502TMC3     O 7517   3.469   1.951  15.385  0.0828  0.5100  0.7069
  502TMC3     H 7518   3.624   2.034  15.068  0.6936 -1.7927 -1.8681
  502TMC3    H1 7519   3.274   1.910  15.261 -0.3490 -0.1828  0.2084
  502TMC3    H2 7520   3.247   2.091  14.868  0.0026 -2.0902 -1.0597
  502TMC3    C7 7521   3.106   1.999  15.087  0.1963  0.4354  0.1457
  502TMC3    C8 7522   3.510   2.184  14.906  0.4928 -0.3869  0.2853
  502TMC3    O1 7523   3.054   1.952  15.186 -0.5932 -0.1730  0.0754
  502TMC3    O2 7524   3.632   2.179  14.889 -0.0855  0.0022 -0.5711
  503MPD2     C 7525   1.222   3.232  17.026  0.2719 -0.7832  1.2901
  503MPD2    C1 7526   1.214   3.275  17.150 -0.2072  0.0323 -0.4566
  503MPD2    C2 7527   1.261   3.191  17.250 -0.1760 -0.0658 -0.1071
  503MPD2    C3 7528   1.328   3.076  17.224  0.3858  0.3069  0.0748
  503MPD2    C4 7529   1.331   3.029  17.094 -0.3615  0.3635  0.3376
  503MPD2    C5 7530   1.287   3.115  16.989  0.3597 -0.2871 -0.4128
  503MPD2     H 7531   1.265   3.223  17.353 -0.2735 -0.2112 -0.0596
  503MPD2    H1 7532   1.377   2.935  17.067 -0.6680 -0.1624  1.6288
  503MPD2    H2 7533   1.194   3.298  16.945 -2.4813 -0.1954  2.7421
  503MPD2    H3 7534   1.289   3.078  16.887 -0.2974 -0.4426 -0.3743
  503MPD2     N 7535   1.382   3.010  17.334  0.3465 -0.4225  0.3586
  503MPD2    H5 7536   1.371   3.043  17.430 -1.5812  0.2365 -0.0784
  503MPD2    N1 7537   1.175   3.403  17.187  0.4196  0.2852  0.0591
  503MPD2    H7 7538   1.154   3.416  17.286 -0.4239  1.0462 -0.2212
  504TMC3    C1 7539   1.556   2.891  17.446  0.3779 -0.5443  0.5752
  504TMC3    C2 7540   1.493   2.910  17.562  0.2513 -0.7698  0.1132
  504TMC3    C3 7541   1.571   2.922  17.678 -0.4386  0.0101  0.6386
  504TMC3    C4 7542   1.690   2.885  17.430  0.3456  0.5937  0.1987
  504TMC3    C5 7543   1.764   2.900  17.544  0.2054  0.0002 -0.0134
  504TMC3    C6 7544   1.704   2.919  17.661 -0.1384 -0.0296 -1.0646
  504TMC3     C 7545   1.487   2.923  17.315  0.4257 -0.0233  0.7739
  504TMC3     O 7546   1.542   2.885  17.215  0.7716 -0.7885  0.1778
  504TMC3     H 7547   1.385   2.911  17.565  0.2698 -0.5174  0.7182
  504TMC3    H1 7548   1.739   2.847  17.341  0.9052 -0.8891  1.1337
  504TMC3    H2 7549   1.774   2.931  17.743  1.7579 -0.8941 -2.5648
  504TMC3    C7 7550   1.909   2.889  17.550 -0.3369  0.3813 -0.2993
  504TMC3    C8 7551   1.503   2.963   0.045 -0.5960  0.0103 -0.5780
  504TMC3    O1 7552   1.961   2.875  17.659 -0.4018 -0.0542 -0.4710
  504TMC3    O2 7553   1.381   2.988   0.043 -0.1590  0.5636 -0.1804
  505MPD2     C 7554   1.958   1.948  10.682 -0.1444  0.2372  0.4055
  505MPD2    C1 7555   2.022   1.833  10.703  0.4470 -0.6003 -0.3847
  505MPD2    C2 7556   2.134   1.829  10.776  0.5281 -0.0170 -0.4657
  505MPD2    C3 7557   2.187   1.941  10.828  0.0821 -0.0046  0.0428
  505MPD2    C4 7558   2.132   2.062  10.795  0.2278 -0.6998 -0.3145
  505MPD2    C5 7559   2.023   2.065  10.718 -0.6815 -0.4291 -0.3233
  505MPD2     H 7560   2.178   1.731  10.788 -0.3494 -0.4157 -0.4919
  505MPD2    H1 7561   2.183   2.155  10.817 -0.9560 -0.2836  0.7061
  505MPD2    H2 7562   1.867   1.961  10.624  0.6040  2.0112 -0.3611
  505MPD2    H3 7563   1.987   2.162  10.686  1.6200  0.3087 -0.6677
  505MPD2     N 7564   2.311   1.939  10.900  0.0796  0.1483  0.0258
  505MPD2    H5 7565   2.350   2.030  10.917 -1.2952  0.7009  0.2202
  505MPD2    N1 7566   1.963   1.716  10.655  0.4717  0.3053 -0.5049
  505MPD2    H7 7567   1.889   1.732  10.587  1.2034  2.1869 -0.8430
  506TMC3    C1 7568   1.997   1.503  10.549  0.1569 -0.8672  0.1449
  506TMC3    C2 7569   2.022   1.559  10.435 -0.0238 -0.5060 -0.4372
  506TMC3    C3 7570   2.073   1.477  10.335 -0.2699  0.1783 -0.6078
  506TMC3    C4 7571   2.014   1.371  10.572  0.0545 -0.1999  0.0524
  506TMC3    C5 7572   2.067   1.284  10.482 -1.0014 -0.7909  0.0765
  506TMC3    C6 7573   2.099   1.341  10.361 -0.0426  0.3145  0.0865
  506TMC3     C 7574   2.009   1.584  10.671 -0.5312  0.4215 -0.1654
  506TMC3     O 7575   2.090   1.544  10.760  0.0317 -0.4900  0.1833
  506TMC3     H 7576   2.007   1.666  10.419 -0.7453 -0.5122  0.2229
  506TMC3    H1 7577   1.988   1.334  10.670  0.2830 -0.5635 -0.0219
  506TMC3    H2 7578   2.146   1.274  10.289 -0.0042  0.3645  0.0655
  506TMC3    C7 7579   2.192   1.230  10.540 -0.3358 -0.1871  0.3687
  506TMC3    C8 7580   2.059   1.532  10.207  0.6091  0.2109  0.5636
  506TMC3    O1 7581   2.235   1.122  10.491  0.2468  0.5134  0.5228
  506TMC3    O2 7582   2.013   1.463  10.123  0.0711 -0.0498 -0.3453
  507TMC3    C1 7583   2.080   2.839  14.435  0.3547  0.4971 -0.2813
  507TMC3    C2 7584   2.055   2.800  14.311 -0.1375  0.6570 -0.0444
  507TMC3    C3 7585   2.157   2.827  14.232  0.0047  0.0142  0.5474
  507TMC3    C4 7586   2.197   2.898  14.483  0.1464  0.2041  0.2501
  507TMC3    C5 7587   2.301   2.923  14.396  0.2647 -0.7172  1.0499
  507TMC3    C6 7588   2.282   2.869  14.269 -0.0459 -0.4030 -0.1951
  507TMC3     C 7589   2.007   2.754  14.526  0.4816 -0.1700 -0.3068
  507TMC3     O 7590   1.884   2.742  14.507  0.8824 -0.6915  0.6647
  507TMC3     H 7591   1.957   2.763  14.284  0.4613 -0.6428 -0.4343
  507TMC3    H1 7592   2.203   2.913  14.590  0.4439 -2.1538  0.5706
  507TMC3    H2 7593   2.367   2.855  14.204 -0.2403 -1.5114 -0.2205
  507TMC3    C7 7594   2.357   3.054  14.389 -0.1059 -0.2325 -0.1655
  507TMC3    C8 7595   2.130   2.872  14.094  0.3239 -0.0080 -1.2169
  507TMC3    O1 7596   2.375   3.083  14.275  0.1640 -0.0546  0.1588
  507TMC3    O2 7597   2.058   2.806  14.024 -0.4282  0.0569  0.3045
  508MPD2     C 7598   3.578   4.706  16.121  0.0203  0.4792 -0.3004
  508MPD2    C1 7599   3.578   0.061  16.218  0.1979 -0.9330  0.0846
  508MPD2    C2 7600   3.539   0.188  16.189 -0.3741 -0.3991  0.2062
  508MPD2    C3 7601   3.509   0.230  16.055 -0.1296  0.1645  0.0569
  508MPD2    C4 7602   3.507   0.128  15.957 -0.1214 -0.3595 -0.2528
  508MPD2    C5 7603   3.540   0.000  15.993 -0.4993  0.2746  0.8496
  508MPD2     H 7604   3.537   0.261  16.269 -1.3540 -0.4788  0.2571
  508MPD2    H1 7605   3.489   0.156  15.854  2.0895  0.0826 -0.5196
  508MPD2    H2 7606   3.600   4.601  16.138 -1.7921 -0.1619 -1.8242
  508MPD2    H3 7607   3.547   4.657  15.923 -0.2047  0.9089  0.1283
  508MPD2     N 7608   3.488   0.369  16.031 -0.7715 -0.5143 -0.5218
  508MPD2    H5 7609   3.506   0.436  16.105  1.7147 -0.8928 -0.7809
  508MPD2    N1 7610   3.600   0.023  16.358  0.7771  0.3660  0.5600
  508MPD2    H7 7611   3.594   0.103  16.420  1.6685  0.1411  0.9301
  509TMC3    C1 7612   3.299   0.740  15.829 -0.4515 -0.1017  0.3135
  509TMC3    C2 7613   3.337   0.821  15.935 -0.3116 -0.2810 -0.0465
  509TMC3    C3 7614   3.409   0.776  16.039  0.1415  0.1084  0.1448
  509TMC3    C4 7615   3.338   0.610  15.822  0.0228 -0.0053 -0.2498
  509TMC3    C5 7616   3.410   0.564  15.928  0.1642  0.3590  0.2421
  509TMC3    C6 7617   3.452   0.645  16.029 -0.4901  0.2292  0.4106
  509TMC3     C 7618   3.224   0.801  15.715 -0.1826 -0.7782  0.5535
  509TMC3     O 7619   3.202   0.732  15.618 -0.1453  0.7476 -0.1941
  509TMC3     H 7620   3.303   0.923  15.952  0.7935 -0.0326  0.6503
  509TMC3    H1 7621   3.307   0.540  15.746 -1.0473 -2.3242  2.3166
  509TMC3    H2 7622   3.513   0.605  16.109  0.7407  0.7705 -0.2583
  509TMC3    C7 7623   3.446   0.423  15.912  0.5793  0.4894  0.5174
  509TMC3    C8 7624   3.509   0.860  16.097 -0.1443 -0.3011 -0.0018
  509TMC3    O1 7625   3.424   0.365  15.805 -0.2941 -0.0262  0.0374
  509TMC3    O2 7626   3.567   0.809  16.192 -0.0501  0.4283  0.3031
  510MPD2     C 7627   1.321   2.240  14.438 -0.4757  0.0313 -0.0401
  510MPD2    C1 7628   1.345   2.112  14.490 -0.1475  0.1380 -0.5345
  510MPD2    C2 7629   1.444   2.036  14.426 -0.3353 -0.1042  0.2380
  510MPD2    C3 7630   1.528   2.101  14.337 -0.3702 -0.4237  1.2215
  510MPD2    C4 7631   1.506   2.232  14.300  0.3559 -0.3795 -0.2484
  510MPD2    C5 7632   1.401   2.301  14.353  0.8369 -0.4399  0.3597
  510MPD2     H 7633   1.465   1.935  14.459 -0.7541 -0.3208 -0.1585
  510MPD2    H1 7634   1.570   2.290  14.234  0.3860 -0.3898 -0.2286
  510MPD2    H2 7635   1.246   2.304  14.482  0.1319  0.2164  0.7174
  510MPD2    H3 7636   1.380   2.403  14.323 -1.0079 -1.3487 -1.3808
  510MPD2     N 7637   1.640   2.022  14.287 -0.3710 -0.3217  0.4649
  510MPD2    H5 7638   1.649   1.929  14.328  0.3258 -0.3793  0.1834
  510MPD2    N1 7639   1.277   2.046  14.589 -0.2671  0.2932  0.3315
  510MPD2    H7 7640   1.267   1.948  14.564 -1.0931  1.0075 -2.0972
  511TMC3    C1 7641   1.121   2.003  14.763  1.2516  0.6984  0.3252
  511TMC3    C2 7642   1.019   2.053  14.834  0.3162 -0.3119  0.3151
  511TMC3    C3 7643   0.937   1.968  14.909 -0.7711  0.1379  0.6787
  511TMC3    C4 7644   1.142   1.870  14.755  0.3111  0.1538 -0.3967
  511TMC3    C5 7645   1.052   1.788  14.821  0.8652  0.3763 -0.1399
  511TMC3    C6 7646   0.946   1.834  14.898  0.2698  0.1659  0.3163
  511TMC3     C 7647   1.196   2.105  14.688 -0.3930 -0.5173 -0.2806
  511TMC3     O 7648   1.201   2.219  14.728 -0.2932 -0.3068  0.5218
  511TMC3     H 7649   0.999   2.159  14.832 -1.4376 -0.7083 -2.5705
  511TMC3    H1 7650   1.229   1.824  14.710  0.2314 -0.2323 -0.1546
  511TMC3    H2 7651   0.882   1.765  14.951 -2.0611  1.0576 -1.3224
  511TMC3    C7 7652   1.063   1.648  14.785 -0.0402 -0.6306 -0.2509
  511TMC3    C8 7653   0.847   2.033  15.008  0.2208 -0.2093  0.0612
  511TMC3    O1 7654   1.114   1.629  14.675 -0.2257  0.0036 -0.6892
  511TMC3    O2 7655   0.860   2.154  15.035  0.3908 -0.2272 -0.0653
  512TMC3    C1 7656   4.638   0.942  13.860  0.0707  0.6831  1.0668
  512TMC3    C2 7657   0.032   0.962  13.877  0.7091 -0.6660 -0.1266
  512TMC3    C3 7658   0.111   0.853  13.875  0.5075 -0.3526  0.2391
  512TMC3    C4 7659   4.581   0.817  13.860 -0.2385 -0.4676 -0.0314
  512TMC3    C5 7660   4.663   0.707  13.858  0.3198  0.3828 -0.7050
  512TMC3    C6 7661   0.060   0.727  13.869  0.0504 -0.1672  0.4157
  512TMC3     C 7662   4.537   1.057  13.853  0.2110 -0.1074  0.1865
  512TMC3     O 7663   4.589   1.165  13.826  0.0537  0.2524 -0.5559
  512TMC3     H 7664   0.059   1.067  13.878  3.6501 -1.4530  1.2369
  512TMC3    H1 7665   4.475   0.813  13.842 -0.6524 -0.5904  2.4946
  512TMC3    H2 7666   0.130   0.644  13.868  0.9450  0.5930 -0.2496
  512TMC3    C7 7667   4.621   0.576  13.829 -0.4714 -0.6179  0.6620
  512TMC3    C8 7668   0.255   0.874  13.893  0.6790 -0.2919 -0.7160
  512TMC3    O1 7669   4.706   0.493  13.811 -0.3243  0.6275 -0.1362
  512TMC3    O2 7670   0.314   0.781  13.946 -0.1190  0.0621 -0.0561
  513MPD2     C 7671   1.346   1.420  13.119  0.3638 -0.0947  0.3408
  513MPD2    C1 7672   1.406   1.299  13.103 -0.9383 -0.0247 -0.2886
  513MPD2    C2 7673   1.457   1.228  13.211  0.0553  0.0215 -0.0215
  513MPD2    C3 7674   1.450   1.282  13.337  0.4402 -0.0268 -0.2923
  513MPD2    C4 7675   1.391   1.408  13.351  0.9405 -0.1310 -0.1332
  513MPD2    C5 7676   1.343   1.475  13.241 -0.0454 -0.3564  0.3787
  513MPD2     H 7677   1.506   1.133  13.197 -0.9306 -0.7120  1.5418
  513MPD2    H1 7678   1.393   1.458  13.447 -0.5171  0.3082 -0.3348
  513MPD2    H2 7679   1.306   1.481  13.039  1.1109 -1.4419 -1.0478
  513MPD2    H3 7680   1.308   1.577  13.246  0.9320 -0.0303  0.5780
  513MPD2     N 7681   1.509   1.210  13.440 -0.9151 -0.4659 -0.4868
  513MPD2    H5 7682   1.546   1.119  13.413  0.3182 -0.1559  0.2080
  513MPD2    N1 7683   1.422   1.242  12.974  0.5869  0.1553  0.9652
  513MPD2    H7 7684   1.456   1.146  12.978 -1.1717 -0.5511 -1.5698
  514TMC3    C1 7685   1.485   1.220  12.757  0.1651 -0.8259  0.1547
  514TMC3    C2 7686   1.604   1.267  12.705  0.0404  0.0354  0.3603
  514TMC3    C3 7687   1.695   1.167  12.680  0.2332  0.1866  0.1465
  514TMC3    C4 7688   1.460   1.087  12.776 -0.0823  0.6569 -0.0258
  514TMC3    C5 7689   1.560   0.990  12.762  0.1510 -0.4438  0.0226
  514TMC3    C6 7690   1.665   1.033  12.692  1.0108 -0.4852 -0.6780
  514TMC3     C 7691   1.423   1.306  12.855 -0.2619  1.1471  0.1321
  514TMC3     O 7692   1.400   1.425  12.826  0.3322 -0.2072 -0.8165
  514TMC3     H 7693   1.637   1.370  12.710 -1.4838  0.4600  1.8680
  514TMC3    H1 7694   1.379   1.062  12.844 -1.1871  1.0482 -1.1960
  514TMC3    H2 7695   1.751   0.971  12.672  0.2246 -1.8731  0.2773
  514TMC3    C7 7696   1.602   0.946  12.893  0.5162  0.0761 -0.2578
  514TMC3    C8 7697   1.825   1.202  12.613 -0.0218  0.4474 -0.7795
  514TMC3    O1 7698   1.552   1.008  12.989 -0.1489  0.0436 -0.4225
  514TMC3    O2 7699   1.901   1.281  12.673  0.2760 -0.2085  0.2771
  515MPD2     C 7700   4.334   3.090  14.813 -0.0898 -0.4875 -0.0492
  515MPD2    C1 7701   4.437   2.995  14.785  0.0532  0.8758  0.4140
  515MPD2    C2 7702   4.564   3.034  14.796  0.4521 -0.7341  0.3267
  515MPD2    C3 7703   4.599   3.168  14.831  0.0888  0.0828 -0.5114
  515MPD2    C4 7704   4.498   3.254  14.864 -0.1464 -0.0019  0.2726
  515MPD2    C5 7705   4.367   3.216  14.853  0.3303 -0.2842  0.8416
  515MPD2     H 7706   4.647   2.966  14.778  0.3463 -1.3837  2.3300
  515MPD2    H1 7707   4.528   3.358  14.868  1.1883 -0.4220  1.2322
  515MPD2    H2 7708   4.231   3.061  14.799  0.8582 -2.1314 -3.8842
  515MPD2    H3 7709   4.294   3.296  14.865 -1.4043 -1.8975  1.0324
  515MPD2     N 7710   4.726   3.223  14.830 -0.5135 -0.4726  0.1504
  515MPD2    H5 7711   0.007   3.321  14.848 -1.0022 -0.9935  3.5173
  515MPD2    N1 7712   4.412   2.862  14.735  0.7109  0.4541 -0.3991
  515MPD2    H7 7713   4.494   2.808  14.709 -0.5812 -1.5651 -0.3243
  516TMC3    C1 7714   4.313   2.681  14.619 -0.1400  0.1884  0.9644
  516TMC3    C2 7715   4.223   2.652  14.522  0.2661 -0.2257  0.5506
  516TMC3    C3 7716   4.230   2.539  14.450  0.5714  1.1635  0.6441
  516TMC3    C4 7717   4.415   2.599  14.649  0.1357  0.0121  0.7481
  516TMC3    C5 7718   4.409   2.472  14.586 -0.1165  0.1443  1.4691
  516TMC3    C6 7719   4.321   2.443  14.486 -1.0015 -0.0759  0.5950
  516TMC3     C 7720   4.297   2.813  14.687 -0.1557 -0.2536 -0.1089
  516TMC3     O 7721   4.194   2.880  14.665  0.2718 -0.2249 -0.7930
  516TMC3     H 7722   4.153   2.729  14.491 -0.3261  0.3156  3.1888
  516TMC3    H1 7723   4.475   2.611  14.738  0.5569  1.0952  0.3162
  516TMC3    H2 7724   4.304   2.344  14.446  0.5322 -0.0947  0.0030
  516TMC3    C7 7725   4.479   2.364  14.654  0.0551  0.4933  0.1450
  516TMC3    C8 7726   4.195   2.557  14.309 -0.4100 -0.0351  0.2985
  516TMC3    O1 7727   4.521   2.401  14.762  0.7960  0.2124 -0.0419
  516TMC3    O2 7728   4.104   2.633  14.284  0.4276  0.6379  0.0845
  517MPD2     C 7729   4.258   0.087  17.359  0.0493  0.2750 -0.3539
  517MPD2    C1 7730   4.358   0.050  17.444  0.1118 -0.1343 -0.0108
  517MPD2    C2 7731   4.413   0.142  17.526  0.3279  0.0261 -0.0493
  517MPD2    C3 7732   4.386   0.276  17.525 -0.1274 -0.0639 -0.1248
  517MPD2    C4 7733   4.284   0.312  17.435 -0.8687 -0.1278 -0.1193
  517MPD2    C5 7734   4.220   0.219  17.361 -0.0748  0.1041  0.0814
  517MPD2     H 7735   4.483   0.102  17.599  2.8041 -0.1246 -2.4955
  517MPD2    H1 7736   4.238   0.410  17.438  0.3968  0.4697  0.0144
  517MPD2    H2 7737   4.204   0.017  17.297 -0.9956 -0.1335  1.0198
  517MPD2    H3 7738   4.133   0.251  17.305  0.7644 -2.0236 -2.4827
  517MPD2     N 7739   4.447   0.377  17.598 -0.8432  0.8750 -0.1764
  517MPD2    H5 7740   4.395   0.463  17.608  2.2250  2.7783 -0.5872
  517MPD2    N1 7741   4.401   4.659  17.463  0.3976  0.0336 -0.0902
  517MPD2    H7 7742   4.474   4.648  17.533  0.0201  2.2310  0.6509
  518TMC3    C1 7743   4.442   4.434  17.431  0.1476  0.4934 -0.6001
  518TMC3    C2 7744   4.402   4.310  17.391  0.2076  0.0312  0.2233
  518TMC3    C3 7745   4.494   4.223  17.352  0.5360  0.4091 -0.1086
  518TMC3    C4 7746   4.578   4.460  17.453  0.3252  0.0234  0.1947
  518TMC3    C5 7747   4.662   4.362  17.416  0.4882 -0.1091 -0.4128
  518TMC3    C6 7748   4.629   4.235  17.355 -0.2006  0.6569 -0.5855
  518TMC3     C 7749   4.358   4.547  17.397  0.4113  0.3975 -0.7845
  518TMC3     O 7750   4.262   4.527  17.324  0.2304 -0.2064  0.1368
  518TMC3     H 7751   4.296   4.301  17.371  0.2285  1.3885 -0.4977
  518TMC3    H1 7752   4.616   4.562  17.453 -2.3541  1.0169 -2.0193
  518TMC3    H2 7753   4.704   4.157  17.345 -0.8330  0.0969 -0.9317
  518TMC3    C7 7754   0.059   4.395  17.454 -0.1626  0.6703  0.2337
  518TMC3    C8 7755   4.454   4.089  17.322  0.0064  0.3097 -0.6342
  518TMC3    O1 7756   0.085   4.481  17.539  0.2917  0.3567  0.6731
  518TMC3    O2 7757   4.542   4.021  17.263  0.3945 -0.7314 -0.0444
  519MPD2     C 7758   1.521   2.700  14.296 -0.6674  0.0129  0.0033
  519MPD2    C1 7759   1.491   2.723  14.165 -0.1963 -0.3487 -0.0783
  519MPD2    C2 7760   1.554   2.638  14.075 -0.2618  1.1498  1.1428
  519MPD2    C3 7761   1.656   2.548  14.111  0.6153  0.4834 -0.0598
  519MPD2    C4 7762   1.698   2.547  14.246 -0.1578 -0.1404  0.4361
  519MPD2    C5 7763   1.630   2.621  14.335 -0.6154 -0.0379 -0.4509
  519MPD2     H 7764   1.522   2.649  13.972  1.5332  0.7931  0.5559
  519MPD2    H1 7765   1.774   2.484  14.291  0.2671  0.3238  0.3632
  519MPD2    H2 7766   1.452   2.749  14.364 -1.8390 -0.6488 -0.7121
  519MPD2    H3 7767   1.658   2.613  14.440 -2.2259 -0.9171 -0.0953
  519MPD2     N 7768   1.729   2.469  14.020  0.2218 -0.7232  0.5754
  519MPD2    H5 7769   1.820   2.436  14.049  1.7419  1.5695 -1.6165
  519MPD2    N1 7770   1.379   2.808  14.138  0.0249 -0.1777  0.8938
  519MPD2    H7 7771   1.321   2.840  14.214 -0.4162  0.3316  0.3436
  520TMC3    C1 7772   1.767   2.348  13.804  0.3722 -0.1511  0.0906
  520TMC3    C2 7773   1.710   2.313  13.683  0.2935  0.3069  0.0079
  520TMC3    C3 7774   1.783   2.229  13.601 -0.1766 -0.0609  0.4848
  520TMC3    C4 7775   1.900   2.326  13.823 -0.0813  0.3745 -0.1395
  520TMC3    C5 7776   1.971   2.254  13.734 -1.0244 -0.4209 -0.4111
  520TMC3    C6 7777   1.915   2.203  13.624  0.6776 -0.4184 -0.4245
  520TMC3     C 7778   1.682   2.422  13.896 -0.2025  0.0063  0.4321
  520TMC3     O 7779   1.574   2.450  13.849 -0.0893  0.1761  0.2030
  520TMC3     H 7780   1.611   2.343  13.650  0.3287  0.1034 -0.2844
  520TMC3    H1 7781   1.948   2.368  13.911  0.7172 -1.1059  0.1255
  520TMC3    H2 7782   1.961   2.132  13.557  2.4540  1.0191 -0.7229
  520TMC3    C7 7783   2.099   2.201  13.777 -0.1201  0.1046 -0.2401
  520TMC3    C8 7784   1.720   2.156  13.492 -0.1276 -0.3486 -0.4164
  520TMC3    O1 7785   2.127   2.195  13.896  0.3016 -0.0850 -0.5168
  520TMC3    O2 7786   1.795   2.108  13.409  0.6197  0.1171 -0.3479
  521MPD2     C 7787   2.422   1.149  17.399  0.6185 -0.3961 -1.0503
  521MPD2    C1 7788   2.393   1.030  17.359  0.2039 -0.1200 -0.3546
  521MPD2    C2 7789   2.501   0.962  17.306 -0.0242 -0.3471 -0.1814
  521MPD2    C3 7790   2.629   1.012  17.286 -0.1020 -0.3323  0.0585
  521MPD2    C4 7791   2.655   1.136  17.346 -0.2600 -0.4952 -0.0434
  521MPD2    C5 7792   2.551   1.202  17.394  0.0885  0.6039  0.3000
  521MPD2     H 7793   2.482   0.859  17.279  0.4365 -0.2862 -0.7237
  521MPD2    H1 7794   2.754   1.180  17.348 -0.5352  0.1385 -0.3742
  521MPD2    H2 7795   2.350   1.219  17.441  1.1739 -0.7736  0.5182
  521MPD2    H3 7796   2.569   1.303  17.429  0.0151  0.3573  1.0611
  521MPD2     N 7797   2.726   0.930  17.226  0.1350  0.2786  0.4191
  521MPD2    H5 7798   2.694   0.835  17.214 -2.9567  1.2694  0.6038
  521MPD2    N1 7799   2.260   0.987  17.375 -0.2879 -0.4702  0.1783
  521MPD2    H7 7800   2.194   1.047  17.423  1.1698 -0.5199  2.2297
  522TMC3    C1 7801   2.923   0.856  17.103 -0.6237 -0.2036 -0.2351
  522TMC3    C2 7802   3.051   0.820  17.116 -0.6621 -0.5866 -0.4038
  522TMC3    C3 7803   3.095   0.707  17.053  0.4903  0.2982  0.4021
  522TMC3    C4 7804   2.833   0.775  17.034 -1.1383  0.3883 -0.8292
  522TMC3    C5 7805   2.885   0.658  16.970 -0.4740  0.3748 -0.4659
  522TMC3    C6 7806   3.014   0.627  16.978 -0.6625  0.5816 -0.1106
  522TMC3     C 7807   2.857   0.961  17.189 -0.4874  0.1808  0.0120
  522TMC3     O 7808   2.921   1.054  17.230  0.0842 -0.2755  0.3401
  522TMC3     H 7809   3.120   0.882  17.172 -1.4677  0.9844 -1.1574
  522TMC3    H1 7810   2.727   0.796  17.023 -1.1180  2.1000  2.1584
  522TMC3    H2 7811   3.050   0.527  16.959  0.2529  1.5689 -3.5745
  522TMC3    C7 7812   2.803   0.557  16.906 -0.1878 -1.1409 -0.9387
  522TMC3    C8 7813   3.215   0.654  17.111  0.2871  0.2739 -0.1727
  522TMC3    O1 7814   2.791   0.444  16.956  0.0645 -0.7540 -0.1665
  522TMC3    O2 7815   3.266   0.710  17.209  0.2988  0.7416  0.9122
  523MPD2     C 7816   0.258   1.293   9.794  0.5853  0.7311  0.5536
  523MPD2    C1 7817   0.183   1.184   9.778 -0.3566  0.1082 -0.2980
  523MPD2    C2 7818   0.125   1.171   9.645 -0.8011  0.0422 -0.1824
  523MPD2    C3 7819   0.128   1.266   9.552  0.3979  0.6033  0.5888
  523MPD2    C4 7820   0.201   1.378   9.579  0.2478 -0.1188 -1.3472
  523MPD2    C5 7821   0.262   1.391   9.694 -0.0080  0.4731 -0.9222
  523MPD2     H 7822   0.073   1.080   9.619 -2.1844  0.3799  1.3625
  523MPD2    H1 7823   0.207   1.458   9.506  0.2455  2.0310  1.0050
  523MPD2    H2 7824   0.315   1.309   9.884 -0.4836  0.8431  1.2078
  523MPD2    H3 7825   0.325   1.479   9.706 -1.2428  0.9429  2.0031
  523MPD2     N 7826   0.068   1.264   9.420  0.0656  0.4318  0.6005
  523MPD2    H5 7827   0.090   1.337   9.353 -2.4909 -1.6646 -2.5227
  523MPD2    N1 7828   0.179   1.079   9.875 -0.0951 -0.8495 -0.6342
  523MPD2    H7 7829   0.233   1.098   9.959 -0.2195 -1.6463 -0.3759
  524TMC3    C1 7830   4.699   1.180   9.226 -0.7117 -0.3133  0.5611
  524TMC3    C2 7831   4.648   1.075   9.152  0.4175 -0.3956  0.4434
  524TMC3    C3 7832   4.544   1.104   9.065 -0.6893 -0.2495 -0.1106
  524TMC3    C4 7833   4.662   1.311   9.202 -0.3428  0.5820  0.6276
  524TMC3    C5 7834   4.585   1.337   9.090 -0.5595 -0.0765 -0.6215
  524TMC3    C6 7835   4.522   1.234   9.028 -0.2691 -0.4298  0.3746
  524TMC3     C 7836   0.014   1.150   9.361  0.1121 -0.1103  0.5377
  524TMC3     O 7837   4.726   1.041   9.407  0.1903  0.3391  0.5342
  524TMC3     H 7838   4.660   0.973   9.188 -2.5289 -0.7027  0.5642
  524TMC3    H1 7839   4.686   1.387   9.276 -0.8440 -0.5096  1.9131
  524TMC3    H2 7840   4.447   1.252   8.951 -0.8519 -1.1282  0.7708
  524TMC3    C7 7841   4.555   1.474   9.067 -0.3059 -0.2034  0.0144
  524TMC3    C8 7842   4.470   0.994   8.997 -0.2028  0.0429  0.0654
  524TMC3    O1 7843   4.622   1.552   9.135 -0.5872  0.3172  0.0636
  524TMC3    O2 7844   4.408   1.021   8.895 -0.1378 -0.2663 -0.1317
  525MPD2     C 7845   2.939   1.808  14.698  0.2006  0.2814  0.7509
  525MPD2    C1 7846   3.050   1.775  14.769  0.6919 -0.2564 -1.1631
  525MPD2    C2 7847   3.167   1.824  14.719 -0.1151 -0.9337 -0.1500
  525MPD2    C3 7848   3.174   1.916  14.618  0.6094 -0.6390  0.5961
  525MPD2    C4 7849   3.054   1.954  14.565  0.4974 -0.3513 -0.3658
  525MPD2    C5 7850   2.935   1.891  14.594 -0.0540  0.0951 -0.4310
  525MPD2     H 7851   3.266   1.796  14.754 -0.9206 -0.4602  2.5576
  525MPD2    H1 7852   3.055   2.021  14.480  0.3849  0.0149 -0.0757
  525MPD2    H2 7853   2.845   1.761  14.727 -2.0364  0.7848 -5.7194
  525MPD2    H3 7854   2.839   1.918  14.552 -0.0979  3.3930  1.7388
  525MPD2     N 7855   3.287   1.978  14.566  0.3665 -0.3006 -0.5059
  525MPD2    H5 7856   3.272   2.061  14.508  0.6952  0.5776  0.6690
  525MPD2    N1 7857   3.053   1.705  14.892  0.5378 -0.1161 -0.1420
  525MPD2    H7 7858   3.143   1.687  14.936  0.3686  2.6247  1.3337
  526TMC3    C1 7859   2.958   1.626  15.099  0.1627  0.3779 -0.2912
  526TMC3    C2 7860   2.875   1.687  15.189  0.0267 -0.3643 -0.2990
  526TMC3    C3 7861   2.919   1.706  15.318  0.1239  0.1684 -0.0763
  526TMC3    C4 7862   3.085   1.589  15.131 -0.0608 -0.4063  0.5621
  526TMC3    C5 7863   3.126   1.605  15.258 -0.5057 -0.2682  0.3779
  526TMC3    C6 7864   3.044   1.668  15.352 -0.1471 -0.2607 -0.4587
  526TMC3     C 7865   2.938   1.671  14.961 -0.3373 -0.1796 -0.0788
  526TMC3     O 7866   2.820   1.709  14.943  0.1251 -0.4141 -0.8663
  526TMC3     H 7867   2.778   1.729  15.162  0.6443  1.3976  0.2070
  526TMC3    H1 7868   3.145   1.537  15.057 -1.2257 -0.7033 -0.1904
  526TMC3    H2 7869   3.082   1.705  15.446 -2.8898  2.1429 -0.2634
  526TMC3    C7 7870   3.256   1.558  15.303 -0.0104  0.2774  0.0532
  526TMC3    C8 7871   2.865   1.804  15.406  0.1891  0.6859 -0.4333
  526TMC3    O1 7872   3.294   1.576  15.412 -0.2344 -0.4167 -0.3579
  526TMC3    O2 7873   2.936   1.850  15.495  0.4358 -0.0975  0.8753
  527MPD2     C 7874   0.986   0.283   1.004 -0.4065  0.4135  0.0671
  527MPD2    C1 7875   1.019   0.263   0.871 -0.3858 -0.0574 -0.3283
  527MPD2    C2 7876   1.151   0.270   0.836  0.4011 -0.4069  0.2247
  527MPD2    C3 7877   1.252   0.297   0.930 -0.1872  0.2549  0.3486
  527MPD2    C4 7878   1.217   0.304   1.059  0.2143 -0.0839 -0.1734
  527MPD2    C5 7879   1.086   0.309   1.095 -0.1665  0.1052 -0.3937
  527MPD2     H 7880   1.178   0.251   0.733 -0.6208  0.7053 -0.2513
  527MPD2    H1 7881   1.285   0.353   1.127  0.3175 -1.1464  0.4865
  527MPD2    H2 7882   0.887   0.294   1.048 -0.4468  0.9889 -0.1617
  527MPD2    H3 7883   1.057   0.322   1.198  0.4919  0.6231 -0.2691
  527MPD2     N 7884   1.386   0.312   0.887  0.0004 -0.3247 -0.4155
  527MPD2    H5 7885   1.394   0.318   0.786 -0.0504 -0.2767 -0.4165
  527MPD2    N1 7886   0.919   0.227   0.779  0.1622  0.0841 -0.3153
  527MPD2    H7 7887   0.940   0.207   0.682  2.1695  3.1151 -0.5361
  528TMC3    C1 7888   0.725   0.134   0.717 -0.0414 -0.1831 -0.0866
  528TMC3    C2 7889   0.772   0.140   0.589  0.4889  0.1295 -0.1361
  528TMC3    C3 7890   0.707   0.058   0.498 -0.2571 -0.4140  0.4083
  528TMC3    C4 7891   0.612   0.055   0.754 -0.5580  0.4535 -0.1806
  528TMC3    C5 7892   0.559   4.711   0.673 -0.1888  0.4151 -0.0998
  528TMC3    C6 7893   0.605   4.710   0.537 -0.0533  0.1257  0.8589
  528TMC3     C 7894   0.791   0.204   0.822 -0.1835 -0.4943 -0.8801
  528TMC3     O 7895   0.725   0.232   0.924 -0.2820  0.1724  0.3267
  528TMC3     H 7896   0.842   0.211   0.548  1.6958 -1.9201 -1.6462
  528TMC3    H1 7897   0.599   0.043   0.861  0.4486 -1.4386 -0.2594
  528TMC3    H2 7898   0.550   4.639   0.477  1.2589 -0.7347  0.6792
  528TMC3    C7 7899   0.441   4.656   0.711 -0.3189 -0.0735 -0.5872
  528TMC3    C8 7900   0.748   0.067   0.357 -0.2262 -0.4053 -0.0299
  528TMC3    O1 7901   0.409   4.671   0.829 -0.5601 -0.0099 -0.0327
  528TMC3    O2 7902   0.816   0.165   0.328  0.0933  0.0699 -0.7052
  529MPD2     C 7903   3.496   3.796   0.507  0.3376  0.0762  0.5816
  529MPD2    C1 7904   3.482   3.694   0.418 -0.5615 -0.0495 -0.1731
  529MPD2    C2 7905   3.420   3.713   0.297 -0.1102 -0.1329  0.5497
  529MPD2    C3 7906   3.361   3.834   0.268  0.0939 -0.3190  1.1670
  529MPD2    C4 7907   3.383   3.938   0.361  0.0413 -0.7756  0.0096
  529MPD2    C5 7908   3.457   3.919   0.470  0.0156  0.3456 -0.5442
  529MPD2     H 7909   3.432   3.631   0.228 -1.5445  0.2818 -0.1950
  529MPD2    H1 7910   3.353   4.042   0.349  0.4994 -0.6066  0.3545
  529MPD2    H2 7911   3.552   3.791   0.599  2.6477  0.3084 -0.7904
  529MPD2    H3 7912   3.465   4.003   0.538  1.2456  1.3277 -1.8827
  529MPD2     N 7913   3.280   3.858   0.157 -0.1077 -0.5244 -0.1600
  529MPD2    H5 7914   3.234   3.948   0.152  0.9740 -0.0235 -1.3483
  529MPD2    N1 7915   3.539   3.562   0.433 -0.7573 -1.0193  0.3599
  529MPD2    H7 7916   3.501   3.489   0.374 -1.2087  1.2482 -2.1465
  530TMC3    C1 7917   3.631   3.381   0.546 -0.7454 -0.6323 -0.0633
  530TMC3    C2 7918   3.742   3.352   0.618 -0.6267  0.8487  0.2282
  530TMC3    C3 7919   3.747   3.227   0.672 -0.2961 -0.7060 -1.1445
  530TMC3    C4 7920   3.535   3.288   0.522 -0.2139  0.5141  0.5232
  530TMC3    C5 7921   3.548   3.167   0.575 -0.7986  0.3285  0.2714
  530TMC3    C6 7922   3.653   3.134   0.652 -0.1162  0.1609  0.2751
  530TMC3     C 7923   3.615   3.523   0.539  0.3091  0.6849  0.5100
  530TMC3     O 7924   3.672   3.593   0.623 -0.0358 -0.1379  0.0590
  530TMC3     H 7925   3.811   3.433   0.642  1.7130 -0.2803 -2.6348
  530TMC3    H1 7926   3.442   3.326   0.481 -0.3805 -2.4312 -1.8357
  530TMC3    H2 7927   3.682   3.037   0.691  0.1233 -0.6977 -2.0402
  530TMC3    C7 7928   3.443   3.067   0.547 -1.2117  0.1552  0.4766
  530TMC3    C8 7929   3.866   3.204   0.752  0.2773  0.2492 -0.2644
  530TMC3    O1 7930   3.409   3.058   0.429 -0.2623  0.2354  0.5775
  530TMC3    O2 7931   3.923   3.305   0.784 -0.2471 -0.0350 -0.7317
  531MPD2     C 7932   1.901   0.676  13.207 -0.0781  0.4247  0.3014
  531MPD2    C1 7933   1.821   0.788  13.232  0.0407  0.2000 -0.1855
  531MPD2    C2 7934   1.754   0.840  13.128 -0.7386 -0.0596  0.4921
  531MPD2    C3 7935   1.751   0.775  13.008  0.3560  0.3723  0.8424
  531MPD2    C4 7936   1.817   0.659  12.985  0.0226  0.1108 -0.1709
  531MPD2    C5 7937   1.902   0.618  13.083 -0.2370 -0.3229  0.9032
  531MPD2     H 7938   1.714   0.941  13.134  2.2225  1.0466  1.3876
  531MPD2    H1 7939   1.826   0.615  12.886 -3.1478  0.6608 -0.7268
  531MPD2    H2 7940   1.970   0.638  13.282  0.3560 -1.8705 -1.2773
  531MPD2    H3 7941   1.975   0.539  13.063  0.6670  0.6861  0.1905
  531MPD2     N 7942   1.690   0.838  12.894 -0.1894 -0.7385  0.0121
  531MPD2    H5 7943   1.694   0.788  12.806  0.0505 -1.1140  0.2376
  531MPD2    N1 7944   1.820   0.839  13.359 -0.3255  0.1461  0.9917
  531MPD2    H7 7945   1.882   0.791  13.423 -0.6511 -2.5646 -0.7324
  532TMC3    C1 7946   1.735   0.961  13.543 -0.1194  0.0162 -0.1320
  532TMC3    C2 7947   1.620   1.031  13.576  0.6072  0.5221  0.3599
  532TMC3    C3 7948   1.621   1.155  13.630 -0.2259 -0.0574 -0.1742
  532TMC3    C4 7949   1.858   1.001  13.597 -0.1255 -0.6056  0.4705
  532TMC3    C5 7950   1.857   1.121  13.672 -0.1529 -0.4017 -0.0782
  532TMC3    C6 7951   1.746   1.194  13.686 -0.0500 -0.5498  0.3957
  532TMC3     C 7952   1.728   0.928  13.402 -0.0570 -0.3858 -0.3035
  532TMC3     O 7953   1.628   0.989  13.359 -0.0950  0.2828  0.9742
  532TMC3     H 7954   1.527   0.976  13.567  1.2767 -0.6243  0.4065
  532TMC3    H1 7955   1.948   0.954  13.561  0.3849  0.7725 -0.0533
  532TMC3    H2 7956   1.756   1.295  13.724 -0.5496 -0.1393 -0.5462
  532TMC3    C7 7957   1.976   1.181  13.723 -0.0458 -0.3387  0.0453
  532TMC3    C8 7958   1.546   1.251  13.560 -0.3975 -0.4942 -0.0470
  532TMC3    O1 7959   1.968   1.289  13.781 -0.0513  0.0167  0.3176
  532TMC3    O2 7960   1.539   1.366  13.599  0.5471 -0.7062  0.0480
  533TMC3    C1 7961   3.511   2.005  14.502  0.7120  0.6561  0.1685
  533TMC3    C2 7962   3.605   2.077  14.570 -0.0574 -0.9328 -0.3475
  533TMC3    C3 7963   3.621   2.211  14.540  0.3280  0.2168  0.2181
  533TMC3    C4 7964   3.441   2.059  14.399  0.4082  0.3220 -0.3157
  533TMC3    C5 7965   3.448   2.196  14.375  0.8681 -0.2380 -0.0783
  533TMC3    C6 7966   3.540   2.277  14.443 -0.7675 -0.0093  0.5175
  533TMC3     C 7967   3.419   1.932  14.584 -0.0857  0.8557 -0.0132
  533TMC3     O 7968   3.461   1.852  14.668 -0.1640 -0.3560  1.0322
  533TMC3     H 7969   3.653   2.032  14.656 -1.0288  0.8871  1.1384
  533TMC3    H1 7970   3.370   1.998  14.343  0.6401 -0.7578  0.5590
  533TMC3    H2 7971   3.548   2.384  14.425 -0.1357  0.0739  1.2917
  533TMC3    C7 7972   3.317   2.261  14.360  0.0337 -0.3980  0.3648
  533TMC3    C8 7973   3.735   2.282  14.594  0.9892 -0.0428 -0.1595
  533TMC3    O1 7974   3.219   2.183  14.380 -0.2787  0.4258 -0.0392
  533TMC3    O2 7975   3.725   2.403  14.603  0.3470  0.1599 -0.2275
  534MPD2     C 7976   1.093   3.664   0.955  0.2026 -0.2285 -0.2543
  534MPD2    C1 7977   1.125   3.640   1.089 -0.5982 -0.6775 -0.1403
  534MPD2    C2 7978   1.027   3.603   1.180 -0.0148  0.1538 -0.6206
  534MPD2    C3 7979   0.900   3.581   1.132  0.4135  0.4276 -0.1807
  534MPD2    C4 7980   0.873   3.587   0.998  0.3141 -0.7956  0.6246
  534MPD2    C5 7981   0.969   3.624   0.910  0.4236  0.7747  0.2857
  534MPD2     H 7982   1.058   3.577   1.281  1.6040 -0.2098 -1.2185
  534MPD2    H1 7983   0.779   3.553   0.957 -0.3971  1.5228  0.3498
  534MPD2    H2 7984   1.166   3.711   0.890 -1.6282  2.5553 -0.2798
  534MPD2    H3 7985   0.949   3.601   0.806  0.4302 -0.3472  0.5365
  534MPD2     N 7986   0.789   3.538   1.213  0.3236 -0.3433  0.1043
  534MPD2    H5 7987   0.700   3.517   1.169  0.2967  1.6438 -0.8115
  534MPD2    N1 7988   1.257   3.634   1.124  0.1558 -0.1871 -0.3049
  534MPD2    H7 7989   1.267   3.652   1.223  1.8159 -1.4989 -0.2335
  535TMC3    C1 7990   0.659   3.558   1.405 -0.3065 -0.2521  0.4222
  535TMC3    C2 7991   0.578   3.444   1.405  0.3199 -0.3781 -0.1527
  535TMC3    C3 7992   0.445   3.470   1.386  0.3087 -0.6904  0.8854
  535TMC3    C4 7993   0.608   3.684   1.408 -0.0202 -0.3596 -0.0636
  535TMC3    C5 7994   0.479   3.698   1.374 -0.0755 -0.4762  0.1225
  535TMC3    C6 7995   0.391   3.593   1.372  0.2598  0.2012  0.6732
  535TMC3     C 7996   0.792   3.551   1.347  1.0968 -0.1494  0.3769
  535TMC3     O 7997   0.881   3.600   1.416 -0.5160  0.7783  0.1197
  535TMC3     H 7998   0.619   3.346   1.385  1.9198  0.3421 -0.4089
  535TMC3    H1 7999   0.680   3.764   1.397 -0.7969  0.2829 -0.4539
  535TMC3    H2 8000   0.287   3.607   1.344  0.0588  0.9786  1.7834
  535TMC3    C7 8001   0.457   3.784   1.259 -0.1170 -0.1067 -0.0593
  535TMC3    C8 8002   0.360   3.366   1.335  0.4471 -0.5128  0.5267
  535TMC3    O1 8003   0.429   3.718   1.160  0.4914  0.8880 -0.2860
  535TMC3    O2 8004   0.247   3.396   1.303 -0.2984  0.1897  0.0145
  536MPD2     C 8005   3.997   2.476  16.547 -0.3916  0.1775  0.1673
  536MPD2    C1 8006   3.941   2.363  16.498 -0.1093 -0.7692  0.0089
  536MPD2    C2 8007   3.866   2.364  16.380 -0.1139  0.7885  0.2872
  536MPD2    C3 8008   3.844   2.480  16.315  0.4935 -0.5735  0.7544
  536MPD2    C4 8009   3.898   2.593  16.374 -0.0398 -0.7875  0.2031
  536MPD2    C5 8010   3.976   2.593  16.487 -0.1524  0.2295 -0.8042
  536MPD2     H 8011   3.819   2.272  16.347  0.8737 -0.7837  3.2162
  536MPD2    H1 8012   3.882   2.691  16.331 -2.3315 -0.2095  2.3387
  536MPD2    H2 8013   4.060   2.469  16.635 -1.5285  0.3532  0.9950
  536MPD2    H3 8014   4.018   2.687  16.521  1.0659 -0.2114 -1.0926
  536MPD2     N 8015   3.773   2.491  16.201 -0.0920 -0.1683 -0.2781
  536MPD2    H5 8016   3.767   2.580  16.152  0.7519  1.0154  1.8056
  536MPD2    N1 8017   3.988   2.248  16.567  0.7592 -0.2056  0.0889
  536MPD2    H7 8018   4.061   2.257  16.637  0.1081  0.6225  0.6674
  537TMC3    C1 8019   4.019   2.029  16.607 -0.2718 -0.6919  0.3860
  537TMC3    C2 8020   4.159   2.032  16.616  0.3111  0.7275  0.5176
  537TMC3    C3 8021   4.225   1.933  16.690  0.4042  0.0484  0.2404
  537TMC3    C4 8022   3.957   1.912  16.661 -0.4010  0.2821  0.0853
  537TMC3    C5 8023   4.030   1.821  16.739  0.0022  0.4986 -0.3477
  537TMC3    C6 8024   4.168   1.829  16.751 -0.0013  0.4972 -0.0251
  537TMC3     C 8025   3.935   2.124  16.538 -0.4646  0.2982  0.3931
  537TMC3     O 8026   3.852   2.077  16.470  0.0937 -0.1032 -0.0232
  537TMC3     H 8027   4.221   2.111  16.577  1.4029 -0.9688 -1.2027
  537TMC3    H1 8028   3.849   1.912  16.653 -0.2759 -2.0835 -1.4386
  537TMC3    H2 8029   4.223   1.762  16.815 -1.6679 -1.2452 -0.4376
  537TMC3    C7 8030   3.955   1.707  16.786 -0.2509  0.5502  0.6474
  537TMC3    C8 8031   4.369   1.934  16.672 -0.7037 -0.1000 -0.0507
  537TMC3    O1 8032   3.866   1.670  16.713  0.2120  0.2186 -0.5189
  537TMC3    O2 8033   4.409   1.941  16.558 -0.2555 -0.0657  0.4204
  538TMC3    C1 8034   0.878   0.823  11.177  0.6501 -0.1018  0.0631
  538TMC3    C2 8035   0.942   0.738  11.089 -0.2064 -0.0341  0.9621
  538TMC3    C3 8036   0.948   0.776  10.961 -0.4889 -0.9302  0.2158
  538TMC3    C4 8037   0.820   0.944  11.135  0.1861 -0.2400  0.0078
  538TMC3    C5 8038   0.807   0.964  11.001  0.8846 -0.4223 -0.5219
  538TMC3    C6 8039   0.872   0.879  10.915  0.0528 -0.2234  0.4645
  538TMC3     C 8040   0.851   0.792  11.321  0.2478 -1.1583  0.3284
  538TMC3     O 8041   0.783   0.871  11.382 -0.2500  0.1001  0.1453
  538TMC3     H 8042   0.997   0.649  11.117  1.2315 -0.0436 -1.9604
  538TMC3    H1 8043   0.773   1.005  11.211  1.6904 -1.0140  1.5777
  538TMC3    H2 8044   0.841   0.881  10.811  0.4762 -0.5406  0.3361
  538TMC3    C7 8045   0.704   1.058  10.960 -0.3537  0.7608 -0.5315
  538TMC3    C8 8046   0.958   0.665  10.861 -0.7164  0.8795 -0.8649
  538TMC3    O1 8047   0.630   1.110  11.042 -0.7016 -0.3103  0.0132
  538TMC3    O2 8048   0.948   0.548  10.900 -0.6262 -0.5162 -0.0424
  539MPD2     C 8049   0.364   4.441  11.510  0.0222 -0.1838  0.2294
  539MPD2    C1 8050   0.442   4.517  11.435 -0.2246 -0.6149  0.7734
  539MPD2    C2 8051   0.407   4.655  11.426  0.1031  0.2856  0.0934
  539MPD2    C3 8052   0.302   4.708  11.488  1.5356  0.4563  0.2716
  539MPD2    C4 8053   0.219   4.619  11.545 -0.6779 -0.2337  0.0054
  539MPD2    C5 8054   0.249   4.485  11.558  0.6613 -0.3834  0.5198
  539MPD2     H 8055   0.465   4.711  11.354 -0.5886  0.2034 -0.5222
  539MPD2    H1 8056   0.130   4.650  11.598  0.0627  1.7995  0.0612
  539MPD2    H2 8057   0.388   4.337  11.529 -2.0442 -0.7346 -0.1874
  539MPD2    H3 8058   0.171   4.425  11.603  0.9121 -1.5335 -0.5915
  539MPD2     N 8059   0.266   0.109  11.478 -0.4567  0.0094  0.1028
  539MPD2    H5 8060   0.181   0.132  11.528 -0.2206  2.5218 -0.6003
  539MPD2    N1 8061   0.546   4.470  11.357 -0.3652 -0.1278  0.1076
  539MPD2    H7 8062   0.596   4.538  11.301 -2.7187  0.8241 -0.8139
  540TMC3    C1 8063   0.299   0.338  11.421 -0.0295  0.2037  0.2647
  540TMC3    C2 8064   0.283   0.412  11.311 -0.2765 -0.1979  0.1916
  540TMC3    C3 8065   0.243   0.545  11.319  0.5423 -0.0060 -0.3232
  540TMC3    C4 8066   0.259   0.390  11.543  0.3464 -0.3258 -0.1666
  540TMC3    C5 8067   0.211   0.518  11.548  0.2690 -0.3117 -0.6503
  540TMC3    C6 8068   0.215   0.597  11.439  0.6591  0.4652 -0.3363
  540TMC3     C 8069   0.340   0.202  11.405 -0.1787 -0.6290 -0.5289
  540TMC3     O 8070   0.416   0.182  11.314  0.0786 -0.2079  0.3279
  540TMC3     H 8071   0.328   0.375  11.220  2.0001 -0.5625  1.4617
  540TMC3    H1 8072   0.262   0.332  11.635 -1.2769 -0.1236  0.0086
  540TMC3    H2 8073   0.174   0.697  11.450 -0.7171 -0.1887  0.4699
  540TMC3    C7 8074   0.121   0.528  11.665  0.0711  0.3605 -0.5193
  540TMC3    C8 8075   0.238   0.623  11.197 -0.6913  0.1756  0.0565
  540TMC3    O1 8076   0.088   0.424  11.720  0.1004  0.2253 -0.1329
  540TMC3    O2 8077   0.240   0.742  11.215  0.1029 -0.3607 -0.3646
  541MPD2     C 8078   3.354   1.777  12.856 -0.1378 -0.4603  1.1093
  541MPD2    C1 8079   3.443   1.670  12.848 -0.1207  0.1669  0.1239
  541MPD2    C2 8080   3.565   1.680  12.783 -0.2511 -0.3548 -0.4453
  541MPD2    C3 8081   3.605   1.809  12.736  0.3348 -0.6051  0.0726
  541MPD2    C4 8082   3.527   1.917  12.756  0.2936  0.1243  0.6498
  541MPD2    C5 8083   3.406   1.899  12.815 -0.5660 -0.2740  0.4570
  541MPD2     H 8084   3.626   1.591  12.776 -1.1715 -1.2599  2.5898
  541MPD2    H1 8085   3.550   2.019  12.725  1.2824  0.3326  2.0380
  541MPD2    H2 8086   3.254   1.780  12.899 -0.8949  2.3806 -0.8246
  541MPD2    H3 8087   3.329   1.975  12.807 -1.0697 -1.2288 -3.6871
  541MPD2     N 8088   3.727   1.815  12.664 -0.2020  0.2109 -0.3917
  541MPD2    H5 8089   3.767   1.723  12.649 -0.3028  0.2141 -0.6765
  541MPD2    N1 8090   3.412   1.543  12.891  0.1127 -0.2094 -0.0758
  541MPD2    H7 8091   3.485   1.474  12.881 -0.0316 -0.4380  0.4679
  542TMC3    C1 8092   3.915   1.928  12.555  0.5604 -0.2561  0.0091
  542TMC3    C2 8093   3.957   1.803  12.515  0.2872  0.2954 -0.0263
  542TMC3    C3 8094   4.047   1.806  12.412 -0.8340  0.1961 -0.6731
  542TMC3    C4 8095   3.947   2.047  12.490 -0.0991 -0.0152  0.2031
  542TMC3    C5 8096   4.030   2.039  12.382 -0.1289 -0.0695  0.2131
  542TMC3    C6 8097   4.087   1.926  12.348 -0.4431 -0.2747  1.1302
  542TMC3     C 8098   3.784   1.937  12.626  0.0746  0.8449 -0.1986
  542TMC3     O 8099   3.735   2.046  12.623 -0.0529 -0.2710  0.4167
  542TMC3     H 8100   3.911   1.715  12.557 -2.6534  1.4689 -0.7670
  542TMC3    H1 8101   3.917   2.144  12.530 -1.2586 -1.5183  3.0004
  542TMC3    H2 8102   4.158   1.912  12.267 -1.8966 -0.4088 -0.1059
  542TMC3    C7 8103   4.049   2.153  12.292  0.6761  0.6649 -0.1709
  542TMC3    C8 8104   4.069   1.684  12.333  0.1410  0.7557  0.0901
  542TMC3    O1 8105   4.142   2.139  12.212  0.3622 -0.0213  0.0752
  542TMC3    O2 8106   4.094   1.693  12.215 -0.0882  0.0103 -0.3358
  543TMC3    C1 8107   2.805   2.878  17.313 -0.1670 -0.2093  0.9299
  543TMC3    C2 8108   2.798   2.756  17.373  1.0820 -0.3690 -0.5878
  543TMC3    C3 8109   2.783   2.748  17.503  0.3490  0.2207  0.0323
  543TMC3    C4 8110   2.802   3.002  17.379 -0.0307 -0.2516  0.8538
  543TMC3    C5 8111   2.803   2.992  17.519 -0.7413  0.1650 -0.6718
  543TMC3    C6 8112   2.786   2.864  17.578 -0.4940  0.1493  0.1551
  543TMC3     C 8113   2.783   2.880  17.167 -0.3024  0.2395 -0.0461
  543TMC3     O 8114   2.813   2.778  17.104 -0.1002  0.1672  0.0651
  543TMC3     H 8115   2.788   2.667  17.312 -0.2567 -0.8281  0.2864
  543TMC3    H1 8116   2.811   3.094  17.322  3.9865 -1.4341 -0.4359
  543TMC3    H2 8117   2.760   2.862  17.683  1.0010  1.8844  0.5556
  543TMC3    C7 8118   2.753   3.109  17.594  0.3713 -0.6516  0.4376
  543TMC3    C8 8119   2.751   2.618  17.560  0.4297 -0.5301 -0.5546
  543TMC3    O1 8120   2.691   3.104  17.702  0.3896  0.1187 -0.5511
  543TMC3    O2 8121   2.765   2.516  17.492 -0.0071  0.3617 -0.1168
  544MPD2     C 8122   2.600   2.322   0.194 -0.0068  0.6643  0.3703
  544MPD2    C1 8123   2.670   2.289   0.079 -0.9087  0.5277 -0.0337
  544MPD2    C2 8124   2.710   2.391  17.750  0.7528  0.1150  0.1244
  544MPD2    C3 8125   2.677   2.525   0.021  0.5208  0.3510  0.4257
  544MPD2    C4 8126   2.609   2.558   0.141  0.9025 -0.3904  0.4727
  544MPD2    C5 8127   2.569   2.454   0.224  0.2229 -0.1582 -0.3269
  544MPD2     H 8128   2.765   2.373  17.659  2.3190 -2.5330  1.5958
  544MPD2    H1 8129   2.571   2.658   0.156 -0.7185 -1.1981  1.7369
  544MPD2    H2 8130   2.572   2.251   0.271 -1.1130  0.4770 -0.1970
  544MPD2    H3 8131   2.511   2.481   0.311  1.1309 -1.5121  0.7043
  544MPD2     N 8132   2.708   2.632  17.692  0.3933  0.1421 -0.0646
  544MPD2    H5 8133   2.683   2.726  17.723  0.8368 -0.1414  1.1214
  544MPD2    N1 8134   2.702   2.156   0.064 -0.6388  0.8600  0.3617
  544MPD2    H7 8135   2.672   2.082   0.126  0.0136 -0.8332 -1.3574
  545TMC3    C1 8136   2.798   1.964  17.725 -0.2528  0.6722  0.0877
  545TMC3    C2 8137   2.918   1.896  17.729  0.6262 -0.3285 -0.1324
  545TMC3    C3 8138   2.908   1.759  17.742 -0.0227 -0.7636 -0.5348
  545TMC3    C4 8139   2.678   1.897  17.718 -0.0874 -0.0611  1.0682
  545TMC3    C5 8140   2.675   1.758  17.721  0.1602 -0.0295 -0.0837
  545TMC3    C6 8141   2.792   1.688  17.738 -0.8315 -0.1079  0.8140
  545TMC3     C 8142   2.784   2.110  17.720 -0.6165  0.3937  0.0315
  545TMC3     O 8143   2.847   2.175  17.640 -0.1836  0.9196  0.0081
  545TMC3     H 8144   3.015   1.944  17.734  0.6865 -0.4469 -0.1601
  545TMC3    H1 8145   2.589   1.958  17.716 -1.0538 -1.5301 -0.1197
  545TMC3    H2 8146   2.793   1.581  17.753  1.4221 -0.3177 -0.6865
  545TMC3    C7 8147   2.544   1.703  17.690  0.4627 -0.4402 -0.0854
  545TMC3    C8 8148   3.034   1.688  17.749  0.2474 -0.6571 -0.4393
  545TMC3    O1 8149   2.448   1.779  17.668 -0.2882 -0.4365  0.7060
  545TMC3    O2 8150   3.136   1.758   0.015  0.0088  1.1856 -0.7367
  546MPD2     C 8151   4.354   2.537  16.959  0.1883 -0.2084 -0.6723
  546MPD2    C1 8152   4.236   2.607  16.958 -0.1148 -0.4305 -0.0192
  546MPD2    C2 8153   4.245   2.747  16.967  1.0150 -0.3177  0.2787
  546MPD2    C3 8154   4.363   2.820  16.976 -0.5536 -0.4603  0.3670
  546MPD2    C4 8155   4.481   2.744  16.973 -0.3138 -0.3360 -0.0427
  546MPD2    C5 8156   4.474   2.609  16.957 -0.1490  0.5442  0.1195
  546MPD2     H 8157   4.148   2.794  16.957  1.8436  1.0897 -1.0573
  546MPD2    H1 8158   4.577   2.794  16.963 -0.6794  0.1855 -0.9063
  546MPD2    H2 8159   4.353   2.429  16.951 -3.0279 -0.1523 -0.7974
  546MPD2    H3 8160   4.565   2.552  16.943 -1.4834 -1.3687 -0.6413
  546MPD2     N 8161   4.371   2.965  16.970  0.3370  0.7151 -0.8360
  546MPD2    H5 8162   4.467   2.996  16.979  0.8620 -0.8873 -0.9201
  546MPD2    N1 8163   4.113   2.531  16.951 -0.1536 -0.6896 -0.1853
  546MPD2    H7 8164   4.119   2.439  16.909  0.5709 -0.8905  0.3682
  547TMC3    C1 8165   3.890   2.517  16.882 -0.7364 -0.3333 -0.1275
  547TMC3    C2 8166   3.812   2.585  16.798 -0.0062  0.0108  0.6634
  547TMC3    C3 8167   3.695   2.528  16.752  0.5455  0.4507 -0.5190
  547TMC3    C4 8168   3.858   2.393  16.923 -0.1599 -0.4132 -0.2937
  547TMC3    C5 8169   3.746   2.337  16.871  0.4839  0.5877 -0.1993
  547TMC3    C6 8170   3.659   2.399  16.790 -0.2617  0.1666 -0.2516
  547TMC3     C 8171   3.987   2.592  16.954  0.5088 -0.2902 -0.1955
  547TMC3     O 8172   3.956   2.708  16.984  0.5904  0.7905  0.5014
  547TMC3     H 8173   3.848   2.676  16.753  2.1967 -1.5426 -0.7323
  547TMC3    H1 8174   3.900   2.344  17.010  0.1468 -0.9291 -0.7349
  547TMC3    H2 8175   3.564   2.354  16.764 -0.4779 -0.3268  1.3899
  547TMC3    C7 8176   3.702   2.214  16.928 -0.3238 -0.8741 -0.3289
  547TMC3    C8 8177   3.613   2.604  16.661  0.1066 -0.0403  0.2081
  547TMC3    O1 8178   3.722   2.193  17.044  0.1463  0.1610  0.0599
  547TMC3    O2 8179   3.617   2.723  16.665 -0.1628 -0.3089 -0.4405
  548MPD2     C 8180   4.369   2.837  13.003  0.5315  0.2761 -0.7619
  548MPD2    C1 8181   4.322   2.849  12.878 -0.5514 -0.7766  0.2001
  548MPD2    C2 8182   4.415   2.839  12.776  0.0564  0.0904 -0.0391
  548MPD2    C3 8183   4.554   2.817  12.798  0.1818  0.3409 -0.1939
  548MPD2    C4 8184   4.595   2.796  12.923  0.1125 -0.3686 -0.0794
  548MPD2    C5 8185   4.504   2.814  13.027 -0.2118 -0.5343  0.0903
  548MPD2     H 8186   4.375   2.855  12.676 -1.9428  2.0000  1.0546
  548MPD2    H1 8187   4.695   2.764  12.949  0.0545 -2.2256 -2.0726
  548MPD2    H2 8188   4.303   2.845  13.089 -0.3505 -0.4569 -1.3705
  548MPD2    H3 8189   4.536   2.787  13.127  1.4865  1.2810  0.0530
  548MPD2     N 8190   4.629   2.810  12.675 -0.4979 -0.6023  0.3277
  548MPD2    H5 8191   4.585   2.794  12.585 -2.2787  0.1611  1.0772
  548MPD2    N1 8192   4.183   2.871  12.858  0.5011  1.0276  0.0078
  548MPD2    H7 8193   4.120   2.851  12.934  0.2279  0.9826 -0.2298
  549TMC3    C1 8194   3.973   2.899  12.768  0.9005  0.5941 -0.2587
  549TMC3    C2 8195   3.901   3.002  12.713 -0.4132 -0.8387 -0.5775
  549TMC3    C3 8196   3.767   3.011  12.732 -0.8667  0.1694 -0.1405
  549TMC3    C4 8197   3.909   2.804  12.851 -0.3610 -0.3178  0.5510
  549TMC3    C5 8198   3.775   2.817  12.873 -0.1048  0.2295  0.3510
  549TMC3    C6 8199   3.713   2.924  12.818 -0.3926 -0.2085  0.3781
  549TMC3     C 8200   4.115   2.900  12.742 -0.0912 -0.6522 -0.0019
  549TMC3     O 8201   4.156   2.955  12.638  0.2440  0.1537  0.0107
  549TMC3     H 8202   3.947   3.076  12.648  0.8565  0.3736  1.7002
  549TMC3    H1 8203   3.968   2.725  12.897 -2.0217 -1.5129  0.6313
  549TMC3    H2 8204   3.607   2.937  12.837 -0.6239 -1.0442 -0.3316
  549TMC3    C7 8205   3.687   2.702  12.874 -0.4186 -0.5892 -0.5268
  549TMC3    C8 8206   3.702   3.137  12.694 -0.1557 -0.8237 -0.4532
  549TMC3    O1 8207   3.568   2.719  12.855 -0.3485 -0.6111  0.2250
  549TMC3    O2 8208   3.771   3.239  12.694  0.2558  0.3487  0.0577
  550TMC3    C1 8209   3.060   0.721  12.109  0.2065  0.0561 -0.3307
  550TMC3    C2 8210   3.050   0.812  12.209 -0.3659 -0.4063 -0.0959
  550TMC3    C3 8211   2.943   0.805  12.287  0.4422 -0.7267 -0.3949
  550TMC3    C4 8212   2.965   0.635  12.077 -0.2072  0.4128 -0.2477
  550TMC3    C5 8213   2.846   0.635  12.154 -0.2510 -0.5174  0.5201
  550TMC3    C6 8214   2.835   0.726  12.260 -0.1656 -0.4554  0.1427
  550TMC3     C 8215   3.190   0.705  12.041  0.1457 -0.1758 -0.3007
  550TMC3     O 8216   3.291   0.721  12.104 -0.4388 -0.0694  0.3171
  550TMC3     H 8217   3.130   0.882  12.230  0.2793 -1.6540  1.6298
  550TMC3    H1 8218   2.973   0.557  12.001  0.7940  0.5045 -0.2336
  550TMC3    H2 8219   2.742   0.740  12.314 -0.4496  0.5072 -0.6105
  550TMC3    C7 8220   2.718   0.616  12.089  0.1581  0.0501 -0.1371
  550TMC3    C8 8221   2.894   0.938  12.319 -0.0461  0.1094 -0.6589
  550TMC3    O1 8222   2.621   0.656  12.152  0.3884 -0.1748 -0.0783
  550TMC3    O2 8223   2.931   1.024  12.243 -0.5113  0.5793  0.3151
  551TMC3    C1 8224   0.620   3.766  13.336  0.6449  0.0855 -0.3734
  551TMC3    C2 8225   0.737   3.701  13.303  0.5876  0.4950  0.9619
  551TMC3    C3 8226   0.855   3.761  13.341 -0.0057  0.9321 -0.4156
  551TMC3    C4 8227   0.612   3.871  13.418 -0.2660  0.7178 -0.2932
  551TMC3    C5 8228   0.731   3.922  13.458  0.3094 -0.4952 -0.1860
  551TMC3    C6 8229   0.850   3.877  13.414  0.5566 -0.2218 -0.3955
  551TMC3     C 8230   0.504   3.718  13.282 -0.8122 -0.1961 -0.0979
  551TMC3     O 8231   0.514   3.617  13.218  0.0689 -0.5231 -0.2786
  551TMC3     H 8232   0.729   3.630  13.222 -0.5951  2.7289 -0.9065
  551TMC3    H1 8233   0.519   3.912  13.456 -2.0906 -3.9065  0.1889
  551TMC3    H2 8234   0.944   3.925  13.435  0.7433 -1.1505  0.9265
  551TMC3    C7 8235   0.738   3.992  13.587  0.4677  0.3402  0.2049
  551TMC3    C8 8236   0.948   3.755  13.224 -0.1369  0.9743 -0.2056
  551TMC3    O1 8237   0.848   3.978  13.647 -0.1225  0.1576  0.3378
  551TMC3    O2 8238   0.986   3.641  13.190  0.0986  0.2902  0.7691
  552MPD2     C 8239   1.996   1.069  14.211  0.2066  0.6898 -0.4282
  552MPD2    C1 8240   2.086   0.963  14.215  0.7619 -0.4173  0.4222
  552MPD2    C2 8241   2.186   0.968  14.314 -0.1982  0.0050 -1.3017
  552MPD2    C3 8242   2.189   1.062  14.413 -0.2141  0.7458 -0.2241
  552MPD2    C4 8243   2.094   1.165  14.409 -0.2627  0.2969  0.1196
  552MPD2    C5 8244   2.000   1.165  14.309 -0.0654  0.5711  0.5712
  552MPD2     H 8245   2.259   0.888  14.319  0.8198  1.0423  0.0112
  552MPD2    H1 8246   2.086   1.246  14.481  0.7146  0.4707  0.0332
  552MPD2    H2 8247   1.915   1.076  14.140  0.1772 -2.3870 -0.6861
  552MPD2    H3 8248   1.924   1.241  14.299  0.2356  0.4792 -2.1825
  552MPD2     N 8249   2.287   1.061  14.516 -0.0675  0.1093 -0.3436
  552MPD2    H5 8250   2.268   1.128  14.590 -1.9080 -0.2874 -0.4748
  552MPD2    N1 8251   2.094   0.859  14.117 -0.6132  0.5897 -0.1868
  552MPD2    H7 8252   2.171   0.794  14.132  0.5235  2.3171  1.4298
  553TMC3    C1 8253   2.049   0.745  13.915 -0.4500  0.5288 -0.5077
  553TMC3    C2 8254   2.081   0.761  13.786 -0.4427  0.0475 -0.0564
  553TMC3    C3 8255   2.123   0.653  13.708 -0.5312  0.8573  0.0390
  553TMC3    C4 8256   2.077   0.620  13.972  0.8484  0.2532  0.6343
  553TMC3    C5 8257   2.129   0.514  13.901  0.2253  0.4721 -0.0938
  553TMC3    C6 8258   2.159   0.533  13.769  0.1573  0.3633  0.7688
  553TMC3     C 8259   2.030   0.861  13.997 -0.3080  0.3905 -0.2346
  553TMC3     O 8260   1.940   0.934  13.951  0.6505 -0.2996 -0.3879
  553TMC3     H 8261   2.054   0.858  13.747  0.1464 -0.4277 -1.6485
  553TMC3    H1 8262   2.064   0.616  14.080 -3.9307  0.5094  0.0629
  553TMC3    H2 8263   2.211   0.454  13.716 -2.1716 -0.7607  0.1290
  553TMC3    C7 8264   2.216   0.428  13.978  0.1952 -0.0405 -0.8025
  553TMC3    C8 8265   2.179   0.700  13.581  0.2810 -0.1223 -0.2961
  553TMC3    O1 8266   2.172   0.361  14.072 -0.1317 -0.2899  0.2450
  553TMC3    O2 8267   2.200   0.817  13.554  0.5140  0.4215 -0.1448
  554TMC3    C1 8268   4.536   4.676  11.327  0.4022  0.1841  0.0090
  554TMC3    C2 8269   4.433   4.678  11.235  0.0410  0.3842 -0.0752
  554TMC3    C3 8270   4.454   4.737  11.113 -0.3817  0.6840  0.1801
  554TMC3    C4 8271   4.648   0.009  11.311  0.2808  0.7467 -0.1468
  554TMC3    C5 8272   4.670   0.069  11.186  0.1916  0.5297  0.6040
  554TMC3    C6 8273   4.575   0.063  11.089 -0.2068  0.7295  0.1819
  554TMC3     C 8274   4.523   4.610  11.459 -0.1314 -0.0934  0.2019
  554TMC3     O 8275   4.620   4.609  11.531 -0.1602  0.0364  0.2383
  554TMC3     H 8276   4.343   4.622  11.259  2.4789 -3.7271 -0.4208
  554TMC3    H1 8277   4.730   0.008  11.382 -0.1375  0.2719  0.3246
  554TMC3    H2 8278   4.591   0.118  10.997  1.2888 -1.3665 -0.7887
  554TMC3    C7 8279   4.725   0.205  11.198 -0.4377 -0.1558  0.2949
  554TMC3    C8 8280   4.348   0.027  11.014 -0.1330  0.2164 -0.0013
  554TMC3    O1 8281   0.020   0.257  11.092 -0.0886 -0.7991  0.3457
  554TMC3    O2 8282   4.386   0.079  10.909  0.2854  0.4259 -0.1322
  555TMC3    C1 8283   3.038   4.652  15.414 -0.1843  0.1685 -0.7481
  555TMC3    C2 8284   3.032   4.685  15.545 -0.3199  0.2200 -0.2319
  555TMC3    C3 8285   3.107   4.617  15.636 -0.6020  0.3997 -0.4801
  555TMC3    C4 8286   3.125   4.552  15.370 -0.3517  0.1171  0.0755
  555TMC3    C5 8287   3.210   4.493  15.460  0.4891 -0.5032  0.9014
  555TMC3    C6 8288   3.200   4.527  15.590 -0.1263 -0.0426  0.3973
  555TMC3     C 8289   2.950   4.723  15.327  0.2771  0.1418 -0.0626
  555TMC3     O 8290   2.938   0.102  15.350  0.1878 -0.5903  0.1949
  555TMC3     H 8291   2.950   0.007  15.578 -0.1580  1.5004 -2.3011
  555TMC3    H1 8292   3.119   4.529  15.264 -0.0434 -3.5365  0.8616
  555TMC3    H2 8293   3.254   4.475  15.668 -0.8053 -1.6635 -0.2176
  555TMC3    C7 8294   3.267   4.368  15.430 -0.4285  1.0448 -0.0135
  555TMC3    C8 8295   3.097   4.665  15.776 -0.5073  0.4479 -0.2536
  555TMC3    O1 8296   3.268   4.287  15.520  1.1876 -0.6217  0.1483
  555TMC3    O2 8297   3.058   0.043  15.791  0.5332  0.0072  0.1546
  556MPD2     C 8298   1.945   0.870  10.510  0.7397  0.6323  0.2815
  556MPD2    C1 8299   1.853   0.776  10.545  0.8482 -0.2769  0.1028
  556MPD2    C2 8300   1.749   0.746  10.453 -0.1333 -0.1107 -0.1498
  556MPD2    C3 8301   1.747   0.817  10.330  0.3041  0.2652 -0.2649
  556MPD2    C4 8302   1.847   0.910  10.298 -0.1501 -0.4400 -0.1391
  556MPD2    C5 8303   1.938   0.942  10.393  0.1886 -0.1305 -0.1284
  556MPD2     H 8304   1.671   0.675  10.475 -0.4241  0.4905  0.7658
  556MPD2    H1 8305   1.850   0.969  10.207  0.2605  0.5435  0.5129
  556MPD2    H2 8306   2.018   0.894  10.587  1.8206  0.9504 -0.8466
  556MPD2    H3 8307   2.016   1.016  10.378 -0.3670  0.5194  0.1603
  556MPD2     N 8308   1.637   0.783  10.254  0.2612  0.2013 -0.2780
  556MPD2    H5 8309   1.564   0.726  10.296  2.6292 -0.7035  2.5777
  556MPD2    N1 8310   1.856   0.723  10.677 -0.6386 -0.1959 -0.3335
  556MPD2    H7 8311   1.941   0.746  10.726  0.1836 -0.2287 -1.7447
  557TMC3    C1 8312   1.499   0.783  10.062 -0.0123 -0.4277  0.4813
  557TMC3    C2 8313   1.474   0.825   9.931 -0.2847 -0.0994  0.1743
  557TMC3    C3 8314   1.353   0.799   9.878  0.7794 -0.4190  0.0889
  557TMC3    C4 8315   1.408   0.707  10.130 -0.8225 -0.1928 -0.1564
  557TMC3    C5 8316   1.285   0.695  10.083 -0.4162  0.4032 -0.0976
  557TMC3    C6 8317   1.246   0.747   9.958 -0.4033 -0.6748  0.7925
  557TMC3     C 8318   1.630   0.810  10.121 -0.5018 -0.0912  0.4341
  557TMC3     O 8319   1.705   0.881  10.055  0.0739  0.6818 -0.1796
  557TMC3     H 8320   1.542   0.877   9.864  1.7246 -1.4902  1.1489
  557TMC3    H1 8321   1.429   0.660  10.225 -0.7988  2.1173  0.9943
  557TMC3    H2 8322   1.145   0.721   9.929  0.0322 -3.0987  1.4556
  557TMC3    C7 8323   1.186   0.625  10.165 -0.1773 -0.3367  0.1047
  557TMC3    C8 8324   1.314   0.876   9.758  0.1483 -0.1700 -0.1344
  557TMC3    O1 8325   1.101   0.557  10.110  0.0508  0.1215 -0.2200
  557TMC3    O2 8326   1.361   0.985   9.730  0.3093  0.0276  0.0025
  558TMC3    C1 8327   3.860   3.596  10.268  0.1766  0.0415  0.4282
  558TMC3    C2 8328   3.749   3.562  10.342 -0.2994  0.5990  0.1386
  558TMC3    C3 8329   3.631   3.563  10.276  0.9442  0.4438 -0.9871
  558TMC3    C4 8330   3.856   3.611  10.132  0.2752 -0.4586 -0.2291
  558TMC3    C5 8331   3.731   3.615  10.070  0.5252 -0.2914  0.5793
  558TMC3    C6 8332   3.621   3.601  10.144  0.5022 -0.3005 -0.3751
  558TMC3     C 8333   3.992   3.561  10.330 -1.1409  0.2551 -0.3271
  558TMC3     O 8334   4.080   3.632  10.284  0.2406  0.5215 -0.5723
  558TMC3     H 8335   3.762   3.535  10.446 -0.1178  0.8634  0.1847
  558TMC3    H1 8336   3.943   3.630  10.071  0.6870  1.8153  1.0981
  558TMC3    H2 8337   3.523   3.591  10.100  0.2511 -0.3382  0.1918
  558TMC3    C7 8338   3.722   3.663   9.934 -0.2305 -0.0014 -0.6208
  558TMC3    C8 8339   3.507   3.557  10.356 -0.2157 -0.6829 -0.4515
  558TMC3    O1 8340   3.833   3.684   9.884  0.2715  0.6339 -0.4152
  558TMC3    O2 8341   3.408   3.521  10.293 -0.0359 -0.0520  0.4637
  559MPD2     C 8342   3.874   0.044  10.338 -0.6336 -0.3488  0.5601
  559MPD2    C1 8343   3.798   4.700  10.416  0.0068  0.0658 -0.2024
  559MPD2    C2 8344   3.853   4.639  10.526  0.3965 -0.4904  0.3605
  559MPD2    C3 8345   3.987   4.649  10.545 -0.0498  1.3743  0.4571
  559MPD2    C4 8346   4.063   4.727  10.460 -0.2550  0.1802  0.4599
  559MPD2    C5 8347   4.006   0.060  10.362 -0.2876 -0.5254 -0.1556
  559MPD2     H 8348   3.800   4.568  10.588  0.5784 -0.7152  0.2599
  559MPD2    H1 8349   4.167   0.010  10.477  0.2500  0.1544 -2.4709
  559MPD2    H2 8350   3.841   0.092  10.247  2.9426  1.0927  0.0454
  559MPD2    H3 8351   4.070   0.126  10.306 -0.6622  0.9455  1.1419
  559MPD2     N 8352   4.046   4.565  10.643 -0.1293 -0.2435  0.7635
  559MPD2    H5 8353   3.982   4.506  10.694  0.8586  0.1816  2.5094
  559MPD2    N1 8354   3.665   4.672  10.383  0.5733 -0.2254 -0.6088
  559MPD2    H7 8355   3.638   4.716  10.296 -0.6632 -0.0075 -0.1011
  560TMC3    C1 8356   4.225   4.451  10.759 -0.0752  0.3387 -0.2831
  560TMC3    C2 8357   4.147   4.339  10.780 -0.3461 -0.3671 -0.4339
  560TMC3    C3 8358   4.207   4.227  10.818  0.3334 -0.4244 -0.5414
  560TMC3    C4 8359   4.357   4.446  10.776 -0.6505 -0.3776 -0.7401
  560TMC3    C5 8360   4.416   4.330  10.809 -0.5622 -0.0712  0.2145
  560TMC3    C6 8361   4.337   4.219  10.833 -0.0817  0.2048 -0.1096
  560TMC3     C 8362   4.184   4.556  10.663  0.7261 -0.1400 -0.0202
  560TMC3     O 8363   4.274   4.633  10.638 -0.1140  0.1992 -0.4115
  560TMC3     H 8364   4.039   4.349  10.776 -0.4252 -1.6939 -1.6631
  560TMC3    H1 8365   4.414   4.538  10.770  4.0991 -3.2177  0.3504
  560TMC3    H2 8366   4.377   4.122  10.862 -1.2125 -0.2224 -0.0065
  560TMC3    C7 8367   4.539   4.336  10.892  0.2992 -0.1812 -0.0005
  560TMC3    C8 8368   4.130   4.143  10.911 -0.0313 -0.5659  0.4349
  560TMC3    O1 8369   4.541   4.233  10.960 -0.1966  0.2186 -0.0866
  560TMC3    O2 8370   4.011   4.162  10.902  0.7824 -0.0717 -0.0962
  561TMC3    C1 8371   2.361   3.652  10.724 -0.2518 -0.6385 -0.0234
  561TMC3    C2 8372   2.332   3.571  10.825  0.4328  0.6557 -0.1527
  561TMC3    C3 8373   2.232   3.619  10.901 -0.0002 -0.5877  0.3867
  561TMC3    C4 8374   2.310   3.778  10.694  0.2784  0.3072  0.3360
  561TMC3    C5 8375   2.195   3.803  10.766 -0.5225  0.3895 -0.3290
  561TMC3    C6 8376   2.162   3.733  10.877 -0.4568  0.8413  0.8082
  561TMC3     C 8377   2.447   3.596  10.625  0.1730 -0.0619  0.0566
  561TMC3     O 8378   2.429   3.477  10.595  0.3939  0.2112  0.2452
  561TMC3     H 8379   2.381   3.476  10.841  1.2183  0.7574 -1.9709
  561TMC3    H1 8380   2.339   3.835  10.607  1.0997  1.6761  1.5157
  561TMC3    H2 8381   2.073   3.756  10.935 -2.1220 -2.5885 -0.4351
  561TMC3    C7 8382   2.178   3.945  10.792 -0.4357 -0.1281  0.2427
  561TMC3    C8 8383   2.227   3.564  11.032  0.0868  0.8428 -0.2273
  561TMC3    O1 8384   2.143   3.983  10.903 -0.0320  0.0984  0.7921
  561TMC3    O2 8385   2.329   3.513  11.069 -0.0672  0.0038 -0.1229
  562TMC3    C1 8386   3.084   0.081  16.561  0.2361  0.3278 -0.0301
  562TMC3    C2 8387   3.031   0.202  16.520  0.4616  0.7556  0.2150
  562TMC3    C3 8388   2.942   0.192  16.414 -0.6186 -0.0252  0.1192
  562TMC3    C4 8389   3.042   4.698  16.503  0.6122  0.1481  0.4800
  562TMC3    C5 8390   2.947   4.701  16.404  0.3143  0.0059  0.1121
  562TMC3    C6 8391   2.891   0.079  16.364  0.4635 -0.7289  0.4530
  562TMC3     C 8392   3.155   0.080  16.695  0.4832  0.0109 -0.9369
  562TMC3     O 8393   3.182   0.189  16.747  0.2726 -0.1540 -0.0298
  562TMC3     H 8394   3.069   0.292  16.568  2.0284 -1.8205  3.7260
  562TMC3    H1 8395   3.086   4.603  16.532 -2.9819 -2.4445 -2.5383
  562TMC3    H2 8396   2.821   0.083  16.281 -1.6521  0.2099  2.2745
  562TMC3    C7 8397   2.902   4.585  16.333  0.4399 -0.3674 -0.2595
  562TMC3    C8 8398   2.868   0.314  16.379 -0.6636  0.0122 -0.1606
  562TMC3    O1 8399   2.850   4.606  16.223 -0.0693  0.1285  0.0876
  562TMC3    O2 8400   2.852   0.393  16.465 -1.0376 -0.1378 -0.3344
  563MPD2     C 8401   0.613   1.280  15.745  0.4155  0.4228  0.6230
  563MPD2    C1 8402   0.628   1.367  15.846  0.1553 -0.7009 -0.2196
  563MPD2    C2 8403   0.748   1.351  15.924  0.8830 -0.0734  0.6835
  563MPD2    C3 8404   0.844   1.257  15.896 -0.3256  0.7922  0.0666
  563MPD2    C4 8405   0.827   1.175  15.794  1.1745  0.3409 -0.2891
  563MPD2    C5 8406   0.708   1.178  15.723 -0.1692 -0.6914 -0.2741
  563MPD2     H 8407   0.772   1.408  16.013  1.6995  1.5128 -0.5493
  563MPD2    H1 8408   0.884   1.084  15.779 -0.7746 -0.9307 -0.1151
  563MPD2    H2 8409   0.524   1.298  15.686  1.3489 -1.8988 -1.5009
  563MPD2    H3 8410   0.687   1.116  15.636  1.0461  0.1768 -1.1919
  563MPD2     N 8411   0.957   1.245  15.984 -0.0718 -0.4758  0.3971
  563MPD2    H5 8412   0.949   1.297  16.070 -1.1242 -2.4104  1.4877
  563MPD2    N1 8413   0.531   1.462  15.877  0.4280 -0.1764 -0.5476
  563MPD2    H7 8414   0.441   1.461  15.830 -0.8272  3.1703  1.7560
  564TMC3    C1 8415   0.457   1.491  16.079  0.6626 -0.0468 -0.4600
  564TMC3    C2 8416   0.337   1.451  16.036  0.2366  0.1273  0.2890
  564TMC3    C3 8417   0.276   1.343  16.096  0.0870 -0.1378  0.3918
  564TMC3    C4 8418   0.524   1.426  16.177 -0.4033 -0.2972 -0.3548
  564TMC3    C5 8419   0.466   1.315  16.233 -0.1957 -0.2538  0.1089
  564TMC3    C6 8420   0.346   1.268  16.194  0.2445  0.7398  0.7460
  564TMC3     C 8421   0.545   1.547  15.981  0.0400 -0.3111  0.0263
  564TMC3     O 8422   0.651   1.591  16.020 -0.5986 -0.2643  0.0300
  564TMC3     H 8423   0.285   1.507  15.959  0.8126 -0.3261 -0.4259
  564TMC3    H1 8424   0.621   1.465  16.206 -0.8279 -0.5596  1.4369
  564TMC3    H2 8425   0.293   1.185  16.240  0.7850 -0.3089 -0.5354
  564TMC3    C7 8426   0.567   1.211  16.238 -0.4693  0.0931 -0.0047
  564TMC3    C8 8427   0.182   1.267  16.022  0.3330  0.3727 -0.1611
  564TMC3    O1 8428   0.686   1.235  16.263 -0.0699  0.1868  0.4499
  564TMC3    O2 8429   0.116   1.186  16.087  0.2745 -0.3712 -0.5696
  565TMC3    C1 8430   0.689   3.333  10.034 -0.0241 -0.0006 -0.4079
  565TMC3    C2 8431   0.680   3.212  10.089 -0.5373  0.7760 -0.1783
  565TMC3    C3 8432   0.563   3.140  10.081 -0.4478  0.3357 -0.1392
  565TMC3    C4 8433   0.580   3.385   9.970  0.5189 -0.4729 -0.2220
  565TMC3    C5 8434   0.462   3.311   9.973 -0.4660 -0.3525 -0.5578
  565TMC3    C6 8435   0.454   3.180  10.015 -0.2932  0.1313  1.4349
  565TMC3     C 8436   0.824   3.375   9.999  0.5622  0.3583 -0.4863
  565TMC3     O 8437   0.906   3.302  10.047  0.5204 -0.2074  0.0511
  565TMC3     H 8438   0.762   3.178  10.150 -1.2989 -1.1373 -0.2418
  565TMC3    H1 8439   0.594   3.467   9.900  0.1765 -1.0821 -0.9964
  565TMC3    H2 8440   0.358   3.132  10.030 -0.6768 -0.0354 -1.4670
  565TMC3    C7 8441   0.354   3.363   9.896 -0.2730  0.4064 -0.0158
  565TMC3    C8 8442   0.560   3.014  10.149 -0.7682 -0.3207 -0.8834
  565TMC3    O1 8443   0.277   3.282   9.840 -0.4495  0.0796  0.0772
  565TMC3    O2 8444   0.636   3.000  10.243  0.1865 -0.8596 -0.0229
  566MPD2     C 8445   2.446   4.106  14.253  0.3218  0.7453  0.5898
  566MPD2    C1 8446   2.502   4.170  14.145 -0.4382  0.1400  0.2869
  566MPD2    C2 8447   2.414   4.241  14.061 -0.2928 -0.5915 -0.9497
  566MPD2    C3 8448   2.275   4.230  14.071 -0.5323 -0.0607 -0.7647
  566MPD2    C4 8449   2.227   4.154  14.177  0.4419  0.1747 -0.3452
  566MPD2    C5 8450   2.310   4.099  14.276  0.1032  0.6831 -0.1339
  566MPD2     H 8451   2.454   4.298  13.978 -1.5780  1.2647 -0.2823
  566MPD2    H1 8452   2.121   4.160  14.197  0.8547  0.3215  1.8008
  566MPD2    H2 8453   2.513   4.066  14.328  1.7039  0.2149 -0.9182
  566MPD2    H3 8454   2.269   4.055  14.366 -0.4757  0.8005 -0.3354
  566MPD2     N 8455   2.189   4.294  13.977  0.2648 -0.0200  1.2196
  566MPD2    H5 8456   2.090   4.276  13.988  0.1968 -0.4514 -0.1230
  566MPD2    N1 8457   2.638   4.159  14.120  0.0164 -0.5724  0.4683
  566MPD2    H7 8458   2.691   4.106  14.188 -1.1881  1.2602  2.8045
  567TMC3    C1 8459   2.845   4.157  13.996  0.7294 -0.9203  0.0964
  567TMC3    C2 8460   2.891   4.128  13.871  0.7122 -0.0429  0.0370
  567TMC3    C3 8461   3.021   4.164  13.836  0.3684  0.0624  0.7451
  567TMC3    C4 8462   2.923   4.225  14.090 -0.0344  0.6031  0.3452
  567TMC3    C5 8463   3.053   4.254  14.055  0.2849  0.3208 -0.3116
  567TMC3    C6 8464   3.105   4.229  13.932  0.0835  0.9997  0.0997
  567TMC3     C 8465   2.705   4.198  14.004 -0.3904  0.0558 -0.3985
  567TMC3     O 8466   2.661   4.246  13.902  0.0462  0.1288 -0.7063
  567TMC3     H 8467   2.825   4.085  13.797  1.0374  1.7089 -1.2769
  567TMC3    H1 8468   2.875   4.257  14.182 -0.2039 -0.0204  0.4732
  567TMC3    H2 8469   3.206   4.258  13.908  0.3419 -1.3358 -1.6222
  567TMC3    C7 8470   3.139   4.331  14.148 -0.7410  0.3631  0.4249
  567TMC3    C8 8471   3.026   4.225  13.708  0.3916  0.6211 -0.5246
  567TMC3    O1 8472   3.252   4.365  14.119  0.3976  0.5404 -0.0881
  567TMC3    O2 8473   2.916   4.259  13.664  0.0993 -0.0191  0.0617
  568MPD2     C 8474   0.836   0.051  16.414 -0.5056 -0.3672 -0.3290
  568MPD2    C1 8475   0.716   0.092  16.482 -0.8885 -1.1169 -0.2981
  568MPD2    C2 8476   0.638   0.192  16.425  0.1184 -0.9779  0.4522
  568MPD2    C3 8477   0.683   0.266  16.318  0.6643 -0.1478  0.2133
  568MPD2    C4 8478   0.804   0.229  16.259  0.0624  0.0703  0.2827
  568MPD2    C5 8479   0.879   0.133  16.309 -0.5037 -0.4935  0.1189
  568MPD2     H 8480   0.541   0.219  16.467  0.2893  1.8164 -0.9650
  568MPD2    H1 8481   0.851   0.286  16.180 -0.9389  1.0142  0.3661
  568MPD2    H2 8482   0.905   4.716  16.450  1.4813  0.5038 -2.3289
  568MPD2    H3 8483   0.976   0.103  16.272  0.0079  0.7396  0.4574
  568MPD2     N 8484   0.590   0.364  16.268  0.4203 -0.4136 -0.1289
  568MPD2    H5 8485   0.497   0.373  16.307  0.0363 -0.1397 -1.1125
  568MPD2    N1 8486   0.687   0.018  16.595  0.1740  0.3756 -0.9010
  568MPD2    H7 8487   0.755   4.686  16.620  1.6228  1.3046 -2.1436
  569TMC3    C1 8488   0.493   0.524  16.122 -0.0204 -0.3203 -0.3597
  569TMC3    C2 8489   0.423   0.566  16.237 -0.4799  0.2178  0.9253
  569TMC3    C3 8490   0.295   0.618  16.213 -0.2171  0.6272  0.0712
  569TMC3    C4 8491   0.455   0.545  15.996 -0.2148 -0.1130 -0.0705
  569TMC3    C5 8492   0.326   0.593  15.976 -0.4133 -0.6832  0.4339
  569TMC3    C6 8493   0.249   0.616  16.080  0.1705 -0.8517  0.0779
  569TMC3     C 8494   0.602   0.431  16.139  0.0818  0.2019  0.5410
  569TMC3     O 8495   0.678   0.407  16.048  0.2164 -0.0821 -0.5981
  569TMC3     H 8496   0.463   0.565  16.337 -1.2572  0.6009  1.2385
  569TMC3    H1 8497   0.517   0.530  15.908  1.2696 -1.0382  1.1325
  569TMC3    H2 8498   0.147   0.644  16.056  1.2023  1.3877 -1.6513
  569TMC3    C7 8499   0.298   0.665  15.854 -0.2578 -0.5550 -0.1516
  569TMC3    C8 8500   0.239   0.716  16.298  0.1811 -0.2440 -0.4062
  569TMC3    O1 8501   0.367   0.650  15.755 -0.0179 -0.3911  0.5374
  569TMC3    O2 8502   0.125   0.746  16.283  0.4650 -0.0352  0.2583
  570TMC3    C1 8503   4.235   3.429  16.201  0.1450  0.6939 -0.1160
  570TMC3    C2 8504   4.308   3.434  16.087 -0.3044 -0.0978  0.2597
  570TMC3    C3 8505   4.365   3.557  16.050  0.3853 -0.0698 -0.0700
  570TMC3    C4 8506   4.223   3.540  16.285  0.2138 -0.3722 -0.2219
  570TMC3    C5 8507   4.280   3.658  16.246  0.2087 -0.4898  0.0705
  570TMC3    C6 8508   4.346   3.668  16.125  0.1790 -1.1332  0.0894
  570TMC3     C 8509   4.163   3.302  16.233  0.5487 -0.5346  0.4621
  570TMC3     O 8510   4.147   3.233  16.137 -0.4657  0.6409  0.4165
  570TMC3     H 8511   4.319   3.343  16.029  0.7978 -0.4378  1.0212
  570TMC3    H1 8512   4.175   3.539  16.382  2.0595 -2.6339  0.6711
  570TMC3    H2 8513   4.402   3.757  16.099  0.2061 -0.7697  1.3978
  570TMC3    C7 8514   4.232   3.780  16.305 -0.3282  0.3207  0.4564
  570TMC3    C8 8515   4.451   3.568  15.934  0.2509  0.0279  0.0821
  570TMC3    O1 8516   4.212   3.785  16.427  0.0093  0.7177  0.4879
  570TMC3    O2 8517   4.492   3.679  15.904 -0.2242  0.2886 -0.3886
  571MPD2     C 8518   1.950   0.702   0.091 -0.6873  0.4655 -0.0146
  571MPD2    C1 8519   2.023   0.629   0.174  0.3058  0.3565  0.9852
  571MPD2    C2 8520   2.124   0.682   0.247  0.3478  0.8714 -0.5074
  571MPD2    C3 8521   2.145   0.817   0.253 -0.2586 -0.0906 -0.1628
  571MPD2    C4 8522   2.049   0.895   0.185 -0.0091  0.0492  0.0292
  571MPD2    C5 8523   1.957   0.841   0.098 -0.4349 -0.2538  0.2431
  571MPD2     H 8524   2.194   0.616   0.298 -2.1119  0.8205  2.8347
  571MPD2    H1 8525   2.061   1.002   0.183  0.5304  0.0005  0.5700
  571MPD2    H2 8526   1.868   0.667   0.029 -1.1169 -1.6684  1.7407
  571MPD2    H3 8527   1.889   0.908   0.048  0.0935  0.2508  0.2063
  571MPD2     N 8528   2.245   0.891   0.322 -0.4682 -0.3536  0.0223
  571MPD2    H5 8529   2.232   0.991   0.322 -0.9126 -0.4038  1.4746
  571MPD2    N1 8530   1.995   0.490   0.178  0.8360 -0.3921  0.3758
  571MPD2    H7 8531   1.931   0.437   0.120  1.1914 -0.0014 -0.3786
  572TMC3    C1 8532   2.416   0.939   0.470  0.3635 -0.6047 -0.6644
  572TMC3    C2 8533   2.511   0.897   0.556 -1.1487  0.1311 -0.2695
  572TMC3    C3 8534   2.629   0.973   0.582 -0.3587  0.0620  0.9574
  572TMC3    C4 8535   2.447   1.052   0.398 -0.5417 -0.6333 -0.4689
  572TMC3    C5 8536   2.566   1.116   0.405  0.2728  0.1160 -0.3779
  572TMC3    C6 8537   2.660   1.077   0.504 -0.1122  0.0793  0.2183
  572TMC3     C 8538   2.343   0.838   0.408 -0.4747 -1.0016 -0.5738
  572TMC3     O 8539   2.384   0.723   0.423  0.1836  0.2889  0.0891
  572TMC3     H 8540   2.494   0.806   0.613  0.5730  0.4009  0.6792
  572TMC3    H1 8541   2.382   1.088   0.319  1.2025  1.9986 -0.7173
  572TMC3    H2 8542   2.757   1.123   0.523 -1.0212  1.4474  1.5005
  572TMC3    C7 8543   2.553   1.260   0.382 -0.2562  0.0461 -0.4697
  572TMC3    C8 8544   2.740   0.905   0.659 -0.2676  0.1170 -0.1712
  572TMC3    O1 8545   2.443   1.311   0.373  1.1596 -0.5646 -0.5007
  572TMC3    O2 8546   2.855   0.931   0.627 -0.0954 -0.6204  0.0901
  573MPD2     C 8547   3.148   0.564   0.376  0.7116  0.2876 -0.3067
  573MPD2    C1 8548   3.099   0.692   0.392  0.7108 -0.4504 -0.3462
  573MPD2    C2 8549   2.986   0.714   0.320 -0.2118 -0.4080  0.4696
  573MPD2    C3 8550   2.921   0.618   0.238  0.5950 -0.2004  0.0958
  573MPD2    C4 8551   2.972   0.493   0.227 -0.0004  0.2580  0.3094
  573MPD2    C5 8552   3.087   0.462   0.299  0.0630 -0.3400  0.2022
  573MPD2     H 8553   2.935   0.809   0.332  1.6440  0.7523 -0.8356
  573MPD2    H1 8554   2.923   0.414   0.171  0.2089  1.2255 -1.2280
  573MPD2    H2 8555   3.240   0.539   0.428  1.6717  1.3956 -1.4894
  573MPD2    H3 8556   3.122   0.360   0.303 -1.3324 -0.8749 -1.1945
  573MPD2     N 8557   2.794   0.643   0.178 -0.3753  0.4112 -0.9505
  573MPD2    H5 8558   2.759   0.575   0.111 -1.7849 -0.7543  0.9835
  573MPD2    N1 8559   3.163   0.777   0.477 -0.3797  0.0366 -0.5569
  573MPD2    H7 8560   3.211   0.727   0.551 -0.4677  2.4832  1.1744
  574TMC3    C1 8561   2.609   0.755   0.088 -0.6885 -0.4484  0.1809
  574TMC3    C2 8562   2.557   0.878   0.055  0.5684  0.1564 -0.3103
  574TMC3    C3 8563   2.433   0.874  17.749  0.0166  0.1065  0.7711
  574TMC3    C4 8564   2.540   0.637   0.074 -0.0377 -0.3994 -0.6925
  574TMC3    C5 8565   2.420   0.644   0.005  0.1968 -0.0084  0.0087
  574TMC3    C6 8566   2.369   0.758  17.717  0.5035 -0.6876  0.1150
  574TMC3     C 8567   2.720   0.759   0.183  0.0238 -0.1496 -0.6602
  574TMC3     O 8568   2.735   0.866   0.237 -0.0686 -0.2339 -0.2937
  574TMC3     H 8569   2.603   0.967   0.096  1.1934 -0.3075 -0.0031
  574TMC3    H1 8570   2.582   0.538   0.089 -2.4435 -1.3807 -0.4314
  574TMC3    H2 8571   2.285   0.752  17.650 -0.3236  1.9770  0.9153
  574TMC3    C7 8572   2.351   0.523  17.733  0.0386  0.6083 -0.6213
  574TMC3    C8 8573   2.356   0.992  17.730 -0.4964 -0.1083  0.2247
  574TMC3    O1 8574   2.298   0.525  17.623  0.7172  0.1341 -0.9015
  574TMC3    O2 8575   2.239   0.985  17.693  0.1993 -0.3741 -0.1746
  575TMC3    C1 8576   0.861   2.402  10.728  0.2538  0.7292 -0.3382
  575TMC3    C2 8577   0.791   2.295  10.761 -0.5301  0.1147  0.0548
  575TMC3    C3 8578   0.669   2.267  10.692  0.3077 -0.4456  0.1367
  575TMC3    C4 8579   0.835   2.467  10.611  0.2263 -0.1811 -0.7790
  575TMC3    C5 8580   0.717   2.435  10.537  0.0262 -0.1209  0.4712
  575TMC3    C6 8581   0.632   2.341  10.580  0.5398  0.2857 -0.0303
  575TMC3     C 8582   0.955   2.445  10.824  0.0523 -0.1829  0.5754
  575TMC3     O 8583   0.979   2.376  10.923 -0.1747 -0.3501  0.1604
  575TMC3     H 8584   0.812   2.243  10.854 -1.2097 -1.5113 -0.7107
  575TMC3    H1 8585   0.907   2.543  10.581 -1.0613  1.1886 -0.4246
  575TMC3    H2 8586   0.533   2.328  10.538  0.3740 -1.7950  0.9892
  575TMC3    C7 8587   0.676   2.534  10.432 -1.2457 -0.4150 -0.2664
  575TMC3    C8 8588   0.578   2.158  10.734  0.8890 -0.2238 -0.3941
  575TMC3    O1 8589   0.738   2.638  10.429  0.3779 -0.2994 -0.2016
  575TMC3    O2 8590   0.470   2.152  10.673  0.5308 -1.0970 -0.3219
  576MPD2     C 8591   1.428   3.495  12.203  0.1928 -0.2556  0.1191
  576MPD2    C1 8592   1.387   3.620  12.158 -0.7411 -0.3551 -0.0273
  576MPD2    C2 8593   1.334   3.713  12.242  0.6282  0.4076 -0.0971
  576MPD2    C3 8594   1.314   3.673  12.373  0.2916 -0.3576 -0.0603
  576MPD2    C4 8595   1.358   3.552  12.416  0.4053 -0.9880  0.1063
  576MPD2    C5 8596   1.418   3.461  12.335  0.2111  0.0768 -0.4866
  576MPD2     H 8597   1.290   3.805  12.206 -0.9812 -0.4161 -0.2241
  576MPD2    H1 8598   1.361   3.526  12.521  0.5389  1.9000  0.8170
  576MPD2    H2 8599   1.468   3.421  12.135  0.0344 -0.4816  0.2681
  576MPD2    H3 8600   1.452   3.363  12.365  0.7337 -0.3779 -2.6100
  576MPD2     N 8601   1.260   3.766  12.460  0.7646 -0.3841 -0.3158
  576MPD2    H5 8602   1.263   3.860  12.421  1.7281  0.6272  2.1589
  576MPD2    N1 8603   1.397   3.653  12.021 -0.2541 -0.5526  0.7924
  576MPD2    H7 8604   1.392   3.752  12.000 -0.0970 -0.6334  0.3685
  577TMC3    C1 8605   1.485   3.616  11.805  0.0637 -0.3046  0.5700
  577TMC3    C2 8606   1.584   3.553  11.739 -0.5517 -0.5967  0.3669
  577TMC3    C3 8607   1.645   3.614  11.633  0.1084 -0.1401  0.1038
  577TMC3    C4 8608   1.434   3.729  11.743 -0.6690  0.5369 -0.3502
  577TMC3    C5 8609   1.486   3.777  11.628 -0.7785  0.4010 -0.2104
  577TMC3    C6 8610   1.600   3.728  11.568  0.3535 -0.4149  0.7369
  577TMC3     C 8611   1.429   3.558  11.922 -0.1578 -0.1939  0.6953
  577TMC3     O 8612   1.429   3.435  11.928  0.1375  0.5376  0.1298
  577TMC3     H 8613   1.612   3.453  11.769  1.8978  0.2699  1.0453
  577TMC3    H1 8614   1.335   3.765  11.770 -0.4221 -1.3050  3.0704
  577TMC3    H2 8615   1.658   3.768  11.486  2.2390 -1.2975  1.6415
  577TMC3    C7 8616   1.410   3.876  11.558 -0.4034 -0.4123  0.9333
  577TMC3    C8 8617   1.779   3.571  11.611  0.7275  0.1307  1.0590
  577TMC3    O1 8618   1.290   3.860  11.569 -0.1751  0.0923 -0.1286
  577TMC3    O2 8619   1.833   3.504  11.698  0.6559 -0.6068 -0.0691
  578MPD2     C 8620   4.121   3.670   1.013  0.1319  0.1899  0.7493
  578MPD2    C1 8621   4.131   3.619   0.889  0.1032 -0.0384 -0.1554
  578MPD2    C2 8622   4.185   3.494   0.878  0.4014  0.3709  0.3129
  578MPD2    C3 8623   4.229   3.424   0.993 -0.1903  0.2816 -0.0095
  578MPD2    C4 8624   4.224   3.486   1.116 -0.1013 -0.1683  0.2073
  578MPD2    C5 8625   4.168   3.612   1.127 -0.1648  0.7391 -0.0143
  578MPD2     H 8626   4.193   3.442   0.784 -1.9809  1.6115 -0.5531
  578MPD2    H1 8627   4.248   3.434   1.208 -0.2221 -1.8792 -0.7246
  578MPD2    H2 8628   4.069   3.763   1.034 -1.6272 -0.5398 -0.3948
  578MPD2    H3 8629   4.160   3.660   1.224 -0.4690  2.2858 -0.8056
  578MPD2     N 8630   4.272   3.290   0.973  0.3542 -0.1216  0.4057
  578MPD2    H5 8631   4.267   3.249   0.880  0.1049  1.6329 -0.3615
  578MPD2    N1 8632   4.075   3.692   0.784 -0.4807  0.0019 -0.3051
  578MPD2    H7 8633   4.040   3.784   0.807  2.5161  0.7829  1.1803
  579TMC3    C1 8634   4.391   3.092   1.028 -0.3729  0.1749  0.0085
  579TMC3    C2 8635   4.512   3.064   1.072  0.5515 -0.1461 -0.7513
  579TMC3    C3 8636   4.581   2.958   1.012  0.1615 -0.3181 -1.0389
  579TMC3    C4 8637   4.336   3.022   0.918 -0.2013 -0.0879 -0.4689
  579TMC3    C5 8638   4.413   2.923   0.865  0.0048 -0.1673  0.2288
  579TMC3    C6 8639   4.528   2.881   0.917  0.2413  0.1332 -0.2340
  579TMC3     C 8640   4.336   3.220   1.072  0.8475  0.0871 -0.6755
  579TMC3     O 8641   4.384   3.266   1.178 -0.3788 -0.4052  0.1466
  579TMC3     H 8642   4.560   3.120   1.151 -3.7319  1.8069  0.4569
  579TMC3    H1 8643   4.239   3.057   0.882  0.0779  0.1690 -0.9729
  579TMC3    H2 8644   4.587   2.800   0.878  0.3065 -0.4515  1.0754
  579TMC3    C7 8645   4.375   2.855   0.741 -0.0653  0.0463 -0.4264
  579TMC3    C8 8646   4.701   2.909   1.078 -0.4231  0.3762 -0.1506
  579TMC3    O1 8647   4.458   2.776   0.708 -0.2772  0.3703  0.3254
  579TMC3    O2 8648   4.712   2.788   1.095  0.3648  0.1889 -0.3367
  580TMC3    C1 8649   3.999   2.726  12.464 -0.3631 -0.5680  0.0062
  580TMC3    C2 8650   4.109   2.766  12.404  0.3752 -0.2011  0.2413
  580TMC3    C3 8651   4.227   2.725  12.451 -0.0260 -0.0495  0.0018
  580TMC3    C4 8652   4.006   2.604  12.534 -0.4969  0.1531 -0.1541
  580TMC3    C5 8653   4.130   2.547  12.565 -0.4531 -0.2995  0.3285
  580TMC3    C6 8654   4.246   2.611  12.529  0.6125 -0.0469  0.1320
  580TMC3     C 8655   3.870   2.787  12.433 -0.1176  1.0645  0.5526
  580TMC3     O 8656   3.770   2.729  12.470 -0.2515 -0.4240  0.1535
  580TMC3     H 8657   4.097   2.851  12.337 -2.3307 -0.1386  0.7976
  580TMC3    H1 8658   3.913   2.553  12.557 -0.3742 -0.8824 -1.9200
  580TMC3    H2 8659   4.345   2.571  12.546  0.6205  0.1425  0.5300
  580TMC3    C7 8660   4.138   2.418  12.624  0.4420 -0.6350  0.2912
  580TMC3    C8 8661   4.351   2.775  12.396 -0.4307 -0.0557  0.2595
  580TMC3    O1 8662   4.036   2.374  12.672  0.4264 -0.0833 -0.1701
  580TMC3    O2 8663   4.463   2.745  12.441 -0.3411  0.1197 -0.7032
  581MPD2     C 8664   1.672   2.627  15.280  0.0582  0.1658 -0.2287
  581MPD2    C1 8665   1.602   2.519  15.231  0.5074  0.7478  0.2432
  581MPD2    C2 8666   1.479   2.538  15.164 -0.4890 -0.0965  1.1911
  581MPD2    C3 8667   1.426   2.661  15.149 -0.4466 -0.0636 -0.1276
  581MPD2    C4 8668   1.502   2.767  15.201  1.4932 -0.0099  0.2920
  581MPD2    C5 8669   1.622   2.756  15.266  0.3275  0.0849 -0.1794
  581MPD2     H 8670   1.419   2.458  15.121 -0.5912 -0.1787  1.4874
  581MPD2    H1 8671   1.456   2.865  15.207 -1.1841 -1.1536 -1.4998
  581MPD2    H2 8672   1.770   2.623  15.326 -0.9040  0.5211  1.8653
  581MPD2    H3 8673   1.676   2.844  15.299  1.2576 -0.3430 -0.5797
  581MPD2     N 8674   1.310   2.681  15.068 -0.3249  0.1224 -0.7530
  581MPD2    H5 8675   1.275   2.599  15.018  0.0237  1.5140 -3.3020
  581MPD2    N1 8676   1.666   2.393  15.255  0.1907  0.0875  0.1849
  581MPD2    H7 8677   1.757   2.382  15.299  1.3944  3.6104 -1.3719
  582TMC3    C1 8678   1.655   2.181  15.362  0.2901 -0.0541 -0.4314
  582TMC3    C2 8679   1.707   2.210  15.488 -0.2663  0.2826  1.0575
  582TMC3    C3 8680   1.694   2.123  15.592  0.4895  0.5567 -0.1129
  582TMC3    C4 8681   1.586   2.063  15.349  0.1413  0.1752 -0.0400
  582TMC3    C5 8682   1.574   1.975  15.454 -0.2177  0.1853  0.5021
  582TMC3    C6 8683   1.637   2.004  15.570 -0.3702  0.2964 -0.3563
  582TMC3     C 8684   1.586   2.285  15.284 -0.0616  0.0916 -0.2690
  582TMC3     O 8685   1.473   2.263  15.244  0.3081  0.3027  0.3253
  582TMC3     H 8686   1.745   2.310  15.501 -2.5766  1.4192 -0.9110
  582TMC3    H1 8687   1.531   2.033  15.260  1.0340  1.3611 -0.9845
  582TMC3    H2 8688   1.609   1.943  15.655  3.3108  1.0317  1.3956
  582TMC3    C7 8689   1.435   1.945  15.475  0.0426  0.4621 -0.5867
  582TMC3    C8 8690   1.650   2.191  15.715 -0.0766  0.6386  0.3804
  582TMC3    O1 8691   1.397   1.851  15.540  0.3747  0.2646 -0.2126
  582TMC3    O2 8692   1.600   2.300  15.711  0.0879  0.0021  0.3389
  583MPD2     C 8693   1.484   4.139  16.695 -0.2475 -0.0686  0.3730
  583MPD2    C1 8694   1.445   4.251  16.623 -0.2021 -0.1768  0.2932
  583MPD2    C2 8695   1.403   4.361  16.695 -0.4565 -0.6630 -0.6730
  583MPD2    C3 8696   1.405   4.369  16.830 -0.7683 -0.3627 -0.3312
  583MPD2    C4 8697   1.438   4.252  16.898 -0.0482  0.3771 -0.3161
  583MPD2    C5 8698   1.467   4.139  16.830 -0.6163 -0.2596  0.1165
  583MPD2     H 8699   1.380   4.444  16.629  1.4126 -0.0577 -0.5685
  583MPD2    H1 8700   1.427   4.249  17.006 -0.8986 -1.8080 -0.4699
  583MPD2    H2 8701   1.514   4.048  16.644  1.9895 -0.3622  2.1729
  583MPD2    H3 8702   1.494   4.051  16.887  0.0598  0.4763  0.9332
  583MPD2     N 8703   1.359   4.490  16.890  0.4878 -0.6575 -0.2645
  583MPD2    H5 8704   1.309   4.554  16.829 -0.9393 -0.3358  1.2415
  583MPD2    N1 8705   1.451   4.262  16.478  0.4127 -0.2863  0.8204
  583MPD2    H7 8706   1.434   4.358  16.449 -1.6590 -1.2475 -1.1312
  584TMC3    C1 8707   1.295   4.628  17.071  0.1181  0.1650 -0.1937
  584TMC3    C2 8708   1.293   0.008  16.999 -0.2339 -0.4052 -0.4913
  584TMC3    C3 8709   1.248   0.116  17.058 -0.2374  0.9958 -0.0056
  584TMC3    C4 8710   1.250   4.624  17.198  0.8122  0.1504 -0.1723
  584TMC3    C5 8711   1.196   4.738  17.249 -0.7165  0.2483 -0.3605
  584TMC3    C6 8712   1.202   0.116  17.188 -0.0356  0.5878  0.6217
  584TMC3     C 8713   1.354   4.504  17.024 -0.1776 -0.3161 -0.7131
  584TMC3     O 8714   1.409   4.439  17.111 -1.0893 -1.0139  0.9447
  584TMC3     H 8715   1.320   4.733  16.895 -1.6534  0.0402 -0.9285
  584TMC3    H1 8716   1.253   4.539  17.265 -0.3778  0.0688 -0.2162
  584TMC3    H2 8717   1.154   0.201  17.236  0.4342  1.7291 -0.9510
  584TMC3    C7 8718   1.141   0.000  17.386  0.8761 -0.2519  0.1111
  584TMC3    C8 8719   1.276   0.239  16.983 -0.6755  0.3595 -0.4999
  584TMC3    O1 8720   1.123   4.630  17.438  0.0155 -0.2285 -0.3725
  584TMC3    O2 8721   1.279   0.231  16.864 -0.4857  0.2478 -0.3779
  585MPD2     C 8722   0.609   3.491   0.615  0.5273 -0.7263 -0.1132
  585MPD2    C1 8723   0.526   3.533   0.517 -0.1887 -0.5044  0.2099
  585MPD2    C2 8724   0.498   3.448   0.410  0.3958  0.5508  0.1931
  585MPD2    C3 8725   0.568   3.325   0.395  0.9418 -1.3249 -0.4925
  585MPD2    C4 8726   0.645   3.286   0.505  0.5173 -0.2833  0.2797
  585MPD2    C5 8727   0.657   3.365   0.616  0.1968 -1.2814 -0.1657
  585MPD2     H 8728   0.442   3.476   0.321  1.8845  0.9903 -0.6150
  585MPD2    H1 8729   0.700   3.192   0.504 -0.4752 -0.8719  0.7372
  585MPD2    H2 8730   0.617   3.560   0.698 -1.9263  0.5812 -0.9483
  585MPD2    H3 8731   0.718   3.338   0.702  1.5230  1.5689 -0.1833
  585MPD2     N 8732   0.565   3.235   0.286  0.0486  0.2136  0.3920
  585MPD2    H5 8733   0.613   3.147   0.299 -0.7725 -0.5256 -1.5474
  585MPD2    N1 8734   0.474   3.665   0.525 -0.7172 -0.8670 -0.0384
  585MPD2    H7 8735   0.527   3.713   0.596 -1.4137  0.0154 -0.1169
  586TMC3    C1 8736   0.527   3.148   0.077 -0.1676  0.6850 -0.4226
  586TMC3    C2 8737   0.649   3.091   0.079  0.0004  0.3189  1.0654
  586TMC3    C3 8738   0.661   2.955   0.050  0.1900 -0.3003 -0.2349
  586TMC3    C4 8739   0.409   3.079   0.046  0.2792 -0.1696  0.2526
  586TMC3    C5 8740   0.430   2.949   0.014  0.6881  0.2783  0.6730
  586TMC3    C6 8741   0.548   2.882   0.031  0.2042  0.0174  0.0961
  586TMC3     C 8742   0.509   3.263   0.163  0.0213  0.0136  0.2592
  586TMC3     O 8743   0.415   3.332   0.137 -0.1701  0.1463  0.1773
  586TMC3     H 8744   0.735   3.157   0.089  1.0084 -0.5834 -1.6673
  586TMC3    H1 8745   0.312   3.125   0.038 -0.0597 -0.8817  0.2354
  586TMC3    H2 8746   0.560   2.776   0.012  1.3253  0.8300 -3.6311
  586TMC3    C7 8747   0.324   2.865  17.717  0.5680  1.6589 -0.6043
  586TMC3    C8 8748   0.784   2.911  17.744 -0.1757 -0.7225  0.2303
  586TMC3    O1 8749   0.344   2.746  17.736  0.4817 -0.0492 -0.0377
  586TMC3    O2 8750   0.836   2.990  17.667 -0.1873  0.3006 -0.2671
  587TMC3    C1 8751   2.958   1.873  16.879 -0.3691  0.7135  0.0573
  587TMC3    C2 8752   2.945   1.982  16.793  0.3759 -0.0309 -0.0445
  587TMC3    C3 8753   3.052   2.005  16.706 -0.2589  0.3261 -0.5101
  587TMC3    C4 8754   3.066   1.791  16.874  0.3016 -0.9608  0.6424
  587TMC3    C5 8755   3.159   1.809  16.775 -0.9381  0.4623 -0.3100
  587TMC3    C6 8756   3.155   1.914  16.692  0.1521 -0.0900  0.3107
  587TMC3     C 8757   2.836   1.820  16.947 -0.1632 -0.6550  0.3973
  587TMC3     O 8758   2.823   1.696  16.957 -0.4322 -0.2918  0.4230
  587TMC3     H 8759   2.861   2.050  16.800 -2.3393 -3.2625 -1.1784
  587TMC3    H1 8760   3.069   1.702  16.936  0.1374  0.0200  2.0308
  587TMC3    H2 8761   3.239   1.933  16.628 -0.7698  0.3697 -0.7577
  587TMC3    C7 8762   3.248   1.692  16.735 -0.4623 -0.2160 -0.0111
  587TMC3    C8 8763   3.048   2.112  16.612  0.8702  0.3776 -0.6903
  587TMC3    O1 8764   3.296   1.695  16.625 -1.0229 -0.2926  0.2334
  587TMC3    O2 8765   3.084   2.088  16.499 -0.3071  0.2468 -0.1819
  588TMC3    C1 8766   0.232   0.133   9.698  0.4607 -0.3375 -0.2344
  588TMC3    C2 8767   0.176   0.010   9.697  0.2168  0.4161 -0.2733
  588TMC3    C3 8768   0.161   4.694   9.818  0.2927 -0.4103  0.4750
  588TMC3    C4 8769   0.273   0.209   9.804  0.5282 -0.4172  0.3378
  588TMC3    C5 8770   0.249   0.146   9.923  0.4550 -0.4270 -0.2847
  588TMC3    C6 8771   0.198   0.020   9.935 -0.4383 -0.1214 -0.4511
  588TMC3     C 8772   0.249   0.204   9.572 -0.3568 -1.0280  0.1314
  588TMC3     O 8773   0.151   0.232   9.509 -0.1817 -0.0104 -0.3249
  588TMC3     H 8774   0.133   4.703   9.609  1.2483  1.1631 -1.1824
  588TMC3    H1 8775   0.292   0.316   9.795 -0.8686 -0.1512  0.5392
  588TMC3    H2 8776   0.197   4.716  10.034 -1.0036  0.1451 -0.3360
  588TMC3    C7 8777   0.314   0.207  10.043  0.6630 -0.2750 -0.0295
  588TMC3    C8 8778   0.140   4.552   9.814  0.2592 -0.2577  0.5855
  588TMC3    O1 8779   0.268   0.187  10.158  0.1380 -0.0634  0.2534
  588TMC3    O2 8780   0.045   4.516   9.745 -0.5641  0.3345 -0.5324
  589TMC3    C1 8781   3.979   1.508   0.876 -0.0367 -0.2572  0.0163
  589TMC3    C2 8782   4.089   1.555   0.944 -0.2604  0.0420 -0.7025
  589TMC3    C3 8783   4.212   1.489   0.926  0.8196 -0.2029 -0.6027
  589TMC3    C4 8784   3.982   1.395   0.801  1.0128 -0.6398 -0.3440
  589TMC3    C5 8785   4.099   1.325   0.797  0.2106  0.6991  0.6370
  589TMC3    C6 8786   4.216   1.374   0.850 -0.2899  0.2609 -0.1875
  589TMC3     C 8787   3.866   1.600   0.857 -0.8860  0.3278  0.8275
  589TMC3     O 8788   3.767   1.545   0.807  0.4192  0.3602 -0.0529
  589TMC3     H 8789   4.094   1.651   0.994 -0.0584 -1.1560  1.5727
  589TMC3    H1 8790   3.892   1.372   0.745  1.2336  0.1947 -1.0442
  589TMC3    H2 8791   4.308   1.316   0.851 -1.6558 -1.9676 -1.2917
  589TMC3    C7 8792   4.115   1.206   0.719 -0.1414  0.0035 -0.2273
  589TMC3    C8 8793   4.330   1.543   0.986 -0.3243 -0.8276  0.3183
  589TMC3    O1 8794   4.218   1.144   0.731  0.1000 -0.0257 -0.3634
  589TMC3    O2 8795   4.300   1.606   1.088  0.2965 -0.5266  0.0264
  590MPD2     C 8796   4.180   0.108  16.979  0.6384  0.6355 -0.2593
  590MPD2    C1 8797   4.118   0.083  16.866 -0.5171 -0.3390 -0.0244
  590MPD2    C2 8798   4.170   0.144  16.755  0.0039 -0.5416  0.3093
  590MPD2    C3 8799   4.275   0.228  16.761 -0.5956  0.2463  0.0393
  590MPD2    C4 8800   4.337   0.246  16.883 -0.5448  0.0207 -0.8290
  590MPD2    C5 8801   4.283   0.189  16.988 -0.7679  0.0185  0.3748
  590MPD2     H 8802   4.106   0.152  16.668 -0.4882  1.0500  0.8194
  590MPD2    H1 8803   4.424   0.310  16.899 -0.6705  0.2622 -1.1007
  590MPD2    H2 8804   4.163   0.055  17.072 -2.2191  1.9397 -0.0260
  590MPD2    H3 8805   4.320   0.196  17.090  1.1498  1.2063 -0.4025
  590MPD2     N 8806   4.320   0.300  16.648 -0.0173  0.0921 -0.0951
  590MPD2    H5 8807   4.256   0.304  16.569 -0.0396 -1.5068 -0.1523
  590MPD2    N1 8808   4.007   0.001  16.860 -0.0120 -0.0303 -0.4090
  590MPD2    H7 8809   3.956   4.725  16.946  1.3813  2.7246  0.9050
  591TMC3    C1 8810   4.441   0.427  16.506  0.5134  0.0805  0.0992
  591TMC3    C2 8811   4.545   0.416  16.420 -0.3716  0.0975  0.2351
  591TMC3    C3 8812   4.541   0.495  16.308  0.1860  0.3997 -0.8903
  591TMC3    C4 8813   4.343   0.524  16.498  0.1973  0.3622  0.1277
  591TMC3    C5 8814   4.349   0.607  16.387  0.3127  0.4335 -0.4237
  591TMC3    C6 8815   4.443   0.597  16.296 -0.3011  0.0688  0.1784
  591TMC3     C 8816   4.441   0.354  16.629 -0.0226 -0.5753 -0.1684
  591TMC3     O 8817   4.543   0.351  16.699 -0.3883 -0.4039 -0.3786
  591TMC3     H 8818   4.614   0.334  16.431 -0.2153 -0.0553 -1.8401
  591TMC3    H1 8819   4.256   0.522  16.563 -0.1444 -1.6903 -0.3945
  591TMC3    H2 8820   4.433   0.655  16.205  0.2299  1.2574  0.8728
  591TMC3    C7 8821   4.260   0.717  16.400 -0.2234  0.8593 -0.7344
  591TMC3    C8 8822   4.614   0.439  16.196 -0.4321 -0.2550 -0.1992
  591TMC3    O1 8823   4.167   0.710  16.480 -0.1772  0.7313 -0.3521
  591TMC3    O2 8824   4.660   0.322  16.191 -0.4385  0.2085  0.7739
  592MPD2     C 8825   0.080   2.741  11.342  0.3232  0.6433 -0.5328
  592MPD2    C1 8826   0.123   2.682  11.453  0.2041  0.3288  0.2070
  592MPD2    C2 8827   0.082   2.558  11.486  0.7691 -0.1569 -0.2824
  592MPD2    C3 8828   4.719   2.501  11.417  0.4160  0.1132  0.3093
  592MPD2    C4 8829   4.673   2.558  11.300  0.0966  0.0586 -0.2679
  592MPD2    C5 8830   4.719   2.685  11.268 -0.2238  0.6324  0.7972
  592MPD2     H 8831   0.118   2.502  11.571 -3.0640 -0.8227  0.9230
  592MPD2    H1 8832   4.592   2.521  11.237 -0.2129  2.0092 -0.9926
  592MPD2    H2 8833   0.121   2.831  11.299 -1.6693 -0.6232 -5.1010
  592MPD2    H3 8834   4.689   2.727  11.173  1.6382 -1.5542 -0.7546
  592MPD2     N 8835   4.663   2.382  11.479 -0.2587 -0.1735  0.4878
  592MPD2    H5 8836   4.709   2.348  11.563 -1.5793  0.4052  1.4378
  592MPD2    N1 8837   0.208   2.748  11.544 -0.4752  0.8796  0.0717
  592MPD2    H7 8838   0.234   2.837  11.503 -2.0149  1.5478  0.5370
  593TMC3    C1 8839   0.343   2.821  11.714 -1.3462  0.0389 -0.6140
  593TMC3    C2 8840   0.365   2.823  11.849  0.0556 -0.1519 -0.1120
  593TMC3    C3 8841   0.476   2.881  11.896  0.2627 -0.5708  0.9123
  593TMC3    C4 8842   0.429   2.876  11.623 -0.0739  0.8487 -0.3217
  593TMC3    C5 8843   0.542   2.924  11.677 -0.1272  0.2693 -0.9370
  593TMC3    C6 8844   0.566   2.943  11.813  0.8245 -0.1186  1.4255
  593TMC3     C 8845   0.265   2.714  11.667  0.4128  0.0950 -0.3797
  593TMC3     O 8846   0.245   2.612  11.736  0.0279  0.1424 -0.1675
  593TMC3     H 8847   0.295   2.775  11.917  0.7576  0.2027  0.8547
  593TMC3    H1 8848   0.404   2.876  11.517 -1.1499 -1.5253 -0.0802
  593TMC3    H2 8849   0.651   2.998  11.853  0.3385  0.8642  1.0848
  593TMC3    C7 8850   0.652   2.948  11.584  0.0519 -0.0022  0.3070
  593TMC3    C8 8851   0.499   2.878  12.036 -0.0879 -0.9090  0.3839
  593TMC3    O1 8852   0.616   2.977  11.469  0.2922  0.4870 -0.3411
  593TMC3    O2 8853   0.402   2.844  12.105  0.0932  0.0868 -0.0624
  594MPD2     C 8854   3.015   1.272  14.276  0.1617 -0.3892 -0.1387
  594MPD2    C1 8855   3.029   1.189  14.382  0.0989 -0.2242  0.0662
  594MPD2    C2 8856   3.159   1.150  14.417  0.2267  0.8875  0.1336
  594MPD2    C3 8857   3.273   1.199  14.359  0.2530 -0.0736  0.0213
  594MPD2    C4 8858   3.260   1.277  14.250  0.0805  0.0072  0.1815
  594MPD2    C5 8859   3.132   1.304  14.206 -0.3480  0.2335  0.7392
  594MPD2     H 8860   3.167   1.075  14.495 -0.6340 -0.7937 -1.4001
  594MPD2    H1 8861   3.350   1.305  14.197  0.9616 -0.9604  1.1791
  594MPD2    H2 8862   2.923   1.319  14.241 -0.3136  0.2441  1.9416
  594MPD2    H3 8863   3.120   1.364  14.116  0.2602  0.0783  0.5585
  594MPD2     N 8864   3.401   1.166  14.418 -0.4090 -0.0723  0.0371
  594MPD2    H5 8865   3.406   1.106  14.500 -2.6582 -1.4214 -0.8251
  594MPD2    N1 8866   2.906   1.145  14.447  0.8120  0.5520  0.9414
  594MPD2    H7 8867   2.819   1.185  14.414 -0.5671 -1.1912  2.4624
  595TMC3    C1 8868   3.831   1.271  14.547 -0.0648 -0.3933  0.0614
  595TMC3    C2 8869   3.753   1.233  14.441  0.5547  0.2797  0.0547
  595TMC3    C3 8870   3.624   1.203  14.484  0.4257 -0.0644 -0.7669
  595TMC3    C4 8871   3.792   1.300  14.676 -0.3554 -1.1609 -0.0309
  595TMC3    C5 8872   3.659   1.263  14.711  0.4667 -0.2198 -0.4673
  595TMC3    C6 8873   3.579   1.217  14.613 -0.7482 -0.5313 -0.7495
  595TMC3     C 8874   3.967   1.322  14.507  0.3249 -0.3295  0.1235
  595TMC3     O 8875   4.024   1.383  14.597  0.2998 -0.6297 -0.4156
  595TMC3     H 8876   3.776   1.231  14.335  0.4908  0.0082  0.0477
  595TMC3    H1 8877   3.862   1.343  14.747 -0.0672  0.1808 -1.1396
  595TMC3    H2 8878   3.475   1.193  14.635 -0.6518 -2.2373 -2.1367
  595TMC3    C7 8879   3.597   1.308  14.837 -0.0218 -0.1731  0.8706
  595TMC3    C8 8880   3.521   1.219  14.383  0.4313  0.3069  0.4692
  595TMC3    O1 8881   3.477   1.318  14.819  0.0178 -0.1133 -0.4963
  595TMC3    O2 8882   3.557   1.280  14.287 -0.3427 -0.0484 -0.4617
  596MPD2     C 8883   2.242   3.984  16.600  0.0726 -0.6429 -0.1727
  596MPD2    C1 8884   2.231   4.105  16.538  0.1361  0.2333  0.2852
  596MPD2    C2 8885   2.225   4.116  16.407  0.1673  0.1559  0.1799
  596MPD2    C3 8886   2.208   3.998  16.332 -0.3929 -0.2835 -0.1127
  596MPD2    C4 8887   2.216   3.872  16.392 -0.1800 -0.0532 -0.3519
  596MPD2    C5 8888   2.244   3.868  16.525 -0.0370  0.0685 -0.4604
  596MPD2     H 8889   2.240   4.215  16.364 -0.8252  0.8387  1.4198
  596MPD2    H1 8890   2.219   3.775  16.343 -1.2261 -0.2141 -0.0914
  596MPD2    H2 8891   2.261   3.977  16.706  1.3041  1.6520 -0.2319
  596MPD2    H3 8892   2.257   3.775  16.579 -1.1092  0.5209  0.5686
  596MPD2     N 8893   2.193   3.998  16.193  0.9741  0.2239 -0.1948
  596MPD2    H5 8894   2.196   3.909  16.145  2.6275  0.9839 -1.5079
  596MPD2    N1 8895   2.251   4.230  16.605  0.4658  0.1418  0.3348
  596MPD2    H7 8896   2.264   4.316  16.553 -1.3036 -1.0048 -1.9845
  597TMC3    C1 8897   2.200   4.385  16.770 -0.1255  0.9147  0.0418
  597TMC3    C2 8898   2.273   4.477  16.697  0.7803 -0.2652 -0.3134
  597TMC3    C3 8899   2.246   4.610  16.716 -0.4864  0.0504  0.9415
  597TMC3    C4 8900   2.121   4.423  16.874 -0.0827 -0.7689 -0.5292
  597TMC3    C5 8901   2.116   4.555  16.896  0.4562  0.2822  0.2432
  597TMC3    C6 8902   2.179   4.652  16.825  0.4024 -0.1424 -0.1534
  597TMC3     C 8903   2.210   4.248  16.735 -0.0516 -0.7952  0.0216
  597TMC3     O 8904   2.165   4.161  16.805 -0.3587  0.0294  0.3351
  597TMC3     H 8905   2.351   4.444  16.629  1.5873 -0.5575  0.7468
  597TMC3    H1 8906   2.061   4.353  16.932  0.9457  0.8431  2.4492
  597TMC3    H2 8907   2.193   0.014  16.857  2.7420 -0.0992 -1.3069
  597TMC3    C7 8908   2.022   4.592  16.996 -0.0081  0.2717 -0.5904
  597TMC3    C8 8909   2.302   4.710  16.626 -0.1773 -0.3542  0.0347
  597TMC3    O1 8910   2.019   4.541  17.105 -0.5256 -0.1236 -0.4052
  597TMC3    O2 8911   2.269   0.086  16.649 -0.0435  0.1897  0.2449
  598TMC3    C1 8912   0.598   0.962  15.307 -0.1676  0.4224  0.2358
  598TMC3    C2 8913   0.502   0.867  15.289 -0.1720  0.9628  0.2876
  598TMC3    C3 8914   0.465   0.832  15.155 -0.1865 -0.1077  0.3975
  598TMC3    C4 8915   0.655   1.019  15.199 -0.1817 -0.1159 -0.2617
  598TMC3    C5 8916   0.614   0.983  15.071  1.1325 -0.5461  0.3620
  598TMC3    C6 8917   0.527   0.887  15.042 -0.1329  0.1269  0.0944
  598TMC3     C 8918   0.686   0.954  15.421  0.0450  0.6814 -0.3711
  598TMC3     O 8919   0.774   1.037  15.430 -0.0151  0.2419 -0.1263
  598TMC3     H 8920   0.442   0.827  15.369 -0.6766 -0.4326 -0.7944
  598TMC3    H1 8921   0.736   1.090  15.213 -0.4994  0.4326 -1.1701
  598TMC3    H2 8922   0.493   0.859  14.943  0.5642  0.7083 -0.3123
  598TMC3    C7 8923   0.685   1.040  14.957  0.3793  0.0809 -0.4528
  598TMC3    C8 8924   0.360   0.733  15.137 -0.2392 -0.0072 -0.4275
  598TMC3    O1 8925   0.685   0.970  14.857  0.5566  0.1240  0.1525
  598TMC3    O2 8926   0.336   0.706  15.022 -0.0864 -0.1831  0.7539
  599MPD2     C 8927   0.706   3.438  15.780 -0.1568 -0.0960  0.1771
  599MPD2    C1 8928   0.661   3.308  15.805  0.4528  0.3877  0.2955
  599MPD2    C2 8929   0.526   3.273  15.812  0.4001 -0.6778 -0.2223
  599MPD2    C3 8930   0.439   3.384  15.819 -0.0644 -0.2613  0.4299
  599MPD2    C4 8931   0.485   3.515  15.799  0.2343  0.1333  0.1505
  599MPD2    C5 8932   0.617   3.535  15.771 -0.3217 -0.1336 -0.1078
  599MPD2     H 8933   0.490   3.171  15.811 -2.2923  0.2703  0.3084
  599MPD2    H1 8934   0.423   3.604  15.798 -0.9657 -0.6778  1.1775
  599MPD2    H2 8935   0.808   3.461  15.751  0.6205 -0.1636  2.8984
  599MPD2    H3 8936   0.650   3.636  15.749  0.9420 -0.6225 -0.5068
  599MPD2     N 8937   0.300   3.360  15.845 -0.8013 -0.6069 -0.5270
  599MPD2    H5 8938   0.254   3.449  15.865  0.5159  0.0973 -0.5805
  599MPD2    N1 8939   0.759   3.211  15.790 -0.0842 -0.2181  0.6605
  599MPD2    H7 8940   0.856   3.239  15.787 -0.6013  1.4043 -0.8522
  600TMC3    C1 8941   0.095   3.259  15.902  0.0806  0.0164  0.0466
  600TMC3    C2 8942   0.018   3.150  15.924 -0.0227  0.1544  0.0866
  600TMC3    C3 8943   4.654   3.147  16.013  0.9253 -0.9624 -0.0941
  600TMC3    C4 8944   0.064   3.376  15.967  0.3804  0.2452  0.0489
  600TMC3    C5 8945   4.713   3.366  16.069  0.1947 -0.3347 -0.7017
  600TMC3    C6 8946   4.636   3.254  16.095  0.2017 -0.9094  0.3352
  600TMC3     C 8947   0.231   3.242  15.853  0.3137 -1.0088 -0.3150
  600TMC3     O 8948   0.264   3.127  15.842 -0.5824  0.2028 -0.0284
  600TMC3     H 8949   0.042   3.061  15.868 -1.1930  1.0979 -1.9194
  600TMC3    H1 8950   0.125   3.464  15.954 -0.1624  0.5473 -0.4436
  600TMC3    H2 8951   4.542   3.277  16.143 -0.2514  0.9436 -1.4945
  600TMC3    C7 8952   4.697   3.483  16.155 -0.4233  0.1416  0.3669
  600TMC3    C8 8953   4.553   3.049  16.003 -0.0477  0.0703 -0.3538
  600TMC3    O1 8954   4.626   3.476  16.250  0.4206 -0.0904 -0.1010
  600TMC3    O2 8955   4.530   2.994  15.894  0.2551  0.6681  0.1205
  601MPD2     C 8956   2.747   1.736   0.291  0.1458  0.2551  0.3131
  601MPD2    C1 8957   2.621   1.692   0.324 -0.8307 -0.3636  0.4442
  601MPD2    C2 8958   2.596   1.559   0.353 -0.6125 -0.8942 -0.8249
  601MPD2    C3 8959   2.697   1.465   0.346 -0.3047  0.2595  0.3867
  601MPD2    C4 8960   2.826   1.518   0.327 -0.3435  0.6760  0.4554
  601MPD2    C5 8961   2.852   1.650   0.293  0.1294 -0.0822 -0.4859
  601MPD2     H 8962   2.500   1.521   0.384 -0.1325 -0.0641  1.7516
  601MPD2    H1 8963   2.913   1.453   0.326 -0.7010  0.2056 -0.2001
  601MPD2    H2 8964   2.776   1.837   0.266  0.3246  0.7475  2.5444
  601MPD2    H3 8965   2.951   1.690   0.280  0.2989  0.5568  2.7701
  601MPD2     N 8966   2.676   1.322   0.362  0.3760  0.6829  0.6992
  601MPD2    H5 8967   2.761   1.266   0.366  1.5203  2.2170 -2.3250
  601MPD2    N1 8968   2.500   1.772   0.323 -0.1283  0.1898  0.1101
  601MPD2    H7 8969   2.414   1.728   0.354  0.4794 -0.8203  0.3854
  602TMC3    C1 8970   2.361   1.935   0.238 -0.5821  0.1053  0.1839
  602TMC3    C2 8971   2.330   2.060   0.281  0.4937  0.5477 -0.0239
  602TMC3    C3 8972   2.202   2.100   0.274  0.5528 -0.1064  0.0720
  602TMC3    C4 8973   2.263   1.834   0.220  0.1316 -0.4267  0.1476
  602TMC3    C5 8974   2.138   1.880   0.200 -0.4518 -0.8399 -0.2868
  602TMC3    C6 8975   2.104   2.014   0.222 -0.3036  1.1247 -0.3615
  602TMC3     C 8976   2.497   1.900   0.270 -0.0290  0.0116  0.4667
  602TMC3     O 8977   2.582   1.978   0.239  0.6610 -0.1325  0.4800
  602TMC3     H 8978   2.409   2.128   0.307  1.0888  0.2816 -1.1294
  602TMC3    H1 8979   2.285   1.730   0.201  1.3413  0.1370 -1.5848
  602TMC3    H2 8980   1.999   2.039   0.225 -0.2900  1.1440 -0.0299
  602TMC3    C7 8981   2.043   1.787   0.150 -0.6113  0.1392 -0.5986
  602TMC3    C8 8982   2.180   2.239   0.234 -0.6900 -0.3475 -0.0816
  602TMC3    O1 8983   2.056   1.667   0.179 -0.2112 -0.2493  0.3653
  602TMC3    O2 8984   2.276   2.309   0.216  0.1243 -0.9798  0.7387
  603TMC3    C1 8985   0.418   2.071  11.289  0.2655 -0.2306  0.0732
  603TMC3    C2 8986   0.522   1.987  11.329  0.4195  0.1223 -0.3871
  603TMC3    C3 8987   0.647   2.021  11.293  0.0254  0.3359 -0.1562
  603TMC3    C4 8988   0.445   2.186  11.220  0.0694 -0.2357  0.0013
  603TMC3    C5 8989   0.582   2.218  11.196  0.3489  0.0317  0.6884
  603TMC3    C6 8990   0.691   2.143  11.233  0.0577  0.0942 -0.0523
  603TMC3     C 8991   0.280   2.007  11.290 -0.3374  0.6453 -0.4250
  603TMC3     O 8992   0.276   1.905  11.360 -0.1456 -0.0587  0.2280
  603TMC3     H 8993   0.497   1.885  11.355  4.1995 -1.1748 -1.7743
  603TMC3    H1 8994   0.377   2.270  11.210 -2.0369 -2.0148 -0.6842
  603TMC3    H2 8995   0.794   2.159  11.203 -0.5443 -0.2371 -2.3291
  603TMC3    C7 8996   0.610   2.330  11.120 -0.5326  0.8868 -0.2979
  603TMC3    C8 8997   0.752   1.929  11.324  0.0077 -0.2409  0.6703
  603TMC3    O1 8998   0.724   2.376  11.145  0.2799  0.3182 -0.0282
  603TMC3    O2 8999   0.728   1.846  11.410 -0.6226  0.0732  0.3349
  604MPD2     C 9000   1.372   0.245  15.963  0.5002  0.0787 -0.2016
  604MPD2    C1 9001   1.364   0.378  15.945 -0.3136  0.2553  0.3590
  604MPD2    C2 9002   1.416   0.434  15.828 -0.3241 -0.2878 -0.7707
  604MPD2    C3 9003   1.467   0.351  15.733 -0.1330  0.1315 -0.1736
  604MPD2    C4 9004   1.459   0.212  15.738  0.3343  0.3477 -0.5444
  604MPD2    C5 9005   1.419   0.164  15.862  0.5775  0.0471  0.6883
  604MPD2     H 9006   1.414   0.541  15.809 -0.5026  0.0541  1.1627
  604MPD2    H1 9007   1.480   0.139  15.662  2.2227  0.9113 -0.5476
  604MPD2    H2 9008   1.349   0.201  16.060 -0.9534 -0.6947 -0.9012
  604MPD2    H3 9009   1.422   0.057  15.885  1.8685 -0.0622  0.0069
  604MPD2     N 9010   1.513   0.401  15.614 -0.4772 -0.4581  0.2775
  604MPD2    H5 9011   1.560   0.491  15.609 -0.8888 -0.1463  1.7613
  604MPD2    N1 9012   1.307   0.458  16.048  0.4829  0.2686  0.0091
  604MPD2    H7 9013   1.283   0.421  16.140  0.4027 -0.2361 -0.2123
  605TMC3    C1 9014   1.249   0.654  16.164  0.1057  0.0521  0.7281
  605TMC3    C2 9015   1.312   0.635  16.281 -0.0339 -0.7657  0.6952
  605TMC3    C3 9016   1.255   0.684  16.393 -0.5057  0.0507 -0.2936
  605TMC3    C4 9017   1.127   0.718  16.155  0.8189 -0.2297  0.5992
  605TMC3    C5 9018   1.070   0.749  16.270 -0.7428  0.4614  0.6774
  605TMC3    C6 9019   1.130   0.739  16.392 -0.9056  0.3655  0.2392
  605TMC3     C 9020   1.294   0.600  16.040  0.8101  0.0714  0.3363
  605TMC3     O 9021   1.282   0.679  15.950  0.4914 -0.5393 -0.5374
  605TMC3     H 9022   1.414   0.598  16.283  0.6137  0.9423 -2.0837
  605TMC3    H1 9023   1.083   0.730  16.056  2.7015  1.5822 -0.0155
  605TMC3    H2 9024   1.072   0.768  16.479  1.0199  0.1600  1.6065
  605TMC3    C7 9025   0.940   0.811  16.270  0.0024  0.1844  0.0624
  605TMC3    C8 9026   1.350   0.719  16.496 -0.0137  0.1344  0.0637
  605TMC3    O1 9027   0.905   0.872  16.365 -0.0400 -0.5351 -0.0792
  605TMC3    O2 9028   1.456   0.657  16.499  0.2246  0.5210 -0.2066
  606TMC3    C1 9029   2.229   4.272  17.222 -0.6690  0.4536  0.2036
  606TMC3    C2 9030   2.282   4.272  17.346  0.6703 -0.3494 -0.7402
  606TMC3    C3 9031   2.282   4.160  17.419 -0.2635  0.3909 -0.0090
  606TMC3    C4 9032   2.196   4.155  17.159 -0.4858 -0.6014 -0.1186
  606TMC3    C5 9033   2.194   4.040  17.237  0.0968  0.3621  0.3482
  606TMC3    C6 9034   2.238   4.042  17.366  0.2137  0.0060  0.0072
  606TMC3     C 9035   2.310   4.362  17.141  1.1792  0.0818 -1.0289
  606TMC3     O 9036   2.369   4.311  17.048  0.1924  0.5246 -0.3237
  606TMC3     H 9037   2.309   4.363  17.398 -0.0161 -1.2934  1.2601
  606TMC3    H1 9038   2.176   4.160  17.053  0.1070 -0.9869 -0.2469
  606TMC3    H2 9039   2.265   3.949  17.416 -0.7317  0.8069  2.0175
  606TMC3    C7 9040   2.147   3.916  17.173 -0.6776  0.2433 -0.0357
  606TMC3    C8 9041   2.392   4.150  17.517  0.0402  0.3910  0.3854
  606TMC3    O1 9042   2.158   3.901  17.051 -0.0915  0.0542 -0.3882
  606TMC3    O2 9043   2.486   4.231  17.506  0.5320  0.2609 -0.4965
  607MPD2     C 9044   0.176   2.141  11.587  0.9088  0.6205  0.1250
  607MPD2    C1 9045   0.254   2.192  11.684  0.0481 -0.5571  0.3596
  607MPD2    C2 9046   0.260   2.142  11.808 -0.6093  0.0074  0.2020
  607MPD2    C3 9047   0.189   2.028  11.834  0.0976 -0.0412 -0.2858
  607MPD2    C4 9048   0.118   1.966  11.740 -0.2716 -0.1327 -0.0224
  607MPD2    C5 9049   0.103   2.027  11.619 -0.1191 -0.4743  0.1524
  607MPD2     H 9050   0.318   2.189  11.887 -0.7608  1.9530 -0.8307
  607MPD2    H1 9051   0.062   1.876  11.761  0.8278 -0.7714  0.1795
  607MPD2    H2 9052   0.198   2.166  11.484 -1.3073  1.0182 -0.2538
  607MPD2    H3 9053   0.041   1.980  11.543  0.8170  0.9776 -1.5021
  607MPD2     N 9054   0.210   1.975  11.962  0.0544  0.1102 -0.0082
  607MPD2    H5 9055   0.281   2.024  12.016 -0.1025  1.2479 -0.8281
  607MPD2    N1 9056   0.349   2.296  11.653  0.1440 -0.2799 -0.2070
  607MPD2    H7 9057   0.414   2.324  11.726 -2.1050 -2.5523  2.6465
  608TMC3    C1 9058   0.487   2.442  11.536 -0.2851 -0.3158 -0.0435
  608TMC3    C2 9059   0.593   2.390  11.613 -0.5395  0.4676  0.2214
  608TMC3    C3 9060   0.705   2.463  11.618 -0.0885  0.4350  0.7104
  608TMC3    C4 9061   0.510   2.544  11.448  0.1564 -0.2739  0.5791
  608TMC3    C5 9062   0.635   2.592  11.445  0.7119  0.0708 -0.5012
  608TMC3    C6 9063   0.736   2.559  11.531 -0.3776  0.0784 -0.1574
  608TMC3     C 9064   0.369   2.358  11.533 -0.6683 -0.3068 -0.7650
  608TMC3     O 9065   0.305   2.358  11.424  0.0607  0.1504 -0.6729
  608TMC3     H 9066   0.583   2.299  11.671 -1.8751  0.1110 -0.5546
  608TMC3    H1 9067   0.427   2.580  11.388 -1.7120 -3.3419  1.3289
  608TMC3    H2 9068   0.830   2.612  11.529  0.9740 -2.2935 -0.2003
  608TMC3    C7 9069   0.655   2.683  11.335 -0.8789  0.5869 -0.8928
  608TMC3    C8 9070   0.794   2.453  11.728 -0.2179 -0.0582  0.1877
  608TMC3    O1 9071   0.554   2.715  11.276  0.1646  0.4324  0.0116
  608TMC3    O2 9072   0.916   2.470  11.706  0.1724  0.4116 -0.2604
  609TMC3    C1 9073   3.148   1.390   8.422  0.4950  0.5815 -0.3188
  609TMC3    C2 9074   3.095   1.333   8.311  0.2058 -0.4828 -0.4602
  609TMC3    C3 9075   3.107   1.201   8.289  0.2772 -0.0847 -0.0478
  609TMC3    C4 9076   3.224   1.309   8.503  0.5414 -0.9054 -0.7421
  609TMC3    C5 9077   3.244   1.173   8.477 -0.0065  1.2969 -0.1780
  609TMC3    C6 9078   3.176   1.120   8.372 -0.5551 -0.1308 -0.1649
  609TMC3     C 9079   3.113   1.525   8.456 -0.4980  0.7292 -0.0491
  609TMC3     O 9080   3.065   1.599   8.368  0.0146  0.2762  0.0557
  609TMC3     H 9081   3.044   1.401   8.243  1.0271 -0.0041 -0.6006
  609TMC3    H1 9082   3.262   1.345   8.598  1.6640  2.1226 -2.3195
  609TMC3    H2 9083   3.185   1.019   8.333 -0.4786  0.1558 -0.8989
  609TMC3    C7 9084   3.321   1.084   8.568 -0.1426  0.0233  0.2568
  609TMC3    C8 9085   3.065   1.153   8.159  0.7837 -0.6353  0.6050
  609TMC3    O1 9086   3.392   1.131   8.652 -0.0307  0.2077 -0.1470
  609TMC3    O2 9087   3.134   1.061   8.128 -0.0615 -0.3695  0.3519
  610TMC3    C1 9088   0.158   1.533  12.538  0.0602 -0.2696  0.2030
  610TMC3    C2 9089   0.189   1.663  12.560 -0.1273  0.1344 -0.1704
  610TMC3    C3 9090   0.326   1.683  12.547  0.0390  0.1442 -0.4834
  610TMC3    C4 9091   0.254   1.437  12.496 -0.1494  0.3448  0.3601
  610TMC3    C5 9092   0.383   1.475  12.470 -0.3793 -0.2696  0.5326
  610TMC3    C6 9093   0.428   1.597  12.508 -0.4209  0.5795  0.4900
  610TMC3     C 9094   0.037   1.472  12.590  0.7331  0.7306 -0.5687
  610TMC3     O 9095   0.054   1.366  12.647 -0.2351  0.0293  0.2315
  610TMC3     H 9096   0.124   1.728  12.618 -1.1353 -1.3945  0.4037
  610TMC3    H1 9097   0.225   1.335  12.472 -2.8521  0.9192  1.1729
  610TMC3    H2 9098   0.531   1.622  12.489 -0.0087 -1.3652  0.1933
  610TMC3    C7 9099   0.493   1.380  12.451 -0.6768 -0.2060 -0.0417
  610TMC3    C8 9100   0.369   1.825  12.565 -0.5505  0.2619 -0.2110
  610TMC3    O1 9101   0.609   1.413  12.473  0.2699 -0.7155 -0.1239
  610TMC3    O2 9102   0.297   1.910  12.517 -0.1441  0.1573  0.5673
  611MPD2     C 9103   4.251   2.330  10.686 -0.2657 -0.1199  0.8176
  611MPD2    C1 9104   4.289   2.310  10.553 -0.0512 -0.4192 -0.6871
  611MPD2    C2 9105   4.413   2.342  10.505  0.3331  0.0078 -0.2563
  611MPD2    C3 9106   4.506   2.403  10.589  0.7656 -0.1314  0.1002
  611MPD2    C4 9107   4.466   2.420  10.719  0.6770  0.6627 -0.4315
  611MPD2    C5 9108   4.346   2.390  10.770 -0.9866  0.2442  0.2769
  611MPD2     H 9109   4.438   2.330  10.400 -0.3271  0.8761 -0.5091
  611MPD2    H1 9110   4.539   2.457  10.790 -0.4581  0.5772  0.7753
  611MPD2    H2 9111   4.148   2.314  10.713 -0.1013  0.8733  2.0520
  611MPD2    H3 9112   4.318   2.411  10.872 -0.3755 -1.9961  0.8942
  611MPD2     N 9113   4.635   2.443  10.546  0.4527  0.7729 -0.0939
  611MPD2    H5 9114   4.682   2.489  10.624  0.7422 -0.3805  0.4133
  611MPD2    N1 9115   4.188   2.246  10.464  0.4262 -0.0116 -0.0284
  611MPD2    H7 9116   4.092   2.253  10.496  0.6590  0.6120  0.5266
  612TMC3    C1 9117   0.029   2.574  10.393 -0.1112  0.5633 -0.4206
  612TMC3    C2 9118   0.116   2.597  10.497 -0.4863  0.5508 -0.3495
  612TMC3    C3 9119   0.205   2.700  10.479 -0.1425  0.7045  0.7626
  612TMC3    C4 9120   0.038   2.648  10.277 -0.3189  0.0080  0.6482
  612TMC3    C5 9121   0.118   2.759  10.267 -0.4234 -0.1661  0.1944
  612TMC3    C6 9122   0.194   2.792  10.371 -0.2182 -0.2583 -0.6817
  612TMC3     C 9123   4.670   2.464  10.412 -0.1024  0.1983 -0.1081
  612TMC3     O 9124   4.619   2.428  10.307 -0.1617  0.9108  0.3111
  612TMC3     H 9125   0.125   2.526  10.579 -3.2322  0.6451  0.0463
  612TMC3    H1 9126   4.711   2.631  10.193  1.3857 -0.8952 -0.5201
  612TMC3    H2 9127   0.266   2.873  10.362 -0.3765  0.0284  0.5534
  612TMC3    C7 9128   0.082   2.867  10.171  1.0375  0.3333  0.1843
  612TMC3    C8 9129   0.325   2.710  10.551  0.2270 -0.4690  0.0846
  612TMC3    O1 9130   0.019   2.832  10.072  0.1710 -0.7392 -0.0286
  612TMC3    O2 9131   0.408   2.793  10.519  0.4851  0.3549  0.0547
  613MPD2     C 9132   3.643   3.947  16.994  0.2094  0.3309  0.1886
  613MPD2    C1 9133   3.559   4.009  16.905 -0.9384 -0.1868 -0.3724
  613MPD2    C2 9134   3.430   3.963  16.896  0.5624  0.1359  0.3308
  613MPD2    C3 9135   3.393   3.844  16.943 -0.0425  0.3220  0.0865
  613MPD2    C4 9136   3.476   3.783  17.028 -0.2412 -0.9001 -0.2061
  613MPD2    C5 9137   3.600   3.834  17.065 -0.0171 -0.0496 -0.3353
  613MPD2     H 9138   3.370   4.017  16.823 -1.0627 -1.3577  0.5465
  613MPD2    H1 9139   3.445   3.686  17.065 -2.1851  0.3868  1.5083
  613MPD2    H2 9140   3.744   3.980  17.014  0.0048  0.3119  1.2471
  613MPD2    H3 9141   3.651   3.778  17.143  0.0859 -0.9213 -1.0234
  613MPD2     N 9142   3.291   3.770  16.887  0.8289  0.0274  0.0677
  613MPD2    H5 9143   3.274   3.672  16.909  2.6420 -0.1088  0.8410
  613MPD2    N1 9144   3.606   4.109  16.824  0.1025 -0.1661 -0.0753
  613MPD2    H7 9145   3.704   4.098  16.801  1.0939  2.3036  2.8893
  614TMC3    C1 9146   3.556   4.234  16.640  0.1171 -0.2751  0.0225
  614TMC3    C2 9147   3.557   4.120  16.572  0.2341 -0.4079 -0.4236
  614TMC3    C3 9148   3.520   4.119  16.447  0.3300  0.3605  0.1535
  614TMC3    C4 9149   3.497   4.348  16.593 -0.0242  0.4834 -0.1329
  614TMC3    C5 9150   3.452   4.337  16.466  0.3355  0.7574 -1.4908
  614TMC3    C6 9151   3.466   4.227  16.382 -0.0172  0.1931  0.4004
  614TMC3     C 9152   3.532   4.213  16.775  0.4957 -0.1871 -0.3396
  614TMC3     O 9153   3.433   4.268  16.821 -0.4236 -0.1317  0.0112
  614TMC3     H 9154   3.578   4.022  16.615 -0.0385 -0.9952 -1.6298
  614TMC3    H1 9155   3.473   4.426  16.664  1.0119  0.2112  0.5163
  614TMC3    H2 9156   3.412   4.208  16.289  0.1330 -1.2536  0.6019
  614TMC3    C7 9157   3.373   4.452  16.416  0.1930 -0.0554  0.1224
  614TMC3    C8 9158   3.443   4.001  16.413 -0.4324  0.2373  0.2648
  614TMC3    O1 9159   3.351   4.542  16.498  0.6826 -0.0243 -0.1320
  614TMC3    O2 9160   3.394   3.943  16.508 -0.0646 -0.3634  0.2840
  615MPD2     C 9161   3.090   0.532  16.105  0.7780 -0.7478  0.1442
  615MPD2    C1 9162   3.034   0.656  16.125 -0.9208 -1.3113  0.4799
  615MPD2    C2 9163   2.948   0.714  16.034  0.0551  0.2140  0.2399
  615MPD2    C3 9164   2.923   0.654  15.913 -0.3055 -0.1452  0.1853
  615MPD2    C4 9165   2.997   0.536  15.890 -1.2438 -0.6707  0.4326
  615MPD2    C5 9166   3.072   0.474  15.985 -0.7143 -1.2065  0.4575
  615MPD2     H 9167   2.910   0.815  16.049  0.2656  0.1159  1.3985
  615MPD2    H1 9168   2.997   0.486  15.794  1.6592 -0.2364  0.2067
  615MPD2    H2 9169   3.161   0.479  16.166  1.3305 -1.3277 -0.9941
  615MPD2    H3 9170   3.111   0.375  15.966 -0.2952 -0.8981 -0.2752
  615MPD2     N 9171   2.849   0.720  15.805 -0.0817 -0.4183  0.4542
  615MPD2    H5 9172   2.863   0.678  15.714  1.8371 -0.2598  0.6612
  615MPD2    N1 9173   3.063   0.732  16.239 -0.3887  0.0833  0.3591
  615MPD2    H7 9174   3.025   0.826  16.249  0.0363  0.3109 -0.1736
  616TMC3    C1 9175   3.190   0.806  16.431  0.3926  0.3208  0.8488
  616TMC3    C2 9176   3.216   0.931  16.375  0.0087  0.1533 -0.2862
  616TMC3    C3 9177   3.301   1.018  16.440 -0.3535 -0.1447  0.1155
  616TMC3    C4 9178   3.242   0.770  16.556  0.1556 -0.2525  0.5568
  616TMC3    C5 9179   3.315   0.869  16.620  0.4277  0.5310  0.9849
  616TMC3    C6 9180   3.340   0.998  16.570  0.1414 -0.0066 -0.0827
  616TMC3     C 9181   3.147   0.693  16.343 -0.1732 -0.7759  0.3759
  616TMC3     O 9182   3.192   0.581  16.367 -0.2837  0.1071 -0.3268
  616TMC3     H 9183   3.197   0.949  16.270  0.0710 -0.3750 -0.3870
  616TMC3    H1 9184   3.210   0.681  16.608  1.7415 -0.6410  0.8752
  616TMC3    H2 9185   3.385   1.072  16.634 -0.7616 -0.2517  0.8390
  616TMC3    C7 9186   3.365   0.842  16.746  0.5529 -0.6652  0.2665
  616TMC3    C8 9187   3.310   1.151  16.378 -0.0798 -0.8715  0.0920
  616TMC3    O1 9188   3.298   0.775  16.816  0.5798 -0.4290 -0.2844
  616TMC3    O2 9189   3.225   1.183  16.297 -0.5470  0.7781 -0.5421
  617MPD2     C 9190   1.215   3.545  13.504 -0.4146 -0.2033  0.1384
  617MPD2    C1 9191   1.193   3.561  13.641 -0.4093 -0.1105  0.5287
  617MPD2    C2 9192   1.070   3.520  13.696  0.2656 -0.3009 -0.3755
  617MPD2    C3 9193   0.976   3.451  13.622 -0.0836 -0.2672 -0.4802
  617MPD2    C4 9194   0.999   3.426  13.495  0.0218 -0.0486 -0.0810
  617MPD2    C5 9195   1.116   3.478  13.434  0.3420 -0.5252  0.3674
  617MPD2     H 9196   1.056   3.532  13.802  0.7536 -2.0214 -0.1256
  617MPD2    H1 9197   0.929   3.373  13.432 -0.0306 -0.3875  0.2623
  617MPD2    H2 9198   1.309   3.581  13.464 -0.5814  1.2297  1.0362
  617MPD2    H3 9199   1.126   3.458  13.328 -2.9686  0.5952 -0.1491
  617MPD2     N 9200   0.871   3.381  13.670  0.0403 -0.0173 -0.6360
  617MPD2    H5 9201   0.798   3.356  13.604 -0.5555 -1.0945  0.4214
  617MPD2    N1 9202   1.304   3.615  13.722  0.5492  0.3589 -0.6026
  617MPD2    H7 9203   1.393   3.640  13.679  0.7006 -0.8670 -1.0131
  618TMC3    C1 9204   1.429   3.656  13.903  0.6179  0.0509  0.4477
  618TMC3    C2 9205   1.467   3.574  14.005 -0.0368 -0.4852 -0.5902
  618TMC3    C3 9206   1.586   3.516  13.989  0.5589 -1.0607  0.9352
  618TMC3    C4 9207   1.512   3.711  13.807  0.9137 -0.4098  0.3036
  618TMC3    C5 9208   1.634   3.650  13.794 -0.6046  0.3101  0.0172
  618TMC3    C6 9209   1.667   3.545  13.882  0.4763  0.0404  0.0888
  618TMC3     C 9210   1.296   3.631  13.860  0.4410 -0.0310 -0.5213
  618TMC3     O 9211   1.217   3.583  13.938 -0.5003  0.9143  0.3315
  618TMC3     H 9212   1.404   3.552  14.091  0.9782  1.9048  0.7781
  618TMC3    H1 9213   1.475   3.779  13.731  0.2926 -0.5805  0.4481
  618TMC3    H2 9214   1.761   3.494  13.864  0.8486  0.8153 -0.1554
  618TMC3    C7 9215   1.668   3.620  13.660 -0.2050 -0.7674 -0.4901
  618TMC3    C8 9216   1.605   3.393  14.056  0.4383 -0.0852  0.3058
  618TMC3    O1 9217   1.578   3.648  13.581 -0.8476  0.0418 -0.1070
  618TMC3    O2 9218   1.553   3.388  14.165 -0.4048  0.3326  0.3061
  619MPD2     C 9219   2.597   0.248  13.703 -0.3722 -0.1051 -0.4934
  619MPD2    C1 9220   2.535   0.335  13.621 -0.5218  0.0819 -0.0830
  619MPD2    C2 9221   2.401   0.318  13.588  0.0243  0.5504 -0.2733
  619MPD2    C3 9222   2.318   0.222  13.659 -0.2636 -0.4354 -0.1583
  619MPD2    C4 9223   2.382   0.145  13.751  0.2626  0.5014  0.5390
  619MPD2    C5 9224   2.517   0.154  13.772 -0.3371  0.4134 -0.3655
  619MPD2     H 9225   2.359   0.387  13.517  1.9862  2.2461  0.2178
  619MPD2    H1 9226   2.335   0.066  13.808 -1.7786  0.1260 -1.6528
  619MPD2    H2 9227   2.704   0.253  13.724 -0.5275 -1.4115  0.6009
  619MPD2    H3 9228   2.559   0.102  13.857  0.8743  1.6887 -0.2003
  619MPD2     N 9229   2.174   0.207  13.655 -0.2814 -0.1679 -0.7573
  619MPD2    H5 9230   2.131   0.151  13.729  1.1169  1.1131  1.0019
  619MPD2    N1 9231   2.604   0.452  13.566  0.6324 -0.2233  0.1806
  619MPD2    H7 9232   2.553   0.502  13.494 -2.2434  0.0169  2.3827
  620TMC3    C1 9233   2.746   0.633  13.531 -1.0942 -0.7721  0.0161
  620TMC3    C2 9234   2.753   0.637  13.395  0.2512  0.0569 -0.1719
  620TMC3    C3 9235   2.738   0.759  13.335  0.1316 -0.4539  1.0782
  620TMC3    C4 9236   2.721   0.747  13.603  0.1552 -0.3870  0.2096
  620TMC3    C5 9237   2.704   0.866  13.534  0.4866  0.9194  0.2430
  620TMC3    C6 9238   2.722   0.871  13.404 -0.0505  0.6173  0.4109
  620TMC3     C 9239   2.723   0.502  13.600 -0.0479  0.1548 -0.0068
  620TMC3     O 9240   2.780   0.486  13.705  0.0564  1.0756 -0.3179
  620TMC3     H 9241   2.771   0.545  13.340  4.7043  0.5800  0.3645
  620TMC3    H1 9242   2.681   0.733  13.703  0.5007  0.6581  0.4959
  620TMC3    H2 9243   2.693   0.960  13.350 -2.1766 -0.7360 -0.6694
  620TMC3    C7 9244   2.588   0.945  13.573  0.3292 -0.8714  0.4587
  620TMC3    C8 9245   2.648   0.735  13.230  0.1282  0.3400 -0.5889
  620TMC3    O1 9246   2.516   0.973  13.477  0.4632  0.3444  0.2305
  620TMC3    O2 9247   2.667   0.637  13.156  0.2588 -0.5353  0.3876
  621MPD2     C 9248   2.884   1.181   9.221 -0.7649 -0.5303 -0.0958
  621MPD2    C1 9249   3.004   1.119   9.262  0.7912  0.4292 -0.0822
  621MPD2    C2 9250   3.127   1.185   9.233 -0.5241  0.0399  0.3806
  621MPD2    C3 9251   3.131   1.315   9.182 -0.4067 -0.8686  0.3890
  621MPD2    C4 9252   3.012   1.362   9.135 -0.7579  0.2057  0.1147
  621MPD2    C5 9253   2.897   1.298   9.154  0.4657  0.5205 -0.4189
  621MPD2     H 9254   3.218   1.144   9.274  1.3770  2.2369 -1.6235
  621MPD2    H1 9255   3.006   1.452   9.075  3.5812  0.4440  0.0669
  621MPD2    H2 9256   2.788   1.131   9.220 -1.3581  0.5780  1.6301
  621MPD2    H3 9257   2.803   1.339   9.119 -0.0564 -0.7791 -0.5472
  621MPD2     N 9258   3.257   1.384   9.190 -0.6696  0.0231 -0.1947
  621MPD2    H5 9259   3.333   1.325   9.222 -0.7505 -0.7025 -1.3518
  621MPD2    N1 9260   3.006   0.984   9.321 -0.1376  0.0339 -0.4471
  621MPD2    H7 9261   3.097   0.944   9.344 -0.4791 -0.9219 -0.7315
  622TMC3    C1 9262   2.920   0.789   9.421 -0.9594  0.2771 -0.9431
  622TMC3    C2 9263   2.835   0.762   9.527  0.0520 -0.1173 -0.0048
  622TMC3    C3 9264   2.863   0.642   9.588 -0.0799  0.1776 -0.2129
  622TMC3    C4 9265   3.017   0.703   9.385  1.0490 -0.5162 -0.0418
  622TMC3    C5 9266   3.044   0.591   9.452 -0.7854 -0.0106 -0.1599
  622TMC3    C6 9267   2.956   0.555   9.546 -0.2542  0.0748  0.5079
  622TMC3     C 9268   2.891   0.917   9.355 -0.0050  0.1772  1.2260
  622TMC3     O 9269   2.776   0.959   9.368 -0.0830  0.4250  0.0110
  622TMC3     H 9270   2.762   0.837   9.555  0.8850  0.0730  1.6415
  622TMC3    H1 9271   3.076   0.718   9.295  1.9249  0.6663  0.7316
  622TMC3    H2 9272   2.984   0.461   9.591  0.8321 -0.3401 -1.0245
  622TMC3    C7 9273   3.117   0.500   9.380  0.5700 -0.6975  0.2018
  622TMC3    C8 9274   2.783   0.592   9.700  0.0526  0.0582  0.3037
  622TMC3    O1 9275   3.226   0.539   9.345  0.1675 -0.4756 -0.2251
  622TMC3    O2 9276   2.819   0.495   9.761 -0.3025  0.3648  0.4104
  623MPD2     C 9277   1.699   1.256  16.004  0.3387 -0.4404  0.2770
  623MPD2    C1 9278   1.663   1.155  16.091 -0.1553 -0.3124 -0.7474
  623MPD2    C2 9279   1.745   1.128  16.195  0.0872  0.6164 -0.1431
  623MPD2    C3 9280   1.862   1.207  16.213  0.0099 -0.5849  0.5360
  623MPD2    C4 9281   1.889   1.315  16.136  0.3515 -0.0074  0.1383
  623MPD2    C5 9282   1.807   1.333  16.030 -0.1762  0.4286  0.2146
  623MPD2     H 9283   1.723   1.063  16.279  3.8485  0.2507  0.5472
  623MPD2    H1 9284   1.979   1.376  16.136  1.5685 -1.7697  1.8930
  623MPD2    H2 9285   1.628   1.275  15.925 -0.1128 -1.3242  0.4738
  623MPD2    H3 9286   1.825   1.413  15.958 -1.7326 -0.3978 -1.1001
  623MPD2     N 9287   1.941   1.151  16.319 -0.6047 -0.0869 -0.6423
  623MPD2    H5 9288   1.901   1.068  16.362  1.4434 -0.5691  0.3188
  623MPD2    N1 9289   1.528   1.112  16.081  0.4223  0.6749 -0.1260
  623MPD2    H7 9290   1.471   1.163  16.014 -1.9016 -0.4400  0.9948
  624TMC3    C1 9291   2.195   0.930  16.588 -0.7283  0.1775 -0.3589
  624TMC3    C2 9292   2.077   0.883  16.643  0.5491  0.4229 -0.3855
  624TMC3    C3 9293   1.975   0.973  16.645 -0.3304  0.0207 -0.1987
  624TMC3    C4 9294   2.202   1.049  16.521  0.2608 -0.7785 -0.1388
  624TMC3    C5 9295   2.085   1.121  16.501  0.1033 -0.1584 -0.9694
  624TMC3    C6 9296   1.971   1.086  16.568  0.7273  0.2580 -0.0080
  624TMC3     C 9297   2.322   0.857  16.610  0.0268  0.6441  0.3785
  624TMC3     O 9298   2.426   0.920  16.589  0.5420 -0.4906 -0.1986
  624TMC3     H 9299   2.071   0.794  16.705  0.5822  0.2763 -0.5951
  624TMC3    H1 9300   2.295   1.079  16.475 -0.2570 -3.2611 -2.8151
  624TMC3    H2 9301   1.877   1.136  16.551  1.2779  1.3256  0.0636
  624TMC3    C7 9302   2.061   1.192  16.370  0.3556  0.3953 -0.0148
  624TMC3    C8 9303   1.843   0.921  16.671  1.1173 -0.0881 -0.7825
  624TMC3    O1 9304   2.143   1.277  16.335  0.1417 -0.5270 -0.0878
  624TMC3    O2 9305   1.824   0.801  16.652  0.1564  0.0569 -0.3318
  625MPD2     C 9306   2.173   2.417   1.000 -0.2952 -0.4251 -0.3585
  625MPD2    C1 9307   2.232   2.535   0.979  0.9119 -0.2748 -0.3822
  625MPD2    C2 9308   2.368   2.540   0.985  0.0239 -0.2025  0.0969
  625MPD2    C3 9309   2.449   2.430   1.015 -0.3539 -0.5885  0.5297
  625MPD2    C4 9310   2.379   2.317   1.044 -0.2396 -0.1840 -0.3720
  625MPD2    C5 9311   2.245   2.304   1.033 -0.3561  0.1265 -0.5289
  625MPD2     H 9312   2.417   2.634   0.962  0.4240 -0.3214  0.4583
  625MPD2    H1 9313   2.435   2.227   1.069 -1.0814 -0.5956  0.0346
  625MPD2    H2 9314   2.066   2.397   0.994 -0.2621 -1.4475  2.5026
  625MPD2    H3 9315   2.198   2.209   1.056 -3.5191  1.6326 -0.7653
  625MPD2     N 9316   2.587   2.437   1.002 -0.1176  0.1193  0.0161
  625MPD2    H5 9317   2.626   2.528   0.979  1.8890 -0.7672 -0.1511
  625MPD2    N1 9318   2.170   2.652   0.951  0.6509 -0.0212 -0.1049
  625MPD2    H7 9319   2.223   2.738   0.955 -4.2634  2.9820  0.7864
  626TMC3    C1 9320   2.015   2.802   0.887 -0.0940  0.3031  0.3132
  626TMC3    C2 9321   1.944   2.816   0.774  0.4653  0.1178 -0.0428
  626TMC3    C3 9322   1.889   2.932   0.748  0.1170  0.1210  0.5616
  626TMC3    C4 9323   2.022   2.902   0.983 -0.2212  0.2540  0.0293
  626TMC3    C5 9324   1.964   3.025   0.952  0.2815 -0.0820 -0.3222
  626TMC3    C6 9325   1.897   3.044   0.830 -0.0090 -0.3424  0.4147
  626TMC3     C 9326   2.036   2.661   0.917 -0.8772 -0.5831 -0.1166
  626TMC3     O 9327   1.955   2.575   0.882 -0.3634  0.3568  0.3939
  626TMC3     H 9328   1.917   2.734   0.708  0.8265 -0.3922  0.4457
  626TMC3    H1 9329   2.087   2.895   1.069 -0.5707 -0.8339  0.2005
  626TMC3    H2 9330   1.865   3.141   0.797  0.9000 -0.4765 -0.8322
  626TMC3    C7 9331   1.908   3.104   1.063  0.2394  0.3771  0.2330
  626TMC3    C8 9332   1.814   2.935   0.625 -0.6421  0.6308  0.4840
  626TMC3    O1 9333   1.971   3.100   1.171 -0.5785  0.3778 -0.3278
  626TMC3    O2 9334   1.854   2.867   0.530 -0.3351 -0.7357 -0.3485
  627MPD2     C 9335   0.940   2.338  14.547  0.0446  0.2136  0.2168
  627MPD2    C1 9336   0.881   2.368  14.669 -0.3733 -0.7873 -0.9982
  627MPD2    C2 9337   0.777   2.294  14.709  0.2022  0.3573  0.2530
  627MPD2    C3 9338   0.720   2.188  14.640  0.1373 -0.1386  0.0532
  627MPD2    C4 9339   0.781   2.158  14.519  0.6497 -0.2384  0.0168
  627MPD2    C5 9340   0.888   2.234  14.473 -0.1482  0.4725 -0.3390
  627MPD2     H 9341   0.739   2.319  14.808  0.3468 -0.6020  0.5508
  627MPD2    H1 9342   0.741   2.090  14.444  1.4184 -1.0378  0.3308
  627MPD2    H2 9343   1.025   2.392  14.507  1.5544 -0.0833  2.9941
  627MPD2    H3 9344   0.936   2.205  14.380  1.9227 -0.9289  1.1672
  627MPD2     N 9345   0.604   2.120  14.690 -0.0482  0.3813 -0.4631
  627MPD2    H5 9346   0.566   2.153  14.778  0.8879  1.5681 -0.5005
  627MPD2    N1 9347   0.928   2.480  14.754  0.1482 -0.5957 -0.6344
  627MPD2    H7 9348   0.890   2.480  14.848  3.1418 -1.4401  0.5892
  628TMC3    C1 9349   0.990   2.703  14.786  0.3446  0.0679 -0.2529
  628TMC3    C2 9350   1.092   2.691  14.878  0.2172  0.2929 -0.3903
  628TMC3    C3 9351   1.142   2.802  14.939 -0.0757  0.0048  0.5771
  628TMC3    C4 9352   0.938   2.823  14.744  1.0064 -0.3537 -0.5365
  628TMC3    C5 9353   0.989   2.928  14.816  0.7981 -1.0791 -0.0241
  628TMC3    C6 9354   1.096   2.928  14.901  0.6972 -0.1760  0.2381
  628TMC3     C 9355   0.987   2.589  14.697  0.6521 -0.5862  0.2439
  628TMC3     O 9356   1.003   2.609  14.579 -0.2264  0.1368 -0.3198
  628TMC3     H 9357   1.135   2.594  14.900  0.6988  0.2894 -1.3495
  628TMC3    H1 9358   0.867   2.827  14.662  0.6979 -1.2421 -0.3150
  628TMC3    H2 9359   1.152   3.019  14.923 -0.1943  0.3718  0.2501
  628TMC3    C7 9360   0.958   3.066  14.770  0.7460  0.3829 -0.0642
  628TMC3    C8 9361   1.259   2.806  15.026 -0.2669  0.4455 -0.0757
  628TMC3    O1 9362   1.003   3.161  14.833 -0.7826  0.3154 -0.1777
  628TMC3    O2 9363   1.291   2.916  15.072  0.4232  0.1245 -0.5350
  629MPD2     C 9364   3.579   1.585  16.300  0.2016 -0.2787 -0.1712
  629MPD2    C1 9365   3.663   1.497  16.362  0.1385  0.7181 -0.8995
  629MPD2    C2 9366   3.608   1.379  16.401 -0.0765  0.5051  0.3072
  629MPD2    C3 9367   3.471   1.347  16.378 -0.3798 -0.4806 -0.8053
  629MPD2    C4 9368   3.393   1.436  16.309 -0.9305 -0.1966  0.1628
  629MPD2    C5 9369   3.448   1.557  16.273 -0.4065  0.2431 -0.2943
  629MPD2     H 9370   3.674   1.302  16.440  0.5977  1.2535  0.6571
  629MPD2    H1 9371   3.288   1.416  16.290 -0.6983 -2.1905  1.0366
  629MPD2    H2 9372   3.603   1.687  16.273  1.4811  0.3488  3.3834
  629MPD2    H3 9373   3.380   1.630  16.233 -0.2248  0.3943 -0.3284
  629MPD2     N 9374   3.423   1.218  16.421 -0.4336  0.4970  0.6456
  629MPD2    H5 9375   3.487   1.160  16.475 -0.7048 -1.4676 -1.1167
  629MPD2    N1 9376   3.796   1.539  16.396  0.2877 -0.1634 -0.8331
  629MPD2    H7 9377   3.818   1.637  16.380 -1.2636  0.5132  1.2805
  630TMC3    C1 9378   4.022   1.515  16.483 -0.6998 -0.2141  0.1459
  630TMC3    C2 9379   4.066   1.614  16.395 -0.6485  0.5257 -0.3586
  630TMC3    C3 9380   4.197   1.637  16.399 -0.7626 -0.1795  0.5055
  630TMC3    C4 9381   4.107   1.441  16.566 -0.9989  0.0224 -0.1290
  630TMC3    C5 9382   4.242   1.464  16.559 -0.6484 -0.4118 -0.4958
  630TMC3    C6 9383   4.289   1.560  16.475 -0.8119  0.3040 -0.1844
  630TMC3     C 9384   3.890   1.463  16.461 -0.4395  0.6175  0.3675
  630TMC3     O 9385   3.887   1.351  16.509 -0.6939 -0.2816  0.0773
  630TMC3     H 9386   4.005   1.643  16.311  0.1355  2.8471 -0.1211
  630TMC3    H1 9387   4.073   1.388  16.654  1.1388 -1.2267 -0.0824
  630TMC3    H2 9388   4.392   1.575  16.444 -0.4961  0.9426  1.1757
  630TMC3    C7 9389   4.308   1.430  16.686 -0.2607 -0.1949 -0.2975
  630TMC3    C8 9390   4.241   1.765  16.345 -0.7266  0.4892  0.0645
  630TMC3    O1 9391   4.280   1.324  16.741 -0.4497  0.3467 -0.3854
  630TMC3    O2 9392   4.354   1.770  16.303  0.0247  0.4682 -0.5841
  631MPD2     C 9393   2.044   1.434  15.567  0.0627 -0.2682  0.2098
  631MPD2    C1 9394   2.174   1.466  15.530  1.0583 -0.7714 -0.8679
  631MPD2    C2 9395   2.280   1.379  15.542 -0.1744 -0.2543  0.2577
  631MPD2    C3 9396   2.260   1.246  15.582 -0.8852  0.2740  0.6582
  631MPD2    C4 9397   2.134   1.212  15.624 -0.0983  1.1187 -0.3470
  631MPD2    C5 9398   2.027   1.306  15.614 -0.3276  0.0404  0.4597
  631MPD2     H 9399   2.378   1.397  15.499 -0.3403  4.2993  1.8780
  631MPD2    H1 9400   2.110   1.117  15.670  1.1400  1.1634  0.3688
  631MPD2    H2 9401   1.953   1.493  15.558  0.0356 -0.4347 -0.6191
  631MPD2    H3 9402   1.929   1.281  15.652  0.1507 -1.4072  0.7404
  631MPD2     N 9403   2.372   1.163  15.602  0.2583  0.1775  0.4073
  631MPD2    H5 9404   2.463   1.199  15.573 -0.0505 -2.5390 -3.9581
  631MPD2    N1 9405   2.182   1.601  15.483 -0.2555 -0.7091  0.1156
  631MPD2    H7 9406   2.097   1.656  15.473  0.0657 -0.1768  0.2948
  632TMC3    C1 9407   2.243   1.776  15.340 -0.3801 -0.2617  0.0768
  632TMC3    C2 9408   2.115   1.813  15.367 -0.1441  0.7008  0.3447
  632TMC3    C3 9409   2.007   1.784  15.283  0.1755  0.5995  0.5542
  632TMC3    C4 9410   2.268   1.746  15.213  0.6645 -0.0554 -0.5344
  632TMC3    C5 9411   2.168   1.746  15.119  0.0710  0.0867 -0.1065
  632TMC3    C6 9412   2.039   1.752  15.151 -0.0138  0.3241  0.7402
  632TMC3     C 9413   2.288   1.661  15.418  0.6521  0.7598 -0.1830
  632TMC3     O 9414   2.396   1.611  15.390 -0.1355 -0.2371 -0.3356
  632TMC3     H 9415   2.098   1.842  15.470 -1.2974 -1.0613  0.6630
  632TMC3    H1 9416   2.367   1.712  15.186  0.3121  0.9236 -3.0164
  632TMC3    H2 9417   1.964   1.745  15.073  0.8119 -0.3356 -0.0007
  632TMC3    C7 9418   2.202   1.712  14.979 -0.3678 -0.2432 -0.0060
  632TMC3    C8 9419   1.882   1.742  15.346 -0.0845  0.1035  0.2832
  632TMC3    O1 9420   2.150   1.779  14.893  0.4164  0.0456 -0.1527
  632TMC3    O2 9421   1.867   1.772  15.463  0.2434  0.4764 -0.5673
  633MPD2     C 9422   1.807   4.110  17.298  0.3932  0.0803  0.3265
  633MPD2    C1 9423   1.768   4.042  17.182  0.1833  0.1349 -0.2180
  633MPD2    C2 9424   1.718   3.917  17.188  0.0520 -0.2585 -0.2134
  633MPD2    C3 9425   1.707   3.853  17.313  0.3204  0.3123 -0.6099
  633MPD2    C4 9426   1.749   3.914  17.430 -0.5977 -0.4519  0.0690
  633MPD2    C5 9427   1.799   4.040  17.420 -0.1247 -0.3682  0.4016
  633MPD2     H 9428   1.687   3.875  17.093  1.5292 -1.2531 -0.2577
  633MPD2    H1 9429   1.728   3.868  17.526 -0.1728 -2.3092 -0.7372
  633MPD2    H2 9430   1.854   4.208  17.293  1.3977 -0.5038 -1.4014
  633MPD2    H3 9431   1.827   4.093  17.511 -0.6114 -1.6684  1.3233
  633MPD2     N 9432   1.649   3.721  17.320  0.4613  0.2339 -0.5560
  633MPD2    H5 9433   1.640   3.690  17.416 -2.1894 -0.3233 -1.0082
  633MPD2    N1 9434   1.776   4.097  17.049 -0.1399  0.0901  0.1207
  633MPD2    H7 9435   1.778   4.033  16.971 -1.4802  0.2738 -0.0680
  634TMC3    C1 9436   1.821   4.244  16.875 -0.0475  0.2293  0.0178
  634TMC3    C2 9437   1.847   4.132  16.800  0.4589  0.6048  0.2351
  634TMC3    C3 9438   1.826   4.149  16.664  0.4912 -0.2384 -0.0214
  634TMC3    C4 9439   1.788   4.365  16.823  0.6031 -0.2149  0.2450
  634TMC3    C5 9440   1.761   4.365  16.688 -0.8576 -0.5445 -0.1909
  634TMC3    C6 9441   1.773   4.260  16.611  0.4035  0.8960 -0.2885
  634TMC3     C 9442   1.802   4.229  17.017 -0.4802  0.5239  0.1426
  634TMC3     O 9443   1.803   4.326  17.093  0.1746  0.1880 -0.2093
  634TMC3     H 9444   1.913   4.052  16.831 -2.0775 -1.4129  0.4262
  634TMC3    H1 9445   1.779   4.448  16.892  0.5680 -0.6978  0.8233
  634TMC3    H2 9446   1.737   4.262  16.509  0.3539  3.1662 -0.2238
  634TMC3    C7 9447   1.711   4.484  16.615  1.1208 -0.2831  0.5466
  634TMC3    C8 9448   1.845   4.019  16.583 -0.8118  0.5047 -0.3907
  634TMC3    O1 9449   1.716   4.478  16.492 -0.8390 -0.1738 -0.8473
  634TMC3    O2 9450   1.848   3.914  16.646 -0.4165 -0.0295 -0.0967
  635TMC3    C1 9451   1.954   0.287   0.283  0.1254  0.7061  0.2998
  635TMC3    C2 9452   1.912   0.239   0.164  0.1360 -0.1691  0.2108
  635TMC3    C3 9453   1.840   0.124   0.173 -0.2660 -0.4126 -0.2693
  635TMC3    C4 9454   1.912   0.239   0.408  1.3122 -0.0016 -0.4486
  635TMC3    C5 9455   1.840   0.119   0.405 -0.6963  0.5777  0.3594
  635TMC3    C6 9456   1.805   0.055   0.286 -0.3838  0.4002  0.3149
  635TMC3     C 9457   2.023   0.415   0.290 -0.2777  1.0187  0.1537
  635TMC3     O 9458   2.085   0.436   0.393  0.0259 -0.3033 -0.0148
  635TMC3     H 9459   1.956   0.265   0.069 -0.9166 -0.6261 -0.4011
  635TMC3    H1 9460   1.965   0.266   0.498 -1.2607  0.4461  0.9253
  635TMC3    H2 9461   1.729   4.719   0.266  0.5185 -0.0095 -1.6013
  635TMC3    C7 9462   1.779   0.082   0.527  0.2347  0.5564 -0.6349
  635TMC3    C8 9463   1.842   0.046   0.054 -0.2332 -0.4187  0.1373
  635TMC3    O1 9464   1.782   0.159   0.622  0.7379  0.4472  0.9887
  635TMC3    O2 9465   1.846   0.112  17.706 -0.0792  0.0217 -0.2755
  636MPD2     C 9466   2.945   4.328  16.202  0.4442 -0.6434 -0.1954
  636MPD2    C1 9467   2.937   4.335  16.336  0.6735  0.5047 -0.0277
  636MPD2    C2 9468   2.952   4.223  16.415 -0.5530  0.1889  0.3183
  636MPD2    C3 9469   2.969   4.100  16.362  0.5314 -0.3138  0.6553
  636MPD2    C4 9470   2.961   4.092  16.226  0.3134 -0.2311 -0.6115
  636MPD2    C5 9471   2.938   4.202  16.149  0.0444 -0.1061 -0.5750
  636MPD2     H 9472   2.966   4.233  16.522 -0.6205 -0.9583  0.4346
  636MPD2    H1 9473   2.970   3.995  16.178  1.9425 -0.3839  0.0047
  636MPD2    H2 9474   2.930   4.410  16.132  3.0577  1.7405  2.0160
  636MPD2    H3 9475   2.912   4.184  16.046  0.6278 -0.4225 -0.6715
  636MPD2     N 9476   3.003   3.989  16.449  0.1270 -0.0411 -0.1063
  636MPD2    H5 9477   3.026   4.007  16.546  0.4863  1.8269 -0.5379
  636MPD2    N1 9478   2.925   4.462  16.398  0.5980 -0.4016 -0.0917
  636MPD2    H7 9479   2.947   4.467  16.498  0.2423 -0.9710  0.0145
  637TMC3    C1 9480   3.056   3.754  16.497  0.4561 -0.0480 -0.2456
  637TMC3    C2 9481   3.062   3.788  16.627  0.3495  0.3790 -0.2248
  637TMC3    C3 9482   3.145   3.731  16.714  0.2898 -0.3083 -0.5276
  637TMC3    C4 9483   3.130   3.642  16.446  0.3997  0.3134 -0.3354
  637TMC3    C5 9484   3.221   3.589  16.531  0.6292  0.3066  0.7323
  637TMC3    C6 9485   3.220   3.623  16.665  0.6054  0.6123 -0.6181
  637TMC3     C 9486   3.026   3.861  16.396  0.7710  0.0176 -0.4084
  637TMC3     O 9487   3.031   3.817  16.281  0.1016 -0.0866  0.1355
  637TMC3     H 9488   2.983   3.851  16.666  1.2885  0.1000  2.1218
  637TMC3    H1 9489   3.141   3.627  16.339  1.2705  1.3168 -0.3887
  637TMC3    H2 9490   3.299   3.582  16.726 -0.2490  0.4153  0.3461
  637TMC3    C7 9491   3.316   3.489  16.488 -0.5070 -0.1412 -1.0766
  637TMC3    C8 9492   3.196   3.828  16.805 -0.3062  0.2372 -0.9975
  637TMC3    O1 9493   3.326   3.399  16.565  0.4621  0.3289 -0.2641
  637TMC3    O2 9494   3.166   3.947  16.786 -0.6862 -0.2465  0.7341
  638MPD2     C 9495   3.225   2.622  14.319 -0.5442 -0.3331 -0.7731
  638MPD2    C1 9496   3.198   2.486  14.346 -0.4458 -0.6632 -0.6574
  638MPD2    C2 9497   3.075   2.444  14.374 -0.2048  0.6068 -0.6612
  638MPD2    C3 9498   2.973   2.535  14.369  0.0488  0.6393 -0.0933
  638MPD2    C4 9499   2.999   2.669  14.337 -0.7374 -0.3812 -0.9067
  638MPD2    C5 9500   3.124   2.716  14.308 -0.0232  0.0970  0.0093
  638MPD2     H 9501   3.055   2.341  14.399 -1.2050  1.2900  1.3589
  638MPD2    H1 9502   2.926   2.749  14.337 -1.5768 -1.1395  0.1860
  638MPD2    H2 9503   3.324   2.661  14.302 -0.2494  1.3174  4.6798
  638MPD2    H3 9504   3.151   2.820  14.301  0.7517 -0.1034 -0.0255
  638MPD2     N 9505   2.841   2.492  14.394 -0.0029  0.0836 -0.0572
  638MPD2    H5 9506   2.833   2.403  14.443 -2.1608  0.4007  0.1612
  638MPD2    N1 9507   3.313   2.395  14.337 -0.6250 -0.5373 -0.2152
  638MPD2    H7 9508   3.401   2.434  14.304 -0.2938 -0.8804  0.2674
  639TMC3    C1 9509   2.609   2.516  14.446 -0.0965 -0.1077 -0.0186
  639TMC3    C2 9510   2.489   2.484  14.384  0.2539  0.4797  0.4035
  639TMC3    C3 9511   2.391   2.424  14.457  0.1557 -0.4340 -0.2803
  639TMC3    C4 9512   2.641   2.463  14.572 -0.0500 -1.2650  0.0452
  639TMC3    C5 9513   2.537   2.399  14.640 -0.2202  0.1825 -0.1550
  639TMC3    C6 9514   2.414   2.380  14.584  0.3308 -0.6704  0.3066
  639TMC3     C 9515   2.723   2.560  14.364 -0.3305 -0.0883  0.2149
  639TMC3     O 9516   2.704   2.644  14.277 -0.4353 -0.7963  0.1059
  639TMC3     H 9517   2.458   2.520  14.286  1.6828  1.4607  0.3122
  639TMC3    H1 9518   2.732   2.490  14.625 -0.3867  0.7736 -0.4222
  639TMC3    H2 9519   2.340   2.337  14.650  0.1991 -3.1006 -1.4336
  639TMC3    C7 9520   2.545   2.362  14.779 -0.1507  0.0709 -0.0482
  639TMC3    C8 9521   2.258   2.438  14.417  0.0181 -0.6864 -0.1721
  639TMC3    O1 9522   2.451   2.327  14.845  0.8633  0.4389 -0.0848
  639TMC3    O2 9523   2.233   2.551  14.388 -0.8106  0.4068 -0.1447
  640MPD2     C 9524   3.622   2.415   9.162 -0.1639  0.4478 -0.5247
  640MPD2    C1 9525   3.645   2.286   9.217  0.1761 -0.8283  0.0184
  640MPD2    C2 9526   3.633   2.271   9.353  0.0133 -0.0683  0.2654
  640MPD2    C3 9527   3.610   2.383   9.433  1.3300  0.8394 -0.1436
  640MPD2    C4 9528   3.611   2.513   9.374 -0.3223  0.1637  0.2481
  640MPD2    C5 9529   3.617   2.525   9.239  0.3112  0.6216 -0.1834
  640MPD2     H 9530   3.653   2.175   9.400  0.0616 -0.0947  0.1911
  640MPD2    H1 9531   3.609   2.597   9.443  0.3381  0.7341 -0.4282
  640MPD2    H2 9532   3.631   2.426   9.055  0.6356  1.0978 -0.3884
  640MPD2    H3 9533   3.617   2.623   9.193  0.8032 -0.5860 -2.7236
  640MPD2     N 9534   3.611   2.379   9.575 -0.3419 -0.2705 -0.3872
  640MPD2    H5 9535   3.632   2.464   9.626  1.2869 -2.0898  1.9524
  640MPD2    N1 9536   3.659   2.179   9.124 -0.0524 -0.6250  0.0153
  640MPD2    H7 9537   3.645   2.200   9.026 -0.5780  0.2230  0.2662
  641TMC3    C1 9538   3.703   1.971   9.036 -0.2776  0.1894 -0.6690
  641TMC3    C2 9539   3.767   1.848   9.041  0.9795 -0.3951  0.5062
  641TMC3    C3 9540   3.756   1.758   8.940 -0.4222 -0.2843 -0.4824
  641TMC3    C4 9541   3.623   1.999   8.927 -0.7170  0.2656  0.2523
  641TMC3    C5 9542   3.604   1.903   8.832 -0.1584  0.0217  0.5351
  641TMC3    C6 9543   3.671   1.782   8.834 -0.4893  0.0145  0.1953
  641TMC3     C 9544   3.697   2.051   9.157 -0.0987 -0.0605 -0.2419
  641TMC3     O 9545   3.740   2.007   9.266 -0.3753  0.2156 -0.7156
  641TMC3     H 9546   3.823   1.833   9.133 -1.0431 -0.3536  1.7365
  641TMC3    H1 9547   3.555   2.083   8.924 -1.1730 -0.0995  0.3814
  641TMC3    H2 9548   3.683   1.712   8.752  3.1385 -0.1240  0.8786
  641TMC3    C7 9549   3.532   1.937   8.711  0.4684  0.9177 -0.1217
  641TMC3    C8 9550   3.822   1.629   8.935  0.1597 -0.0607  0.3199
  641TMC3    O1 9551   3.478   2.047   8.705 -0.2510 -0.2419 -0.3089
  641TMC3    O2 9552   3.790   1.543   8.854 -0.6068 -0.0666  1.0026
  642TMC3    C1 9553   0.103   2.770  12.561 -0.1417  0.1624 -0.1300
  642TMC3    C2 9554   0.238   2.752  12.564 -0.3325  0.1979 -0.0490
  642TMC3    C3 9555   0.300   2.727  12.445  0.3046  0.8909  0.3272
  642TMC3    C4 9556   0.033   2.767  12.445  0.0584  0.2049 -0.3365
  642TMC3    C5 9557   0.102   2.746  12.328  0.0204  0.3797  0.2490
  642TMC3    C6 9558   0.238   2.726  12.323 -0.7463 -0.8504  0.9208
  642TMC3     C 9559   0.028   2.799  12.684  0.2161  0.6964 -0.2556
  642TMC3     O 9560   0.098   2.827  12.779  0.0314  0.4142 -0.1998
  642TMC3     H 9561   0.292   2.756  12.658  0.1365 -1.3596 -0.2657
  642TMC3    H1 9562   4.678   2.820  12.437  0.2215  0.2574 -1.9918
  642TMC3    H2 9563   0.286   2.688  12.234 -1.5563 -0.5136  0.3407
  642TMC3    C7 9564   0.035   2.673  12.219  0.2842 -0.3920 -0.1358
  642TMC3    C8 9565   0.437   2.684  12.460  0.2491  0.8772 -0.0094
  642TMC3    O1 9566   0.095   2.638  12.122 -0.0175  0.2220 -0.2389
  642TMC3    O2 9567   0.468   2.644  12.573 -0.0239  0.2250  0.1430
  643TMC3    C1 9568   3.489   2.053  17.405  0.1943 -0.5178  0.6575
  643TMC3    C2 9569   3.395   2.117  17.326  0.3681 -0.2834 -0.1301
  643TMC3    C3 9570   3.353   2.055  17.213  0.1970  0.1343 -0.7304
  643TMC3    C4 9571   3.553   1.941  17.359 -0.6752  0.2342  0.1691
  643TMC3    C5 9572   3.504   1.883  17.247  0.3529 -0.2980  0.2106
  643TMC3    C6 9573   3.397   1.929  17.178 -0.5856 -0.0946 -0.4677
  643TMC3     C 9574   3.516   2.097  17.540  0.0888 -0.1549  0.2035
  643TMC3     O 9575   3.487   2.211  17.572  0.0134 -0.0905  0.0859
  643TMC3     H 9576   3.355   2.204  17.377  3.0406  1.2011 -0.5864
  643TMC3    H1 9577   3.635   1.895  17.414  0.2917  1.0021 -0.6181
  643TMC3    H2 9578   3.359   1.881  17.088  0.0299  1.6658 -1.6678
  643TMC3    C7 9579   3.573   1.758  17.200 -0.9206 -0.2038  0.5163
  643TMC3    C8 9580   3.323   2.126  17.091 -0.5006 -0.0854  0.0487
  643TMC3    O1 9581   3.637   1.704  17.290  0.2052  0.5649  0.4914
  643TMC3    O2 9582   3.268   2.058  17.006 -0.2346 -0.4331 -0.1988
  644MPD2     C 9583   3.619   2.290   8.227  0.4614 -0.5047 -0.3832
  644MPD2    C1 9584   3.654   2.262   8.360 -0.4956  0.0025 -0.0486
  644MPD2    C2 9585   3.600   2.343   8.454 -0.0280 -0.5208  0.3746
  644MPD2    C3 9586   3.519   2.448   8.427 -0.7591 -0.7893  0.1129
  644MPD2    C4 9587   3.494   2.479   8.296 -0.0708  0.3206  0.9768
  644MPD2    C5 9588   3.543   2.403   8.201  0.6728  0.2613 -0.7788
  644MPD2     H 9589   3.618   2.320   8.558 -2.2719  1.3019  1.1455
  644MPD2    H1 9590   3.434   2.560   8.256  1.8189  0.9020 -0.6513
  644MPD2    H2 9591   3.631   2.226   8.140 -1.2418  1.2632 -1.9093
  644MPD2    H3 9592   3.515   2.427   8.099  0.3086  3.0018 -0.0445
  644MPD2     N 9593   3.463   2.512   8.536  0.8553  0.4538 -0.0295
  644MPD2    H5 9594   3.486   2.467   8.625 -0.2372 -2.7955 -1.3729
  644MPD2    N1 9595   3.738   2.154   8.403 -0.2188  0.0831 -0.1578
  644MPD2    H7 9596   3.756   2.153   8.503  1.5688  2.3494 -0.4493
  645TMC3    C1 9597   3.341   2.649   8.678  0.5499  0.1769 -0.1038
  645TMC3    C2 9598   3.305   2.775   8.693 -0.5442  0.7629  0.0404
  645TMC3    C3 9599   3.280   2.808   8.824 -0.0383  0.3780  0.2622
  645TMC3    C4 9600   3.346   2.558   8.778  0.3572  0.1137 -0.0803
  645TMC3    C5 9601   3.310   2.584   8.900  0.0751 -0.0703 -0.8175
  645TMC3    C6 9602   3.268   2.719   8.928  0.2723 -0.0208 -0.0582
  645TMC3     C 9603   3.374   2.613   8.535 -0.5839  0.2813  0.2737
  645TMC3     O 9604   3.328   2.680   8.445 -0.3734 -0.0190  0.3669
  645TMC3     H 9605   3.284   2.848   8.615 -2.5323 -0.8149 -0.9070
  645TMC3    H1 9606   3.396   2.463   8.758  0.3187 -0.6330  3.4291
  645TMC3    H2 9607   3.260   2.759   9.028 -0.3689  0.5910 -0.3523
  645TMC3    C7 9608   3.282   2.483   8.999  0.0165 -0.4199  0.4768
  645TMC3    C8 9609   3.226   2.945   8.829  0.2005  0.4460  0.4479
  645TMC3    O1 9610   3.251   2.541   9.107 -0.2615  0.2955 -0.2997
  645TMC3    O2 9611   3.264   3.034   8.753  0.6342  0.1963  0.3847
  646MPD2     C 9612   3.319   1.483  14.501  0.1689 -0.6849  0.6064
  646MPD2    C1 9613   3.200   1.450  14.566 -0.2243 -0.2394 -0.1187
  646MPD2    C2 9614   3.079   1.498  14.512 -0.1147 -0.3393 -0.3350
  646MPD2    C3 9615   3.076   1.584  14.410 -0.8169  0.0641  0.8581
  646MPD2    C4 9616   3.193   1.643  14.371  0.6980 -0.7104  0.7621
  646MPD2    C5 9617   3.315   1.593  14.411 -0.4277  0.0943  0.4066
  646MPD2     H 9618   2.985   1.465  14.556 -0.5847 -0.8479 -1.7196
  646MPD2    H1 9619   3.197   1.735  14.314  0.5669 -0.9534  0.3611
  646MPD2    H2 9620   3.417   1.453  14.536 -0.4028  0.4447  3.2475
  646MPD2    H3 9621   3.404   1.640  14.372 -0.7923  0.9215  0.5620
  646MPD2     N 9622   2.951   1.604  14.346  0.2098  0.8516 -0.6134
  646MPD2    H5 9623   2.864   1.566  14.382  1.1323 -0.4028  0.3081
  646MPD2    N1 9624   3.210   1.360  14.675 -0.1501 -0.5426 -0.0226
  646MPD2    H7 9625   3.299   1.326  14.710 -0.3628 -1.3157 -0.2376
  647TMC3    C1 9626   3.136   1.219  14.852  0.4254 -0.0434 -0.3026
  647TMC3    C2 9627   3.062   1.226  14.972  0.4193  0.4026 -0.0935
  647TMC3    C3 9628   3.101   1.163  15.084  0.5884 -0.4550 -0.1012
  647TMC3    C4 9629   3.242   1.134  14.840  0.5571  0.3058  0.2421
  647TMC3    C5 9630   3.280   1.064  14.953  0.1288  0.0402  0.3635
  647TMC3    C6 9631   3.202   1.068  15.071  0.1955 -0.3297 -0.2230
  647TMC3     C 9632   3.097   1.304  14.745  0.0360  0.1944 -0.4688
  647TMC3     O 9633   2.977   1.325  14.728 -0.0037 -0.0527 -0.2339
  647TMC3     H 9634   2.981   1.297  14.973  1.1244  1.1757  2.6767
  647TMC3    H1 9635   3.301   1.128  14.749 -1.0856  3.1727 -1.0020
  647TMC3    H2 9636   3.239   1.012  15.156 -1.4425 -0.3894  0.4598
  647TMC3    C7 9637   3.421   1.039  14.984  0.1002  0.2817 -0.0574
  647TMC3    C8 9638   3.075   1.213  15.216 -0.0228 -0.0163  0.3660
  647TMC3    O1 9639   3.453   1.053  15.103  0.0971  0.0471 -0.3169
  647TMC3    O2 9640   3.003   1.311  15.212  0.2840  0.0567  0.1016
  648TMC3    C1 9641   2.174   4.097  15.977  0.6751  0.0037 -0.0429
  648TMC3    C2 9642   2.251   3.994  15.932 -0.1902  0.7764  0.6321
  648TMC3    C3 9643   2.268   3.991  15.792 -0.0311  0.5802  0.0919
  648TMC3    C4 9644   2.122   4.192  15.898 -0.3869  0.0460  0.4652
  648TMC3    C5 9645   2.141   4.188  15.762  0.2258  0.0912 -0.2096
  648TMC3    C6 9646   2.215   4.086  15.705  0.2657  0.3755 -0.3574
  648TMC3     C 9647   2.168   4.114  16.122  0.0628  0.2390 -0.6251
  648TMC3     O 9648   2.116   4.222  16.160  0.5145  0.1645 -0.3946
  648TMC3     H 9649   2.302   3.925  15.999 -1.1028 -0.1051  0.4321
  648TMC3    H1 9650   2.076   4.274  15.952 -1.1169 -0.2200  0.2387
  648TMC3    H2 9651   2.222   4.072  15.597 -0.3158  1.0091 -0.4768
  648TMC3    C7 9652   2.128   4.316  15.690 -0.5020  0.1483 -0.4333
  648TMC3    C8 9653   2.364   3.904  15.731  0.7250 -0.1413 -0.5038
  648TMC3    O1 9654   2.176   4.317  15.577 -0.3371 -0.2620  0.3890
  648TMC3    O2 9655   2.387   3.920  15.613  0.2070 -0.3056 -0.2796
  649TMC3    C1 9656   1.284   0.248  12.709 -0.1842  0.4171  0.0086
  649TMC3    C2 9657   1.423   0.257  12.703  0.4620 -0.7324  0.1749
  649TMC3    C3 9658   1.496   0.242  12.813  0.0773  0.2771 -0.5711
  649TMC3    C4 9659   1.218   0.205  12.820  0.0342  0.7373 -0.1119
  649TMC3    C5 9660   1.294   0.191  12.931  0.5909  0.1122 -0.2373
  649TMC3    C6 9661   1.429   0.204  12.930 -0.5539  0.4873 -0.0908
  649TMC3     C 9662   1.205   0.272  12.592  0.1948 -0.2582  0.0671
  649TMC3     O 9663   1.091   0.317  12.619  0.4990 -0.3972  0.1434
  649TMC3     H 9664   1.473   0.279  12.609 -1.2218 -0.4106 -0.6461
  649TMC3    H1 9665   1.111   0.191  12.818 -0.0032  1.0796 -0.5769
  649TMC3    H2 9666   1.487   0.186  13.020 -1.1494  0.3385  0.2672
  649TMC3    C7 9667   1.222   0.155  13.053  0.1678 -0.1836  0.0165
  649TMC3    C8 9668   1.640   0.266  12.810 -0.2902 -0.4087 -0.0087
  649TMC3    O1 9669   1.107   0.124  13.024 -0.3056 -0.1783  0.7063
  649TMC3    O2 9670   1.686   0.280  12.920 -0.2928  0.5400  0.5777
  650TMC3    C1 9671   3.998   1.748  12.956  0.1654 -0.2648  0.6046
  650TMC3    C2 9672   3.898   1.846  12.968 -0.3095  0.0428 -0.5348
  650TMC3    C3 9673   3.932   1.952  13.047  0.2475  0.2864  0.6661
  650TMC3    C4 9674   4.114   1.752  13.026 -0.2679  0.0862 -0.1796
  650TMC3    C5 9675   4.147   1.867  13.087  0.1974  0.1912 -0.1217
  650TMC3    C6 9676   4.052   1.962  13.109  0.9383  0.0626 -0.5655
  650TMC3     C 9677   3.953   1.630  12.892 -0.3185  0.1124 -0.3562
  650TMC3     O 9678   3.912   1.639  12.780  0.2943  0.8107 -0.0256
  650TMC3     H 9679   3.813   1.843  12.900  0.0587  1.8773 -1.0889
  650TMC3    H1 9680   4.179   1.667  13.009  0.2003 -0.1320  2.8172
  650TMC3    H2 9681   4.090   2.052  13.156  1.4333 -0.9745  1.0331
  650TMC3    C7 9682   4.266   1.918  13.017  0.3861 -0.3354 -0.3672
  650TMC3    C8 9683   3.893   2.079  13.006 -0.2970 -0.0038 -0.4341
  650TMC3    O1 9684   4.359   1.840  13.001 -0.0891  0.3960  0.1164
  650TMC3    O2 9685   3.979   2.170  13.005  0.2788 -0.8877 -0.5412
  651MPD2     C 9686   2.707   4.122  10.234  0.4816  0.8786  0.6129
  651MPD2    C1 9687   2.709   4.247  10.171 -0.5436  0.1134 -0.7729
  651MPD2    C2 9688   2.812   4.335  10.198 -0.0172  0.0497  0.3344
  651MPD2    C3 9689   2.921   4.295  10.266 -0.0076  0.7599 -0.2467
  651MPD2    C4 9690   2.932   4.161  10.312 -0.2722 -0.5369 -0.0885
  651MPD2    C5 9691   2.825   4.077  10.289  0.7978 -0.2318 -0.5273
  651MPD2     H 9692   2.800   4.439  10.167 -1.6589  0.3037  1.7826
  651MPD2    H1 9693   3.024   4.125  10.358 -0.9615 -0.7417  1.1364
  651MPD2    H2 9694   2.636   4.041  10.227 -0.2447  1.4400  1.5372
  651MPD2    H3 9695   2.827   3.974  10.323 -0.1775  0.0595  0.4226
  651MPD2     N 9696   3.024   4.391  10.290 -0.6446  0.3844  0.0796
  651MPD2    H5 9697   3.010   4.481  10.243 -0.5969  0.3357 -0.0292
  651MPD2    N1 9698   2.607   4.292  10.083  0.0651  0.3051  0.4276
  651MPD2    H7 9699   2.619   4.384  10.043 -1.2408  0.4594  0.3951
  652TMC3    C1 9700   3.454   4.585  10.385 -0.7371 -0.5176  0.4578
  652TMC3    C2 9701   3.363   4.485  10.400  0.1482 -0.7544  0.2096
  652TMC3    C3 9702   3.232   4.500  10.359 -0.5663 -0.1735 -0.5713
  652TMC3    C4 9703   3.414   4.710  10.330  0.3872 -0.4129 -0.0498
  652TMC3    C5 9704   3.282   4.721  10.290  0.8786 -0.2168  0.1182
  652TMC3    C6 9705   3.197   4.620  10.299  0.1842  0.0899 -0.3757
  652TMC3     C 9706   3.583   4.575  10.440 -0.2565  0.3970 -0.2977
  652TMC3     O 9707   3.595   4.499  10.536  0.1484 -0.4140  0.5331
  652TMC3     H 9708   3.400   4.385  10.420  1.6662 -0.4547 -1.1492
  652TMC3    H1 9709   3.478   0.056  10.316 -0.0143 -0.3885 -1.6986
  652TMC3    H2 9710   3.096   4.643  10.268 -0.4118  0.7236  2.0353
  652TMC3    C7 9711   3.248   0.080  10.183 -0.8769 -0.6324  0.2535
  652TMC3    C8 9712   3.141   4.386  10.368  0.1762 -0.9432  0.2832
  652TMC3    O1 9713   3.153   0.043  10.112  0.2436  0.2016 -0.1958
  652TMC3    O2 9714   3.170   4.293  10.441 -0.2945 -0.2899 -0.3807
  653MPD2     C 9715   1.608   4.110   0.003 -0.4679 -0.2990 -0.4632
  653MPD2    C1 9716   1.551   4.181  17.662  0.0089 -0.1331  0.1834
  653MPD2    C2 9717   1.477   4.109  17.574 -0.0333 -0.3779  0.1563
  653MPD2    C3 9718   1.448   3.980  17.578 -0.6058 -0.1679  0.1536
  653MPD2    C4 9719   1.507   3.907  17.677  0.4004  0.1540  0.1945
  653MPD2    C5 9720   1.591   3.973   0.013  0.3048 -0.0379  0.3124
  653MPD2     H 9721   1.436   4.166  17.491 -2.5631 -1.2347  0.8142
  653MPD2    H1 9722   1.491   3.800  17.685 -0.0688  0.2204  0.1506
  653MPD2    H2 9723   1.677   4.155   0.074  2.4120 -0.1839 -3.3178
  653MPD2    H3 9724   1.637   3.919   0.095  1.8814 -0.5808 -0.9201
  653MPD2     N 9725   1.363   3.934  17.476  0.1235  0.7092 -0.6052
  653MPD2    H5 9726   1.329   3.999  17.406 -0.1126  1.5546  0.3016
  653MPD2    N1 9727   1.555   4.320  17.641 -0.1740  0.8200 -0.6754
  653MPD2    H7 9728   1.501   4.353  17.562  0.2924 -1.2132 -1.8045
  654TMC3    C1 9729   1.213   3.784  17.357  0.4919 -0.1702  0.8218
  654TMC3    C2 9730   1.159   3.891  17.289  0.9975  0.1648 -0.2334
  654TMC3    C3 9731   1.097   3.867  17.171  0.0489 -0.7163  0.2815
  654TMC3    C4 9732   1.206   3.658  17.305  0.2257  0.0736  0.3286
  654TMC3    C5 9733   1.136   3.632  17.189  0.2974 -0.1486  0.3260
  654TMC3    C6 9734   1.093   3.742  17.115 -0.5807 -0.3198 -0.2819
  654TMC3     C 9735   1.320   3.803  17.458 -0.2563 -0.3498 -0.3619
  654TMC3     O 9736   1.351   3.706  17.528  0.4645 -0.6380  0.2065
  654TMC3     H 9737   1.175   3.992  17.326  1.1510 -0.3766  1.1498
  654TMC3    H1 9738   1.248   3.579  17.366  1.0687 -0.1692 -0.5555
  654TMC3    H2 9739   1.045   3.722  17.019 -0.1146 -0.9146 -0.3955
  654TMC3    C7 9740   1.178   3.519  17.113  1.1761  0.7788 -0.2087
  654TMC3    C8 9741   1.048   3.978  17.097  0.3213  0.0271  0.3316
  654TMC3    O1 9742   1.203   3.533  16.995 -0.2974 -0.2930 -0.1951
  654TMC3    O2 9743   0.979   4.056  17.164  0.3723 -0.4203  0.1486
  655MPD2     C 9744   2.869   4.288  15.758 -0.8142  1.0917  0.3344
  655MPD2    C1 9745   2.824   4.373  15.651  0.6846  0.2134 -0.5780
  655MPD2    C2 9746   2.850   4.336  15.528 -0.0815 -0.6387 -0.0647
  655MPD2    C3 9747   2.920   4.215  15.508 -0.7836  0.6486  0.6189
  655MPD2    C4 9748   2.959   4.131  15.605 -0.4379 -0.4334 -0.7464
  655MPD2    C5 9749   2.948   4.176  15.731 -0.6537  0.1327 -0.0197
  655MPD2     H 9750   2.802   4.393  15.450  2.4204 -0.0237 -1.1440
  655MPD2    H1 9751   2.994   4.032  15.577 -1.6937 -1.2674  0.6345
  655MPD2    H2 9752   2.852   4.311  15.863 -2.0075 -0.7378  0.5239
  655MPD2    H3 9753   2.974   4.109  15.812  2.9202  0.6875 -0.6981
  655MPD2     N 9754   2.954   4.180  15.372 -0.7583 -0.2546  0.8730
  655MPD2    H5 9755   2.973   4.080  15.369  1.6598  0.2464 -0.8193
  655MPD2    N1 9756   2.755   4.492  15.672  0.4560  0.5685  0.0444
  655MPD2    H7 9757   2.713   4.538  15.592 -1.0144 -1.2891 -0.2653
  656TMC3    C1 9758   2.609   4.622  15.792  0.2137 -0.0520  0.6230
  656TMC3    C2 9759   2.504   4.589  15.877 -0.7769 -0.0333 -0.2941
  656TMC3    C3 9760   2.388   4.658  15.873 -0.1965 -0.1641  0.0901
  656TMC3    C4 9761   2.591   4.720  15.701  0.4186  0.3597 -0.7597
  656TMC3    C5 9762   2.476   0.048  15.701 -0.3907  0.6828  0.2154
  656TMC3    C6 9763   2.371   0.025  15.791 -0.0910 -0.2516  0.3982
  656TMC3     C 9764   2.726   4.544  15.800  0.9159 -0.1687  0.0828
  656TMC3     O 9765   2.754   4.505  15.915 -0.0297 -0.1906  0.2785
  656TMC3     H 9766   2.517   4.519  15.959  0.4660 -1.8712 -2.0650
  656TMC3    H1 9767   2.678   0.012  15.644 -1.3990 -0.1506 -3.7750
  656TMC3    H2 9768   2.272   0.057  15.762 -0.1586  0.4508  1.4106
  656TMC3    C7 9769   2.454   0.128  15.580  0.2057 -0.2667 -0.1692
  656TMC3    C8 9770   2.281   4.608  15.957  0.3878 -0.3311 -0.1704
  656TMC3    O1 9771   2.540   0.111  15.495 -0.0897 -0.4112 -0.2880
  656TMC3    O2 9772   2.279   4.490  15.987 -0.1198  0.4556  0.4829
  657TMC3    C1 9773   1.643   3.383  14.975  0.5657  0.0285 -0.2976
  657TMC3    C2 9774   1.667   3.391  15.114  0.6055  0.3652 -0.1531
  657TMC3    C3 9775   1.688   3.526  15.153  0.6751  0.5902  0.6145
  657TMC3    C4 9776   1.653   3.479  14.880  0.8011  0.7570 -1.0243
  657TMC3    C5 9777   1.701   3.598  14.929  0.2028 -0.2302 -0.0918
  657TMC3    C6 9778   1.720   3.623  15.061 -0.4755  0.0662 -0.0547
  657TMC3     C 9779   1.615   3.254  14.920  0.2207  0.3014  0.1745
  657TMC3     O 9780   1.536   3.239  14.828 -0.3335 -0.0878 -0.3262
  657TMC3     H 9781   1.636   3.304  15.170 -0.4395  2.4787  2.5781
  657TMC3    H1 9782   1.651   3.464  14.773 -1.9130 -0.9014 -0.7730
  657TMC3    H2 9783   1.750   3.723  15.091 -0.8363  0.2553 -0.3158
  657TMC3    C7 9784   1.773   3.679  14.832  0.2496  0.0397 -0.3659
  657TMC3    C8 9785   1.693   3.565  15.293 -0.5061 -0.2455 -0.2616
  657TMC3    O1 9786   1.754   3.665  14.710 -0.1587  0.0775 -0.1681
  657TMC3    O2 9787   1.698   3.684  15.324 -0.4071 -0.8205 -0.1786
  658MPD2     C 9788   3.250   4.435  14.643  0.1098  0.6152  0.2896
  658MPD2    C1 9789   3.124   4.368  14.640 -0.0421  0.3373 -0.5268
  658MPD2    C2 9790   3.066   4.339  14.518 -0.2596 -0.0972 -0.4359
  658MPD2    C3 9791   3.140   4.366  14.403  0.1361  0.1812 -0.3963
  658MPD2    C4 9792   3.264   4.429  14.411  0.2127  0.0028  0.7201
  658MPD2    C5 9793   3.317   4.468  14.533 -0.4707  0.3380  0.2765
  658MPD2     H 9794   2.968   4.297  14.502 -0.6039  0.5216  0.0622
  658MPD2    H1 9795   3.318   4.453  14.321  1.8564 -4.2362  0.5670
  658MPD2    H2 9796   3.296   4.477  14.731  0.1548 -2.6065  1.8179
  658MPD2    H3 9797   3.401   4.534  14.549  0.8415 -1.1446 -0.5136
  658MPD2     N 9798   3.084   4.332  14.279  0.5860 -0.5966  0.1400
  658MPD2    H5 9799   2.986   4.303  14.271 -0.1160  1.7046  0.3779
  658MPD2    N1 9800   3.070   4.330  14.764  0.2676 -0.1485  0.3926
  658MPD2    H7 9801   3.111   4.375  14.845  3.3728  0.3845 -1.4668
  659TMC3    C1 9802   2.969   4.172  14.910 -0.1358  0.2018 -0.1273
  659TMC3    C2 9803   2.983   4.247  15.020 -0.2640 -0.1290 -0.1307
  659TMC3    C3 9804   2.962   4.183  15.141  0.6058 -0.3983  0.7171
  659TMC3    C4 9805   2.952   4.037  14.916 -0.7520 -0.3507 -0.6745
  659TMC3    C5 9806   2.917   3.979  15.032  0.4907  0.3807  0.0635
  659TMC3    C6 9807   2.919   4.049  15.146 -0.5861 -0.5781  0.3258
  659TMC3     C 9808   2.975   4.226  14.777 -0.5536  0.0263  0.3585
  659TMC3     O 9809   2.927   4.162  14.686 -0.2081  0.7880  0.0324
  659TMC3     H 9810   3.011   4.352  15.017 -1.4590  0.2711  2.0913
  659TMC3    H1 9811   2.935   3.991  14.819  1.8171  1.6024 -2.0343
  659TMC3    H2 9812   2.907   4.000  15.243 -0.1173  0.2053  0.7777
  659TMC3    C7 9813   2.835   3.859  15.031 -0.4606 -0.5870  0.4717
  659TMC3    C8 9814   2.945   4.259  15.261  0.5910 -0.0707 -0.0997
  659TMC3    O1 9815   2.785   3.819  15.136 -0.2805  0.4889 -0.1000
  659TMC3    O2 9816   2.928   4.381  15.248 -0.5174 -0.2102 -0.8580
  660MPD2     C 9817   1.382   2.621  12.852 -0.0705 -0.7021  0.1982
  660MPD2    C1 9818   1.267   2.681  12.800 -0.2624  0.1503 -0.0527
  660MPD2    C2 9819   1.146   2.620  12.814  0.6452 -0.4463 -0.4834
  660MPD2    C3 9820   1.142   2.507  12.890  0.6259 -0.4003 -0.5319
  660MPD2    C4 9821   1.251   2.459  12.957 -0.0407  0.1006  0.1038
  660MPD2    C5 9822   1.368   2.517  12.928  0.5581  0.4082  0.1113
  660MPD2     H 9823   1.055   2.661  12.771  0.2994 -1.5148 -0.7475
  660MPD2    H1 9824   1.253   2.377  13.027 -0.1974  0.6339  0.7277
  660MPD2    H2 9825   1.485   2.650  12.836 -0.1128  0.2944  1.7232
  660MPD2    H3 9826   1.456   2.491  12.986  0.2744  2.4971  1.4687
  660MPD2     N 9827   1.016   2.430  12.907  0.1867 -0.0451 -0.2062
  660MPD2    H5 9828   1.026   2.352  12.971 -1.0874 -1.5651 -1.8489
  660MPD2    N1 9829   1.270   2.790  12.714 -1.0062 -0.6735  0.2670
  660MPD2    H7 9830   1.178   2.815  12.678 -1.2428 -0.3320  1.1053
  661TMC3    C1 9831   1.330   2.950  12.564 -0.4258 -0.6307  0.0834
  661TMC3    C2 9832   1.405   2.966  12.448 -0.0249  0.3933 -0.7807
  661TMC3    C3 9833   1.352   3.051  12.362  0.2822  0.3156  0.1583
  661TMC3    C4 9834   1.215   3.009  12.599  0.2658  0.1678  0.0247
  661TMC3    C5 9835   1.157   3.096  12.504  0.2139  0.1022  0.0063
  661TMC3    C6 9836   1.229   3.112  12.381  0.7920  0.3002  0.4378
  661TMC3     C 9837   1.374   2.837  12.640 -0.1146 -0.5995  0.2648
  661TMC3     O 9838   1.497   2.817  12.655  0.0303 -0.3812 -0.2807
  661TMC3     H 9839   1.501   2.920  12.431 -1.1528 -2.2895  0.1016
  661TMC3    H1 9840   1.184   3.002  12.702  1.9178 -0.7461  0.4519
  661TMC3    H2 9841   1.201   3.199  12.321 -2.4270 -0.1806  1.2139
  661TMC3    C7 9842   1.011   3.094  12.502  0.0573 -0.2713  0.5875
  661TMC3    C8 9843   1.430   3.089  12.246 -0.3670  0.4514  0.6132
  661TMC3    O1 9844   0.974   3.060  12.615  0.0154  0.0836 -0.2357
  661TMC3    O2 9845   1.368   3.135  12.154  0.3765 -0.3347 -0.2117
  662MPD2     C 9846   1.118   2.552  17.601 -0.0687 -1.1329 -0.0691
  662MPD2    C1 9847   1.084   2.675  17.547 -0.2682  0.0514  0.9085
  662MPD2    C2 9848   0.988   2.753  17.602  0.7385  0.7476  0.0057
  662MPD2    C3 9849   0.911   2.710  17.710  0.2592 -0.0301  0.0859
  662MPD2    C4 9850   0.942   2.590   0.015 -0.1104  0.7206 -0.5910
  662MPD2    C5 9851   1.057   2.521  17.725 -0.4181  0.3032  0.1076
  662MPD2     H 9852   0.960   2.846  17.555  0.8385  2.0540  2.4982
  662MPD2    H1 9853   0.882   2.554   0.097  1.8784  0.1670  0.6171
  662MPD2    H2 9854   1.192   2.484  17.560  1.2067 -1.1087  2.1610
  662MPD2    H3 9855   1.090   2.439   0.031 -0.6927  0.2163  0.1378
  662MPD2     N 9856   0.807   2.778   0.019  0.6505  0.6476  0.3549
  662MPD2    H5 9857   0.750   2.736   0.093 -0.4093  2.5033  0.5748
  662MPD2    N1 9858   1.129   2.730  17.430 -0.1318  0.2359 -0.3721
  662MPD2    H7 9859   1.095   2.822  17.404  0.9731  0.5949 -0.5561
  663TMC3    C1 9860   1.188   2.695  17.196  0.0740 -0.8080  0.6457
  663TMC3    C2 9861   1.092   2.784  17.176 -0.0785  0.3606  0.1741
  663TMC3    C3 9862   1.022   2.785  17.062 -0.5754  0.2855 -0.6987
  663TMC3    C4 9863   1.215   2.593  17.106  0.5913 -0.3955 -0.2713
  663TMC3    C5 9864   1.139   2.590  16.991 -0.6181 -0.1283  0.4814
  663TMC3    C6 9865   1.038   2.680  16.969  0.1124 -0.3789 -0.2581
  663TMC3     C 9866   1.207   2.658  17.336  0.3035  0.1767 -0.5758
  663TMC3     O 9867   1.240   2.540  17.345  0.4150 -0.1476  0.0173
  663TMC3     H 9868   1.081   2.879  17.228 -0.3083  0.0665  0.6681
  663TMC3    H1 9869   1.314   2.549  17.103 -0.1823 -2.1552 -0.3853
  663TMC3    H2 9870   0.984   2.686  16.875  0.7327 -1.4927 -0.6832
  663TMC3    C7 9871   1.147   2.486  16.883  0.0932  0.3839 -1.1003
  663TMC3    C8 9872   0.880   2.821  17.088 -1.0414 -0.1418 -0.2709
  663TMC3    O1 9873   1.103   2.517  16.772  0.3851 -0.1132  0.1069
  663TMC3    O2 9874   0.807   2.846  16.993 -0.0126  0.0905  0.2201
  664MPD2     C 9875   3.921   0.745  17.329 -0.7118 -0.8064  0.3057
  664MPD2    C1 9876   3.936   0.830  17.441 -0.8355 -0.5453  0.6580
  664MPD2    C2 9877   3.845   0.810  17.551 -0.9126 -0.2580 -0.3643
  664MPD2    C3 9878   3.754   0.709  17.557  0.4748 -0.1292  0.4699
  664MPD2    C4 9879   3.738   0.626  17.442 -0.2156 -0.4064  0.1488
  664MPD2    C5 9880   3.812   0.653  17.329  0.2598  0.8667 -0.6697
  664MPD2     H 9881   3.856   0.871  17.640 -0.9243 -0.5320 -0.1732
  664MPD2    H1 9882   3.672   0.540  17.447  1.0023 -1.4456 -1.6084
  664MPD2    H2 9883   3.976   0.764  17.238 -1.3291 -1.9475 -0.3128
  664MPD2    H3 9884   3.797   0.590  17.242  1.6607 -0.4855  0.0712
  664MPD2     N 9885   3.680   0.694  17.675  0.1251  0.0846 -0.6268
  664MPD2    H5 9886   3.695   0.761  17.750  0.0030  2.1191 -2.4612
  664MPD2    N1 9887   4.028   0.936  17.443  0.3615  0.2862  0.7661
  664MPD2    H7 9888   4.023   1.003  17.519  1.7955 -0.0831  1.2019
  665TMC3    C1 9889   3.535   0.622   0.078 -0.1746 -0.0489  0.3541
  665TMC3    C2 9890   3.509   0.509   0.163  0.6290  0.4419  0.3151
  665TMC3    C3 9891   3.508   0.538   0.301  0.4871 -0.1553  0.3660
  665TMC3    C4 9892   3.539   0.755   0.125  0.0504 -0.6971 -0.0921
  665TMC3    C5 9893   3.552   0.768   0.261 -0.7481 -0.1382  0.6620
  665TMC3    C6 9894   3.539   0.663   0.347  0.2904  0.1832  0.4732
  665TMC3     C 9895   3.590   0.597  17.705  0.4533  0.2789 -0.2146
  665TMC3     O 9896   3.551   0.493  17.649  0.0954 -0.1314  0.1461
  665TMC3     H 9897   3.491   0.412   0.118  1.4671 -0.1393  1.2052
  665TMC3    H1 9898   3.528   0.841   0.060  1.8579 -1.3840 -1.3072
  665TMC3    H2 9899   3.519   0.681   0.452 -3.2221 -0.2166 -0.1276
  665TMC3    C7 9900   3.503   0.900   0.309  0.1002  0.2441 -0.2741
  665TMC3    C8 9901   3.483   0.437   0.400  0.0961 -0.3161  0.4012
  665TMC3    O1 9902   3.459   0.982   0.230  0.5166  0.1372  0.3670
  665TMC3    O2 9903   3.502   0.476   0.513 -0.2096  0.9007  0.6525
  666TMC3    C1 9904   3.401   1.567   9.200  0.3768 -0.7469 -0.0189
  666TMC3    C2 9905   3.508   1.491   9.162 -0.9125 -0.8751  0.6967
  666TMC3    C3 9906   3.625   1.526   9.226 -0.0083 -0.4521  1.2829
  666TMC3    C4 9907   3.411   1.686   9.265 -0.1085 -0.3343  0.5086
  666TMC3    C5 9908   3.530   1.725   9.310  0.3880 -0.1612  0.5117
  666TMC3    C6 9909   3.640   1.639   9.301  0.3626 -0.1955 -0.3874
  666TMC3     C 9910   3.271   1.519   9.159  0.3283 -0.1493  0.2849
  666TMC3     O 9911   3.189   1.600   9.115  0.5349  0.3522 -0.1507
  666TMC3     H 9912   3.491   1.394   9.115 -2.3141 -1.0754  1.6437
  666TMC3    H1 9913   3.323   1.747   9.283  0.4785  0.8051 -0.4914
  666TMC3    H2 9914   3.731   1.648   9.359  0.1066  2.4041 -0.3787
  666TMC3    C7 9915   3.519   1.751   9.449  0.1629 -1.1287  0.1092
  666TMC3    C8 9916   3.674   1.413   9.309  0.1361  0.5574 -0.1424
  666TMC3    O1 9917   3.411   1.727   9.500 -0.0366 -0.4378 -0.4386
  666TMC3    O2 9918   3.589   1.328   9.333 -0.0308  0.4441  0.1170
  667MPD2     C 9919   4.653   0.662  14.693 -0.8593  0.9696 -0.6983
  667MPD2    C1 9920   4.621   0.658  14.825  0.3365 -0.8583 -0.2946
  667MPD2    C2 9921   4.571   0.536  14.871 -0.6425 -0.5441  0.5553
  667MPD2    C3 9922   4.556   0.424  14.783  0.1490 -0.6704 -0.4247
  667MPD2    C4 9923   4.583   0.440  14.648 -0.2927 -0.5648  0.2707
  667MPD2    C5 9924   4.627   0.561  14.607  0.2619 -0.5131 -0.3959
  667MPD2     H 9925   4.535   0.529  14.974  0.7502 -0.3996  1.0520
  667MPD2    H1 9926   4.572   0.352  14.585  1.8972 -0.7462  0.1380
  667MPD2    H2 9927   4.710   0.744  14.650  0.3542  0.5650  0.1317
  667MPD2    H3 9928   4.649   0.584  14.504  1.5397 -0.5399 -0.1207
  667MPD2     N 9929   4.493   0.301  14.815 -0.6301 -0.4758 -0.4474
  667MPD2    H5 9930   4.488   0.237  14.737 -0.2167 -0.5600 -0.4041
  667MPD2    N1 9931   4.653   0.759  14.915 -0.2586  0.1030  0.0632
  667MPD2    H7 9932   4.626   0.724  15.006  2.7714 -0.1821  0.8505
  668TMC3    C1 9933   4.692   0.972  15.005 -0.2448  0.4713 -0.0546
  668TMC3    C2 9934   0.074   1.028  15.030 -0.3534  0.2529  0.3457
  668TMC3    C3 9935   0.117   1.043  15.158  0.0071  0.7788 -1.0577
  668TMC3    C4 9936   4.617   0.925  15.109  0.5444  0.6725 -0.2686
  668TMC3    C5 9937   4.661   0.950  15.237  0.3164  0.3230  0.1115
  668TMC3    C6 9938   0.041   1.013  15.269 -0.4803 -0.1028 -0.1260
  668TMC3     C 9939   4.695   0.887  14.888 -0.1280 -0.4331 -0.1705
  668TMC3     O 9940   0.001   0.932  14.782 -0.2623 -0.1303 -0.1274
  668TMC3     H 9941   0.150   1.054  14.957 -2.7270  1.0229 -1.8585
  668TMC3    H1 9942   4.520   0.885  15.081  0.3796  0.8955 -0.0169
  668TMC3    H2 9943   0.066   1.031  15.373  2.5696 -1.5708 -0.5941
  668TMC3    C7 9944   4.596   0.894  15.351  0.0732  0.2259  0.2252
  668TMC3    C8 9945   0.238   1.117  15.184 -0.4609  0.6852 -0.5569
  668TMC3    O1 9946   4.647   0.893  15.461 -0.0246 -0.2653 -0.0991
  668TMC3    O2 9947   0.274   1.117  15.300 -0.0159  0.4497 -0.4789
  669TMC3    C1 9948   2.627   0.951  14.778  0.4185 -0.0375  0.4609
  669TMC3    C2 9949   2.504   0.981  14.709  0.0665 -0.4521  0.0801
  669TMC3    C3 9950   2.518   1.056  14.597 -0.3597  0.3846 -0.0528
  669TMC3    C4 9951   2.752   0.981  14.727 -0.5045  0.9825 -0.1003
  669TMC3    C5 9952   2.758   1.056  14.614  0.0104  0.6121 -0.2277
  669TMC3    C6 9953   2.643   1.091  14.545  0.1319  0.1089 -0.3554
  669TMC3     C 9954   2.617   0.865  14.895 -0.4850  0.6056  0.3672
  669TMC3     O 9955   2.513   0.868  14.960  0.1387  0.4622 -0.1470
  669TMC3     H 9956   2.414   0.935  14.748 -0.0103  0.2596  0.7368
  669TMC3    H1 9957   2.842   0.957  14.783  0.1420 -0.6978 -1.8856
  669TMC3    H2 9958   2.649   1.151  14.455  1.0572 -0.1740 -0.4785
  669TMC3    C7 9959   2.894   1.072  14.563 -0.3767  0.1987 -0.8785
  669TMC3    C8 9960   2.421   1.026  14.490 -0.2731  0.0585 -0.1968
  669TMC3    O1 9961   2.983   1.034  14.631  0.7743  0.0653 -0.3442
  669TMC3    O2 9962   2.466   0.990  14.383  0.7540 -0.1274 -0.0619
  670MPD2     C 9963   0.961   3.085  13.250  0.3761  0.0282  0.4039
  670MPD2    C1 9964   1.083   3.119  13.300 -0.0724 -0.1802  0.3926
  670MPD2    C2 9965   1.103   3.116  13.437 -0.3136 -0.8234 -0.0273
  670MPD2    C3 9966   1.007   3.047  13.511 -0.0394  0.5103  0.7256
  670MPD2    C4 9967   0.889   3.003  13.463  0.5745  0.2316 -0.2250
  670MPD2    C5 9968   0.872   3.016  13.328 -0.2182  1.0691 -0.9453
  670MPD2     H 9969   1.194   3.147  13.488 -0.8092 -1.9058  1.5136
  670MPD2    H1 9970   0.804   2.958  13.512  1.5731 -1.3491  0.0772
  670MPD2    H2 9971   0.949   3.071  13.144 -1.1071  0.8976  0.4602
  670MPD2    H3 9972   0.785   2.981  13.273 -1.2247 -0.4547  1.5971
  670MPD2     N 9973   1.034   3.041  13.651 -0.0182 -0.9414 -0.1846
  670MPD2    H5 9974   1.113   3.096  13.684 -0.3678 -0.8560  0.5216
  670MPD2    N1 9975   1.185   3.172  13.225 -0.1690  0.4792  0.1289
  670MPD2    H7 9976   1.268   3.216  13.263 -1.3504  1.8877  1.1196
  671TMC3    C1 9977   1.025   2.987  13.882  0.1534 -0.2973 -0.5624
  671TMC3    C2 9978   1.162   2.965  13.888 -0.4429  0.3678  0.3118
  671TMC3    C3 9979   1.206   2.907  14.007  0.3667 -0.4385 -0.2401
  671TMC3    C4 9980   0.937   2.955  13.978  0.4527 -0.2297  0.1117
  671TMC3    C5 9981   0.987   2.897  14.093  0.3879  0.4985 -0.3258
  671TMC3    C6 9982   1.121   2.871  14.111  0.6862 -0.2037 -0.3274
  671TMC3     C 9983   0.959   2.978  13.752 -0.5435 -0.4639 -0.7630
  671TMC3     O 9984   0.866   2.898  13.747 -0.3373  0.0833  0.0556
  671TMC3     H 9985   1.227   2.976  13.802 -2.0951 -2.8510 -1.3460
  671TMC3    H1 9986   0.832   2.978  13.968  0.1623 -1.7812 -0.4575
  671TMC3    H2 9987   1.142   2.792  14.183  0.3212 -1.4476 -1.5855
  671TMC3    C7 9988   0.908   2.781  14.140  0.2482  0.2179  0.1131
  671TMC3    C8 9989   1.341   2.847  14.012  0.2829 -0.0765  0.5091
  671TMC3    O1 9990   0.940   2.733  14.247 -0.1083  0.0720  0.3564
  671TMC3    O2 9991   1.399   2.823  13.904  0.1624 -0.4447 -0.5879
  672MPD2     C 9992   1.691   4.089   0.924 -0.1004  0.4263 -1.0523
  672MPD2    C1 9993   1.773   4.023   0.837 -0.0969  0.5919 -0.4362
  672MPD2    C2 9994   1.895   4.072   0.804 -0.2958  0.5545 -0.4491
  672MPD2    C3 9995   1.934   4.197   0.858 -0.0050 -0.7851  0.4485
  672MPD2    C4 9996   1.845   4.267   0.943  0.3872  0.9078  0.1577
  672MPD2    C5 9997   1.726   4.208   0.980  0.4858  0.2797  0.2853
  672MPD2     H 9998   1.956   4.010   0.740  0.4125  0.8769 -0.0923
  672MPD2    H1 9999   1.862   4.370   0.970 -1.9872  0.8852  1.7535
  672MPD2    H210000   1.601   4.048   0.968 -0.9090  0.6609 -2.5004
  672MPD2    H310001   1.653   4.259   1.041  1.0896 -0.8318  1.9347
  672MPD2     N10002   2.058   4.266   0.844 -0.2232 -0.1496  0.5298
  672MPD2    H510003   2.071   4.357   0.886  1.6523 -0.1621 -0.0110
  672MPD2    N110004   1.726   3.891   0.794 -0.0451  0.2222 -0.6033
  672MPD2    H710005   1.795   3.837   0.742 -1.5193 -0.9518 -1.3623
  673TMC3    C110006   1.558   3.724   0.732  0.3742  0.1794 -0.3351
  673TMC3    C210007   1.655   3.634   0.701  0.2215  0.0865  0.6433
  673TMC3    C310008   1.628   3.531   0.612 -0.2112 -0.8361  0.2228
  673TMC3    C410009   1.433   3.717   0.683 -0.2225 -0.1252  0.2806
  673TMC3    C510010   1.414   3.616   0.588 -0.2312 -0.1679 -0.2330
  673TMC3    C610011   1.506   3.523   0.549 -0.2451 -0.3574 -0.2362
  673TMC3     C10012   1.596   3.857   0.782  0.0618 -0.3057  0.2539
  673TMC3     O10013   1.503   3.929   0.808 -0.3570  0.0316 -0.2317
  673TMC3     H10014   1.758   3.648   0.733  1.0799 -0.4151 -1.8498
  673TMC3    H110015   1.350   3.774   0.722  1.6136  2.6806  0.0330
  673TMC3    H210016   1.480   3.440   0.484 -0.8047 -0.0301 -0.4345
  673TMC3    C710017   1.294   3.607   0.522 -0.5386  0.7051 -0.0031
  673TMC3    C810018   1.729   3.445   0.563 -0.3400 -0.2113 -0.4467
  673TMC3    O110019   1.255   3.500   0.473  0.3882 -0.2917 -0.4333
  673TMC3    O210020   1.707   3.383   0.459 -0.0129  0.0121 -0.2325
  674MPD2     C10021   0.902   4.124   0.012  0.0809  0.1646 -0.1176
  674MPD2    C110022   0.872   3.999   0.066  0.5686 -0.4057 -0.2233
  674MPD2    C210023   0.745   3.977   0.125 -0.4771  0.1698  0.2192
  674MPD2    C310024   0.655   4.081   0.140  0.0491 -0.3619 -0.4194
  674MPD2    C410025   0.684   4.204   0.094  0.1229  0.4867 -1.1034
  674MPD2    C510026   0.805   4.222   0.026  0.2491  0.2234 -0.4565
  674MPD2     H10027   0.728   3.887   0.183 -0.5140  1.1498  1.7142
  674MPD2    H110028   0.621   4.292   0.100  0.3111  0.3851  2.1064
  674MPD2    H210029   0.998   4.147  17.725 -0.2457  0.6126 -0.6071
  674MPD2    H310030   0.837   4.321  17.751 -2.4836  1.0573 -0.6142
  674MPD2     N10031   0.540   4.053   0.217  0.2716  0.1224  0.3237
  674MPD2    H510032   0.516   3.955   0.232  0.2960 -0.0452 -0.7214
  674MPD2    N110033   0.975   3.902   0.070  0.0968  0.2163  0.7865
  674MPD2    H710034   1.067   3.943   0.058 -0.5030  1.4498  0.4113
  675TMC3    C110035   1.059   3.670   0.076  0.6525  0.0107 -0.0247
  675TMC3    C210036   1.029   3.538   0.083  0.0869  0.1602 -0.7677
  675TMC3    C310037   1.123   3.450   0.129  0.4132 -0.0691  0.3103
  675TMC3    C410038   1.188   3.710   0.097  0.6470 -0.2403  0.1885
  675TMC3    C510039   1.283   3.615   0.128 -0.0413 -0.1912 -0.0599
  675TMC3    C610040   1.250   3.482   0.138  0.3317 -0.1107  0.7730
  675TMC3     C10041   0.951   3.767   0.088  0.0730  0.5431  0.9109
  675TMC3     O10042   0.845   3.705   0.087  0.3804  0.3979  0.0530
  675TMC3     H10043   0.928   3.501   0.071  0.7586 -1.2479 -2.0528
  675TMC3    H110044   1.222   3.809   0.069 -1.8959  0.4829 -0.3823
  675TMC3    H210045   1.326   3.406   0.154  0.4331  0.1298  1.4490
  675TMC3    C710046   1.407   3.655   0.194  0.3653 -0.0982  0.7348
  675TMC3    C810047   1.076   3.329   0.178 -0.0192 -0.5305  0.0385
  675TMC3    O110048   1.489   3.565   0.202  0.1619  0.0825 -0.2250
  675TMC3    O210049   1.026   3.253   0.097  0.9079 -0.1683 -0.6811
  676MPD2     C10050   4.219   2.017  10.835  0.6968  0.1302  0.4470
  676MPD2    C110051   4.151   1.918  10.902  0.1693 -0.6522  0.6323
  676MPD2    C210052   4.113   1.804  10.834  0.3870 -0.0753  0.2659
  676MPD2    C310053   4.148   1.787  10.696  0.0060 -0.1909 -0.3037
  676MPD2    C410054   4.229   1.883  10.640 -0.1000 -0.1091  0.1300
  676MPD2    C510055   4.265   1.991  10.708  0.7198  0.6924  0.6836
  676MPD2     H10056   4.041   1.737  10.880  0.7106 -1.2670 -0.9557
  676MPD2    H110057   4.278   1.863  10.545  0.4163  0.9185  0.1906
  676MPD2    H210058   4.246   2.114  10.875 -1.9541  0.5066  1.2988
  676MPD2    H310059   4.314   2.066  10.647  0.5441 -1.6030 -2.2522
  676MPD2     N10060   4.129   1.670  10.618  0.0312  0.5564  0.0300
  676MPD2    H510061   4.167   1.665  10.524 -0.1110  0.0723  0.0017
  676MPD2    N110062   4.102   1.942  11.032  0.0287  0.4517  0.2371
  676MPD2    H710063   4.040   1.865  11.055  1.2150 -0.7421 -0.5632
  677TMC3    C110064   4.052   2.020  11.244  0.1039 -0.3491 -0.4627
  677TMC3    C210065   3.968   1.912  11.258 -0.9080 -0.0300  0.3119
  677TMC3    C310066   3.930   1.885  11.388  0.5246  0.4915 -0.0435
  677TMC3    C410067   4.100   2.094  11.342 -0.7914  0.1052 -1.0946
  677TMC3    C510068   4.046   2.084  11.468  0.7721  0.3923  1.2878
  677TMC3    C610069   3.967   1.970  11.494  0.8654  0.1156  0.8487
  677TMC3     C10070   4.126   2.041  11.120  0.5195  0.4556 -0.4001
  677TMC3     O10071   4.207   2.132  11.104 -0.4574 -0.1859  0.5393
  677TMC3     H10072   3.924   1.855  11.177  1.5238 -1.6286  0.0850
  677TMC3    H110073   4.171   2.174  11.324  2.2545 -1.9611  1.6764
  677TMC3    H210074   3.948   1.938  11.596  2.0607  0.1135  1.0658
  677TMC3    C710075   4.109   2.148  11.583  0.6872  0.9067  0.1013
  677TMC3    C810076   3.850   1.767  11.414 -0.1070 -0.4381 -0.9457
  677TMC3    O110077   4.107   2.075  11.685  0.5754  0.3912 -0.0313
  677TMC3    O210078   3.754   1.749  11.335  0.2399 -0.1933  0.1049
  678MPD2     C10079   0.080   1.646   1.063  0.1834 -0.1975  0.0483
  678MPD2    C110080   0.076   1.578   0.946 -0.0955 -0.0433  0.3595
  678MPD2    C210081   4.696   1.529   0.908 -0.2203  0.0766  0.3580
  678MPD2    C310082   4.576   1.562   0.975  0.3877 -0.0640  0.1893
  678MPD2    C410083   4.588   1.635   1.091  0.4092  0.3723  0.1154
  678MPD2    C510084   4.706   1.672   1.141  0.7720 -0.4450  0.4249
  678MPD2     H10085   4.697   1.472   0.816 -1.0015  0.4409  0.1292
  678MPD2    H110086   4.508   1.684   1.146  0.6189  0.1660  0.6038
  678MPD2    H210087   0.172   1.691   1.099  0.7207 -2.1242  1.0845
  678MPD2    H310088   4.718   1.730   1.232 -1.8495  2.9666 -1.4112
  678MPD2     N10089   4.455   1.516   0.930  0.1772 -0.0933 -0.1826
  678MPD2    H510090   4.462   1.463   0.844 -1.3693  0.6676 -0.7931
  678MPD2    N110091   0.193   1.551   0.872 -0.7494  0.2134  0.5615
  678MPD2    H710092   0.191   1.474   0.806  0.5485  0.1560  0.5937
  679TMC3    C110093   0.563   1.466   0.683 -0.1372  0.6260 -0.2077
  679TMC3    C210094   0.455   1.488   0.764 -0.2556  0.5677  0.1409
  679TMC3    C310095   0.407   1.616   0.780  0.5825  0.2441 -0.5075
  679TMC3    C410096   0.634   1.575   0.637 -0.6794 -1.3286 -0.2808
  679TMC3    C510097   0.585   1.705   0.659 -0.8227 -0.6492  0.4060
  679TMC3    C610098   0.471   1.725   0.730  0.4026 -0.3817  1.0505
  679TMC3     C10099   0.637   1.333   0.683 -0.6679 -0.0161 -0.0768
  679TMC3     O10100   0.741   1.332   0.615  0.1491  0.4158  0.7029
  679TMC3     H10101   0.406   1.408   0.818  1.8850 -1.0059 -0.2577
  679TMC3    H110102   0.712   1.559   0.562 -0.5252 -0.3995 -0.3218
  679TMC3    H210103   0.428   1.822   0.752 -0.7300 -0.5804 -0.2984
  679TMC3    C710104   0.626   1.822   0.586 -0.5019 -0.9058  0.4921
  679TMC3    C810105   0.303   1.637   0.883  1.1920  0.1764 -0.2606
  679TMC3    O110106   0.550   1.918   0.589  0.4982 -0.2766 -0.5064
  679TMC3    O210107   0.308   1.739   0.947  0.0705 -0.0068  0.2152
  680MPD2     C10108   0.442   0.590  13.487 -0.0579 -0.3049 -0.3034
  680MPD2    C110109   0.558   0.533  13.547 -0.5920  0.4757 -0.0954
  680MPD2    C210110   0.626   0.608  13.641  0.0581  0.1055 -1.0559
  680MPD2    C310111   0.602   0.744  13.642 -1.0875  0.4176 -0.1181
  680MPD2    C410112   0.495   0.802  13.575 -0.0327 -0.4659 -0.3806
  680MPD2    C510113   0.415   0.718  13.507  0.8485  0.1943  0.4540
  680MPD2     H10114   0.686   0.546  13.707  0.8599  2.8694  0.7691
  680MPD2    H110115   0.465   0.906  13.586  0.6719  0.0237 -3.0809
  680MPD2    H210116   0.386   0.528  13.418 -4.4392  1.2128  1.8354
  680MPD2    H310117   0.319   0.742  13.463  0.9718 -0.1734 -0.0011
  680MPD2     N10118   0.678   0.829  13.722  0.1728 -0.3865  0.4745
  680MPD2    H510119   0.647   0.925  13.724 -3.1103 -1.4034 -2.2386
  680MPD2    N110120   0.589   0.390  13.542 -0.1750 -0.3513  0.6167
  680MPD2    H710121   0.664   0.351  13.597  0.7653 -1.4989 -1.4854
  681TMC3    C110122   0.563   0.162  13.508  0.3277 -0.5769  0.2064
  681TMC3    C210123   0.469   0.081  13.555  0.0475  0.3700  0.7193
  681TMC3    C310124   0.507   4.715  13.631 -0.0505 -0.6205  0.3497
  681TMC3    C410125   0.698   0.128  13.512 -0.2632 -0.3833  0.7019
  681TMC3    C510126   0.735   0.013  13.576 -0.2031  0.5202 -0.1129
  681TMC3    C610127   0.642   4.685  13.647 -0.0816 -0.0656  0.0902
  681TMC3     C10128   0.516   0.296  13.472 -0.7458  0.5378 -0.0143
  681TMC3     O10129   0.429   0.303  13.389  0.1464  0.8336 -0.3470
  681TMC3     H10130   0.366   0.114  13.549 -0.8830 -2.5408  0.8258
  681TMC3    H110131   0.775   0.194  13.475 -2.3517  0.3925 -2.2386
  681TMC3    H210132   0.687   4.612  13.713 -1.0343  0.5927  1.4579
  681TMC3    C710133   0.876   4.734  13.589 -0.3042  0.1472  0.4174
  681TMC3    C810134   0.423   4.702  13.745  0.5120 -0.4544  0.0030
  681TMC3    O110135   0.919   4.715  13.702 -0.2203  0.9010  0.2738
  681TMC3    O210136   0.306   4.718  13.714  0.0061 -0.4502  0.4645
  682MPD2     C10137   3.373   1.989  10.824  0.4387  0.2976  0.2937
  682MPD2    C110138   3.303   1.881  10.773  0.1327 -0.3081  0.3718
  682MPD2    C210139   3.213   1.818  10.850 -0.4305  0.1546  0.3579
  682MPD2    C310140   3.184   1.867  10.976 -0.1175 -0.0636 -0.6787
  682MPD2    C410141   3.240   1.985  11.015  0.2081  0.6720 -0.1648
  682MPD2    C510142   3.346   2.037  10.951  0.3382 -0.1814  0.1134
  682MPD2     H10143   3.157   1.732  10.816 -1.2830  0.4381  1.0085
  682MPD2    H110144   3.204   2.038  11.102 -0.1229 -0.2232  0.2435
  682MPD2    H210145   3.450   2.039  10.768  1.4719 -0.2712  1.1957
  682MPD2    H310146   3.382   2.133  10.985  0.1726 -0.2484  0.4769
  682MPD2     N10147   3.104   1.790  11.065  0.6831  0.1103  0.0524
  682MPD2    H510148   3.070   1.839  11.147  0.6944 -0.7858  0.5904
  682MPD2    N110149   3.320   1.840  10.636 -0.4396 -0.3195 -0.2700
  682MPD2    H710150   3.264   1.766  10.594 -1.0223 -0.5034  0.8219
  683TMC3    C110151   2.830   1.639  11.306  0.3219  0.0483  0.5259
  683TMC3    C210152   2.781   1.512  11.300  0.2031 -0.2995 -0.2277
  683TMC3    C310153   2.862   1.422  11.238  0.3267  0.1790 -0.5059
  683TMC3    C410154   2.939   1.689  11.244  0.1896 -0.0908  0.0924
  683TMC3    C510155   3.020   1.595  11.183 -0.6452  0.3334 -0.3076
  683TMC3    C610156   2.979   1.463  11.174  1.0064  0.7071  0.5392
  683TMC3     C10157   2.783   1.730  11.412  0.8417  1.1453  0.2207
  683TMC3     O10158   2.785   1.844  11.377  0.5569 -0.0276 -0.2595
  683TMC3     H10159   2.687   1.477  11.342  1.7564 -0.8562  2.6904
  683TMC3    H110160   2.985   1.782  11.277 -2.2416  0.5874  1.6270
  683TMC3    H210161   3.029   1.387  11.115  1.9318  0.2704  1.8758
  683TMC3    C710162   3.096   1.651  11.068 -0.0175  0.5793  0.0737
  683TMC3    C810163   2.797   1.316  11.168  0.0842  0.0382 -0.0261
  683TMC3    O110164   3.146   1.570  10.991 -0.0381  0.2012 -0.0443
  683TMC3    O210165   2.686   1.323  11.121 -0.0382  0.3802  0.6218
  684MPD2     C10166   1.147   1.342  16.677 -0.5482  0.1459  0.0969
  684MPD2    C110167   1.155   1.374  16.546  0.5532  0.1171 -0.3085
  684MPD2    C210168   1.201   1.500  16.503 -0.4290  0.4113  0.6164
  684MPD2    C310169   1.247   1.596  16.593 -0.3287  0.0249 -0.2912
  684MPD2    C410170   1.254   1.562  16.723  0.1597  0.2654 -0.1077
  684MPD2    C510171   1.205   1.439  16.764  0.1743 -0.2930  0.0112
  684MPD2     H10172   1.189   1.520  16.397  0.0290  2.0824  0.8771
  684MPD2    H110173   1.287   1.631  16.800 -0.8210 -0.0721  0.6087
  684MPD2    H210174   1.116   1.245  16.714 -0.5118 -1.0344 -2.9904
  684MPD2    H310175   1.210   1.409  16.868 -0.2202 -2.4413 -0.6065
  684MPD2     N10176   1.297   1.724  16.551  0.3947  0.1540  0.5521
  684MPD2    H510177   1.340   1.780  16.624  1.2495 -1.7213  1.4955
  684MPD2    N110178   1.122   1.286  16.440  0.2641  0.2178  0.5350
  684MPD2    H710179   1.122   1.329  16.348  1.0554 -1.2855 -0.1649
  685TMC3    C110180   1.148   1.095  16.311 -0.0067  0.4211 -0.2657
  685TMC3    C210181   1.081   1.143  16.203 -0.0135 -0.4575 -0.0462
  685TMC3    C310182   1.130   1.108  16.077  0.0623  0.5694  0.1711
  685TMC3    C410183   1.271   1.034  16.298  0.4448  0.4108 -0.7890
  685TMC3    C510184   1.330   1.025  16.175 -0.2459  0.1417 -0.0807
  685TMC3    C610185   1.254   1.049  16.062  0.9517 -0.4971  0.2212
  685TMC3     C10186   1.114   1.149  16.445  0.7393  0.4733 -0.3158
  685TMC3     O10187   1.108   1.075  16.543  0.5015  0.5222 -0.2106
  685TMC3     H10188   0.976   1.168  16.212 -0.0145 -0.7911  0.9511
  685TMC3    H110189   1.336   1.032  16.385 -1.3230 -0.0873  0.5178
  685TMC3    H210190   1.297   1.012  15.969 -0.1697  1.5028 -1.1071
  685TMC3    C710191   1.473   1.021  16.166 -0.0840 -0.0001  0.2244
  685TMC3    C810192   1.056   1.148  15.958 -0.4515 -0.2875 -0.1561
  685TMC3    O110193   1.527   0.942  16.240 -0.0246 -0.8153 -0.4418
  685TMC3    O210194   1.106   1.115  15.855  0.0386  0.3211 -0.0856
  686MPD2     C10195   2.646   1.489  15.465 -0.0382  0.5353  0.3408
  686MPD2    C110196   2.662   1.384  15.556  0.5700  0.0923  0.6489
  686MPD2    C210197   2.696   1.254  15.511  0.2302 -0.6462  0.2288
  686MPD2    C310198   2.726   1.237  15.380  0.1271  0.2597 -0.1188
  686MPD2    C410199   2.723   1.344  15.292 -0.5236  0.6429 -0.5341
  686MPD2    C510200   2.674   1.467  15.333  0.0442  0.5911 -0.8343
  686MPD2     H10201   2.704   1.171  15.581 -0.6873  0.0826  1.1946
  686MPD2    H110202   2.755   1.326  15.190  2.0526  0.0050  0.3870
  686MPD2    H210203   2.608   1.584  15.499  0.6292  1.3353 -1.1230
  686MPD2    H310204   2.675   1.551  15.264 -0.5205  0.0125 -1.5424
  686MPD2     N10205   2.755   1.111  15.321  0.2237 -0.0427  0.4518
  686MPD2    H510206   2.785   1.130  15.226  1.4423 -0.3718  0.7725
  686MPD2    N110207   2.608   1.396  15.685 -0.3315  0.1557  0.5047
  686MPD2    H710208   2.576   1.491  15.701  0.5973  0.2744  1.6638
  687TMC3    C110209   2.686   0.954  15.497  0.0567  0.1036  0.4356
  687TMC3    C210210   2.558   0.993  15.511 -0.0135  0.0857 -0.3743
  687TMC3    C310211   2.504   0.976  15.639  0.4155  0.2527  0.2613
  687TMC3    C410212   2.743   0.867  15.588 -0.0277 -0.1420 -0.5021
  687TMC3    C510213   2.682   0.844  15.707  0.0426 -0.2388 -0.5080
  687TMC3    C610214   2.567   0.912  15.735 -0.2164  0.6081  0.9031
  687TMC3     C10215   2.759   0.980  15.375 -0.8179 -0.8643 -0.1793
  687TMC3     O10216   2.809   0.883  15.326  0.3732  0.7297 -0.3983
  687TMC3     H10217   2.509   1.041  15.427 -1.6939  1.4993  1.4291
  687TMC3    H110218   2.846   0.833  15.580  0.5353  1.4989 -0.2861
  687TMC3    H210219   2.522   0.916  15.833  0.6623 -0.1483  1.3374
  687TMC3    C710220   2.769   0.826  15.817 -0.0382 -0.2469  0.4845
  687TMC3    C810221   2.382   1.045  15.666 -0.7694 -0.0074 -0.8755
  687TMC3    O110222   2.752   0.897  15.917 -0.1332 -0.1829 -0.2860
  687TMC3    O210223   2.304   0.980  15.735 -0.1551  0.1615 -0.3080
  688MPD2     C10224   1.661   0.175  17.167  1.4633 -0.2416 -0.0886
  688MPD2    C110225   1.695   0.044  17.210 -0.0481  0.1507 -0.0656
  688MPD2    C210226   1.800   4.717  17.145  0.2353  0.1681 -0.1396
  688MPD2    C310227   1.861   0.034  17.034 -0.7034 -0.1152  0.4012
  688MPD2    C410228   1.824   0.163  16.995  0.1494  0.4216  0.4796
  688MPD2    C510229   1.731   0.227  17.062 -0.5771  0.0119  0.0442
  688MPD2     H10230   1.830   4.620  17.183 -3.2229 -0.9491 -0.3105
  688MPD2    H110231   1.867   0.211  16.908 -1.3415  0.4996 -0.2131
  688MPD2    H210232   1.587   0.226  17.229  2.6433  1.1399  0.1882
  688MPD2    H310233   1.718   0.331  17.035 -1.5699  0.4106  2.0077
  688MPD2     N10234   1.964   4.712  16.958  0.4504  0.1142 -0.6725
  688MPD2    H510235   1.983   0.015  16.868 -0.2007  0.9024 -0.4354
  688MPD2    N110236   1.643   4.716  17.327 -0.4801 -0.9541 -0.1282
  688MPD2    H710237   1.675   4.622  17.346  2.1394 -0.5674 -2.7296
  689TMC3    C110238   1.539   4.714  17.537 -0.7614 -0.3906  0.4506
  689TMC3    C210239   1.489   0.054  17.639  0.3837  0.0637 -0.5784
  689TMC3    C310240   1.477   0.015   0.006 -0.5214  1.1379  0.3414
  689TMC3    C410241   1.587   4.588  17.564 -0.3563 -0.4667 -0.2371
  689TMC3    C510242   1.576   4.545  17.697  0.0877  0.2071  0.6138
  689TMC3    C610243   1.528   4.630   0.039  0.1059  0.5976 -0.7823
  689TMC3     C10244   1.540   0.032  17.402  0.2293 -0.4552  0.4815
  689TMC3     O10245   1.459   0.123  17.376  0.0852 -0.1527  0.1736
  689TMC3     H10246   1.437   0.144  17.608  1.2196  0.2910 -1.3162
  689TMC3    H110247   1.646   4.533  17.492 -2.8780 -1.0066 -1.8651
  689TMC3    H210248   1.523   4.586   0.138  0.3329 -0.6452 -1.3209
  689TMC3    C710249   1.603   4.404  17.737  0.1480 -0.0633  0.3379
  689TMC3    C810250   1.493   0.110   0.111 -0.5211  0.0154 -0.3043
  689TMC3    O110251   1.644   4.383   0.099 -0.8023  0.6327  0.1012
  689TMC3    O210252   1.505   0.063   0.225 -0.0238  0.3123 -0.4423
  690MPD2     C10253   4.217   2.029  15.882  0.3509 -0.0081 -0.3692
  690MPD2    C110254   4.182   1.936  15.789  0.1837  0.0542  0.0058
  690MPD2    C210255   4.286   1.897  15.705 -0.2972  0.1127  0.1092
  690MPD2    C310256   4.416   1.948  15.708  0.4142  0.0141 -0.0035
  690MPD2    C410257   4.446   2.033  15.809 -0.2608  0.0274  1.1818
  690MPD2    C510258   4.346   2.080  15.891 -0.8458 -0.0401 -0.4218
  690MPD2     H10259   4.262   1.829  15.624  0.2833  0.7237 -0.5810
  690MPD2    H110260   4.543   2.080  15.812  0.4500 -1.4067  0.4485
  690MPD2    H210261   4.139   2.069  15.946  0.7688  1.2467 -0.6604
  690MPD2    H310262   4.368   2.151  15.970  3.2970 -1.5665 -0.1922
  690MPD2     N10263   4.519   1.928  15.614 -0.3983 -0.2447 -0.3970
  690MPD2    H510264   4.608   1.964  15.647  0.5219 -1.4778 -1.5149
  690MPD2    N110265   4.050   1.888  15.781  0.2980  0.2109  0.3947
  690MPD2    H710266   4.038   1.811  15.715  0.0767  0.7698 -0.2224
  691TMC3    C110267   3.825   1.853  15.846 -0.7008  0.6080  0.5476
  691TMC3    C210268   3.702   1.917  15.881  0.0767  0.4379  0.7375
  691TMC3    C310269   3.613   1.837  15.939  0.3413  0.6305 -0.1785
  691TMC3    C410270   3.850   1.718  15.856  0.4747 -0.6298  0.4353
  691TMC3    C510271   3.748   1.645  15.908  0.3098  0.2935  0.0353
  691TMC3    C610272   3.633   1.701  15.959 -0.6108  0.3357 -0.6687
  691TMC3     C10273   3.937   1.945  15.838  0.1300  0.9440 -0.4070
  691TMC3     O10274   3.929   2.062  15.873  0.1987  0.3751  0.4354
  691TMC3     H10275   3.689   2.024  15.880  0.6827  0.5026  0.0678
  691TMC3    H110276   3.952   1.682  15.855  1.0509  0.9784  0.7331
  691TMC3    H210277   3.552   1.641  16.001 -1.6063  0.7369 -2.0209
  691TMC3    C710278   3.790   1.515  15.963  0.5418 -0.0928  1.1644
  691TMC3    C810279   3.492   1.893  15.990  0.1986  0.4034  0.4126
  691TMC3    O110280   3.909   1.485  15.975 -0.1334 -0.1337 -0.0858
  691TMC3    O210281   3.450   1.851  16.101 -0.2391  0.5970  0.1082
  692TMC3    C110282   0.863   2.991  15.787 -0.1791  0.5071  0.1772
  692TMC3    C210283   0.971   3.054  15.841  0.5279 -0.1762  0.8134
  692TMC3    C310284   1.072   2.972  15.891 -0.1972 -0.4767 -0.1582
  692TMC3    C410285   0.854   2.858  15.770  0.7456  0.4099 -0.3930
  692TMC3    C510286   0.949   2.782  15.835 -0.3524  0.3344  0.2377
  692TMC3    C610287   1.054   2.833  15.899  0.5080 -0.0606  0.0053
  692TMC3     C10288   0.740   3.072  15.774  0.0507  0.2173 -0.3465
  692TMC3     O10289   0.641   3.000  15.781 -0.5926  0.3497 -0.5465
  692TMC3     H10290   1.003   3.141  15.784  1.3574 -0.4009  0.9363
  692TMC3    H110291   0.771   2.813  15.718  0.8852  0.2188 -0.4513
  692TMC3    H210292   1.145   2.775  15.911 -0.3814 -1.4277  0.0294
  692TMC3    C710293   0.951   2.642  15.808 -0.1822 -0.7939  0.0253
  692TMC3    C810294   1.119   3.002  16.028 -0.0586 -0.3641  0.2132
  692TMC3    O110295   0.883   2.612  15.711  0.5794 -0.4860  0.0336
  692TMC3    O210296   1.188   2.918  16.085 -0.3043  0.1266 -0.3457
  693MPD2     C10297   0.392   1.254  10.624  0.0741 -0.0024 -0.2420
  693MPD2    C110298   0.366   1.169  10.728 -0.1658  0.0033 -0.4063
  693MPD2    C210299   0.473   1.118  10.796 -0.1331  0.1545 -0.0767
  693MPD2    C310300   0.606   1.136  10.759 -0.1236 -0.0812  0.9046
  693MPD2    C410301   0.625   1.197  10.636 -0.7113 -0.1420 -0.7140
  693MPD2    C510302   0.517   1.245  10.565  0.2535 -0.1083  0.3196
  693MPD2     H10303   0.450   1.046  10.874 -1.5673  1.0359  0.3095
  693MPD2    H110304   0.726   1.215  10.601 -0.2303 -3.3518 -0.9471
  693MPD2    H210305   0.315   1.297  10.561  2.2240 -0.8688 -3.4253
  693MPD2    H310306   0.527   1.294  10.469 -1.5572 -1.5944 -0.6283
  693MPD2     N10307   0.711   1.079  10.827 -0.0337 -1.1254  0.2626
  693MPD2    H510308   0.799   1.064  10.780 -0.8104  0.5539 -1.7062
  693MPD2    N110309   0.226   1.143  10.766  0.2670 -0.1669  0.4718
  693MPD2    H710310   0.158   1.157  10.693  1.2658 -1.8651 -0.7997
  694TMC3    C110311   0.034   1.075  10.896 -0.2346 -0.9660  0.1385
  694TMC3    C210312   4.713   1.018  10.783  0.0247  0.1072  0.4497
  694TMC3    C310313   4.613   0.933  10.809  0.0019  0.3335 -0.2666
  694TMC3    C410314   4.738   1.033  11.022  0.3164  0.0974 -0.1646
  694TMC3    C510315   4.650   0.935  11.038  0.2693 -0.1695  0.4429
  694TMC3    C610316   4.585   0.881  10.934 -1.0172 -0.2188 -0.6172
  694TMC3     C10317   0.179   1.111  10.887 -0.5818 -0.8734  0.3775
  694TMC3     O10318   0.252   1.107  10.984 -0.0789  0.2097 -0.2740
  694TMC3     H10319   0.002   1.056  10.686  4.2513 -2.2200  0.7940
  694TMC3    H110320   0.055   1.079  11.102 -1.3071  0.3447  0.8426
  694TMC3    H210321   4.504   0.811  10.951  0.8109 -2.0207  0.5991
  694TMC3    C710322   4.652   0.867  11.168  0.2363  0.5493 -0.4744
  694TMC3    C810323   4.536   0.880  10.698  0.4638  0.3790 -0.4218
  694TMC3    O110324   4.684   0.929  11.267  0.9596 -0.0076  0.0656
  694TMC3    O210325   4.510   0.759  10.694 -0.0059 -0.5924  0.4847
  695MPD2     C10326   1.542   2.144  13.256  1.0468 -0.6526  0.2297
  695MPD2    C110327   1.498   2.165  13.388  0.1549  0.6287  0.3572
  695MPD2    C210328   1.363   2.180  13.406  0.7664  0.3486  0.1410
  695MPD2    C310329   1.270   2.170  13.300  0.1407 -0.8326 -0.4541
  695MPD2    C410330   1.319   2.149  13.173 -0.3770  0.1605 -0.0268
  695MPD2    C510331   1.452   2.138  13.149 -0.0313  0.5050  0.4659
  695MPD2     H10332   1.328   2.195  13.507 -2.7858 -3.0496 -0.5903
  695MPD2    H110333   1.255   2.144  13.085  1.7832  0.7701 -1.6546
  695MPD2    H210334   1.642   2.113  13.228  1.6639  0.2183  1.4978
  695MPD2    H310335   1.487   2.116  13.049 -1.4922 -2.0312  0.5016
  695MPD2     N10336   1.139   2.196  13.331  0.4199  0.3089  0.3350
  695MPD2    H510337   1.122   2.203  13.431  0.3180  2.6721  0.1558
  695MPD2    N110338   1.587   2.179  13.495 -0.2619  0.4779  0.0745
  695MPD2    H710339   1.545   2.208  13.583  1.9857 -0.7204  1.5447
  696TMC3    C110340   0.914   2.281  13.306  0.2834  0.4675  1.0421
  696TMC3    C210341   0.887   2.240  13.433  0.0414 -0.9282  0.1054
  696TMC3    C310342   0.779   2.294  13.495  0.1590  0.3430  0.3647
  696TMC3    C410343   0.841   2.381  13.247 -0.1018  0.4559 -0.1992
  696TMC3    C510344   0.733   2.427  13.309 -0.6267 -0.2228  0.2299
  696TMC3    C610345   0.698   2.386  13.435  0.8158 -0.5849 -0.0911
  696TMC3     C10346   1.045   2.245  13.244 -0.1475 -0.5465 -0.2607
  696TMC3     O10347   1.058   2.266  13.122  0.5451 -0.2006 -0.0156
  696TMC3     H10348   0.929   2.148  13.471  0.7594  0.2601  2.1575
  696TMC3    H110349   0.880   2.427  13.157  1.7641 -0.2800  0.2402
  696TMC3    H210350   0.611   2.421  13.490  0.6545 -1.5415  0.2617
  696TMC3    C710351   0.685   2.556  13.260 -0.1894  0.4522 -0.0866
  696TMC3    C810352   0.769   2.259  13.640 -0.4645  0.4396 -0.2211
  696TMC3    O110353   0.723   2.605  13.155 -0.3744 -0.3289  0.0831
  696TMC3    O210354   0.801   2.149  13.682  0.1795  0.0450  0.2538
  697MPD2     C10355   0.402   4.376  15.779 -0.3393  0.3561 -1.0268
  697MPD2    C110356   0.445   4.323  15.657  0.0391 -0.1664  0.6065
  697MPD2    C210357   0.508   4.410  15.566  0.4348 -0.4815 -0.0717
  697MPD2    C310358   0.522   4.547  15.593 -0.7096 -0.4198 -0.5390
  697MPD2    C410359   0.478   4.591  15.714 -0.0010  0.7160  0.0788
  697MPD2    C510360   0.415   4.507  15.801  0.5147 -0.3127 -1.0356
  697MPD2     H10361   0.541   4.378  15.468  2.9841 -1.0017  0.9568
  697MPD2    H110362   0.501   4.691  15.749 -1.1910 -0.2278  3.5766
  697MPD2    H210363   0.370   4.314  15.862 -1.9306  0.4322 -1.5778
  697MPD2    H310364   0.385   4.543  15.899  0.3886 -1.6159 -0.5803
  697MPD2     N10365   0.586   4.629  15.493 -0.2799 -0.2631 -0.2176
  697MPD2    H510366   0.596   4.585  15.402  0.7350 -0.5051  0.0101
  697MPD2    N110367   0.428   4.186  15.625  0.2134 -0.6502 -0.0024
  697MPD2    H710368   0.464   4.161  15.533  0.5380  0.0528 -0.0719
  698TMC3    C110369   0.695   0.068  15.394  0.4942 -0.4689 -0.2600
  698TMC3    C210370   0.792   0.157  15.428 -0.4281  0.5798  0.1868
  698TMC3    C310371   0.862   0.227  15.330 -0.3091 -0.5600 -0.1236
  698TMC3    C410372   0.659   0.043  15.264 -0.0661  0.3748 -0.0527
  698TMC3    C510373   0.735   0.107  15.162  0.1997 -0.1891 -0.1234
  698TMC3    C610374   0.841   0.194  15.194 -0.4494  0.2636 -1.4514
  698TMC3     C10375   0.619   0.021  15.510 -0.1264  0.3764  0.5573
  698TMC3     O10376   0.603   0.091  15.612  0.7980  0.0874 -0.1890
  698TMC3     H10377   0.813   0.181  15.532  0.8182 -0.8496  0.2713
  698TMC3    H110378   0.577   4.718  15.235  0.8300 -1.1164  0.7040
  698TMC3    H210379   0.885   0.252  15.113  0.6877  2.2089  0.5520
  698TMC3    C710380   0.667   0.107  15.030 -0.1146 -0.0708  0.1604
  698TMC3    C810381   0.958   0.325  15.373  0.1519  0.0305 -0.0808
  698TMC3    O110382   0.552   0.062  15.024  0.5912 -0.7219  0.0440
  698TMC3    O210383   0.950   0.352  15.493  0.2489  0.1054  0.3281
  699TMC3    C110384   0.788   2.357  12.854 -0.2201  0.3654  1.1119
  699TMC3    C210385   0.818   2.236  12.913 -0.2946 -0.4178  0.2109
  699TMC3    C310386   0.722   2.153  12.953  0.1221 -0.3175  0.1811
  699TMC3    C410387   0.660   2.394  12.829  0.2240 -0.1173 -0.6333
  699TMC3    C510388   0.562   2.302  12.870 -0.5634  0.4589  0.6965
  699TMC3    C610389   0.590   2.186  12.934  0.0629  0.5278  0.6439
  699TMC3     C10390   0.896   2.458  12.843  0.1173 -0.3560  0.1554
  699TMC3     O10391   0.864   2.561  12.790 -0.0301 -0.1499  0.5378
  699TMC3     H10392   0.920   2.221  12.945 -0.6919 -0.1350  1.5983
  699TMC3    H110393   0.633   2.488  12.783 -1.5563 -0.4868 -0.3390
  699TMC3    H210394   0.512   2.129  12.984  0.7920 -2.3075 -1.4921
  699TMC3    C710395   0.416   2.342  12.873 -0.5278  0.4898 -0.0698
  699TMC3    C810396   0.748   2.048  13.052  0.6234  0.3644 -0.5257
  699TMC3    O110397   0.353   2.338  12.979 -0.0192  0.3400  0.1323
  699TMC3    O210398   0.648   1.998  13.099  0.3474 -0.1989 -0.4181
  700TMC3    C110399   4.457   0.551  17.198 -0.0682  0.5285 -0.2771
  700TMC3    C210400   4.515   0.428  17.192  0.8305 -0.1613 -1.1384
  700TMC3    C310401   4.618   0.407  17.281 -1.0075  0.2714  0.1890
  700TMC3    C410402   4.503   0.650  17.282  0.2498  0.0278  0.5649
  700TMC3    C510403   4.612   0.618  17.364 -0.0940 -0.1460 -0.0571
  700TMC3    C610404   4.673   0.501  17.364  0.8649  0.4555  0.3554
  700TMC3     C10405   4.393   0.601  17.077 -0.3666 -0.2237  0.3060
  700TMC3     O10406   4.311   0.538  17.015  0.4845  0.2533  0.0085
  700TMC3     H10407   4.483   0.355  17.118 -1.1387  0.5277 -0.9513
  700TMC3    H110408   4.458   0.747  17.298  0.7510  0.2515  0.5945
  700TMC3    H210409   0.008   0.471  17.437  0.2823  0.5473  0.9851
  700TMC3    C710410   4.664   0.722  17.458 -0.1450 -0.1902  0.2590
  700TMC3    C810411   4.702   0.291  17.266  0.6929  0.3405 -0.5854
  700TMC3    O110412   0.038   0.709  17.501 -0.2657  0.3454 -0.1302
  700TMC3    O210413   0.084   0.309  17.285 -0.3674  0.5274  0.1255
  701TMC3    C110414   4.322   3.666  15.579  0.0306  0.1238  0.6209
  701TMC3    C210415   4.379   3.574  15.497  0.4172 -0.0213  0.1887
  701TMC3    C310416   4.495   3.606  15.431 -0.5436 -0.7432 -0.5907
  701TMC3    C410417   4.381   3.783  15.600 -0.5847 -0.1623  0.5417
  701TMC3    C510418   4.494   3.818  15.539 -0.1658  0.2244 -0.6253
  701TMC3    C610419   4.548   3.734  15.446 -0.2079  0.3270  0.1365
  701TMC3     C10420   4.209   3.629  15.663 -0.7981  0.3801  0.3587
  701TMC3     O10421   4.184   3.707  15.755  0.3119  0.1977 -1.0586
  701TMC3     H10422   4.339   3.474  15.502  1.3513 -0.2836  2.5566
  701TMC3    H110423   4.324   3.856  15.657  2.6983  2.4524  0.4772
  701TMC3    H210424   4.640   3.754  15.393 -0.0450  0.4219  0.4571
  701TMC3    C710425   4.589   3.908  15.605 -0.4921  0.1294  0.4723
  701TMC3    C810426   4.547   3.521  15.332  0.3684 -0.8570 -0.4183
  701TMC3    O110427   4.690   3.936  15.542  0.5926  0.2871  0.1045
  701TMC3    O210428   4.658   3.542  15.294 -0.7692  1.0320 -0.1741
  702MPD2     C10429   4.004   1.485   9.924  0.1993 -0.0823  0.1407
  702MPD2    C110430   4.065   1.561  10.029 -0.0220  0.7252 -0.1218
  702MPD2    C210431   4.084   1.692  10.002 -0.9885  0.7311  0.1119
  702MPD2    C310432   4.052   1.748   9.878 -0.0624 -0.1721  0.2046
  702MPD2    C410433   3.994   1.667   9.781 -0.7494  0.0770 -0.5660
  702MPD2    C510434   3.972   1.538   9.802  0.7998 -0.0024 -0.4991
  702MPD2     H10435   4.135   1.749  10.078 -0.3927 -0.1643  0.3891
  702MPD2    H110436   3.965   1.708   9.685  2.2077  0.5988 -1.2287
  702MPD2    H210437   3.972   1.382   9.940  0.2876 -0.3670 -1.4988
  702MPD2    H310438   3.926   1.473   9.728 -1.2479  1.8523 -0.8401
  702MPD2     N10439   4.057   1.886   9.849  0.6006 -0.0419 -0.9682
  702MPD2    H510440   4.043   1.912   9.752  1.8271 -0.2514 -1.1993
  702MPD2    N110441   4.093   1.520  10.163  0.2744 -0.0446 -0.0413
  702MPD2    H710442   4.115   1.594  10.228 -0.3112  0.5759 -0.5408
  703TMC3    C110443   4.080   2.007  10.067 -0.1729  0.1808 -1.0633
  703TMC3    C210444   3.973   1.947  10.126 -0.3985 -0.4189  0.1313
  703TMC3    C310445   3.942   1.959  10.254  0.7665 -0.7306  0.0005
  703TMC3    C410446   4.141   2.108  10.135  0.0296 -0.3342  0.4504
  703TMC3    C510447   4.102   2.138  10.264  0.2767  0.3929  0.7190
  703TMC3    C610448   4.022   2.049  10.330 -0.0709  0.2628 -0.4312
  703TMC3     C10449   4.105   1.992   9.925 -0.8982 -0.1284  0.6795
  703TMC3     O10450   4.126   2.105   9.880 -0.3096  0.0326  0.5155
  703TMC3     H10451   3.913   1.889  10.056  1.1109 -1.4351 -0.3165
  703TMC3    H110452   4.219   2.162  10.084 -0.5522  0.5376  0.4877
  703TMC3    H210453   4.016   2.042  10.438  1.0883 -1.7083 -0.4829
  703TMC3    C710454   4.214   2.202  10.333 -0.4292 -0.1724 -0.0686
  703TMC3    C810455   3.875   1.839  10.312 -0.3692  0.2623  0.4175
  703TMC3    O110456   4.324   2.182  10.289 -0.2318  0.8497 -0.0407
  703TMC3    O210457   3.854   1.745  10.234 -0.3432 -0.1882  0.4553
  704TMC3    C110458   2.313   4.348  12.456  0.7133 -0.5172 -0.2254
  704TMC3    C210459   2.382   4.339  12.339 -0.8202 -0.0274  0.5028
  704TMC3    C310460   2.454   4.225  12.321  0.5646 -0.2668  0.1796
  704TMC3    C410461   2.327   4.257  12.553 -0.2213 -0.4646 -0.6324
  704TMC3    C510462   2.395   4.141  12.533  0.2002  0.0959  0.0651
  704TMC3    C610463   2.466   4.130  12.415 -0.2080 -0.3600 -0.4097
  704TMC3     C10464   2.179   4.404  12.447 -0.0755 -1.0512 -1.0140
  704TMC3     O10465   2.121   4.441  12.549 -0.2178 -0.1104 -0.4521
  704TMC3     H10466   2.371   4.413  12.260  1.8205  1.9059  1.9502
  704TMC3    H110467   2.307   4.294  12.653  0.4160  3.0263 -1.7771
  704TMC3    H210468   2.499   4.030  12.388 -1.6920 -1.4975  1.9448
  704TMC3    C710469   2.310   4.033  12.564 -0.1061  0.1034 -0.4125
  704TMC3    C810470   2.454   4.191  12.177 -0.2104  0.5956  0.4359
  704TMC3    O110471   2.278   3.959  12.474  0.2597 -0.2141 -0.5451
  704TMC3    O210472   2.369   4.242  12.109 -0.3071  0.1295 -0.0174
  705MPD2     C10473   1.084   2.934  16.704 -0.9007  0.5631 -0.2075
  705MPD2    C110474   1.066   2.846  16.603 -0.4491 -0.0124  0.7243
  705MPD2    C210475   0.940   2.808  16.563 -0.7090  0.4068  0.1576
  705MPD2    C310476   0.830   2.877  16.618  0.5776 -0.1138 -0.6727
  705MPD2    C410477   0.852   2.964  16.716  0.1496  0.1756 -0.0593
  705MPD2    C510478   0.974   2.979  16.769  0.2419  0.2580 -0.4009
  705MPD2     H10479   0.931   2.752  16.471 -0.9831 -0.4807  0.7235
  705MPD2    H110480   0.771   3.017  16.765  0.2534  1.3927 -1.1923
  705MPD2    H210481   1.177   2.964  16.751  0.9382 -1.6043 -2.4310
  705MPD2    H310482   0.986   3.053  16.847  1.9797  1.7549 -2.0978
  705MPD2     N10483   0.696   2.872  16.563  0.3004  0.5735 -0.5879
  705MPD2    H510484   0.633   2.942  16.600  0.0582 -0.0885  0.2610
  705MPD2    N110485   1.173   2.775  16.540 -0.0936  0.3799  0.2253
  705MPD2    H710486   1.139   2.718  16.464 -0.7803  1.0293  0.0394
  706TMC3    C110487   1.450   2.594  16.301 -0.0985 -0.5148  0.0479
  706TMC3    C210488   1.502   2.694  16.216 -0.2495  0.2721 -0.0439
  706TMC3    C310489   1.487   2.824  16.246  0.5377 -0.8242  0.4030
  706TMC3    C410490   1.396   2.624  16.422 -0.2203 -0.4563  0.0085
  706TMC3    C510491   1.388   2.757  16.445 -0.0238  0.2055  0.3257
  706TMC3    C610492   1.424   2.855  16.360 -0.3680  0.0567 -0.2038
  706TMC3     C10493   1.517   2.472  16.298  0.1730 -0.1708 -0.1906
  706TMC3     O10494   1.545   2.427  16.414 -0.1985 -0.1162 -0.1615
  706TMC3     H10495   1.568   2.663  16.136 -1.1778 -2.9428  0.4161
  706TMC3    H110496   1.338   2.552  16.477  0.1045 -0.8277 -0.1369
  706TMC3    H210497   1.399   2.957  16.387 -0.0368 -0.3206  1.5457
  706TMC3    C710498   1.307   2.806  16.553  0.2576  0.2883 -0.0461
  706TMC3    C810499   1.489   2.929  16.141 -0.2298 -0.7214 -0.5480
  706TMC3    O110500   1.360   2.885  16.630 -0.0749 -0.5181 -0.1822
  706TMC3    O210501   1.488   2.881  16.032  0.2239 -0.1327 -0.4631
  707TMC3    C110502   2.440   0.894   1.121  0.1003 -0.3768 -0.1931
  707TMC3    C210503   2.490   0.777   1.184  0.0283  0.1931  0.5473
  707TMC3    C310504   2.410   0.698   1.264  0.8027 -0.5413 -0.1461
  707TMC3    C410505   2.313   0.937   1.136  0.6217 -0.0146 -0.7955
  707TMC3    C510506   2.238   0.853   1.216  0.1844 -0.1802  0.3732
  707TMC3    C610507   2.281   0.740   1.284 -0.5877  0.7952 -0.1710
  707TMC3     C10508   2.538   0.962   1.046 -0.6430 -0.2253 -0.4537
  707TMC3     O10509   2.649   0.945   1.093 -0.1109 -0.3637 -0.3831
  707TMC3     H10510   2.590   0.746   1.156 -0.4144 -0.8018  0.0420
  707TMC3    H110511   2.263   1.024   1.093  0.9575  1.2181  1.2973
  707TMC3    H210512   2.210   0.689   1.349 -0.1766  0.4250 -0.0154
  707TMC3    C710513   2.096   0.872   1.219 -0.1737 -0.9977 -0.5743
  707TMC3    C810514   2.446   0.571   1.326 -0.6785 -0.3623 -0.5106
  707TMC3    O110515   2.058   0.978   1.171  0.1903  0.2486 -0.4555
  707TMC3    O210516   2.349   0.514   1.369 -0.1562  0.7824 -0.4151
  708MPD2     C10517   3.755   0.298  14.117 -0.4459  0.6062  0.1708
  708MPD2    C110518   3.700   0.324  14.241  0.2852 -0.4218  0.0647
  708MPD2    C210519   3.787   0.339  14.342 -0.2539  0.0285 -0.0321
  708MPD2    C310520   3.921   0.338  14.325  1.0192 -0.5370 -0.2342
  708MPD2    C410521   3.978   0.313  14.204  0.5745  0.3067 -0.0098
  708MPD2    C510522   3.894   0.293  14.103 -0.4335 -0.7790  0.0932
  708MPD2     H10523   3.748   0.354  14.442  1.6486  1.6888  0.4688
  708MPD2    H110524   4.084   0.300  14.187  0.8426  1.7037  0.5690
  708MPD2    H210525   3.693   0.264  14.034  0.0009 -0.1932  0.1657
  708MPD2    H310526   3.926   0.259  14.005  0.7805 -1.8515  0.8756
  708MPD2     N10527   3.999   0.351  14.443 -0.3275  0.0254 -0.1725
  708MPD2    H510528   3.942   0.359  14.527 -0.8266  0.7072 -0.5820
  708MPD2    N110529   3.565   0.339  14.269  0.5076 -0.1354 -0.3646
  708MPD2    H710530   3.533   0.367  14.362  2.5599 -1.9129  0.8828
  709TMC3    C110531   3.353   0.418  14.219 -0.1390 -0.4903  0.4881
  709TMC3    C210532   3.350   0.542  14.160  0.1055  0.4844  0.4696
  709TMC3    C310533   3.326   0.650  14.234 -0.3916  0.1645 -0.2588
  709TMC3    C410534   3.333   0.408  14.348 -0.6548  0.1483  0.4068
  709TMC3    C510535   3.325   0.523  14.423  0.2566 -0.1428 -0.5967
  709TMC3    C610536   3.306   0.646  14.369 -0.4037 -0.0457 -0.4400
  709TMC3     C10537   3.465   0.341  14.171 -0.3462 -0.0687 -0.3267
  709TMC3     O10538   3.479   0.327  14.052  0.1598 -0.2394 -0.2384
  709TMC3     H10539   3.351   0.557  14.052 -0.1854  0.6218  0.4858
  709TMC3    H110540   3.318   0.310  14.394 -0.1689 -0.3617 -0.5165
  709TMC3    H210541   3.314   0.735  14.430  3.1998 -0.7284  0.1051
  709TMC3    C710542   3.417   0.515  14.536  0.4473 -0.2842  0.1243
  709TMC3    C810543   3.342   0.788  14.181  0.1072  0.3480  0.0306
  709TMC3    O110544   3.504   0.427  14.521 -0.1883  0.5892 -0.0609
  709TMC3    O210545   3.286   0.879  14.237  0.3954  0.3378  0.1037
  710TMC3    C110546   0.346   2.422   0.085 -0.0582 -0.5488  0.5398
  710TMC3    C210547   0.403   2.454  17.725 -0.1592 -0.0800  0.0759
  710TMC3    C310548   0.541   2.449  17.719  1.7290 -0.0062  0.1238
  710TMC3    C410549   0.412   2.364   0.186  0.5599  0.0381 -0.5946
  710TMC3    C510550   0.549   2.353   0.171 -0.5016  0.3568  0.4505
  710TMC3    C610551   0.620   2.402   0.065  0.4721  0.0043 -0.9128
  710TMC3     C10552   0.214   2.470   0.110 -0.6188  0.0336 -0.8024
  710TMC3     O10553   0.124   2.472   0.020 -0.4744 -0.1456 -0.2136
  710TMC3     H10554   0.344   2.485  17.639  0.3160  2.6079  0.7333
  710TMC3    H110555   0.357   2.324   0.270  1.1584 -2.3589 -1.3540
  710TMC3    H210556   0.727   2.402   0.047  0.6012 -0.3108 -0.1169
  710TMC3    C710557   0.616   2.262   0.267 -0.1111  0.2686 -0.1486
  710TMC3    C810558   0.614   2.510  17.608  0.2783 -0.4687  0.5230
  710TMC3    O110559   0.552   2.215   0.361  0.0736  0.1656 -0.5942
  710TMC3    O210560   0.728   2.475  17.575 -0.3022 -0.9721  0.2049
  711TMC3    C110561   0.228   3.225  14.798  0.5868 -0.0151 -0.0107
  711TMC3    C210562   0.230   3.326  14.889  0.5061 -0.6847 -0.0040
  711TMC3    C310563   0.348   3.382  14.919 -0.2574  0.2577  0.0823
  711TMC3    C410564   0.334   3.183  14.721 -0.1684 -0.0622  0.3774
  711TMC3    C510565   0.457   3.241  14.747  0.0161 -0.1840  0.9239
  711TMC3    C610566   0.457   3.351  14.837  0.2490 -0.7835 -0.0320
  711TMC3     C10567   0.097   3.160  14.776 -0.3448  0.0510  0.0614
  711TMC3     O10568   0.099   3.052  14.716 -0.5718  0.1834  0.1666
  711TMC3     H10569   0.142   3.347  14.949 -0.2979 -3.4968 -0.1789
  711TMC3    H110570   0.316   3.099  14.656 -1.0955  1.5785 -1.4946
  711TMC3    H210571   0.552   3.403  14.851 -0.9371  1.1190  0.9335
  711TMC3    C710572   0.536   3.138  14.793  0.4075  0.5068 -0.7910
  711TMC3    C810573   0.382   3.399  15.061 -0.3362 -0.1357 -0.0037
  711TMC3    O110574   0.595   3.164  14.897  0.3848 -0.3661 -0.7901
  711TMC3    O210575   0.292   3.424  15.144 -0.5308  0.1769  0.1197
  712MPD2     C10576   1.730   4.243  13.838  0.0684  0.4736 -0.1770
  712MPD2    C110577   1.660   4.288  13.731  0.0970 -0.2589  0.5332
  712MPD2    C210578   1.663   4.424  13.705 -0.1601 -0.3563 -0.1616
  712MPD2    C310579   1.745   4.513  13.777 -0.3019 -0.1446 -0.5809
  712MPD2    C410580   1.799   4.470  13.894 -0.1338  0.1044  0.0901
  712MPD2    C510581   1.787   4.331  13.924  0.9361 -0.1739 -0.6894
  712MPD2     H10582   1.600   4.454  13.622  0.9783  1.5174 -0.3513
  712MPD2    H110583   1.853   4.539  13.958  0.2591 -0.9169  0.8688
  712MPD2    H210584   1.733   4.142  13.876  0.5635 -0.3533 -2.4113
  712MPD2    H310585   1.838   4.292  14.011  1.2794 -1.4898 -1.4845
  712MPD2     N10586   1.760   4.646  13.741 -0.5042 -0.4549 -0.1714
  712MPD2    H510587   1.831   4.687  13.800  0.9074 -0.1867 -2.0447
  712MPD2    N110588   1.591   4.206  13.636  0.1738  0.0405 -0.0422
  712MPD2    H710589   1.558   4.256  13.554  0.5638  0.7210  0.2184
  713TMC3    C110590   1.767   0.101  13.606 -0.0762 -0.7533  0.2051
  713TMC3    C210591   1.902   0.119  13.628 -0.4882 -0.3611 -0.0474
  713TMC3    C310592   1.951   0.233  13.573 -0.0448 -0.3524  0.8332
  713TMC3    C410593   1.687   0.187  13.543  0.3386 -0.1953  0.3617
  713TMC3    C510594   1.735   0.306  13.507 -0.8087  0.4928  0.2262
  713TMC3    C610595   1.872   0.332  13.524 -0.3859  0.6818  0.9550
  713TMC3     C10596   1.706   4.708  13.632 -0.2293  0.6071  0.2699
  713TMC3     O10597   1.611   4.679  13.560  0.0022  0.1439  0.1209
  713TMC3     H10598   1.971   0.039  13.653 -2.4861 -1.7175  1.1714
  713TMC3    H110599   1.586   0.158  13.515  1.7966 -0.7429 -4.2702
  713TMC3    H210600   1.913   0.429  13.497  0.9603 -0.6065 -1.5920
  713TMC3    C710601   1.689   0.351  13.377 -0.4018 -0.2945 -0.4256
  713TMC3    C810602   2.094   0.250  13.558  0.4941 -0.2936 -0.0744
  713TMC3    O110603   1.781   0.383  13.308 -0.2329 -0.2934  0.1584
  713TMC3    O210604   2.132   0.325  13.470 -0.0204 -0.0582  0.1682
  714MPD2     C10605   4.101   2.927   1.126  1.3049  0.2415 -0.5989
  714MPD2    C110606   4.059   2.846   1.024  0.1493  0.3532 -0.1496
  714MPD2    C210607   3.988   2.896   0.919 -0.0149 -0.0728  0.1262
  714MPD2    C310608   3.960   3.032   0.909  0.4617  0.4139  0.4160
  714MPD2    C410609   3.996   3.104   1.019  0.5317 -0.3746  0.8508
  714MPD2    C510610   4.066   3.063   1.128 -0.2771  0.4458 -0.3371
  714MPD2     H10611   3.965   2.830   0.836 -0.8575 -0.2156  0.4812
  714MPD2    H110612   3.972   3.210   1.027  0.2725 -0.3242 -0.6428
  714MPD2    H210613   4.157   2.886   1.208  0.5218  3.0498  1.3386
  714MPD2    H310614   4.103   3.126   1.209  0.4734 -1.0967  0.5174
  714MPD2     N10615   3.892   3.075   0.788  0.2255  0.1444  0.4667
  714MPD2    H510616   3.847   3.001   0.737 -3.8250  2.2606  0.9586
  714MPD2    N110617   4.090   2.712   1.044  0.0963  0.2167 -0.2794
  714MPD2    H710618   4.151   2.693   1.123  0.1609 -0.9084 -0.5925
  715TMC3    C110619   4.118   2.482   0.999  0.0500 -0.3847  0.2806
  715TMC3    C210620   4.116   2.382   0.907  0.6487  0.3766  0.7441
  715TMC3    C310621   4.140   2.254   0.945 -0.1471 -0.4532  0.1723
  715TMC3    C410622   4.163   2.457   1.129  0.5104 -0.5638 -0.2796
  715TMC3    C510623   4.198   2.333   1.161  0.1039  0.7306 -0.2703
  715TMC3    C610624   4.183   2.230   1.073 -1.2233  0.1579 -0.0130
  715TMC3     C10625   4.078   2.613   0.952 -0.2125 -0.3306 -0.4387
  715TMC3     O10626   4.046   2.627   0.835 -0.3564 -0.6429  0.3156
  715TMC3     H10627   4.079   2.396   0.806 -0.4048 -2.7512  0.6957
  715TMC3    H110628   4.158   2.529   1.210  0.6696 -0.1647 -0.6247
  715TMC3    H210629   4.224   2.136   1.108  2.4980  1.5490 -0.6124
  715TMC3    C710630   4.239   2.301   1.300  0.8711  0.0032 -0.0310
  715TMC3    C810631   4.173   2.155   0.842 -0.4776 -1.0296  0.4117
  715TMC3    O110632   4.294   2.394   1.356 -0.4846 -0.1630  0.0185
  715TMC3    O210633   4.125   2.170   0.730  0.7458  0.5145 -0.0081
  716MPD2     C10634   4.135   1.548   9.121 -0.5524 -0.4944  0.1811
  716MPD2    C110635   4.015   1.516   9.045 -0.7250 -0.5063  0.0565
  716MPD2    C210636   3.984   1.385   9.017 -0.1168  0.1267  0.2869
  716MPD2    C310637   4.072   1.284   9.062  1.1081 -0.2734 -0.3077
  716MPD2    C410638   4.178   1.319   9.144  0.1914 -0.7351 -0.0612
  716MPD2    C510639   4.214   1.445   9.170 -0.0584 -0.1740  0.1687
  716MPD2     H10640   3.891   1.351   8.974 -0.2814  1.7087 -0.6028
  716MPD2    H110641   4.243   1.248   9.193  1.0925 -1.7423 -2.7206
  716MPD2    H210642   4.156   1.654   9.126  3.0173 -1.1595 -0.6666
  716MPD2    H310643   4.301   1.470   9.229 -0.8293 -1.8518  1.9958
  716MPD2     N10644   4.035   1.151   9.030 -0.9172 -0.1927  0.1698
  716MPD2    H510645   3.974   1.133   8.951 -3.0989  0.9000  1.6158
  716MPD2    N110646   3.931   1.625   9.019 -0.1040 -0.2815  0.2389
  716MPD2    H710647   3.959   1.715   9.056  2.6012 -0.5720 -1.0504
  717TMC3    C110648   4.042   0.916   9.021 -0.2495  0.7056  0.0673
  717TMC3    C210649   3.932   0.927   8.944  0.1056 -0.5758  0.3880
  717TMC3    C310650   3.846   0.824   8.921 -0.3835 -0.2582 -0.5216
  717TMC3    C410651   4.080   0.795   9.083  0.2847 -0.7334  0.7062
  717TMC3    C510652   3.998   0.686   9.043  0.5713 -0.0086  0.4546
  717TMC3    C610653   3.883   0.700   8.967 -0.3801 -0.5095 -0.3024
  717TMC3     C10654   4.094   1.039   9.085  0.3830 -0.2621  0.2600
  717TMC3     O10655   4.187   1.027   9.166  1.2886 -0.1446 -0.7192
  717TMC3     H10656   3.907   1.016   8.887 -0.5715 -1.4683 -0.6988
  717TMC3    H110657   4.180   0.791   9.124  0.8191 -1.9775 -0.7099
  717TMC3    H210658   3.829   0.609   8.943 -0.3163 -1.0634  1.5771
  717TMC3    C710659   4.007   0.565   9.116  0.0979  0.9568 -1.1627
  717TMC3    C810660   3.728   0.844   8.831 -0.0292 -0.2628 -0.8655
  717TMC3    O110661   3.926   0.479   9.094 -0.2607  0.1032  0.2370
  717TMC3    O210662   3.732   0.949   8.768  0.4183  1.0555  0.5484
  718MPD2     C10663   3.235   4.726  12.585 -0.1603 -0.3550  0.5352
  718MPD2    C110664   3.224   4.596  12.543 -0.5761  0.2606 -0.1397
  718MPD2    C210665   3.276   4.494  12.624  0.0281 -0.1457 -0.2631
  718MPD2    C310666   3.334   4.528  12.749  0.0395  0.1219 -0.8652
  718MPD2    C410667   3.331   4.663  12.787 -0.0796 -0.3161 -0.0548
  718MPD2    C510668   3.283   0.023  12.705 -0.3621 -0.1417 -0.1039
  718MPD2     H10669   3.279   4.389  12.596  1.6204 -0.4216  0.9436
  718MPD2    H110670   3.354   4.692  12.889  2.6838  0.2567 -0.8507
  718MPD2    H210671   3.197   0.068  12.524 -1.3583 -0.3272  1.3327
  718MPD2    H310672   3.263   0.122  12.745 -1.3625  1.0578 -3.6002
  718MPD2     N10673   3.370   4.426  12.845  0.5415 -0.8761 -0.3102
  718MPD2    H510674   3.380   4.453  12.942  1.4948 -3.3172  0.2749
  718MPD2    N110675   3.163   4.574  12.413 -0.9044  0.6333  0.3758
  718MPD2    H710676   3.126   4.649  12.357 -1.1022  0.9926  0.9938
  719TMC3    C110677   3.173   4.440  12.221 -0.8878  0.0125 -1.3434
  719TMC3    C210678   3.200   4.309  12.200  0.2111  0.4092 -1.0937
  719TMC3    C310679   3.331   4.271  12.163 -0.0536 -0.5179  0.0682
  719TMC3    C410680   3.271   4.536  12.192 -0.5514 -0.3572 -0.5818
  719TMC3    C510681   3.396   4.493  12.154 -0.3840 -0.1442 -0.1198
  719TMC3    C610682   3.433   4.358  12.141  0.4176 -0.7515 -0.4666
  719TMC3     C10683   3.140   4.450  12.365 -0.5091 -0.1397  0.2926
  719TMC3     O10684   3.130   4.348  12.427 -0.3426  0.2013 -0.1133
  719TMC3     H10685   3.122   4.239  12.226  1.6313 -0.8192 -0.1440
  719TMC3    H110686   3.248   4.642  12.192  0.9352 -0.0258  1.3350
  719TMC3    H210687   3.533   4.323  12.121  1.5087  2.6897 -0.9879
  719TMC3    C710688   3.507   4.584  12.171  0.5766 -0.1042  0.1811
  719TMC3    C810689   3.374   4.149  12.226  0.8878  0.6603  0.0815
  719TMC3    O110690   3.608   4.562  12.114 -0.2333 -0.1616  0.2474
  719TMC3    O210691   3.481   4.164  12.288 -0.3092 -0.0999  0.1034
  720MPD2     C10692   1.596   1.668  13.778 -0.3441  1.2112  0.5822
  720MPD2    C110693   1.703   1.626  13.695 -0.1410 -0.5613 -0.4241
  720MPD2    C210694   1.826   1.575  13.746  0.4222 -0.6852 -0.4039
  720MPD2    C310695   1.850   1.568  13.882  0.0946  0.0986 -0.0251
  720MPD2    C410696   1.754   1.620  13.964 -0.4342  0.1757 -0.1753
  720MPD2    C510697   1.634   1.663  13.916 -0.0787 -0.3963  0.4401
  720MPD2     H10698   1.896   1.539  13.671  1.4397 -1.3634  0.8796
  720MPD2    H110699   1.762   1.627  14.072  2.6253 -0.8487 -0.3442
  720MPD2    H210700   1.499   1.703  13.747 -0.8804  1.0900  2.1307
  720MPD2    H310701   1.559   1.691  13.990 -1.1608 -2.8274  0.2361
  720MPD2     N10702   1.966   1.512  13.930 -0.4575 -0.7437  0.9584
  720MPD2    H510703   2.035   1.470  13.868 -0.2882 -0.2282  0.7962
  720MPD2    N110704   1.696   1.631  13.554 -0.3274  0.4275  0.5096
  720MPD2    H710705   1.767   1.582  13.499 -1.0991 -1.5882  1.2989
  721TMC3    C110706   2.144   1.473  14.093  0.0539  0.2526 -0.0642
  721TMC3    C210707   2.175   1.474  14.226  0.1340 -0.6241 -0.6056
  721TMC3    C310708   2.307   1.493  14.261  0.0876  0.2024 -0.4694
  721TMC3    C410709   2.243   1.495  13.996  0.0270 -0.1273  0.1616
  721TMC3    C510710   2.368   1.507  14.034 -0.1902  0.3254  0.0360
  721TMC3    C610711   2.407   1.495  14.165 -0.3976  0.3357 -0.4879
  721TMC3     C10712   2.002   1.499  14.065 -0.0416 -0.5083 -0.7371
  721TMC3     O10713   1.937   1.492  14.167  0.4290 -0.3308 -0.3875
  721TMC3     H10714   2.107   1.459  14.308  1.2742  1.3627  0.6955
  721TMC3    H110715   2.217   1.504  13.892 -1.2276  0.5264  0.5350
  721TMC3    H210716   2.513   1.490  14.190 -0.7762 -1.5825  0.6910
  721TMC3    C710717   2.473   1.508  13.936  0.0824 -0.2292 -0.6366
  721TMC3    C810718   2.356   1.445  14.385  0.0409 -0.0506 -0.2685
  721TMC3    O110719   2.583   1.550  13.976  1.0209  0.0136  0.1502
  721TMC3    O210720   2.446   1.362  14.384  0.4991 -0.4955  0.4846
  722MPD2     C10721   0.593   4.618  13.240  0.1336  0.3935  0.2653
  722MPD2    C110722   0.521   4.738  13.228  0.2023 -0.2358 -0.4567
  722MPD2    C210723   0.385   4.731  13.250 -0.1803 -0.3595 -1.0958
  722MPD2    C310724   0.328   4.616  13.308  0.6778  0.6779 -0.1562
  722MPD2    C410725   0.402   4.504  13.315 -0.1878  0.0525 -0.4142
  722MPD2    C510726   0.530   4.506  13.284  0.4844 -0.0661 -0.2246
  722MPD2     H10727   0.321   0.077  13.234 -0.7944 -0.2861  1.8242
  722MPD2    H110728   0.346   4.417  13.348  0.6647 -0.5402 -0.5384
  722MPD2    H210729   0.699   4.613  13.217  0.3514 -0.2207  1.3642
  722MPD2    H310730   0.585   4.414  13.295  0.8725  0.3440  1.2218
  722MPD2     N10731   0.195   4.632  13.337 -0.2861 -0.2153 -0.1307
  722MPD2    H510732   0.157   4.724  13.319  0.3617 -0.1627 -1.2594
  722MPD2    N110733   0.575   0.119  13.182 -0.8372 -0.1307  0.1701
  722MPD2    H710734   0.509   0.191  13.153 -1.1657 -0.8843 -0.9525
  723TMC3    C110735   4.720   4.595  13.383  0.6117  0.9253 -0.0417
  723TMC3    C210736   4.615   4.534  13.322  0.2089  0.1975 -0.2665
  723TMC3    C310737   4.496   4.606  13.321  0.0531 -0.1303 -0.1602
  723TMC3    C410738   4.712   4.710  13.455  0.7240 -0.3494 -0.4581
  723TMC3    C510739   4.584   0.018  13.475 -0.0889 -0.2869  0.9939
  723TMC3    C610740   4.477   4.714  13.400 -0.2050 -0.2080  0.5680
  723TMC3     C10741   0.107   4.536  13.353 -0.0777  0.1993  0.1030
  723TMC3     O10742   0.118   4.416  13.340 -0.4418  0.5608  0.3975
  723TMC3     H10743   4.620   4.442  13.265 -0.0973  0.2184 -0.3236
  723TMC3    H110744   0.048   4.737  13.528  0.1089  1.9324 -0.6716
  723TMC3    H210745   4.384   0.029  13.408 -0.4451 -0.8805  2.2211
  723TMC3    C710746   4.570   0.116  13.574  0.1859  0.4561 -0.3718
  723TMC3    C810747   4.377   4.542  13.276  0.0300  0.0665 -0.2095
  723TMC3    O110748   4.670   0.177  13.604  0.1668 -0.5160 -0.2002
  723TMC3    O210749   4.268   4.588  13.313 -0.8776  0.5245 -0.0030
  724TMC3    C110750   1.170   3.832  10.002  0.1381 -0.6533  0.8221
  724TMC3    C210751   1.038   3.872   9.980 -0.6538 -1.0058 -0.3880
  724TMC3    C310752   1.013   3.989   9.908  0.0150 -0.4027 -0.0610
  724TMC3    C410753   1.280   3.903   9.966  0.7813 -0.1908 -0.2547
  724TMC3    C510754   1.251   4.027   9.900 -0.3326 -0.2389 -0.2228
  724TMC3    C610755   1.121   4.070   9.869  0.9082  0.2062 -0.0993
  724TMC3     C10756   1.184   3.747  10.114  0.0858 -0.2038  0.2618
  724TMC3     O10757   1.117   3.775  10.212 -0.3402  0.6434 -0.5376
  724TMC3     H10758   0.959   3.827  10.039 -3.2684 -0.3639 -3.3880
  724TMC3    H110759   1.380   3.869   9.993  0.8086  0.4906  0.4898
  724TMC3    H210760   1.117   4.170   9.828 -0.9544 -0.0474 -0.5525
  724TMC3    C710761   1.361   4.109   9.860  1.0942  0.0122  0.1432
  724TMC3    C810762   0.878   4.005   9.861 -0.2069  1.0701 -0.9834
  724TMC3    O110763   1.354   4.188   9.769 -0.2962  0.3633  0.4575
  724TMC3    O210764   0.805   3.916   9.892 -0.5964 -0.1054  0.5517
  725TMC3    C110765   2.403   1.651  12.139  0.2836  0.1061  0.2472
  725TMC3    C210766   2.375   1.657  12.007 -0.0008 -0.5741 -0.0049
  725TMC3    C310767   2.375   1.538  11.939  0.3649 -0.4933 -0.1961
  725TMC3    C410768   2.435   1.533  12.207 -0.2376 -0.2470  0.7075
  725TMC3    C510769   2.447   1.422  12.126 -0.5752 -0.1109 -0.5520
  725TMC3    C610770   2.416   1.419  11.991 -0.5868  0.3535  0.0663
  725TMC3     C10771   2.450   1.771  12.195  0.4393 -0.1886  0.7454
  725TMC3     O10772   2.392   1.877  12.196 -0.1081  0.1917 -0.3041
  725TMC3     H10773   2.342   1.750  11.963  1.0633  0.3344  1.0906
  725TMC3    H110774   2.466   1.542  12.310  0.0269 -1.7593  0.7580
  725TMC3    H210775   2.430   1.329  11.932 -0.4991  1.1480 -1.1201
  725TMC3    C710776   2.530   1.316  12.185 -0.1399  0.0467 -0.1042
  725TMC3    C810777   2.372   1.543  11.796  0.4113 -0.4264 -0.0751
  725TMC3    O110778   2.577   1.231  12.105 -0.0125  0.1846  0.5114
  725TMC3    O210779   2.382   1.441  11.728  0.4413  0.0117 -0.5832
  726MPD2     C10780   0.660   3.894  10.623  0.3321 -0.5487  0.3129
  726MPD2    C110781   0.535   3.949  10.588  0.6834 -0.3668  0.2853
  726MPD2    C210782   0.420   3.877  10.581 -0.2078 -0.2958  0.3808
  726MPD2    C310783   0.433   3.739  10.598 -0.1497 -0.3374  1.3083
  726MPD2    C410784   0.554   3.680  10.631  0.3376  0.1423  0.1545
  726MPD2    C510785   0.661   3.759  10.645 -0.0387  0.5163  0.1002
  726MPD2     H10786   0.325   3.924  10.560  0.1110 -0.4400 -1.3530
  726MPD2    H110787   0.571   3.574  10.644 -1.1373 -0.3332 -1.8761
  726MPD2    H210788   0.749   3.952  10.641 -1.3033  1.9868  0.1843
  726MPD2    H310789   0.755   3.709  10.668 -0.8535 -0.8376  0.5313
  726MPD2     N10790   0.323   3.653  10.579  0.1716  0.3749  0.4841
  726MPD2    H510791   0.342   3.554  10.593 -0.2442  0.3217  0.6862
  726MPD2    N110792   0.524   4.091  10.566  0.8926  0.6422 -0.2560
  726MPD2    H710793   0.431   4.121  10.539  1.4760  3.1894  0.5548
  727TMC3    C110794   0.593   4.317  10.509  0.2947  0.0131  0.4887
  727TMC3    C210795   0.695   4.401  10.474  0.0678 -0.4731  0.3138
  727TMC3    C310796   0.667   4.484  10.367 -0.6784  0.0349  0.2855
  727TMC3    C410797   0.461   4.335  10.470 -0.4756  0.1867 -0.0399
  727TMC3    C510798   0.439   4.424  10.361  0.1299  0.0723  0.0826
  727TMC3    C610799   0.545   4.491  10.305 -0.5765 -0.0221 -0.0861
  727TMC3     C10800   0.631   4.180  10.545  0.7301  0.2681  0.2977
  727TMC3     O10801   0.755   4.157  10.560  0.2539 -0.3717 -0.6407
  727TMC3     H10802   0.793   4.381  10.515  0.5189  2.3046  0.6210
  727TMC3    H110803   0.370   4.291  10.509 -0.7200  1.7264  1.1309
  727TMC3    H210804   0.524   4.549  10.216 -1.1272 -0.8292 -0.4796
  727TMC3    C710805   0.314   4.482  10.323 -0.4312 -0.3420 -0.0570
  727TMC3    C810806   0.781   4.562  10.319 -0.4353 -0.0865 -0.8775
  727TMC3    O110807   0.297   4.603  10.316  0.7985 -0.3574 -0.0747
  727TMC3    O210808   0.887   4.505  10.348 -0.0324  0.6318 -0.2974
  728TMC3    C110809   4.612   1.915  15.400  0.0173 -0.5262 -0.1219
  728TMC3    C210810   4.685   2.032  15.427  0.9185  0.4219 -0.1716
  728TMC3    C310811   0.011   2.090  15.323  0.5490  0.0790 -0.7442
  728TMC3    C410812   4.620   1.860  15.276 -0.4809 -0.2619 -0.2943
  728TMC3    C510813   4.707   1.906  15.176  0.1805  0.5618 -0.9338
  728TMC3    C610814   0.024   2.030  15.197 -0.5159 -0.0749 -0.5760
  728TMC3     C10815   4.501   1.876  15.488 -0.2011  0.4297 -0.0233
  728TMC3     O10816   4.405   1.810  15.444 -0.1826  0.3276 -0.1039
  728TMC3     H10817   4.646   2.089  15.511 -1.3726 -0.4365 -0.6327
  728TMC3    H110818   4.547   1.782  15.255 -0.6496  0.0822 -1.0100
  728TMC3    H210819   0.092   2.071  15.123  0.9496 -2.2104 -0.4296
  728TMC3    C710820   4.682   1.869  15.035  0.0928  0.1032 -0.9128
  728TMC3    C810821   0.076   2.218  15.343  0.0834 -0.1344  0.0456
  728TMC3    O110822   4.704   1.753  14.999 -0.5095  0.3978  0.1462
  728TMC3    O210823   0.129   2.276  15.249 -0.2380 -0.2459 -0.0777
  729MPD2     C10824   1.944   2.909  16.840 -0.2987 -0.2383 -0.4658
  729MPD2    C110825   1.894   3.030  16.802  0.7108  0.0214 -0.5726
  729MPD2    C210826   1.795   3.090  16.876  0.1337  0.5310 -0.2103
  729MPD2    C310827   1.744   3.032  16.988  0.0432  0.1284 -0.1284
  729MPD2    C410828   1.796   2.910  17.024  0.3705  0.4613  0.0949
  729MPD2    C510829   1.901   2.853  16.957  0.5372  0.8086 -0.0636
  729MPD2     H10830   1.756   3.189  16.857  0.1867  0.4880 -0.5530
  729MPD2    H110831   1.761   2.855  17.110 -2.9266  0.7904 -1.0225
  729MPD2    H210832   2.014   2.864  16.772  0.3357 -1.3640  0.9257
  729MPD2    H310833   1.934   2.759  17.000 -0.1155 -0.7628 -3.0425
  729MPD2     N10834   1.651   3.090  17.071 -0.3998 -0.2938 -0.3398
  729MPD2    H510835   1.611   3.024  17.137  1.4756  1.3983  2.4568
  729MPD2    N110836   1.934   3.075  16.675 -0.2736 -0.1626 -0.3794
  729MPD2    H710837   2.005   3.020  16.629 -0.6810 -0.8003 -0.2503
  730TMC3    C110838   1.583   3.279  17.190 -0.9569 -0.7193  0.0327
  730TMC3    C210839   1.651   3.241  17.296 -0.1686 -0.1229 -0.6359
  730TMC3    C310840   1.674   3.336  17.395 -0.4521  0.1721  0.2621
  730TMC3    C410841   1.558   3.416  17.166 -0.1475 -0.4428  0.5849
  730TMC3    C510842   1.585   3.510  17.261  0.0144  0.1058  0.2103
  730TMC3    C610843   1.637   3.465  17.381  0.6896  0.0529 -0.0889
  730TMC3     C10844   1.609   3.221  17.064 -0.1411  0.7892 -0.3219
  730TMC3     O10845   1.618   3.306  16.977 -0.0439  0.2859 -0.5231
  730TMC3     H10846   1.698   3.143  17.296 -1.4605 -0.7389  1.5260
  730TMC3    H110847   1.489   3.441  17.087  0.5198  1.5487  0.6257
  730TMC3    H210848   1.635   3.521  17.473  0.8088  1.2237 -0.8054
  730TMC3    C710849   1.614   3.639  17.213 -0.3860  0.0637  0.8712
  730TMC3    C810850   1.813   3.321  17.431 -0.3091 -0.3536  0.0591
  730TMC3    O110851   1.592   3.661  17.094 -0.5017 -0.0783  0.1856
  730TMC3    O210852   1.881   3.219  17.418  0.4609 -0.3856 -0.2219
  731MPD2     C10853   2.152   1.129  12.235 -0.6434  0.2649  0.3029
  731MPD2    C110854   2.027   1.088  12.196 -0.6887 -0.0462 -0.6409
  731MPD2    C210855   1.921   1.091  12.280 -0.5321  0.5444 -0.1234
  731MPD2    C310856   1.938   1.135  12.408  0.1316  0.9041  0.4445
  731MPD2    C410857   2.065   1.173  12.448 -0.1672 -0.0959  0.6572
  731MPD2    C510858   2.169   1.163  12.363 -0.7964 -0.2287  0.3766
  731MPD2     H10859   1.822   1.059  12.250  0.1624 -1.8807  0.1876
  731MPD2    H110860   2.082   1.206  12.550  0.4922 -0.1722  0.5719
  731MPD2    H210861   2.241   1.130  12.172  0.5384  1.7298  2.0017
  731MPD2    H310862   2.268   1.191  12.397 -0.3097  1.2284 -2.2608
  731MPD2     N10863   1.832   1.131  12.499  0.1166  0.2525  0.7860
  731MPD2    H510864   1.743   1.097  12.465  0.9929 -0.2608 -1.0098
  731MPD2    N110865   2.028   1.023  12.070  0.0494 -0.3829 -0.6471
  731MPD2    H710866   2.116   1.018  12.020  0.3790 -0.7339 -0.0298
  732TMC3    C110867   1.937   0.921  11.874  0.3149  0.5801  0.1726
  732TMC3    C210868   1.835   0.922  11.780 -0.0375  0.1017  0.3421
  732TMC3    C310869   1.871   0.855  11.657  0.3838 -0.5551 -0.2210
  732TMC3    C410870   2.056   0.861  11.846 -0.2109  0.0976 -0.7205
  732TMC3    C510871   2.087   0.808  11.720 -0.0059  0.4341  0.2210
  732TMC3    C610872   1.990   0.798  11.623  0.2516 -0.1356 -0.7271
  732TMC3     C10873   1.912   0.978  12.007  0.4473 -0.2886 -0.4778
  732TMC3     O10874   1.796   0.993  12.028 -0.1987 -0.8101 -0.6137
  732TMC3     H10875   1.743   0.978  11.791  0.6798  1.1501  1.0009
  732TMC3    H110876   2.132   0.858  11.923 -0.7997  0.4726 -0.1297
  732TMC3    H210877   2.012   0.748  11.530  0.6986 -0.7073 -0.3134
  732TMC3    C710878   2.214   0.748  11.687 -0.7493 -0.3928 -0.2492
  732TMC3    C810879   1.755   0.817  11.585  0.1114  0.1302 -0.0784
  732TMC3    O110880   2.243   0.749  11.569 -0.0607 -0.7371  0.2456
  732TMC3    O210881   1.655   0.887  11.580 -0.0451  1.1701  0.6244
  733TMC3    C110882   3.190   4.137  13.040 -0.2437 -0.7078 -0.3385
  733TMC3    C210883   3.274   4.241  13.014 -0.4471  0.0774  0.7943
  733TMC3    C310884   3.384   4.209  12.932  0.2107  0.0999 -0.1551
  733TMC3    C410885   3.206   4.011  12.994 -0.3596  0.0406 -1.2045
  733TMC3    C510886   3.319   3.982  12.921  0.0774 -0.3684 -0.1296
  733TMC3    C610887   3.409   4.081  12.895  0.2737  0.3025 -0.5758
  733TMC3     C10888   3.072   4.170  13.112  0.3027  0.0056 -0.4890
  733TMC3     O10889   3.027   4.283  13.096 -0.3405  0.1479  0.3660
  733TMC3     H10890   3.259   4.345  13.038  0.8023  0.3131  0.5460
  733TMC3    H110891   3.131   3.933  13.005 -0.8831  0.6573 -0.3425
  733TMC3    H210892   3.501   4.046  12.849  1.2166  1.6259  0.3040
  733TMC3    C710893   3.298   3.893  12.810 -0.2940 -0.5870  0.7042
  733TMC3    C810894   3.398   4.292  12.813  0.4295 -0.8106  0.5540
  733TMC3    O110895   3.255   3.781  12.827 -0.4165 -0.5478 -0.0209
  733TMC3    O210896   3.420   4.245  12.702  0.4012 -0.3063 -0.2145
  734MPD2     C10897   0.879   2.126  12.134 -0.3327  0.2782 -0.5696
  734MPD2    C110898   0.740   2.130  12.106  0.2094  0.4164 -0.0007
  734MPD2    C210899   0.694   2.227  12.014  0.0891  0.5296  1.2706
  734MPD2    C310900   0.783   2.304  11.939 -0.0298 -0.5327 -0.6171
  734MPD2    C410901   0.920   2.301  11.969  0.0145 -0.4021  0.7388
  734MPD2    C510902   0.963   2.213  12.068  0.2714  0.5393 -0.0879
  734MPD2     H10903   0.590   2.226  11.984  0.2251 -1.7613  0.8693
  734MPD2    H110904   0.993   2.357  11.911 -1.0289  1.1574  0.9429
  734MPD2    H210905   0.923   2.068  12.214 -0.0391  0.5516 -0.5320
  734MPD2    H310906   1.067   2.206  12.096  0.8289  2.0114 -1.7817
  734MPD2     N10907   0.730   2.383  11.827 -0.0679  0.7864  0.5684
  734MPD2    H510908   0.628   2.391  11.823 -0.1102  0.5418  1.2334
  734MPD2    N110909   0.657   2.042  12.176 -0.2778  0.2279 -0.5865
  734MPD2    H710910   0.706   1.975  12.233 -0.3055  0.8268  0.1315
  735TMC3    C110911   0.454   1.920  12.222  0.5443  0.0852 -0.5320
  735TMC3    C210912   0.324   1.929  12.188  0.1373 -0.0939 -0.6809
  735TMC3    C310913   0.254   1.825  12.129 -0.3122 -0.1299  1.1895
  735TMC3    C410914   0.518   1.799  12.213  0.1304  0.1431 -0.2106
  735TMC3    C510915   0.452   1.699  12.148  0.3535  0.4150  0.1273
  735TMC3    C610916   0.321   1.709  12.102 -0.5662  0.8111 -1.0002
  735TMC3     C10917   0.523   2.034  12.162 -0.3598 -0.3068  0.1401
  735TMC3     O10918   0.446   2.111  12.104  0.5008  0.2459 -0.0786
  735TMC3     H10919   0.276   2.023  12.213 -0.5140 -0.9029  1.1262
  735TMC3    H110920   0.625   1.794  12.228 -0.0614  1.6835  1.6965
  735TMC3    H210921   0.265   1.634  12.048  0.6254  0.2416 -1.4560
  735TMC3    C710922   0.537   1.614  12.078 -0.3287 -0.4664  0.1801
  735TMC3    C810923   0.172   1.861  12.014 -0.7864 -0.1297 -0.3104
  735TMC3    O110924   0.644   1.663  12.042  0.0338 -0.0900 -0.3763
  735TMC3    O210925   0.100   1.777  11.966 -0.1366  0.0322 -0.0429
  736MPD2     C10926   0.515   1.241  12.030 -0.2494  0.7242  0.3537
  736MPD2    C110927   0.565   1.369  12.006  0.0754 -0.7320  0.7848
  736MPD2    C210928   0.691   1.379  11.952 -0.1080 -0.5097 -0.2384
  736MPD2    C310929   0.750   1.270  11.905 -0.1930  0.3971  0.3243
  736MPD2    C410930   0.698   1.144  11.928 -0.1033 -0.1552  0.0297
  736MPD2    C510931   0.581   1.130  11.997  0.4814 -0.0881 -0.2358
  736MPD2     H10932   0.732   1.479  11.939 -0.4397 -0.2570  0.6366
  736MPD2    H110933   0.749   1.056  11.889 -2.9241 -1.2998 -1.0774
  736MPD2    H210934   0.418   1.239  12.080  0.3430  0.6569  1.4943
  736MPD2    H310935   0.536   1.032  12.008  1.3279 -0.4364  0.1430
  736MPD2     N10936   0.883   1.277  11.842  0.2765 -0.3985 -0.7835
  736MPD2    H510937   0.908   1.191  11.795  1.9320 -0.4930  0.2699
  736MPD2    N110938   0.494   1.483  12.063 -0.6319  0.1090  0.0226
  736MPD2    H710939   0.402   1.466  12.104 -0.7127 -0.9781 -0.5876
  737TMC3    C110940   1.089   1.350  11.744  0.5052  0.1026 -0.4454
  737TMC3    C210941   1.126   1.441  11.656 -0.0174  0.0016  0.1465
  737TMC3    C310942   1.210   1.394  11.553  0.3092  0.7352  0.9715
  737TMC3    C410943   1.130   1.219  11.739  0.2567  0.5525 -0.1721
  737TMC3    C510944   1.202   1.175  11.634 -0.0952 -0.7210 -0.1526
  737TMC3    C610945   1.251   1.270  11.541  0.7843  0.1527 -0.4146
  737TMC3     C10946   0.965   1.387  11.820  0.2099  0.7397 -0.1338
  737TMC3     O10947   0.936   1.502  11.847  0.3827 -0.0837  0.7282
  737TMC3     H10948   1.087   1.541  11.670  0.6119 -0.1409  2.8464
  737TMC3    H110949   1.114   1.143  11.815  0.5560  1.1514  0.4820
  737TMC3    H210950   1.296   1.238  11.447  0.4282 -1.0605 -0.1680
  737TMC3    C710951   1.167   1.043  11.583  0.2558 -0.4873  0.6002
  737TMC3    C810952   1.222   1.478  11.432 -0.1327  0.9766 -0.4193
  737TMC3    O110953   1.060   0.988  11.612 -0.2055 -0.4642 -0.0809
  737TMC3    O210954   1.312   1.463  11.354  0.3149 -0.1217  0.1370
  738MPD2     C10955   1.187   0.487  15.427 -0.0498 -0.2331 -0.8201
  738MPD2    C110956   1.142   0.461  15.294  0.2025 -0.3705 -0.0763
  738MPD2    C210957   1.183   0.539  15.190  0.3765  0.3227  0.0618
  738MPD2    C310958   1.296   0.622  15.213  0.6322  0.3200  0.0231
  738MPD2    C410959   1.348   0.644  15.340 -0.1825  0.0065 -0.2307
  738MPD2    C510960   1.292   0.578  15.450 -0.1556 -0.5107  0.2439
  738MPD2     H10961   1.145   0.519  15.091 -0.5642  1.6250  0.1576
  738MPD2    H110962   1.427   0.717  15.357 -2.7609  2.1176  2.6813
  738MPD2    H210963   1.155   0.437  15.517  0.0281 -1.2348 -1.3535
  738MPD2    H310964   1.329   0.601  15.550  1.2888  0.1736 -0.4605
  738MPD2     N10965   1.357   0.704  15.110 -0.3032 -0.1253 -0.2964
  738MPD2    H510966   1.441   0.757  15.131  0.0231 -1.2475  1.3134
  738MPD2    N110967   1.040   0.366  15.270 -0.3773  0.7102 -1.1972
  738MPD2    H710968   1.013   0.337  15.176 -0.3186  0.8261 -1.2495
  739TMC3    C110969   1.413   0.788  14.893  0.2135 -0.6853 -0.4938
  739TMC3    C210970   1.394   0.771  14.758  0.1021  0.8815  0.4346
  739TMC3    C310971   1.456   0.858  14.672  0.1753  0.2785  0.5288
  739TMC3    C410972   1.483   0.883  14.948 -0.2761 -0.3245 -1.1034
  739TMC3    C510973   1.550   0.963  14.862 -0.3670 -0.4672 -0.6141
  739TMC3    C610974   1.536   0.959  14.725 -0.4551 -0.1724  0.6239
  739TMC3     C10975   1.323   0.703  14.975  0.7834  0.3215  0.3634
  739TMC3     O10976   1.243   0.628  14.927 -0.3330  0.2152  0.1778
  739TMC3     H10977   1.345   0.686  14.712  1.0119  1.6866 -1.9929
  739TMC3    H110978   1.465   0.912  15.051 -0.7773  1.5286 -1.6998
  739TMC3    H210979   1.574   1.036  14.659 -1.8708  0.0294  0.0356
  739TMC3    C710980   1.620   1.081  14.920 -0.2518  0.4217 -0.4152
  739TMC3    C810981   1.424   0.858  14.526  0.8404 -0.8945  0.5524
  739TMC3    O110982   1.633   1.171  14.844  0.2552  0.1736 -0.0822
  739TMC3    O210983   1.314   0.813  14.493 -0.2518  0.2014 -0.3706
  740TMC3    C110984   1.845   1.964  14.193  0.2386  0.8134  0.2464
  740TMC3    C210985   1.859   1.880  14.302 -0.1700 -0.5769  0.5150
  740TMC3    C310986   1.979   1.820  14.314 -0.5815  0.4335 -0.0357
  740TMC3    C410987   1.934   1.962  14.093  0.3888  0.7371  0.3700
  740TMC3    C510988   2.057   1.908  14.112 -0.1262 -0.1575  0.5188
  740TMC3    C610989   2.081   1.837  14.230  0.2512 -0.0224 -0.3720
  740TMC3     C10990   1.741   2.064  14.200  0.2039  0.3455 -0.2905
  740TMC3     O10991   1.756   2.167  14.132 -0.2125  0.4315 -0.1618
  740TMC3     H10992   1.806   1.900  14.394  1.3264  1.2485  0.9702
  740TMC3    H110993   1.920   2.030  14.010  2.9326  1.2452  0.3713
  740TMC3    H210994   2.174   1.784  14.251 -0.3108 -0.8251  0.1024
  740TMC3    C710995   2.131   1.869  13.996 -0.5874 -0.3733  0.0704
  740TMC3    C810996   1.983   1.711  14.410  0.2157  0.7005  0.5574
  740TMC3    O110997   2.250   1.841  14.005 -0.1801 -0.5697  0.3586
  740TMC3    O210998   2.093   1.657  14.424  0.4246 -0.1035 -0.1779
  741TMC3    C110999   1.206   1.145  14.493 -0.3458 -0.2850  1.1565
  741TMC3    C211000   1.116   1.065  14.433 -0.3024  0.1234  0.4843
  741TMC3    C311001   1.024   0.997  14.514  0.0084  0.0846 -0.1327
  741TMC3    C411002   1.218   1.157  14.627  0.2254 -0.2768  0.7780
  741TMC3    C511003   1.123   1.088  14.701 -0.7133  0.4185  0.5014
  741TMC3    C611004   1.034   1.002  14.647 -0.0508  0.0528 -0.3239
  741TMC3     C11005   1.295   1.223  14.416  0.7087 -0.7874 -0.5874
  741TMC3     O11006   1.381   1.285  14.474  0.6723  0.1761 -0.3489
  741TMC3     H11007   1.092   1.070  14.327 -2.5175  0.4256  1.0011
  741TMC3    H111008   1.287   1.227  14.674 -0.2281  1.3173 -0.9549
  741TMC3    H211009   0.953   0.970  14.711 -0.9618 -1.2574 -2.1496
  741TMC3    C711010   1.147   1.095  14.840 -0.2242  0.1520  0.0256
  741TMC3    C811011   0.908   0.917  14.469 -0.8246 -0.1955  0.0621
  741TMC3    O111012   1.245   1.166  14.874 -0.1031 -0.0485  0.5442
  741TMC3    O211013   0.821   0.899  14.552 -0.0547  0.1006 -0.2167
  742TMC3    C111014   1.006   4.200  15.533 -0.2720 -0.1833  0.3936
  742TMC3    C211015   0.978   4.204  15.397 -0.1405 -0.6173  0.1771
  742TMC3    C311016   1.072   4.160  15.307  0.4314  0.2132 -0.5398
  742TMC3    C411017   1.121   4.161  15.583  0.1183  0.1699 -0.0971
  742TMC3    C511018   1.215   4.127  15.488  0.5458 -0.7519  0.7662
  742TMC3    C611019   1.195   4.124  15.353  0.2003  0.8699  0.8902
  742TMC3     C11020   0.895   4.203  15.622  0.0782  0.2747  0.0198
  742TMC3     O11021   0.788   4.153  15.586 -0.5836  0.5102 -0.5062
  742TMC3     H11022   0.880   4.234  15.363  0.0130  0.7831  1.0057
  742TMC3    H111023   1.135   4.136  15.687  0.2599 -2.9609 -0.8599
  742TMC3    H211024   1.278   4.110  15.285 -0.4976  0.0338  0.2081
  742TMC3    C711025   1.350   4.159  15.528 -1.3832  0.2019  0.9107
  742TMC3    C811026   1.053   4.186  15.167 -0.7128  0.2640 -0.1767
  742TMC3    O111027   1.363   4.242  15.618  0.2402 -0.3307 -0.6039
  742TMC3    O211028   1.143   4.144  15.089 -0.1158 -0.0417 -0.1444
  743MPD2     C11029   3.563   4.668   1.530  0.3223  0.5391  0.1586
  743MPD2    C111030   3.607   0.003   1.420 -0.1497  0.3779 -0.0851
  743MPD2    C211031   3.740   0.039   1.401  0.2240  0.2272 -0.3535
  743MPD2    C311032   3.833   0.015   1.503  0.2438  0.1424 -0.4657
  743MPD2    C411033   3.793   4.679   1.611 -0.4127 -0.0257 -0.7382
  743MPD2    C511034   3.661   4.639   1.617  0.2264 -0.0846  0.3251
  743MPD2     H11035   3.772   0.101   1.319  1.0316 -0.8297 -0.8397
  743MPD2    H111036   3.855   4.658   1.697 -2.1140  2.1125  1.0004
  743MPD2    H211037   3.463   4.630   1.546 -0.4917  2.1029 -1.2627
  743MPD2    H311038   3.622   4.583   1.701 -1.4593  1.7220  0.7514
  743MPD2     N11039   3.967   0.060   1.498  0.0886 -0.4346  0.2717
  743MPD2    H511040   4.016   0.050   1.586 -0.0324 -2.0560  0.1442
  743MPD2    N111041   3.518   0.036   1.320 -0.2514  0.3240  0.0831
  743MPD2    H711042   3.562   0.085   1.242 -0.4165 -2.7765 -1.9477
  744TMC3    C111043   3.317   0.099   1.219  0.3350 -0.0155  0.0577
  744TMC3    C211044   3.183   0.115   1.235 -0.0152  0.3172  0.8373
  744TMC3    C311045   3.104   0.176   1.145 -0.0341  0.2316 -0.1915
  744TMC3    C411046   3.370   0.136   1.099  0.0948 -0.0138 -0.1071
  744TMC3    C511047   3.293   0.189   1.010 -0.5434  0.1021  0.1612
  744TMC3    C611048   3.160   0.217   1.028  0.2305 -0.6379 -1.1572
  744TMC3     C11049   3.382   0.033   1.326  0.6120 -0.4038  0.1284
  744TMC3     O11050   3.317   0.019   1.430 -0.0004  0.1266 -0.0802
  744TMC3     H11051   3.135   0.088   1.329 -1.7699  1.7399  0.3528
  744TMC3    H111052   3.474   0.136   1.069 -0.0041 -1.5509 -0.4482
  744TMC3    H211053   3.090   0.244   0.950 -1.6609  0.3094  0.8499
  744TMC3    C711054   3.339   0.206   0.873  0.4595 -0.0302 -0.5965
  744TMC3    C811055   2.972   0.228   1.168  0.7201  0.4204  0.2446
  744TMC3    O111056   3.450   0.252   0.845  0.2181  0.4137  0.1450
  744TMC3    O211057   2.927   0.310   1.089  0.0884  0.0780  0.3684
  745TMC3    C111058   1.521   4.031  13.510 -0.2813  0.1208 -0.5423
  745TMC3    C211059   1.384   4.006  13.501 -0.3066 -0.1221 -0.2210
  745TMC3    C311060   1.305   4.064  13.405 -0.5217  0.4743  0.7383
  745TMC3    C411061   1.580   4.102  13.406 -0.0403  0.6232 -0.1326
  745TMC3    C511062   1.500   4.143  13.298 -0.1999  0.0406 -0.4725
  745TMC3    C611063   1.365   4.127  13.300  0.0474  0.1935 -0.2675
  745TMC3     C11064   1.570   4.073  13.643  0.0805  0.0730  0.3384
  745TMC3     O11065   1.566   3.996  13.735 -0.0980  0.2715 -0.0488
  745TMC3     H11066   1.339   3.972  13.593  4.4539 -0.2472  2.0444
  745TMC3    H111067   1.687   4.119  13.405  0.3600 -1.7542  2.1681
  745TMC3    H211068   1.300   4.178  13.229  0.8042  0.9815 -0.3999
  745TMC3    C711069   1.554   4.199  13.168 -0.3571  0.4062 -0.7644
  745TMC3    C811070   1.193   4.134  13.467  0.2096  1.1235  0.5547
  745TMC3    O111071   1.476   4.266  13.097 -0.2753 -0.1591 -0.0965
  745TMC3    O211072   1.111   4.192  13.395  0.2072  0.2663 -0.4137
  746TMC3    C111073   4.035   1.454  10.561  0.3123  0.4763  0.0378
  746TMC3    C211074   4.051   1.480  10.426 -0.4344 -0.3653  0.3113
  746TMC3    C311075   4.034   1.372  10.342  0.0074  0.7907  0.3625
  746TMC3    C411076   3.994   1.335  10.609  0.6958 -0.3733 -0.3006
  746TMC3    C511077   3.964   1.238  10.519  0.1683  0.0373  0.1940
  746TMC3    C611078   3.996   1.251  10.387 -0.1681 -0.0129  0.4130
  746TMC3     C11079   4.060   1.558  10.659 -0.4073  0.0348  0.3687
  746TMC3     O11080   4.028   1.533  10.776 -0.7127 -0.3230  0.4201
  746TMC3     H11081   4.078   1.578  10.390 -0.4677  0.3741  2.2783
  746TMC3    H111082   3.955   1.337  10.710  2.7226 -2.1002  0.5311
  746TMC3    H211083   3.957   1.179  10.315  0.8790  0.0575 -0.2209
  746TMC3    C711084   3.866   1.141  10.558 -0.7039 -0.1111  0.0053
  746TMC3    C811085   4.071   1.389  10.201  0.6121 -0.9218 -0.0811
  746TMC3    O111086   3.795   1.094  10.471  0.4105 -0.0076  0.3327
  746TMC3    O211087   4.055   1.290  10.126 -0.1065 -0.2639 -0.1922
  747TMC3    C111088   1.786   0.624  10.876 -0.3707  0.0185 -0.0540
  747TMC3    C211089   1.676   0.581  10.943  0.2365 -0.3625  0.3140
  747TMC3    C311090   1.674   0.610  11.072 -0.1148 -0.0175 -0.5367
  747TMC3    C411091   1.895   0.682  10.933  0.4802  0.6891  0.7059
  747TMC3    C511092   1.889   0.706  11.069  0.9531 -0.6659 -0.1093
  747TMC3    C611093   1.772   0.673  11.140  0.2794 -0.8154  0.4909
  747TMC3     C11094   1.761   0.647  10.737 -0.3210  0.0417  0.6124
  747TMC3     O11095   1.664   0.590  10.695 -0.4904 -0.6523 -0.3017
  747TMC3     H11096   1.591   0.533  10.896 -1.9345  3.7713  0.0031
  747TMC3    H111097   1.987   0.693  10.878  0.3307  0.4292  0.4007
  747TMC3    H211098   1.770   0.702  11.245 -1.1359 -1.5315  0.6604
  747TMC3    C711099   2.008   0.752  11.142 -0.3973  0.4382  0.0094
  747TMC3    C811100   1.547   0.599  11.142 -0.6539 -0.2668  0.3056
  747TMC3    O111101   2.009   0.722  11.256  0.1450 -0.2447 -0.2494
  747TMC3    O211102   1.476   0.503  11.113  0.2033  0.3713 -0.5322
  748MPD2     C11103   2.751   1.642   0.757 -0.3450 -0.4921 -0.3117
  748MPD2    C111104   2.839   1.648   0.873 -0.2593 -0.3425 -0.4563
  748MPD2    C211105   2.953   1.724   0.877  0.3179  0.1404  0.6948
  748MPD2    C311106   2.995   1.784   0.758  0.3916 -0.0731 -0.1436
  748MPD2    C411107   2.922   1.762   0.643  0.2599  0.3497 -0.0784
  748MPD2    C511108   2.801   1.700   0.637 -0.1220  0.4502  0.6326
  748MPD2     H11109   3.013   1.736   0.967 -0.1817  0.7649  0.9455
  748MPD2    H111110   2.952   1.799   0.545 -0.0186  2.3239  0.5782
  748MPD2    H211111   2.656   1.591   0.756 -2.0520  2.6837 -1.2851
  748MPD2    H311112   2.747   1.687   0.544  1.5158  0.3497 -0.2884
  748MPD2     N11113   3.123   1.858   0.750 -0.8264  0.3462 -0.2623
  748MPD2    H511114   3.171   1.874   0.838 -2.1399  2.2136  0.1096
  748MPD2    N111115   2.796   1.571   0.982 -0.7600  0.6426 -0.1138
  748MPD2    H711116   2.707   1.523   0.970  1.0694 -1.9130 -3.4410
  749TMC3    C111117   3.293   1.994   0.667  0.2722 -0.0643 -0.2027
  749TMC3    C211118   3.343   1.993   0.796 -0.2324  0.0753  0.3122
  749TMC3    C311119   3.428   2.093   0.835 -0.1191  0.0851  0.3534
  749TMC3    C411120   3.310   2.110   0.592 -0.0122 -0.1998  0.2263
  749TMC3    C511121   3.388   2.216   0.646 -0.1489  0.6009  1.2065
  749TMC3    C611122   3.447   2.207   0.767  0.0402  0.5910  0.4899
  749TMC3     C11123   3.172   1.928   0.642  0.1151  0.7738  0.2754
  749TMC3     O11124   3.127   1.932   0.526 -0.1853 -0.6705 -0.2471
  749TMC3     H11125   3.346   1.900   0.851  2.4162 -0.4613 -0.7488
  749TMC3    H111126   3.257   2.125   0.499  1.0567 -0.8707 -0.4983
  749TMC3    H211127   3.517   2.276   0.811 -0.8090 -0.4610  3.4866
  749TMC3    C711128   3.433   2.327   0.561  0.5905 -0.1992 -0.1746
  749TMC3    C811129   3.483   2.078   0.969 -0.2847  0.0065 -0.6148
  749TMC3    O111130   3.519   2.407   0.604 -0.0106  0.0172 -0.1263
  749TMC3    O211131   3.492   2.183   1.033 -0.2053 -0.8605  0.3919
  750MPD2     C11132   4.234   3.455  11.404  0.3158  1.0086 -0.0007
  750MPD2    C111133   4.166   3.377  11.496  0.0119  0.0040 -0.0920
  750MPD2    C211134   4.135   3.248  11.463  0.7092 -0.0961  0.1291
  750MPD2    C311135   4.174   3.202  11.335 -0.7328  0.0672 -0.3504
  750MPD2    C411136   4.209   3.292  11.234 -0.0365 -0.5898  0.6203
  750MPD2    C511137   4.251   3.417  11.272  0.3723 -0.0645 -0.7153
  750MPD2     H11138   4.092   3.179  11.535  3.1146 -2.8011 -1.0006
  750MPD2    H111139   4.218   3.265  11.130  1.4635  2.2448  0.0054
  750MPD2    H211140   4.246   3.560  11.431 -2.2289  1.1357  0.6512
  750MPD2    H311141   4.285   3.494  11.204  1.8087 -2.3220 -2.5408
  750MPD2     N11142   4.147   3.080  11.283  0.7711 -0.1074 -0.3111
  750MPD2    H511143   4.157   3.059  11.184  0.6826 -1.1545 -0.1044
  750MPD2    N111144   4.121   3.435  11.617  0.2438  0.0030  0.0155
  750MPD2    H711145   4.123   3.536  11.621 -0.0660  0.0824 -1.9661
  751TMC3    C111146   4.096   2.846  11.291 -0.3117  0.1025 -0.1512
  751TMC3    C211147   4.069   2.733  11.366  0.0421  0.3934  0.5450
  751TMC3    C311148   4.058   2.611  11.299  0.6614  0.0838  0.7846
  751TMC3    C411149   4.090   2.840  11.154 -0.0323 -0.2917  0.1852
  751TMC3    C511150   4.078   2.718  11.089 -0.0279 -0.1015  0.3565
  751TMC3    C611151   4.067   2.605  11.163  0.2050  0.2042 -0.8502
  751TMC3     C11152   4.140   2.968  11.359 -0.2685 -0.9712  1.0508
  751TMC3     O11153   4.184   2.956  11.475 -0.0108 -0.2731 -0.2087
  751TMC3     H11154   4.080   2.747  11.473 -2.0159  2.0944  0.5296
  751TMC3    H111155   4.101   2.921  11.083  0.9745  1.4705  2.3555
  751TMC3    H211156   4.045   2.511  11.114  1.1897 -0.3848 -0.1594
  751TMC3    C711157   4.075   2.706  10.945 -0.0765 -0.6864 -0.2760
  751TMC3    C811158   4.014   2.496  11.375 -0.1189 -0.4411 -0.3568
  751TMC3    O111159   4.097   2.806  10.881 -0.2327  0.0886  0.2030
  751TMC3    O211160   4.035   2.388  11.321  0.0664  0.4280 -0.2763
  752TMC3    C111161   2.448   3.473  17.283  0.0277 -0.2630  0.4983
  752TMC3    C211162   2.475   3.337  17.294  0.0472  0.4567  0.3613
  752TMC3    C311163   2.433   3.270  17.404 -0.1348 -0.4232 -0.5736
  752TMC3    C411164   2.365   3.534  17.370  0.0707  0.7279  0.1999
  752TMC3    C511165   2.314   3.459  17.472 -0.7346  0.1115 -0.4264
  752TMC3    C611166   2.352   3.329  17.496 -0.6528  0.5169  0.7217
  752TMC3     C11167   2.454   3.530  17.151 -0.6128  0.2505 -0.1144
  752TMC3     O11168   2.512   3.637  17.151 -0.2324  0.5735 -0.2681
  752TMC3     H11169   2.547   3.293  17.226 -0.6199  0.0111 -0.0531
  752TMC3    H111170   2.342   3.639  17.363 -1.0323  0.2746 -3.0337
  752TMC3    H211171   2.343   3.280  17.593  0.0017 -0.8182  0.1113
  752TMC3    C711172   2.243   3.523  17.581  0.0556  0.0738  1.0430
  752TMC3    C811173   2.455   3.124  17.398  0.5829 -0.5783 -0.1328
  752TMC3    O111174   2.255   3.644  17.584  0.1408  0.3911  0.3102
  752TMC3    O211175   2.523   3.071  17.309  0.2623 -0.2960 -0.0101
  753TMC3    C111176   0.043   3.876  13.532  0.3797  0.2813  0.4644
  753TMC3    C211177   0.146   3.920  13.614  0.1822  0.2853  0.0873
  753TMC3    C311178   0.243   3.829  13.644  0.1853 -0.1381 -0.9168
  753TMC3    C411179   0.042   3.755  13.470 -0.4053  0.3828  0.7983
  753TMC3    C511180   0.143   3.671  13.500  0.4322 -0.8518 -0.1397
  753TMC3    C611181   0.244   3.711  13.582 -0.3143 -0.8922 -0.1557
  753TMC3     C11182   4.673   3.960  13.503  0.0172  0.0923  0.2065
  753TMC3     O11183   4.578   3.914  13.443  0.4750 -0.0601  0.1289
  753TMC3     H11184   0.164   4.025  13.637  0.7638 -0.1211  1.4606
  753TMC3    H111185   4.707   3.735  13.394  2.5026 -2.5855 -1.2640
  753TMC3    H211186   0.305   3.629  13.619 -0.1066 -0.6710 -0.0029
  753TMC3    C711187   0.120   3.527  13.487  0.5035  0.4697  0.1069
  753TMC3    C811188   0.340   3.857  13.747 -0.1802 -0.1629 -0.0023
  753TMC3    O111189   0.203   3.446  13.534 -0.4358  0.2417 -0.1830
  753TMC3    O211190   0.442   3.788  13.743  0.3823  0.0229 -0.6624
  754MPD2     C11191   3.079   2.464  13.128  0.6317  0.0335  0.1258
  754MPD2    C111192   2.985   2.561  13.136 -0.3011  0.7710 -0.7406
  754MPD2    C211193   2.882   2.552  13.043  0.1119 -0.8164 -0.2125
  754MPD2    C311194   2.867   2.442  12.954  0.1612 -0.3386 -0.6485
  754MPD2    C411195   2.969   2.349  12.952  0.2094  0.2807  0.2670
  754MPD2    C511196   3.078   2.363  13.030  0.2485 -0.2314 -0.1243
  754MPD2     H11197   2.810   2.633  13.043  0.9561 -0.0331  2.3041
  754MPD2    H111198   2.960   2.262  12.888 -1.2903  0.2716  0.4982
  754MPD2    H211199   3.158   2.455  13.201  0.5001  0.4445  0.3170
  754MPD2    H311200   3.152   2.285  13.017 -0.7537 -1.2889  0.4401
  754MPD2     N11201   2.750   2.406  12.882 -0.6516 -0.0334  0.1179
  754MPD2    H511202   2.749   2.315  12.839 -1.7935  0.7670 -1.5657
  754MPD2    N111203   2.999   2.650  13.243  0.2327 -0.2227  0.5906
  754MPD2    H711204   3.075   2.637  13.309 -1.2201 -1.9213  1.9266
  755MPD2     C11205   1.721   2.384  13.126 -0.5717  0.2623 -0.1523
  755MPD2    C111206   1.840   2.440  13.164 -1.0895 -0.1326 -0.3279
  755MPD2    C211207   1.952   2.422  13.086  0.5299 -0.3067  0.4561
  755MPD2    C311208   1.947   2.357  12.964  0.3539  0.4703 -0.8993
  755MPD2    C411209   1.831   2.303  12.926  0.2074  0.8443 -0.1936
  755MPD2    C511210   1.720   2.311  13.004 -0.5057  0.1079  0.2277
  755MPD2     H11211   2.044   2.468  13.119  1.3624 -0.4396 -1.6403
  755MPD2    H111212   1.815   2.255  12.830  0.3015  0.5091 -0.0426
  755MPD2    H211213   1.638   2.391  13.196 -1.1989 -0.0300 -0.8734
  755MPD2    H311214   1.625   2.267  12.975  0.3382 -1.3526 -0.3111
  755MPD2     N11215   2.061   2.338  12.884  0.5453  0.2109 -0.1101
  755MPD2    H511216   2.061   2.261  12.818 -0.0010  2.3901 -2.6490
  755MPD2    N111217   1.851   2.518  13.284 -0.3964 -0.4745  0.1558
  755MPD2    H711218   1.947   2.542  13.306  0.1918 -2.0775 -0.5907
  756MPD2     C11219   3.643   3.791   9.670 -0.2865  0.5046 -0.1920
  756MPD2    C111220   3.554   3.734   9.755  0.3112 -0.0800 -0.3501
  756MPD2    C211221   3.418   3.735   9.724  0.1951 -0.5493 -0.4094
  756MPD2    C311222   3.378   3.792   9.603 -0.8565 -0.0232  0.9465
  756MPD2    C411223   3.469   3.857   9.529  0.0869  0.3284  0.5463
  756MPD2    C511224   3.599   3.861   9.559 -0.3905 -0.4974  0.3403
  756MPD2     H11225   3.341   3.698   9.791  0.2448 -2.0923 -1.1946
  756MPD2    H111226   3.447   3.908   9.436 -2.1385 -1.2621  0.1874
  756MPD2    H211227   3.748   3.800   9.696 -0.1427 -1.4266 -0.0891
  756MPD2    H311228   3.670   3.911   9.493  0.0941  0.9952  1.9818
  756MPD2     N11229   3.234   3.795   9.585  0.5689 -0.0670  0.5918
  756MPD2    H511230   3.180   3.729   9.641  2.2174 -1.9068  0.0155
  756MPD2    N111231   3.593   3.674   9.883  0.2933 -0.4711 -0.0792
  756MPD2    H711232   3.525   3.618   9.934 -1.0148  0.9384 -0.2856
  757MPD2     C11233   2.850   3.092   9.785  0.1968 -0.8225  0.3198
  757MPD2    C111234   2.972   3.158   9.802 -0.0311 -0.0078  0.5806
  757MPD2    C211235   2.977   3.288   9.761  0.2083 -0.5876  0.1464
  757MPD2    C311236   2.865   3.357   9.717 -0.2160  0.2207  0.7984
  757MPD2    C411237   2.744   3.291   9.691 -0.2874 -0.5431 -0.5931
  757MPD2    C511238   2.746   3.160   9.732 -0.8772 -0.2474 -0.7008
  757MPD2     H11239   3.072   3.340   9.764 -0.1973  0.2400 -1.3504
  757MPD2    H111240   2.659   3.329   9.636  0.1783  1.2420 -0.0879
  757MPD2    H211241   2.839   2.986   9.800 -1.1097 -0.9908 -1.8580
  757MPD2    H311242   2.658   3.099   9.713 -0.0890 -1.7218  0.3268
  757MPD2     N11243   2.890   3.492   9.689  0.2857 -0.5171 -0.3438
  757MPD2    H511244   2.984   3.530   9.698 -0.2384  1.1580 -1.9199
  757MPD2    N111245   3.076   3.081   9.851 -0.3768 -0.6429 -0.7468
  757MPD2    H711246   3.057   2.984   9.873  0.5709 -0.2336  1.8797
  758MPD2     C11247   3.234   2.882  15.660 -0.2145  0.3021  0.1880
  758MPD2    C111248   3.261   2.799  15.769 -0.5192  0.1367  0.2727
  758MPD2    C211249   3.172   2.810  15.870 -0.0350 -0.6228 -0.4534
  758MPD2    C311250   3.062   2.893  15.871 -0.1350  0.6116  0.7949
  758MPD2    C411251   3.038   2.974  15.759  0.3927 -0.1911 -0.6743
  758MPD2    C511252   3.125   2.969  15.659  0.8755  0.5918  0.2579
  758MPD2     H11253   3.193   2.743  15.953 -0.3259  0.8552  0.8108
  758MPD2    H111254   2.953   3.042  15.762  2.0164  1.9309 -3.4887
  758MPD2    H211255   3.294   2.889  15.570  0.8122 -2.9427  0.6357
  758MPD2    H311256   3.105   3.033  15.575  0.1476  0.4515  0.3244
  758MPD2     N11257   2.973   2.922  15.980  0.1612  0.2149 -0.5667
  758MPD2    H511258   2.913   3.003  15.965  1.1306  1.0337  0.0310
  758MPD2    N111259   3.383   2.727  15.775 -0.2510 -0.1381  0.0473
  758MPD2    H711260   3.423   2.705  15.685  0.9963  1.9901  0.0923
  759MPD2     C11261   2.088   1.575   9.469  0.0542  0.0154  0.5442
  759MPD2    C111262   2.186   1.485   9.510 -0.1696 -0.2045 -0.8161
  759MPD2    C211263   2.313   1.521   9.486 -0.3032  0.0189 -0.5496
  759MPD2    C311264   2.347   1.622   9.399  0.1341  0.1809  0.8312
  759MPD2    C411265   2.249   1.710   9.358  0.2502 -0.3642 -0.6147
  759MPD2    C511266   2.120   1.682   9.394  0.5411  0.1696 -0.0341
  759MPD2     H11267   2.384   1.449   9.527 -2.1751 -0.9462  0.9756
  759MPD2    H111268   2.268   1.805   9.310  1.5982  0.9199  2.4877
  759MPD2    H211269   1.982   1.572   9.492 -0.0947  0.2065 -0.1275
  759MPD2    H311270   2.034   1.743   9.366  1.6626  1.1207 -1.4219
  759MPD2     N11271   2.487   1.643   9.371  0.2413  0.7956  0.1371
  759MPD2    H511272   2.554   1.583   9.418 -0.8079 -0.8647 -0.4663
  759MPD2    N111273   2.149   1.362   9.579 -0.2941 -0.0404 -0.5056
  759MPD2    H711274   2.230   1.304   9.599 -0.0265  0.5489  0.1252
  760MPD2     C11275   2.553   2.797  10.801 -0.0369 -0.3026  0.0994
  760MPD2    C111276   2.594   2.819  10.929  0.2188 -1.0365  0.2359
  760MPD2    C211277   2.615   2.708  11.008  0.5364 -0.0977  0.5305
  760MPD2    C311278   2.586   2.580  10.966  0.4091  0.6403  0.3550
  760MPD2    C411279   2.523   2.562  10.849  0.5367  0.2424 -0.3665
  760MPD2    C511280   2.508   2.674  10.763 -0.0379  0.0901 -0.6399
  760MPD2     H11281   2.671   2.721  11.100  2.1901  1.4446 -0.6889
  760MPD2    H111282   2.504   2.464  10.807  0.4316  0.5915 -1.1311
  760MPD2    H211283   2.546   2.877  10.728 -1.2209 -1.2806 -0.8582
  760MPD2    H311284   2.462   2.663  10.665 -0.6398 -0.6330 -0.2737
  760MPD2     N11285   2.620   2.470  11.047  0.2405 -0.4341 -0.2896
  760MPD2    H511286   2.575   2.383  11.019  1.7462 -0.7006 -1.8486
  760MPD2    N111287   2.615   2.949  10.988  0.2672  0.4282 -0.0154
  760MPD2    H711288   2.627   2.956  11.088  0.0889  1.0975 -0.0406
  761MPD2     C11289   3.679   2.248  11.664  0.3262 -0.7781 -0.2667
  761MPD2    C111290   3.701   2.255  11.528  0.6456  0.1996 -0.2514
  761MPD2    C211291   3.792   2.338  11.476  0.3569 -0.6886  0.2227
  761MPD2    C311292   3.867   2.431  11.558 -0.4119 -0.0972  0.9082
  761MPD2    C411293   3.821   2.437  11.689 -0.6988 -0.3033 -0.3437
  761MPD2    C511294   3.737   2.343  11.740 -0.5595  0.0722 -0.0695
  761MPD2     H11295   3.824   2.339  11.372  1.2636  0.0121  0.5055
  761MPD2    H111296   3.850   2.516  11.757  0.1888 -1.7700  0.9873
  761MPD2    H211297   3.618   2.171  11.709 -0.5076 -0.7495 -1.3515
  761MPD2    H311298   3.699   2.352  11.842 -2.3970 -0.7774 -0.6868
  761MPD2     N11299   3.958   2.520  11.500  0.0461  0.0988 -0.4884
  761MPD2    H511300   3.970   2.609  11.548  2.7247 -0.3414 -0.3934
  761MPD2    N111301   3.640   2.157  11.444 -0.3343 -0.2925  0.1134
  761MPD2    H711302   3.600   2.075  11.488  2.6206 -0.2617  2.8395
  762MPD2     C11303   3.665   1.592  10.716  0.0997 -0.0314 -0.3142
  762MPD2    C111304   3.689   1.724  10.752 -0.2273 -0.4124  0.5922
  762MPD2    C211305   3.747   1.809  10.656 -0.1180 -0.0614 -0.1081
  762MPD2    C311306   3.769   1.761  10.526 -0.1765  0.1187  0.0427
  762MPD2    C411307   3.745   1.634  10.487  0.4893 -0.1260  0.6866
  762MPD2    C511308   3.690   1.551  10.587 -0.3531 -0.5184  0.0832
  762MPD2     H11309   3.762   1.914  10.678 -1.9237  0.6556 -2.3601
  762MPD2    H111310   3.768   1.601  10.387  2.0512  1.0156  0.6632
  762MPD2    H211311   3.626   1.523  10.790 -2.1897 -0.1449 -1.6086
  762MPD2    H311312   3.658   1.451  10.560  1.1453 -0.7642 -0.8212
  762MPD2     N11313   3.830   1.854  10.442  0.4083  0.3027 -0.2811
  762MPD2    H511314   3.838   1.946  10.485 -0.5875  0.0660  0.4038
  762MPD2    N111315   3.651   1.762  10.887  0.2798  0.4547  0.5204
  762MPD2    H711316   3.594   1.688  10.926  0.1066 -1.4650 -3.3663
  763MPD2     C11317   0.783   2.686  16.115  0.2500 -0.4712  0.1530
  763MPD2    C111318   0.666   2.748  16.056  0.2591  0.1523  0.3935
  763MPD2    C211319   0.632   2.879  16.099  0.2548  0.4942 -0.0164
  763MPD2    C311320   0.721   2.949  16.177 -0.7433  0.1721 -0.3135
  763MPD2    C411321   0.837   2.895  16.214 -0.3642 -0.2473 -0.6391
  763MPD2    C511322   0.863   2.764  16.193  0.1981  0.1701  0.0051
  763MPD2     H11323   0.536   2.919  16.069  0.5370 -1.1327 -3.0962
  763MPD2    H111324   0.902   2.952  16.280  1.5368 -0.4192 -2.3452
  763MPD2    H211325   0.808   2.581  16.107  1.3428 -0.3348  1.7980
  763MPD2    H311326   0.943   2.708  16.241 -0.0711 -1.9459 -1.9974
  763MPD2     N11327   0.706   3.089  16.207 -0.3157 -0.1804  0.2673
  763MPD2    H511328   0.789   3.147  16.215 -1.6526  2.1015 -2.2228
  763MPD2    N111329   0.592   2.677  15.955 -0.4369 -0.2156  0.1856
  763MPD2    H711330   0.521   2.724  15.901 -1.4519 -1.3854  0.4911
  764MPD2     C11331   2.866   3.726  16.910 -0.2430 -0.5240  0.2806
  764MPD2    C111332   2.869   3.860  16.933 -0.0084 -0.4435  0.2380
  764MPD2    C211333   2.935   3.908  17.049  1.2199 -0.4372  0.5064
  764MPD2    C311334   3.016   3.827  17.125  0.4642 -0.2068 -0.0387
  764MPD2    C411335   3.025   3.689  17.089  0.1392  0.1427 -0.5932
  764MPD2    C511336   2.946   3.639  16.985 -0.3734  0.5419 -0.4493
  764MPD2     H11337   2.919   4.013  17.070 -1.1077 -0.5025 -0.9595
  764MPD2    H111338   3.083   3.614  17.142 -0.6813 -0.2152 -0.2123
  764MPD2    H211339   2.793   3.685  16.842  1.3664  2.0910 -3.0362
  764MPD2    H311340   2.927   3.533  16.978 -3.3935  0.9015  2.2774
  764MPD2     N11341   3.061   3.881  17.252  0.2778 -0.7684  0.4000
  764MPD2    H511342   3.037   3.979  17.260 -0.2019 -0.7902 -0.8527
  764MPD2    N111343   2.795   3.954  16.858 -0.2853  0.2870 -0.2934
  764MPD2    H711344   2.776   4.048  16.892  1.7626  0.3835  0.5916
  765MPD2     C11345   3.126   2.250  16.042 -0.3684 -0.4657  0.7027
  765MPD2    C111346   3.192   2.268  15.920 -0.2294  0.0590  0.1312
  765MPD2    C211347   3.299   2.188  15.879 -0.1136  0.5744 -0.9731
  765MPD2    C311348   3.352   2.097  15.975 -0.3670 -0.3070 -0.0328
  765MPD2    C411349   3.291   2.083  16.098  0.3815 -0.0430  0.4271
  765MPD2    C511350   3.174   2.155  16.133  0.5312 -0.4495  0.4098
  765MPD2     H11351   3.350   2.195  15.784  1.0271  0.8403 -0.3357
  765MPD2    H111352   3.332   2.022  16.178 -1.5116 -0.5037  1.0279
  765MPD2    H211353   3.033   2.299  16.066  0.0454  0.4890  0.3510
  765MPD2    H311354   3.126   2.143  16.229 -0.2349 -1.2678 -0.0712
  765MPD2     N11355   3.457   2.009  15.931 -0.3143 -0.2745  0.2936
  765MPD2    H511356   3.495   2.028  15.839 -0.8723  1.2299  0.3679
  765MPD2    N111357   3.119   2.364  15.836 -0.3389 -0.2831 -0.3910
  765MPD2    H711358   3.041   2.408  15.884 -0.6032 -0.9462 -0.2262
  766MPD2     C11359   2.551   2.190  15.467  0.5484 -0.0206 -0.6404
  766MPD2    C111360   2.683   2.185  15.501 -0.1211 -0.7005  0.1370
  766MPD2    C211361   2.743   2.061  15.490 -0.1985  0.0250 -0.7986
  766MPD2    C311362   2.668   1.950  15.436 -0.6286  0.2356 -0.5802
  766MPD2    C411363   2.538   1.969  15.387 -0.6603 -0.7395 -0.4590
  766MPD2    C511364   2.483   2.086  15.414  0.5291  0.3227 -0.0629
  766MPD2     H11365   2.846   2.045  15.520 -0.3525 -0.4213 -0.5013
  766MPD2    H111366   2.483   1.894  15.332 -0.2011 -0.7927 -0.8524
  766MPD2    H211367   2.495   2.280  15.489 -1.2755 -1.1772 -0.5767
  766MPD2    H311368   2.377   2.099  15.395  0.3828 -3.8001 -2.2011
  766MPD2     N11369   2.732   1.835  15.387 -0.0251 -0.1451 -0.2026
  766MPD2    H511370   2.676   1.775  15.326  1.5096 -0.9706 -0.8206
  766MPD2    N111371   2.760   2.293  15.553  0.0213  0.6349  0.5423
  766MPD2    H711372   2.853   2.267  15.583  0.3824  0.8705 -0.3780
  767MPD2     C11373   2.125   2.124  14.545  0.6840 -0.2917  0.0151
  767MPD2    C111374   2.206   2.194  14.457 -0.2245  0.6064 -0.0139
  767MPD2    C211375   2.315   2.140  14.397 -0.2887 -0.3375  0.1417
  767MPD2    C311376   2.339   2.005  14.423  0.5283  0.3296 -0.0087
  767MPD2    C411377   2.261   1.935  14.515  0.4539  0.3735 -0.3065
  767MPD2    C511378   2.158   1.998  14.581  0.2756 -0.8932 -0.4410
  767MPD2     H11379   2.381   2.199  14.334 -1.6499 -0.0812 -1.0305
  767MPD2    H111380   2.277   1.831  14.538  1.1159  1.2332  3.0790
  767MPD2    H211381   2.032   2.162  14.587  1.3187  1.6759 -0.3864
  767MPD2    H311382   2.092   1.949  14.652  0.3025 -1.3176 -0.7128
  767MPD2     N11383   2.441   1.945  14.355 -0.2636 -0.5872 -0.0529
  767MPD2    H511384   2.473   2.002  14.278 -1.0150  1.6274  1.2600
  767MPD2    N111385   2.164   2.329  14.437 -0.2990  0.9773 -0.8968
  767MPD2    H711386   2.071   2.355  14.467  0.3374  2.5018 -0.2597
  768MPD2     C11387   3.772   0.721  10.451 -0.6002 -0.3158 -0.2024
  768MPD2    C111388   3.712   0.633  10.535 -0.2215 -0.0515 -0.5462
  768MPD2    C211389   3.775   0.604  10.658 -0.5787  0.2035 -0.3483
  768MPD2    C311390   3.889   0.664  10.695 -0.3006  0.8516 -0.1270
  768MPD2    C411391   3.947   0.756  10.608  0.3201  0.5326  0.0497
  768MPD2    C511392   3.885   0.782  10.488 -0.7593  0.1299 -0.6214
  768MPD2     H11393   3.725   0.525  10.713 -1.6555 -0.3021 -2.0458
  768MPD2    H111394   4.038   0.801  10.646  1.5158 -1.6212 -0.2481
  768MPD2    H211395   3.727   0.747  10.356 -0.1434 -2.7388 -1.0900
  768MPD2    H311396   3.919   0.860  10.421  0.8543 -2.5518 -2.9328
  768MPD2     N11397   3.955   0.628  10.816 -0.0284  0.9676  0.5649
  768MPD2    H511398   4.051   0.657  10.824  0.6015 -0.6717 -1.1181
  768MPD2    N111399   3.579   0.574  10.510 -0.1057  0.6562  0.4027
  768MPD2    H711400   3.543   0.519  10.587 -0.6828  0.7448  0.1936
  769MPD2     C11401   4.554   3.047  15.138  0.3122 -0.1874 -0.6348
  769MPD2    C111402   4.424   3.080  15.162 -0.7162 -0.1715 -0.4475
  769MPD2    C211403   4.395   3.206  15.208 -0.4392  0.2466  0.2057
  769MPD2    C311404   4.500   3.295  15.243 -0.2205  0.7522  0.1272
  769MPD2    C411405   4.625   3.261  15.208  0.1290  0.0243  0.4006
  769MPD2    C511406   4.656   3.139  15.161 -0.0167 -0.1759 -0.7820
  769MPD2     H11407   4.294   3.231  15.239 -1.2519 -1.7974 -0.8486
  769MPD2    H111408   4.710   3.325  15.229  0.3416  0.0885 -0.6970
  769MPD2    H211409   4.592   2.954  15.096 -0.7860 -1.0466  0.2663
  769MPD2    H311410   0.019   3.124  15.132 -0.5059 -0.9762 -2.1014
  769MPD2     N11411   4.464   3.410  15.312 -0.5099  0.1679  0.1005
  769MPD2    H511412   4.365   3.431  15.314 -0.6151 -0.2046 -0.8894
  769MPD2    N111413   4.334   2.978  15.135  0.6506  0.2890 -0.6559
  769MPD2    H711414   4.371   2.894  15.093  0.3085 -0.3461  0.2947
  770MPD2     C11415   3.334   2.512  14.926 -0.6091 -0.5616 -0.2135
  770MPD2    C111416   3.436   2.419  14.917 -0.0276  1.3277 -0.7458
  770MPD2    C211417   3.560   2.463  14.964  0.2595  0.7536  0.0497
  770MPD2    C311418   3.583   2.596  14.998  0.0617  0.9971 -0.3550
  770MPD2    C411419   3.475   2.686  14.984 -0.3360  0.0049 -0.4986
  770MPD2    C511420   3.351   2.647  14.945  0.3003 -0.0187 -0.1014
  770MPD2     H11421   3.647   2.398  14.959 -1.8545 -2.2510  1.7924
  770MPD2    H111422   3.483   2.794  14.984 -1.1715  0.0695  0.1836
  770MPD2    H211423   3.236   2.477  14.896 -1.2542  0.1045  1.0991
  770MPD2    H311424   3.266   2.711  14.923 -0.3533 -0.9775 -0.3589
  770MPD2     N11425   3.709   2.628  15.054  0.1505  0.4628 -0.1481
  770MPD2    H511426   3.768   2.546  15.065 -0.1397  0.3038  0.2208
  770MPD2    N111427   3.411   2.281  14.888 -0.1475 -0.3220  0.1237
  770MPD2    H711428   3.314   2.260  14.869 -0.4006  1.1726 -0.2936
  771MPD2     C11429   0.631   1.204  13.959 -0.3323 -0.3556  0.4652
  771MPD2    C111430   0.565   1.248  13.851 -0.3446  0.5858 -0.0946
  771MPD2    C211431   0.462   1.166  13.806  0.1482  0.2104  0.5244
  771MPD2    C311432   0.429   1.048  13.873  0.0188 -0.6352 -0.6733
  771MPD2    C411433   0.508   1.003  13.977 -0.6421 -0.3849  0.1272
  771MPD2    C511434   0.603   1.091  14.021  0.8550 -0.5530 -0.4945
  771MPD2     H11435   0.417   1.199  13.713 -0.5737 -0.6460  0.5716
  771MPD2    H111436   0.491   0.911  14.030 -0.2880 -1.5119 -1.7102
  771MPD2    H211437   0.704   1.263  14.013 -0.7394 -0.3651  1.0354
  771MPD2    H311438   0.667   1.072  14.106 -0.4734  0.1105  0.6699
  771MPD2     N11439   0.312   0.984  13.836 -0.1712  0.2820  0.4191
  771MPD2    H511440   0.248   1.042  13.782 -1.8845 -3.0828 -1.1372
  771MPD2    N111441   0.587   1.372  13.792  0.0307 -0.7401  0.1408
  771MPD2    H711442   0.527   1.399  13.715 -1.7607 -1.1458  1.3971
  772MPD2     C11443   0.240   1.827  13.360  0.1085 -0.2587 -0.4425
  772MPD2    C111444   0.215   1.774  13.486  0.5506 -0.3800  0.3248
  772MPD2    C211445   0.079   1.755  13.527 -0.7702 -0.3730 -0.1204
  772MPD2    C311446   4.717   1.773  13.437  0.5973 -0.3319 -0.0589
  772MPD2    C411447   0.007   1.830  13.311 -0.4163  0.9831 -0.1117
  772MPD2    C511448   0.137   1.839  13.274 -0.2320  0.4182  0.0593
  772MPD2     H11449   0.058   1.718  13.626  1.6059  0.3425  0.6552
  772MPD2    H111450   4.669   1.849  13.239  0.5157 -0.0751 -1.3965
  772MPD2    H211451   0.340   1.834  13.319  0.3259 -2.2800 -0.2452
  772MPD2    H311452   0.158   1.865  13.171  0.2327  0.3865  0.1469
  772MPD2     N11453   4.584   1.758  13.482 -0.0591  0.6094 -0.3172
  772MPD2    H511454   4.566   1.738  13.580 -2.4152  1.7945 -0.5195
  772MPD2    N111455   0.324   1.760  13.584  0.2137 -0.0623 -0.1045
  772MPD2    H711456   0.301   1.738  13.680  3.9271 -2.0084  0.3433
  773MPD2     C11457   3.648   3.084  17.480 -0.3276  0.1562 -0.1370
  773MPD2    C111458   3.594   2.973  17.411 -0.6417  0.7884  0.3009
  773MPD2    C211459   3.599   2.844  17.475  0.0445 -0.0106 -0.4257
  773MPD2    C311460   3.669   2.821  17.591  0.2150 -0.0292  0.4001
  773MPD2    C411461   3.732   2.931  17.647 -0.9361 -0.1707 -0.3511
  773MPD2    C511462   3.722   3.057  17.588  0.0922  0.0293  0.4654
  773MPD2     H11463   3.550   2.765  17.419 -0.6031  1.0694 -1.3805
  773MPD2    H111464   3.802   2.925  17.729 -1.1922  0.5366 -0.0766
  773MPD2    H211465   3.640   3.187  17.446  1.0857  1.1001  2.3904
  773MPD2    H311466   3.767   3.135  17.648  1.5653  1.1752 -2.1353
  773MPD2     N11467   3.690   2.690  17.643  1.0245 -0.8631 -0.2034
  773MPD2    H511468   3.640   2.620  17.590 -2.8387  1.9920 -0.2592
  773MPD2    N111469   3.510   2.982  17.294  0.1056  0.2428 -0.2641
  773MPD2    H711470   3.471   2.894  17.261 -0.2196 -0.9486  3.3291
  774MPD2     C11471   2.773   2.248  13.749  0.2730 -0.4515  0.4444
  774MPD2    C111472   2.911   2.252  13.734  0.3361  0.1935  0.8365
  774MPD2    C211473   2.977   2.368  13.715  0.4958  0.2215  0.4901
  774MPD2    C311474   2.903   2.486  13.729 -0.0278 -0.8310 -0.0338
  774MPD2    C411475   2.771   2.476  13.750 -0.6573  0.2422  0.0369
  774MPD2    C511476   2.701   2.363  13.753  0.3319 -0.7270 -0.5946
  774MPD2     H11477   3.083   2.372  13.694  0.1194  0.0056 -1.4678
  774MPD2    H111478   2.715   2.568  13.741 -1.2727  0.1375  2.7910
  774MPD2    H211479   2.725   2.151  13.754 -0.1040 -0.1686  2.4565
  774MPD2    H311480   2.593   2.351  13.757  0.4520 -1.0288  1.8458
  774MPD2     N11481   2.970   2.606  13.703  0.3135  0.1531  0.4248
  774MPD2    H511482   3.058   2.601  13.652  0.4516 -0.6291  0.7407
  774MPD2    N111483   2.968   2.120  13.734  0.9993  0.7274 -0.7433
  774MPD2    H711484   2.906   2.040  13.748 -1.5523  3.0952  1.4481
  775MPD2     C11485   4.550   3.301  15.696 -0.0696 -0.7385  0.0960
  775MPD2    C111486   4.556   3.421  15.755  0.6855  0.5274  0.1604
  775MPD2    C211487   4.646   3.519  15.714 -0.0856 -0.1440 -0.1021
  775MPD2    C311488   4.733   3.484  15.615 -0.2302 -0.0441 -0.5182
  775MPD2    C411489   4.736   3.365  15.561  0.5933 -0.8849 -0.0031
  775MPD2    C511490   4.640   3.275  15.596 -0.0208  0.5616 -0.1672
  775MPD2     H11491   4.648   3.619  15.755  2.2674  0.1061 -0.8002
  775MPD2    H111492   0.082   3.337  15.501  0.3540 -1.4428 -0.0825
  775MPD2    H211493   4.476   3.225  15.721 -0.8987  0.4813  1.3451
  775MPD2    H311494   4.627   3.189  15.533 -0.9745  1.2459 -0.9047
  775MPD2     N11495   0.097   3.577  15.583 -0.1680  0.1800 -0.0251
  775MPD2    H511496   0.135   3.579  15.489  0.1117  1.7641  0.1111
  775MPD2    N111497   4.471   3.447  15.870 -0.2762 -0.1886 -0.1371
  775MPD2    H711498   4.410   3.370  15.897  1.6625 -1.4235  0.7008
  776MPD2     C11499   3.423   3.838  11.567 -0.0340  0.4018 -0.5697
  776MPD2    C111500   3.555   3.851  11.602  0.6042 -0.0776 -0.3841
  776MPD2    C211501   3.628   3.952  11.547  0.1691  0.6296 -0.4347
  776MPD2    C311502   3.571   4.033  11.449  0.0038  0.4703  0.1888
  776MPD2    C411503   3.435   4.021  11.418  0.3699  0.7297  0.2235
  776MPD2    C511504   3.365   3.916  11.471 -0.3222  0.6147  0.7128
  776MPD2     H11505   3.733   3.957  11.571  0.2046  1.6415 -0.7901
  776MPD2    H111506   3.382   4.088  11.352  1.3934  1.3004 -0.0204
  776MPD2    H211507   3.358   3.767  11.617 -0.4518 -0.2986 -2.1210
  776MPD2    H311508   3.269   3.894  11.426  0.5286  0.8250 -1.2345
  776MPD2     N11509   3.648   4.132  11.382 -0.2606 -0.5865 -0.5610
  776MPD2    H511510   3.601   4.208  11.334  1.4094  0.7311 -0.0995
  776MPD2    N111511   3.617   3.750  11.691  0.3094  0.1588  0.5720
  776MPD2    H711512   3.558   3.674  11.723 -2.8257  1.3413 -2.4745
  777MPD2     C11513   3.505   1.286   0.655  0.1595 -0.4583  0.3827
  777MPD2    C111514   3.578   1.185   0.712 -0.0576  0.0753 -0.6425
  777MPD2    C211515   3.581   1.064   0.640 -0.9117 -0.5533 -0.6677
  777MPD2    C311516   3.520   1.042   0.515  0.3266 -0.7851 -0.8906
  777MPD2    C411517   3.443   1.149   0.471  0.2505  0.8330  0.5600
  777MPD2    C511518   3.438   1.265   0.543  0.6924 -0.4459  0.0571
  777MPD2     H11519   3.640   0.979   0.674 -0.2357 -0.2667 -1.1347
  777MPD2    H111520   3.389   1.151   0.377 -0.9508 -1.3598  1.2054
  777MPD2    H211521   3.493   1.382   0.703 -2.0898 -0.9434  0.8011
  777MPD2    H311522   3.388   1.355   0.506 -0.3486 -1.6952 -1.5840
  777MPD2     N11523   3.534   0.914   0.444 -0.3101  0.1297  0.3165
  777MPD2    H511524   3.590   0.845   0.493  0.8393  0.2722 -0.7894
  777MPD2    N111525   3.636   1.204   0.841  0.2432 -1.0182  0.2549
  777MPD2    H711526   3.618   1.295   0.881  1.8810 -0.9168  0.7597
  778MPD2     C11527   0.462   1.321  15.185 -0.4186 -0.3831  0.1393
  778MPD2    C111528   0.395   1.271  15.074  0.2253  0.0795 -0.1454
  778MPD2    C211529   0.434   1.330  14.951  0.1522 -0.4852 -0.7588
  778MPD2    C311530   0.501   1.454  14.949  0.1600  0.1807 -0.3225
  778MPD2    C411531   0.555   1.501  15.069 -0.2531  0.1214 -0.0166
  778MPD2    C511532   0.551   1.428  15.179 -0.3410 -0.2442  0.1856
  778MPD2     H11533   0.405   1.286  14.857 -0.9875  2.0608 -1.5848
  778MPD2    H111534   0.616   1.591  15.069  0.3865 -0.3040  1.4853
  778MPD2    H211535   0.463   1.273  15.282  0.5188  0.4032  0.5139
  778MPD2    H311536   0.613   1.456  15.262 -0.4151  0.8265 -0.1247
  778MPD2     N11537   0.548   1.513  14.826 -0.3486  0.2891 -0.4163
  778MPD2    H511538   0.547   1.454  14.744  1.7039  0.3904 -0.5139
  778MPD2    N111539   0.306   1.166  15.075 -0.2995 -0.6936 -0.2171
  778MPD2    H711540   0.276   1.134  14.983  0.0896 -1.7810  0.0407
  779MPD2     C11541   4.575   0.179  14.272  0.2205  0.4431 -0.5357
  779MPD2    C111542   4.704   0.208  14.318 -0.0458  0.3665 -0.2089
  779MPD2    C211543   0.014   0.336  14.318  0.0544  0.0495 -0.4523
  779MPD2    C311544   4.675   0.434  14.271 -1.0926 -0.7897 -0.3047
  779MPD2    C411545   4.556   0.411  14.221  0.3743 -0.1238 -0.1876
  779MPD2    C511546   4.503   0.282  14.217  0.1116  1.2466 -0.7642
  779MPD2     H11547   0.119   0.351  14.343 -0.4955  1.3081  1.0894
  779MPD2    H111548   4.488   0.485  14.181 -0.4952 -0.8059  0.0137
  779MPD2    H211549   4.534   0.080  14.258 -1.5607  1.0484  0.3851
  779MPD2    H311550   4.401   0.278  14.180 -0.3458 -0.9556  0.6772
  779MPD2     N11551   4.737   0.561  14.269 -0.6284 -0.2495  0.0771
  779MPD2    H511552   0.091   0.566  14.308  0.0241  0.1117 -1.5459
  779MPD2    N111553   0.047   0.109  14.370  0.3626  0.2143 -0.0854
  779MPD2    H711554   0.132   0.142  14.414  1.1638  0.0785 -1.5171
  780MPD2     C11555   0.161   0.143   0.723 -1.0661 -0.1437  0.3385
  780MPD2    C111556   0.034   0.116   0.679  0.0653 -0.0831  0.3991
  780MPD2    C211557   4.738   0.158   0.548 -0.6684 -0.0109 -0.8086
  780MPD2    C311558   0.084   0.254   0.477 -0.6254  0.1712  0.9467
  780MPD2    C411559   0.208   0.280   0.531  0.8496 -0.0395  0.4111
  780MPD2    C511560   0.246   0.217   0.646  0.1540  0.5948 -0.0533
  780MPD2     H11561   4.638   0.139   0.510 -0.5974  0.1245 -1.0638
  780MPD2    H111562   0.282   0.343   0.483 -0.1619  0.1662 -0.8694
  780MPD2    H211563   0.195   0.104   0.818 -1.7723 -0.2310  0.5570
  780MPD2    H311564   0.346   0.231   0.685  0.5859 -0.5216 -0.7614
  780MPD2     N11565   0.028   0.324   0.366  0.1179  0.4015 -0.8470
  780MPD2    H511566   4.689   0.284   0.317  1.4081 -3.0734 -0.0776
  780MPD2    N111567   4.685   0.044   0.761  0.2677 -0.0640 -0.2489
  780MPD2    H711568   4.717   0.002   0.847  2.6999  1.3899 -0.4417
  781MPD2     C11569   1.861   1.346  11.709 -0.8855 -0.6212  0.3328
  781MPD2    C111570   1.914   1.294  11.825 -0.9639  0.3310  0.2281
  781MPD2    C211571   2.044   1.249  11.829  0.5753 -0.1521 -0.1246
  781MPD2    C311572   2.113   1.233  11.712 -0.6454  0.5250 -0.7976
  781MPD2    C411573   2.064   1.288  11.596 -0.5656  0.0955  0.3206
  781MPD2    C511574   1.938   1.348  11.597  0.0707 -0.4415 -0.5529
  781MPD2     H11575   2.088   1.214  11.922 -0.9774  1.3188  1.1917
  781MPD2    H111576   2.118   1.292  11.503 -2.0553 -0.9182 -0.6002
  781MPD2    H211577   1.768   1.401  11.703  0.0537  1.1693  2.2767
  781MPD2    H311578   1.903   1.392  11.505 -1.4752 -1.6323 -0.5426
  781MPD2     N11579   2.236   1.162  11.704 -0.5210 -0.3984  0.4632
  781MPD2    H511580   2.270   1.158  11.608 -0.7561 -0.8004  0.3955
  781MPD2    N111581   1.849   1.304  11.950  0.3874  0.2320 -0.1467
  781MPD2    H711582   1.905   1.284  12.033  2.9497 -0.3499 -2.0378
  782MPD2     C11583   4.259   3.194  10.039  0.2208 -0.2107 -0.0755
  782MPD2    C111584   4.350   3.121  10.109  0.6092 -0.0311  0.7601
  782MPD2    C211585   4.429   3.174  10.200  0.2833 -0.4731  0.3111
  782MPD2    C311586   4.425   3.308  10.225 -0.3259 -0.0282  0.1538
  782MPD2    C411587   4.334   3.389  10.166 -0.6568 -0.0996 -0.3492
  782MPD2    C511588   4.261   3.330  10.057  0.1461 -0.2557 -0.0057
  782MPD2     H11589   4.507   3.119  10.251  2.2483 -0.8607 -3.1410
  782MPD2    H111590   4.311   3.490  10.199  0.0332 -0.0763  0.0552
  782MPD2    H211591   4.193   3.145   9.968  0.0299 -1.1363  0.7349
  782MPD2    H311592   4.189   3.392  10.006  0.3748  0.4698  0.5451
  782MPD2     N11593   4.507   3.356  10.328 -0.4907 -0.1757 -0.3118
  782MPD2    H511594   4.559   3.286  10.379  1.4374  0.6351 -1.1822
  782MPD2    N111595   4.357   2.981  10.100 -0.0471 -0.0326 -0.1539
  782MPD2    H711596   4.434   2.932  10.146  1.0530  2.2800  0.4823
  783MPD2     C11597   3.872   2.467  10.752  0.0068  0.1120 -0.1799
  783MPD2    C111598   3.960   2.570  10.775  0.1648 -1.3380  0.3322
  783MPD2    C211599   4.026   2.618  10.665  0.0916 -0.3576 -0.5595
  783MPD2    C311600   3.989   2.582  10.539  0.3639 -0.2806 -0.0938
  783MPD2    C411601   3.898   2.485  10.508 -0.2388  0.0056 -0.4294
  783MPD2    C511602   3.837   2.437  10.620  0.4964 -0.5294 -0.1979
  783MPD2     H11603   4.090   2.703  10.686 -0.2049 -0.5566  1.1594
  783MPD2    H111604   3.857   2.459  10.411 -2.5062  0.5468  0.3783
  783MPD2    H211605   3.812   2.425  10.831  1.4923  0.7797  1.2897
  783MPD2    H311606   3.757   2.365  10.619  0.9839 -1.1085  1.7324
  783MPD2     N11607   4.060   2.641  10.434 -0.0093 -1.1593 -0.2331
  783MPD2    H511608   4.124   2.711  10.468 -1.2079 -0.0111 -0.3297
  783MPD2    N111609   3.991   2.599  10.908 -0.0297  0.3485 -0.3790
  783MPD2    H711610   3.943   2.555  10.986  0.9080  0.0127  0.0124
  784MPD2     C11611   2.149   3.162   0.597 -0.3995  0.2798  0.0381
  784MPD2    C111612   2.169   3.268   0.680 -0.0935 -0.3438 -0.6237
  784MPD2    C211613   2.060   3.356   0.705  0.0713  0.6342 -0.0316
  784MPD2    C311614   1.943   3.338   0.629  0.1988 -0.1025  0.0027
  784MPD2    C411615   1.937   3.234   0.541  0.3716  0.1164  0.2863
  784MPD2    C511616   2.034   3.141   0.532 -0.8319  0.1825 -0.0679
  784MPD2     H11617   2.079   3.441   0.769  1.0643  1.0822 -0.9207
  784MPD2    H111618   1.840   3.207   0.499  0.0888  0.1522  0.9203
  784MPD2    H211619   2.218   3.080   0.586 -2.1403 -1.3385  1.2074
  784MPD2    H311620   2.025   3.061   0.460  1.5925 -0.9262  0.8642
  784MPD2     N11621   1.836   3.434   0.650  0.2215 -0.0884  0.6340
  784MPD2    H511622   1.838   3.497   0.729  0.2048 -1.0947  1.4356
  784MPD2    N111623   2.294   3.288   0.744  0.0120  0.6499  0.2343
  784MPD2    H711624   2.311   3.378   0.788 -0.0055 -0.0354  1.6348
  785MPD2     C11625   2.628   1.329  10.790 -0.4601  0.0458  0.6603
  785MPD2    C111626   2.538   1.421  10.825 -0.0958 -0.2505 -0.2015
  785MPD2    C211627   2.405   1.413  10.776  0.2116  0.5412 -0.0512
  785MPD2    C311628   2.376   1.308  10.693  0.9059 -0.8745  0.4344
  785MPD2    C411629   2.467   1.208  10.669 -0.2693 -0.2464  0.1452
  785MPD2    C511630   2.590   1.216  10.721 -0.0205  0.6488  0.1937
  785MPD2     H11631   2.336   1.495  10.795  1.8440  2.3011 -1.6761
  785MPD2    H111632   2.432   1.126  10.609 -0.4141 -0.1499  0.0974
  785MPD2    H211633   2.731   1.335  10.824 -0.0954  1.1143 -0.6543
  785MPD2    H311634   2.665   1.142  10.698 -1.0440 -0.4423  0.3577
  785MPD2     N11635   2.243   1.311  10.636  0.3358  0.1208 -0.2367
  785MPD2    H511636   2.198   1.401  10.649  0.3273 -0.2861  2.6037
  785MPD2    N111637   2.573   1.540  10.901  0.1697  0.2913 -0.0750
  785MPD2    H711638   2.496   1.602  10.923  1.6160  2.3393 -0.8313
  786MPD2     C11639   0.862   4.449  14.773  0.6084  0.1160  0.7679
  786MPD2    C111640   0.914   4.320  14.775 -0.8646  0.0298  0.4287
  786MPD2    C211641   0.941   4.265  14.901 -0.9604  0.3725 -0.3294
  786MPD2    C311642   0.924   4.345  15.018 -1.3217 -0.0813  0.4427
  786MPD2    C411643   0.859   4.465  15.012 -0.2846  0.6380 -0.5528
  786MPD2    C511644   0.837   4.517  14.887 -0.4107  0.4550 -1.1286
  786MPD2     H11645   0.980   4.164  14.906 -0.8508  0.5088  1.6755
  786MPD2    H111646   0.834   4.523  15.100  2.4058  0.9582 -0.0135
  786MPD2    H211647   0.822   4.502  14.687  0.5823 -1.3905 -0.1502
  786MPD2    H311648   0.788   4.614  14.885 -1.1307  0.0947 -0.9172
  786MPD2     N11649   0.962   4.296  15.147 -0.0071 -0.4077  0.5124
  786MPD2    H511650   0.925   4.343  15.229 -1.0153 -1.7188  0.8159
  786MPD2    N111651   0.941   4.243  14.665  0.5071  0.4745  0.2313
  786MPD2    H711652   0.987   4.154  14.679 -1.4558 -0.5720 -0.1019
  787MPD2     C11653   0.992   3.473  14.329  0.4129 -0.3471  1.1228
  787MPD2    C111654   1.061   3.586  14.376 -0.1714  0.7974  0.0160
  787MPD2    C211655   1.195   3.568  14.392  0.2155 -0.0195  1.0665
  787MPD2    C311656   1.253   3.442  14.401 -0.3966 -0.7759 -0.5210
  787MPD2    C411657   1.173   3.330  14.380  0.3633  0.7566 -0.1078
  787MPD2    C511658   1.043   3.342  14.342  0.6546  0.1594  0.0472
  787MPD2     H11659   1.256   3.657  14.398  1.0567 -0.5062 -0.2232
  787MPD2    H111660   1.215   3.231  14.386 -1.7888 -0.1936 -0.6846
  787MPD2    H211661   0.890   3.483  14.294  0.7299  1.3775  0.6692
  787MPD2    H311662   0.986   3.253  14.319  0.2433 -0.2049  2.5040
  787MPD2     N11663   1.391   3.432  14.423 -0.0552 -0.2438 -0.3367
  787MPD2    H511664   1.443   3.518  14.417  0.4782 -0.5166  0.3388
  787MPD2    N111665   0.996   3.710  14.391  0.6037 -0.3474 -0.4952
  787MPD2    H711666   0.895   3.708  14.384  0.8000 -1.3739 -3.1789
  788MPD2     C11667   3.131   2.953   0.918  0.0375 -0.2952 -0.2838
  788MPD2    C111668   3.040   2.915   0.810  0.6376  0.1451  0.4783
  788MPD2    C211669   3.030   3.005   0.706  0.6568  0.3492  0.3528
  788MPD2    C311670   3.096   3.127   0.708 -0.0595 -0.8032  0.1056
  788MPD2    C411671   3.171   3.160   0.812  0.2249 -0.6148 -0.6869
  788MPD2    C511672   3.197   3.074   0.916 -0.3027 -0.2666 -0.7669
  788MPD2     H11673   2.979   2.974   0.615 -0.8567  2.1767  0.5760
  788MPD2    H111674   3.221   3.255   0.800 -0.8753 -0.2711 -2.5469
  788MPD2    H211675   3.152   2.883   0.998  0.0984  1.7055  1.4303
  788MPD2    H311676   3.267   3.109   0.990  1.4777 -0.3996 -2.3987
  788MPD2     N11677   3.070   3.218   0.611  0.6463 -0.0191 -1.2065
  788MPD2    H511678   3.121   3.306   0.620 -1.5286  1.1855 -0.5652
  788MPD2    N111679   2.974   2.784   0.804  0.1446 -0.6132 -0.5182
  788MPD2    H711680   2.928   2.754   0.718  0.8492 -2.3580 -0.2794
  789MPD2     C11681   2.971   2.366  16.459 -0.3382 -0.0020  1.0746
  789MPD2    C111682   2.931   2.340  16.583 -0.1318  0.1876 -0.5837
  789MPD2    C211683   2.847   2.431  16.645  0.2364 -0.9020 -0.3887
  789MPD2    C311684   2.798   2.542  16.578  0.0688 -0.5322 -0.2705
  789MPD2    C411685   2.836   2.555  16.444  0.2083  0.4326  0.2175
  789MPD2    C511686   2.934   2.481  16.388 -0.1857 -0.0740  0.2195
  789MPD2     H11687   2.819   2.415  16.748  0.8059  1.6739  0.1650
  789MPD2    H111688   2.791   2.632  16.382  1.2620  0.0247 -1.0671
  789MPD2    H211689   3.049   2.305  16.415 -0.8874 -0.0463  0.1647
  789MPD2    H311690   2.964   2.494  16.285  0.9861  0.8466  0.6728
  789MPD2     N11691   2.713   2.637  16.633 -0.3685 -0.2960 -0.7378
  789MPD2    H511692   2.694   2.698  16.555  1.9146  0.2206 -0.8993
  789MPD2    N111693   2.963   2.215  16.655  0.0916  0.3241  0.5017
  789MPD2    H711694   2.925   2.209  16.748 -2.1717  0.0768 -0.4322
  790MPD2     C11695   3.743   4.001  13.527  0.2381 -0.3809 -0.0152
  790MPD2    C111696   3.840   3.905  13.539  0.0474  0.1540  0.6894
  790MPD2    C211697   3.830   3.787  13.466 -0.2710  0.4216  1.3794
  790MPD2    C311698   3.720   3.770  13.383 -0.8311 -0.3338  0.0633
  790MPD2    C411699   3.634   3.876  13.359 -0.1357 -0.2348  0.7128
  790MPD2    C511700   3.640   3.986  13.438  0.3230 -0.2109 -0.2785
  790MPD2     H11701   3.902   3.710  13.492  0.5242  0.2426 -1.3704
  790MPD2    H111702   3.557   3.870  13.283 -0.1681 -1.3514  0.8369
  790MPD2    H211703   3.746   4.098  13.574 -0.8095 -1.0076  1.3617
  790MPD2    H311704   3.584   4.076  13.418  0.5911 -0.1342 -0.6866
  790MPD2     N11705   3.702   3.647  13.323  0.3376  0.5348 -0.5386
  790MPD2    H511706   3.766   3.572  13.345  1.8350  1.7532 -0.7151
  790MPD2    N111707   3.940   3.943  13.628 -0.4869 -0.0129 -0.9241
  790MPD2    H711708   3.920   4.026  13.682  1.1998 -1.4566  1.9312
  791MPD2     C11709   3.195   3.453  12.775  0.1553  0.7546 -0.3386
  791MPD2    C111710   3.227   3.353  12.857  0.1524  0.4203  0.1534
  791MPD2    C211711   3.141   3.246  12.870 -0.0445  0.3237 -0.1440
  791MPD2    C311712   3.016   3.250  12.804 -0.0531  0.4722  0.1268
  791MPD2    C411713   2.999   3.348  12.703 -0.7147  0.1374 -0.0023
  791MPD2    C511714   3.092   3.439  12.689 -0.0511 -0.1351 -0.4895
  791MPD2     H11715   3.153   3.176  12.952  0.8502  2.4960  1.6003
  791MPD2    H111716   2.910   3.352  12.641  0.6570 -0.6691 -2.0138
  791MPD2    H211717   3.268   3.528  12.748 -0.1370  0.5621 -1.6973
  791MPD2    H311718   3.091   3.506  12.604 -0.7038 -1.3719 -1.4637
  791MPD2     N11719   2.906   3.168  12.851  0.5809  0.0505  0.1449
  791MPD2    H511720   2.929   3.085  12.904  0.5268 -1.3693 -2.0590
  791MPD2    N111721   3.347   3.364  12.934  0.4042 -0.7605 -0.5669
  791MPD2    H711722   3.402   3.448  12.919  1.7002 -1.6376 -0.6989
  792MPD2     C11723   4.251   3.945  11.197  0.1743  0.2981  0.2699
  792MPD2    C111724   4.162   3.994  11.112  0.0759 -0.1817 -0.2710
  792MPD2    C211725   4.026   3.959  11.130 -0.1440 -0.1304 -1.2863
  792MPD2    C311726   3.994   3.858  11.224 -0.3640  0.1286 -0.2706
  792MPD2    C411727   4.095   3.795  11.290  0.2738  0.5774  0.2673
  792MPD2    C511728   4.224   3.842  11.282  0.4105 -0.0012 -0.0021
  792MPD2     H11729   3.949   4.009  11.072  0.0132  0.8697 -0.6372
  792MPD2    H111730   4.081   3.708  11.353  1.4795 -1.1445 -1.8242
  792MPD2    H211731   4.352   3.983  11.197  1.8558 -4.1592  0.8843
  792MPD2    H311732   4.300   3.807  11.351 -0.2500 -1.9847 -0.2756
  792MPD2     N11733   3.864   3.813  11.259  0.1951  0.2955 -0.2745
  792MPD2    H511734   3.849   3.742  11.330  3.6676  0.0136  0.1548
  792MPD2    N111735   4.204   4.080  11.007 -0.1529  0.3743  0.4009
  792MPD2    H711736   4.303   4.101  11.003 -0.9140  4.1301  1.1913
  793MPD2     C11737   3.294   3.531  10.558  0.0881  0.3928  0.2865
  793MPD2    C111738   3.422   3.582  10.587 -0.2447  0.5895  0.0622
  793MPD2    C211739   3.452   3.619  10.712  0.5855 -0.8445 -0.3334
  793MPD2    C311740   3.370   3.608  10.820  0.1942  0.0744 -0.1020
  793MPD2    C411741   3.238   3.571  10.797  0.1251 -0.1088  0.6379
  793MPD2    C511742   3.203   3.538  10.659 -0.1225 -0.0644  0.0199
  793MPD2     H11743   3.555   3.649  10.729 -0.0808  0.8090  0.8756
  793MPD2    H111744   3.163   3.568  10.875 -0.6503  0.1769 -0.0907
  793MPD2    H211745   3.257   3.502  10.461 -2.6852 -0.9652  1.7542
  793MPD2    H311746   3.103   3.507  10.632 -0.9747  2.3218  0.4939
  793MPD2     N11747   3.413   3.652  10.947  0.3651 -0.2509 -0.3088
  793MPD2    H511748   3.494   3.712  10.951 -0.6547  1.0531  0.8109
  793MPD2    N111749   3.521   3.600  10.486 -0.2977  0.5448  0.2573
  793MPD2    H711750   3.600   3.656  10.515  0.6414  0.9323 -3.1078
  794MPD2     C11751   2.902   3.306  16.789 -0.1221  0.2490 -0.2763
  794MPD2    C111752   3.012   3.286  16.715 -0.8233 -0.6492 -0.6741
  794MPD2    C211753   3.024   3.317  16.584  0.4799  0.2197  0.3745
  794MPD2    C311754   2.917   3.365  16.521 -0.0794  0.1834  0.1582
  794MPD2    C411755   2.809   3.389  16.593  0.4566  0.1486  0.0984
  794MPD2    C511756   2.796   3.362  16.723 -0.0394  0.4990 -0.2525
  794MPD2     H11757   3.118   3.309  16.529 -0.2641 -1.5846 -0.6403
  794MPD2    H111758   2.717   3.419  16.545  0.8500 -0.8463 -1.2872
  794MPD2    H211759   2.885   3.281  16.893 -0.6959  0.1386 -0.3986
  794MPD2    H311760   2.702   3.378  16.774 -0.4665 -1.0280 -0.5587
  794MPD2     N11761   2.918   3.396  16.380  0.3227 -0.3032  0.7521
  794MPD2    H511762   2.841   3.447  16.339  1.1451 -0.9319 -1.5985
  794MPD2    N111763   3.124   3.220  16.772 -0.4575 -0.0392  0.0923
  794MPD2    H711764   3.204   3.191  16.717 -0.9162  1.6146 -1.4712
  795MPD2     C11765   1.337   0.533  13.061 -0.7220  0.3139  0.4670
  795MPD2    C111766   1.274   0.478  13.175  0.3332  1.0200 -0.3483
  795MPD2    C211767   1.349   0.423  13.269  0.5918  0.2857 -0.3076
  795MPD2    C311768   1.485   0.432  13.264 -0.5008  0.6484 -0.5241
  795MPD2    C411769   1.550   0.482  13.152 -0.9064 -0.3623  0.1517
  795MPD2    C511770   1.475   0.524  13.053 -0.5691 -0.4080 -0.5655
  795MPD2     H11771   1.305   0.381  13.358 -1.8828  0.5701 -1.4078
  795MPD2    H111772   1.656   0.476  13.131 -1.1012 -1.2294 -0.5892
  795MPD2    H211773   1.284   0.559  12.970  2.4621  1.2123 -1.1316
  795MPD2    H311774   1.520   0.552  12.958 -1.7462 -0.7481 -1.2165
  795MPD2     N11775   1.558   0.381  13.373  0.0181 -0.2342  0.5286
  795MPD2    H511776   1.507   0.345  13.454  2.5969  0.6622  2.5510
  795MPD2    N111777   1.138   0.460  13.184 -0.1095  0.5252  0.2169
  795MPD2    H711778   1.113   0.412  13.270 -3.6808  0.0478 -1.0525
  796MPD2     C11779   1.072   2.160  15.912 -0.1448  0.6878 -0.6741
  796MPD2    C111780   1.125   2.240  16.014  0.0347  0.0401 -0.0865
  796MPD2    C211781   1.115   2.374  16.001  0.6088  0.3685 -0.5736
  796MPD2    C311782   1.036   2.427  15.899  0.1706  0.3117  0.2045
  796MPD2    C411783   0.977   2.352  15.800 -0.6389 -0.5114  0.3199
  796MPD2    C511784   0.990   2.218  15.816 -0.2664 -0.2364  0.2530
  796MPD2     H11785   1.156   2.431  16.084 -0.6354  0.1079  0.2306
  796MPD2    H111786   0.932   2.392  15.710  0.6354  1.3697  0.5107
  796MPD2    H211787   1.077   2.052  15.913 -0.5629  0.6887  0.6807
  796MPD2    H311788   0.937   2.148  15.752  0.2376 -1.4061  1.1330
  796MPD2     N11789   1.025   2.565  15.891 -0.2843  0.0395 -0.4601
  796MPD2    H511790   1.070   2.612  15.969  0.7301 -0.1559 -0.9231
  796MPD2    N111791   1.184   2.168  16.122 -0.8543  0.8107 -0.2432
  796MPD2    H711792   1.186   2.067  16.112  1.9957  0.7150  1.1407
  797MPD2     C11793   1.806   1.679  17.732  0.0972  0.6808  0.8938
  797MPD2    C111794   1.842   1.809  17.755  0.3703 -0.0223  0.3219
  797MPD2    C211795   1.767   1.908  17.695  0.0363 -0.8929  0.0311
  797MPD2    C311796   1.664   1.880  17.603 -0.2493 -0.3660  0.1464
  797MPD2    C411797   1.640   1.750  17.572  0.7548 -0.2386  0.0757
  797MPD2    C511798   1.703   1.651  17.641  0.3580  0.1804 -0.3252
  797MPD2     H11799   1.800   2.010  17.702 -2.7331  0.0585 -0.6899
  797MPD2    H111800   1.560   1.728  17.502 -0.7317 -0.2064  1.7502
  797MPD2    H211801   1.862   1.595   0.015 -2.4921 -1.9056 -0.9076
  797MPD2    H311802   1.682   1.546  17.624  0.9189 -0.2132  1.3174
  797MPD2     N11803   1.571   1.987  17.565  0.2679 -0.1525 -0.1007
  797MPD2    H511804   1.502   1.964  17.494  0.6891  1.5505 -1.0639
  797MPD2    N111805   1.956   1.854   0.073  0.4127 -0.0585 -0.2056
  797MPD2    H711806   1.975   1.954   0.073 -1.6004  0.3394 -0.1360
  798MPD2     C11807   1.876   2.573  17.747 -0.9443  0.4946  0.1351
  798MPD2    C111808   1.814   2.453   0.007  0.3548  0.8604 -0.8405
  798MPD2    C211809   1.874   2.357   0.088  0.3011 -0.7648 -0.6481
  798MPD2    C311810   1.998   2.373   0.132  0.2537  0.1430 -0.4913
  798MPD2    C411811   2.060   2.498   0.113  0.2979 -0.3082  0.0641
  798MPD2    C511812   1.999   2.594   0.041 -0.7516 -0.9990 -1.1556
  798MPD2     H11813   1.830   2.258   0.092 -0.6792 -0.2842  0.5796
  798MPD2    H111814   2.160   2.515   0.150  0.5847 -1.9972  0.0887
  798MPD2    H211815   1.827   2.650  17.688  2.3208  1.9101 -0.7766
  798MPD2    H311816   2.049   2.689   0.027 -1.3255 -0.6583 -0.8713
  798MPD2     N11817   2.043   2.270   0.213 -0.3970  0.3775 -0.5256
  798MPD2    H511818   1.978   2.195   0.236  0.3301  0.6443  2.4863
  798MPD2    N111819   1.689   2.425  17.699 -0.6515  0.0905  0.2441
  798MPD2    H711820   1.658   2.329  17.711 -2.3619  0.4583 -1.1654
  799MPD2     C11821   0.810   3.295  14.641  0.4034  0.2045 -0.2036
  799MPD2    C111822   0.825   3.169  14.581 -0.4489  0.2717 -0.5848
  799MPD2    C211823   0.765   3.146  14.457  0.2588  0.2889 -0.3115
  799MPD2    C311824   0.701   3.251  14.394 -0.5284  0.1960  0.4044
  799MPD2    C411825   0.680   3.374  14.460 -0.4317  0.4284 -0.1864
  799MPD2    C511826   0.739   3.389  14.580  0.1479 -0.2672  0.0766
  799MPD2     H11827   0.767   3.044  14.420 -0.8525  0.1156  0.0904
  799MPD2    H111828   0.622   3.452  14.411  3.0269  1.6554 -2.3090
  799MPD2    H211829   0.857   3.316  14.736 -0.1303  1.1733 -0.1494
  799MPD2    H311830   0.731   3.489  14.622 -1.3004 -0.0541 -0.6981
  799MPD2     N11831   0.660   3.252  14.256 -0.0087 -0.5505  0.1273
  799MPD2    H511832   0.624   3.338  14.215  0.0425 -0.2899  0.6282
  799MPD2    N111833   0.897   3.066  14.643  0.2211  0.3319  0.5418
  799MPD2    H711834   0.886   2.978  14.594  0.7775 -0.2946  1.5407
  800MPD2     C11835   1.030   4.460  13.817 -0.0818  0.2318  0.5825
  800MPD2    C111836   1.168   4.441  13.834 -0.0597 -0.2149  0.0486
  800MPD2    C211837   1.228   4.347  13.753 -0.6519  0.0178  0.3067
  800MPD2    C311838   1.158   4.283  13.656  0.2200  0.2986 -0.4387
  800MPD2    C411839   1.021   4.303  13.641  0.8216  0.6388  0.1850
  800MPD2    C511840   0.957   4.388  13.730  0.0528  0.4441 -0.4905
  800MPD2     H11841   1.332   4.316  13.757 -0.6567  0.1041  1.1770
  800MPD2    H111842   0.974   4.257  13.555 -1.5822 -2.2911  3.0228
  800MPD2    H211843   0.978   4.529  13.882 -2.2800 -0.6487 -0.2327
  800MPD2    H311844   0.860   4.436  13.718  0.7404  2.4672  2.0199
  800MPD2     N11845   1.231   4.186  13.587 -0.1407  0.3454 -0.1813
  800MPD2    H511846   1.317   4.156  13.631 -0.9490 -1.4676  0.1739
  800MPD2    N111847   1.240   4.513  13.930  0.2087  0.6056  0.5950
  800MPD2    H711848   1.201   4.596  13.972 -0.6161  0.1009  0.8282
  801MPD2     C11849   1.447   0.457  14.139 -0.1757 -0.8856  0.0554
  801MPD2    C111850   1.374   0.338  14.149 -0.3758  0.1816  0.7327
  801MPD2    C211851   1.251   0.342  14.214 -0.3429  0.1690  0.1634
  801MPD2    C311852   1.204   0.452  14.278  1.0659 -0.0961  0.5166
  801MPD2    C411853   1.282   0.571  14.274 -0.1303  0.5782 -0.0133
  801MPD2    C511854   1.398   0.571  14.201  0.1841  0.2172  0.8618
  801MPD2     H11855   1.203   0.245  14.217 -0.9028  0.4504  0.4023
  801MPD2    H111856   1.258   0.668  14.315  0.2149  1.5011 -2.0341
  801MPD2    H211857   1.547   0.457  14.096  0.1768 -0.6942  0.8940
  801MPD2    H311858   1.463   0.658  14.205 -1.5541  1.5545 -0.3399
  801MPD2     N11859   1.085   0.465  14.347  0.0330  0.1469 -0.3065
  801MPD2    H511860   1.080   0.550  14.403  0.3949 -0.6840  0.9810
  801MPD2    N111861   1.409   0.214  14.091 -0.1566  0.1448  0.3798
  801MPD2    H711862   1.344   0.137  14.103  1.7386 -1.9484 -2.7458
  802MPD2     C11863   0.715   1.730   0.155 -0.4662  0.6086 -0.1038
  802MPD2    C111864   0.664   1.608   0.200 -0.1056  0.3401  0.0007
  802MPD2    C211865   0.747   1.497   0.175  0.3789  0.1585 -0.3817
  802MPD2    C311866   0.872   1.514   0.125 -0.2908 -0.0493 -0.2222
  802MPD2    C411867   0.914   1.632   0.079  0.0886  1.1136  0.9351
  802MPD2    C511868   0.837   1.742   0.095 -0.2026  0.4627  0.0902
  802MPD2     H11869   0.697   1.402   0.188  0.7628  0.1084  0.7508
  802MPD2    H111870   1.011   1.655   0.036 -0.0870  3.7964  2.0000
  802MPD2    H211871   0.676   1.828   0.179  1.0569  1.1655  0.0804
  802MPD2    H311872   0.877   1.838   0.061 -1.5963  0.3641 -1.7991
  802MPD2     N11873   0.941   1.396   0.107 -0.4948  0.2417 -0.2973
  802MPD2    H511874   0.888   1.316   0.139 -1.1788 -0.2941 -2.7670
  802MPD2    N111875   0.536   1.591   0.263 -0.0365 -0.3915  0.3698
  802MPD2    H711876   0.522   1.495   0.292 -2.9065  0.4527  1.7452
  803MPD2     C11877   1.683   3.987  11.887  0.3381  0.2910 -0.4404
  803MPD2    C111878   1.781   3.889  11.883 -0.3257 -1.2139 -0.0817
  803MPD2    C211879   1.797   3.796  11.988  0.3938 -0.0870  0.9295
  803MPD2    C311880   1.708   3.784  12.085  0.5616 -0.4569 -0.9186
  803MPD2    C411881   1.615   3.883  12.092  0.2917  0.1571  0.8199
  803MPD2    C511882   1.606   3.983  12.002 -0.7840 -0.5747 -0.4061
  803MPD2     H11883   1.877   3.723  11.984  1.5387  1.2501 -0.9218
  803MPD2    H111884   1.554   3.885  12.182  0.8509  0.3268  1.1997
  803MPD2    H211885   1.660   4.062  11.811  0.0419  1.2916  0.6455
  803MPD2    H311886   1.524   4.054  12.009  0.1077  0.8497 -4.0397
  803MPD2     N11887   1.714   3.691  12.186  0.1003  0.1032 -0.5115
  803MPD2    H511888   1.637   3.698  12.252  0.0714 -1.7798 -0.3458
  803MPD2    N111889   1.875   3.878  11.781  0.2491 -0.4937  0.0757
  803MPD2    H711890   1.942   3.803  11.792 -0.8742 -1.2017  2.0397
  804MPD2     C11891   1.422   0.479  16.892  0.6125  0.1220 -0.6279
  804MPD2    C111892   1.412   0.442  17.022  0.5630 -0.6378  0.1886
  804MPD2    C211893   1.491   0.507  17.118  0.1517 -0.1674  0.7732
  804MPD2    C311894   1.593   0.594  17.073  0.0369  0.1714 -0.8923
  804MPD2    C411895   1.599   0.619  16.938 -0.0432  0.0883  0.5386
  804MPD2    C511896   1.517   0.571  16.851 -0.1253  0.0717 -0.2173
  804MPD2     H11897   1.492   0.458  17.215 -0.1696  0.1948  0.9572
  804MPD2    H111898   1.673   0.686  16.897  1.2467 -0.6281  1.7273
  804MPD2    H211899   1.368   0.426  16.814  1.2027 -0.2975 -0.7473
  804MPD2    H311900   1.532   0.592  16.746  0.7771 -1.8645 -0.4753
  804MPD2     N11901   1.682   0.650  17.173  0.3847 -0.2592  0.4440
  804MPD2    H511902   1.649   0.639  17.268  2.4004  1.1902  1.3104
  804MPD2    N111903   1.343   0.327  17.066  0.2480  0.1346 -0.0031
  804MPD2    H711904   1.354   0.308  17.165 -1.1221 -2.9177 -0.4440
  805MPD2     C11905   0.494   3.380  15.341 -0.6529  0.1284  0.9288
  805MPD2    C111906   0.567   3.364  15.222 -0.8052 -0.3533 -0.4960
  805MPD2    C211907   0.694   3.317  15.224 -0.5839 -0.0301  0.4445
  805MPD2    C311908   0.762   3.281  15.342 -0.1655  0.4995  0.0559
  805MPD2    C411909   0.691   3.304  15.460  0.7437  0.2644 -0.4846
  805MPD2    C511910   0.561   3.349  15.459  0.5364 -0.4688  0.6123
  805MPD2     H11911   0.751   3.305  15.133  0.2137  0.3604  0.8987
  805MPD2    H111912   0.738   3.294  15.557 -1.5133 -0.0629  0.5811
  805MPD2    H211913   0.393   3.419  15.335 -0.8873 -0.6637 -0.2813
  805MPD2    H311914   0.507   3.359  15.553  0.8658  0.9634  0.6501
  805MPD2     N11915   0.901   3.256  15.342 -0.0085 -0.7711 -0.3710
  805MPD2    H511916   0.958   3.261  15.258  0.6639 -0.7362  0.0851
  805MPD2    N111917   0.512   3.376  15.094  0.5311 -0.6257 -0.1445
  805MPD2    H711918   0.569   3.342  15.018 -1.8343  0.5347 -2.4240
  806MPD2     C11919   0.941   3.011   0.548  0.0846 -0.8476 -0.0123
  806MPD2    C111920   0.974   3.131   0.604  0.5151  0.3996  0.0748
  806MPD2    C211921   1.026   3.224   0.524 -0.4124 -0.2120  0.1050
  806MPD2    C311922   1.047   3.208   0.387  0.2595 -1.1945  0.4196
  806MPD2    C411923   1.013   3.087   0.327 -0.0389 -0.4877  0.5628
  806MPD2    C511924   0.954   2.995   0.410 -0.6456 -0.2056  0.2081
  806MPD2     H11925   1.033   3.325   0.561  0.3019 -0.3407  0.3105
  806MPD2    H111926   1.022   3.060   0.222  0.2536  0.2077  0.4037
  806MPD2    H211927   0.898   2.929   0.603 -2.4026  0.4511 -0.0293
  806MPD2    H311928   0.933   2.905   0.354 -0.0059 -0.3074  0.1304
  806MPD2     N11929   1.101   3.313   0.313 -0.3784 -0.6009 -0.2368
  806MPD2    H511930   1.139   3.391   0.366 -0.9657 -0.4774 -0.0015
  806MPD2    N111931   0.961   3.144   0.745  0.0907  0.5393  0.3235
  806MPD2    H711932   0.916   3.065   0.791  1.5253 -2.2280 -2.9799
  807MPD2     C11933   0.726   2.782   1.307 -0.2436 -0.4132 -0.2513
  807MPD2    C111934   0.780   2.797   1.180  0.4590  0.2117 -0.2279
  807MPD2    C211935   0.786   2.688   1.107 -0.9384  0.0542 -0.3456
  807MPD2    C311936   0.754   2.562   1.146  0.3242  0.3341  0.3562
  807MPD2    C411937   0.709   2.543   1.271  0.6719 -0.0639 -0.2001
  807MPD2    C511938   0.676   2.658   1.341 -0.2128 -0.1181 -0.3006
  807MPD2     H11939   0.822   2.709   1.006  0.7726  0.4978  0.3623
  807MPD2    H111940   0.679   2.446   1.310  1.6352 -0.8545 -1.4484
  807MPD2    H211941   0.698   2.859   1.378  0.5781  0.5054 -0.9266
  807MPD2    H311942   0.619   2.647   1.432 -0.7035 -0.5701 -0.6598
  807MPD2     N11943   0.757   2.461   1.041  0.5857  0.2560  0.4167
  807MPD2    H511944   0.816   2.480   0.960  0.4014 -2.0714 -0.2433
  807MPD2    N111945   0.843   2.920   1.141  0.3829 -0.5833 -0.1431
  807MPD2    H711946   0.898   2.913   1.056  0.0347  4.9575 -0.8358
  808MPD2     C11947   0.891   0.217   8.897  0.5915 -0.7416  0.2195
  808MPD2    C111948   0.947   0.110   8.964  0.0174 -0.2112 -0.2344
  808MPD2    C211949   1.079   0.114   8.996 -0.1651 -0.5677  0.0557
  808MPD2    C311950   1.147   0.234   8.985  0.4978 -0.1897 -0.1578
  808MPD2    C411951   1.092   0.347   8.926 -0.5484  0.2161  0.0460
  808MPD2    C511952   0.962   0.334   8.880  0.2113  0.5441 -0.2443
  808MPD2     H11953   1.127   0.030   9.046  0.2863  0.0146  0.6061
  808MPD2    H111954   1.145   0.440   8.908 -0.5257  0.0928 -0.5329
  808MPD2    H211955   0.794   0.214   8.848  0.3591  0.2196  0.6206
  808MPD2    H311956   0.910   0.414   8.828  1.4485  2.2752  1.2076
  808MPD2     N11957   1.279   0.249   9.029 -0.2099  0.1307 -0.2300
  808MPD2    H511958   1.311   0.346   9.028 -0.2953  0.1733  0.5666
  808MPD2    N111959   0.877   4.728   8.983 -0.0739  0.4260 -0.1617
  808MPD2    H711960   0.922   4.644   9.018  2.4798  1.5399 -0.7760
  809MPD2     C11961   2.102   4.570   8.652 -0.1395  0.0796  0.0805
  809MPD2    C111962   2.133   4.609   8.781  0.0263  0.2326  0.3814
  809MPD2    C211963   2.038   4.670   8.864  0.5912  0.4733  0.5660
  809MPD2    C311964   1.914   4.698   8.809 -0.1773  0.4502 -0.6129
  809MPD2    C411965   1.882   4.645   8.688 -0.0632  0.3272 -0.7633
  809MPD2    C511966   1.975   4.591   8.603  0.1143 -0.2047  0.2230
  809MPD2     H11967   2.068   4.699   8.964 -0.8200 -0.9510  1.4020
  809MPD2    H111968   1.785   4.670   8.646 -0.6708 -0.2508  0.3038
  809MPD2    H211969   2.172   4.523   8.584  1.2805  0.5075  1.2182
  809MPD2    H311970   1.943   4.565   8.503  1.2905 -1.0965  0.0870
  809MPD2     N11971   1.810   0.029   8.873 -0.5220 -0.2051  0.6943
  809MPD2    H511972   1.735   0.063   8.814  1.6290 -0.3898 -2.1730
  809MPD2    N111973   2.267   4.585   8.820  1.2170 -0.0134 -0.0242
  809MPD2    H711974   2.313   4.521   8.756  0.2814  1.5251 -2.2340
  810MPD2     C11975   1.375   3.981  10.329 -0.2127 -0.2418  0.2009
  810MPD2    C111976   1.281   4.073  10.298 -0.2898  0.6448  0.8951
  810MPD2    C211977   1.323   4.201  10.291  0.0805 -0.3231  0.7044
  810MPD2    C311978   1.457   4.233  10.300  0.6955 -0.7043  1.1967
  810MPD2    C411979   1.549   4.137  10.322 -0.7891  1.0260 -0.3773
  810MPD2    C511980   1.507   4.009  10.351  0.5015  0.1902 -0.1442
  810MPD2     H11981   1.250   4.278  10.269  1.9734  1.4681  0.6789
  810MPD2    H111982   1.652   4.168  10.307 -0.3435 -1.0691 -1.5628
  810MPD2    H211983   1.347   3.877  10.337 -2.4148  0.3238 -0.0508
  810MPD2    H311984   1.591   3.940  10.352 -0.2460 -0.7301  0.0285
  810MPD2     N11985   1.506   4.367  10.281 -0.2705 -0.5381 -0.0544
  810MPD2    H511986   1.605   4.379  10.261 -1.0212  2.4043 -2.1500
  810MPD2    N111987   1.145   4.038  10.297  0.4687  0.3235  0.2736
  810MPD2    H711988   1.119   3.946  10.332 -0.7405  1.0153  1.2220
  811MPD2     C11989   0.259   4.079   9.982 -0.8796  0.2507  0.6910
  811MPD2    C111990   0.357   4.169  10.026  0.3040 -0.2019 -0.3126
  811MPD2    C211991   0.355   4.299   9.983 -0.6974  0.0504  0.9802
  811MPD2    C311992   0.250   4.351   9.913 -0.0036 -0.2372 -0.0515
  811MPD2    C411993   0.161   4.260   9.857  0.5738  0.0175 -0.3786
  811MPD2    C511994   0.161   4.130   9.897  1.0182  0.2138  0.7482
  811MPD2     H11995   0.428   4.374  10.010 -1.0083  0.3425  1.0058
  811MPD2    H111996   0.067   4.288   9.811 -0.6554 -0.3855  1.8645
  811MPD2    H211997   0.261   3.973  10.002 -0.5831  0.1103 -0.0779
  811MPD2    H311998   0.090   4.054   9.866 -0.0403 -0.0955  3.8866
  811MPD2     N11999   0.241   4.490   9.888  0.0572  0.5429 -0.0327
  811MPD2    H512000   0.309   4.551   9.932  0.0096 -0.7803  1.8690
  811MPD2    N112001   0.455   4.118  10.118 -0.2829  0.5488 -0.4933
  811MPD2    H712002   0.427   4.025  10.147  2.4418 -0.4477 -1.0442
  812MPD2     C12003   4.686   3.472  12.031 -0.0794 -0.0732 -0.5458
  812MPD2    C112004   4.603   3.551  12.103 -0.8076 -1.5273 -1.2751
  812MPD2    C212005   4.575   3.525  12.239 -0.6177  0.9651  0.7121
  812MPD2    C312006   4.639   3.416  12.296  0.5776  0.0342 -0.3888
  812MPD2    C412007   0.004   3.354  12.225  0.3086 -0.7363  0.2708
  812MPD2    C512008   0.025   3.377  12.094 -0.6339 -0.1018 -1.6949
  812MPD2     H12009   4.508   3.587  12.296 -1.7395  0.2874  0.1273
  812MPD2    H112010   0.058   3.271  12.270 -0.9454 -1.1155  1.0825
  812MPD2    H212011   4.706   3.481  11.925 -0.0611 -0.0383 -0.5394
  812MPD2    H312012   0.105   3.323  12.045 -0.6991 -2.0641  0.3902
  812MPD2     N12013   4.605   3.397  12.435 -0.1524  0.0862 -0.0907
  812MPD2    H512014   4.543   3.465  12.479 -1.0289 -0.5929 -0.2656
  812MPD2    N112015   4.558   3.671  12.034 -0.2380 -0.0431  0.1170
  812MPD2    H712016   4.609   3.694  11.949 -1.3503  3.2223  0.3300
  813MPD2     C12017   3.810   0.683  12.885  0.4425 -0.4532  1.3329
  813MPD2    C112018   3.782   0.708  13.018 -0.2559 -0.4230  0.0109
  813MPD2    C212019   3.674   0.802  13.042  0.7711 -0.5106 -0.2243
  813MPD2    C312020   3.620   0.877  12.943  0.8786 -0.0527 -0.2152
  813MPD2    C412021   3.646   0.840  12.817 -0.1779  0.2690  0.4986
  813MPD2    C512022   3.737   0.743  12.790 -0.5236  0.4509  0.1054
  813MPD2     H12023   3.650   0.823  13.146  0.4979 -0.4852 -0.2937
  813MPD2    H112024   3.606   0.893  12.732 -1.8785 -0.0287  1.1159
  813MPD2    H212025   3.889   0.616  12.852 -0.4179 -1.4933  1.3859
  813MPD2    H312026   3.754   0.734  12.684  0.1066  1.6161  0.1058
  813MPD2     N12027   3.534   0.981  12.970 -0.1538  0.1845 -0.8795
  813MPD2    H512028   3.505   0.976  13.068  1.1995  0.2305 -0.4760
  813MPD2    N112029   3.857   0.637  13.114  0.6460 -0.2423  0.5701
  813MPD2    H712030   3.910   0.564  13.067  1.2467  1.9061 -2.1242
  814MPD2     C12031   4.434   2.288  12.141 -0.2947 -0.1560 -0.8024
  814MPD2    C112032   4.537   2.331  12.060 -0.0106 -0.0478  0.6416
  814MPD2    C212033   4.598   2.448  12.089  0.0911 -0.1793  1.0759
  814MPD2    C312034   4.571   2.515  12.205  0.1763 -0.4229 -0.9831
  814MPD2    C412035   4.472   2.464  12.291 -0.3205 -0.0135  0.1132
  814MPD2    C512036   4.399   2.355  12.257 -0.3030 -0.5027 -0.8221
  814MPD2     H12037   4.674   2.486  12.021 -0.7349  1.7029  1.2035
  814MPD2    H112038   4.454   2.504  12.390 -1.1058  0.2726 -0.1506
  814MPD2    H212039   4.370   2.204  12.116  1.1800 -1.2539 -0.9098
  814MPD2    H312040   4.324   2.311  12.322 -0.5568  0.5896 -0.3826
  814MPD2     N12041   4.654   2.620  12.262  0.0761  0.0839  0.1975
  814MPD2    H512042   4.612   2.665  12.343 -0.3737  0.3717 -0.1886
  814MPD2    N112043   4.574   2.269  11.939  0.0178 -1.1574  0.5444
  814MPD2    H712044   4.636   2.312  11.871 -0.4237 -1.3704  0.0053
  815MPD2     C12045   4.698   0.820  11.831 -0.9048 -0.0326  0.0585
  815MPD2    C112046   4.719   0.689  11.783 -0.1771 -0.4386  0.4107
  815MPD2    C212047   4.633   0.586  11.835  0.3318  0.2567  0.5699
  815MPD2    C312048   4.540   0.618  11.933  0.7501 -0.8066  0.1397
  815MPD2    C412049   4.528   0.746  11.978 -0.7577  0.3189 -0.4736
  815MPD2    C512050   4.602   0.847  11.922 -0.3023  0.2406  0.0497
  815MPD2     H12051   4.633   0.487  11.792  2.2952 -0.7585  2.9456
  815MPD2    H112052   4.447   0.772  12.045 -2.3827  1.1925 -2.7813
  815MPD2    H212053   0.014   0.908  11.799 -0.8136 -0.3511 -0.6650
  815MPD2    H312054   4.576   0.950  11.945  4.2916  1.8479 -1.9491
  815MPD2     N12055   4.463   0.510  11.989 -0.2430 -0.1390  0.0795
  815MPD2    H512056   4.482   0.420  11.947 -1.5759 -1.1227  1.5899
  815MPD2    N112057   0.077   0.659  11.691  0.1853 -0.3596  0.1184
  815MPD2    H712058   0.124   0.731  11.637  1.1782 -1.5470 -0.5959
  816MPD2     C12059   4.571   4.701  17.141  0.2336 -0.2790 -0.2062
  816MPD2    C112060   4.669   0.056  17.174  0.0587 -0.3360 -1.1807
  816MPD2    C212061   0.058   0.036  17.132 -0.7787  0.1733 -0.1658
  816MPD2    C312062   0.104   4.655  17.080 -1.1441 -0.3944  0.8305
  816MPD2    C412063   0.012   4.550  17.069  0.0884 -0.1233  0.0215
  816MPD2    C512064   4.620   4.576  17.102  1.2212  0.4563  0.0721
  816MPD2     H12065   0.131   0.114  17.146 -0.0783 -0.4584 -0.3135
  816MPD2    H112066   0.055   4.457  17.034  0.8460 -0.3575  1.5273
  816MPD2    H212067   4.465   4.713  17.161  0.6298 -0.9672  2.3161
  816MPD2    H312068   4.547   4.496  17.091 -1.9266  3.3560 -0.3861
  816MPD2     N12069   0.236   4.647  17.031 -0.0525  0.3844 -0.5631
  816MPD2    H512070   0.294   4.726  17.060  2.7453 -0.7970 -2.8934
  816MPD2    N112071   4.626   0.177  17.222  0.0291  0.0965  0.5643
  816MPD2    H712072   4.524   0.182  17.222  0.0562  0.6274 -1.5559
  817MPD2     C12073   4.488   1.734   8.954 -0.0513  0.3758 -0.1513
  817MPD2    C112074   4.410   1.627   8.936  0.1653 -0.0621  0.4658
  817MPD2    C212075   4.289   1.653   8.861  0.2222  0.3789 -1.1123
  817MPD2    C312076   4.268   1.776   8.795  0.2676  0.4836 -0.8240
  817MPD2    C412077   4.350   1.885   8.819 -0.0772  0.1662  0.3833
  817MPD2    C512078   4.455   1.856   8.897  0.2080  0.0394  0.2606
  817MPD2     H12079   4.230   1.564   8.840  2.5432 -1.9118  2.0638
  817MPD2    H112080   4.334   1.981   8.770 -1.3492  0.5944  1.6243
  817MPD2    H212081   4.573   1.728   9.021 -0.0901  0.2270 -0.1165
  817MPD2    H312082   4.517   1.942   8.922  0.7570 -1.1125  2.8926
  817MPD2     N12083   4.157   1.776   8.704  0.0729  0.0783  0.1639
  817MPD2    H512084   4.114   1.685   8.688 -0.1251  0.3578 -0.9291
  817MPD2    N112085   4.445   1.502   8.993  0.1543 -0.4209  0.1980
  817MPD2    H712086   4.392   1.418   8.971 -1.0087  0.4722 -0.4263
  818MPD2     C12087   3.708   1.994   9.857 -0.1337  1.0557  0.5983
  818MPD2    C112088   3.627   1.881   9.849  0.1155 -0.1912 -0.8982
  818MPD2    C212089   3.602   1.830   9.729 -0.1905 -0.2843 -0.1786
  818MPD2    C312090   3.655   1.881   9.616 -0.4558 -0.3909  0.0588
  818MPD2    C412091   3.745   1.985   9.622 -0.3069  0.1586  0.1999
  818MPD2    C512092   3.767   2.045   9.746 -0.4489 -0.2198 -0.7088
  818MPD2     H12093   3.548   1.736   9.721 -1.9479  0.6076  1.1525
  818MPD2    H112094   3.791   2.028   9.534  2.2563  0.2079  1.5792
  818MPD2    H212095   3.724   2.043   9.953  1.2686  1.2525  0.2561
  818MPD2    H312096   3.837   2.127   9.752 -0.9857  0.1912 -0.0221
  818MPD2     N12097   3.629   1.829   9.485  0.5365  0.8029  0.7507
  818MPD2    H512098   3.694   1.864   9.415 -1.7600  1.8732 -0.8584
  818MPD2    N112099   3.564   1.821   9.965 -0.5596  0.2923 -0.4673
  818MPD2    H712100   3.511   1.735   9.953 -0.4479 -0.3392  3.4301
  819MPD2     C12101   1.394   3.071  15.348 -0.1102  0.2401 -0.0327
  819MPD2    C112102   1.324   2.982  15.429  0.2690  0.0368 -0.0220
  819MPD2    C212103   1.372   2.965  15.554  0.0437  0.1021  0.0918
  819MPD2    C312104   1.495   3.013  15.586  0.4425  0.2703  0.0374
  819MPD2    C412105   1.577   3.085  15.499 -0.3324  0.4207  0.0136
  819MPD2    C512106   1.520   3.120  15.382  0.8498 -0.3286  0.3760
  819MPD2     H12107   1.316   2.899  15.619  0.7756  1.6572  2.2966
  819MPD2    H112108   1.673   3.127  15.529  0.1877 -0.8172  0.0969
  819MPD2    H212109   1.352   3.095  15.251  0.7612  0.7271 -0.2937
  819MPD2    H312110   1.566   3.188  15.311 -2.3370  2.0568  0.5954
  819MPD2     N12111   1.553   2.951  15.705  0.4388  0.0488 -0.7721
  819MPD2    H512112   1.493   2.879  15.745  2.3425  0.3666  2.6873
  819MPD2    N112113   1.201   2.915  15.387 -0.6450  0.1317  0.3452
  819MPD2    H712114   1.169   2.934  15.292  1.1959  1.0241 -0.0980
  820MPD2     C12115   0.543   2.781  14.675  0.0000 -0.1703 -0.2151
  820MPD2    C112116   0.577   2.888  14.751  0.3250 -0.0842  0.7687
  820MPD2    C212117   0.640   2.872  14.873  0.4427  0.0570 -0.5455
  820MPD2    C312118   0.683   2.742  14.908  0.6217  0.0439  0.2561
  820MPD2    C412119   0.650   2.632  14.828 -0.3374  0.4299 -0.7152
  820MPD2    C512120   0.580   2.652  14.712 -0.2020 -0.2908 -0.2477
  820MPD2     H12121   0.667   2.954  14.939 -0.7952  0.0771 -0.0611
  820MPD2    H112122   0.669   2.528  14.851 -0.1182  0.5521 -0.3424
  820MPD2    H212123   0.472   2.786  14.593 -0.2853 -2.3848 -0.0863
  820MPD2    H312124   0.553   2.562  14.658  0.4339 -0.2986 -0.5490
  820MPD2     N12125   0.751   2.709  15.019 -0.4399  0.6796  0.2668
  820MPD2    H512126   0.775   2.611  15.035 -1.7619  0.5022  1.1536
  820MPD2    N112127   0.524   3.020  14.718 -0.6117  0.0507 -0.1148
  820MPD2    H712128   0.466   3.027  14.635  2.9047 -2.3061 -2.7111
  821MPD2     C12129   1.708   4.280  12.929  0.5502 -0.0842  0.6745
  821MPD2    C112130   1.761   4.255  13.054 -0.2666  1.1231  0.2975
  821MPD2    C212131   1.891   4.285  13.088  0.4655  0.3255  1.2551
  821MPD2    C312132   1.965   4.356  13.000 -1.1738 -0.6116 -0.3027
  821MPD2    C412133   1.916   4.379  12.875  0.3618  0.0906  0.6438
  821MPD2    C512134   1.787   4.335  12.838 -0.8108  0.0204 -0.0805
  821MPD2     H12135   1.926   4.270  13.189  1.5972 -3.0165  0.3330
  821MPD2    H112136   1.976   4.435  12.804 -0.9507 -1.0541 -1.3655
  821MPD2    H212137   1.609   4.240  12.912  0.5854 -0.3605  1.1103
  821MPD2    H312138   1.747   4.342  12.737  0.8172  0.6614 -0.6689
  821MPD2     N12139   2.094   4.397  13.030 -0.0965 -0.4018  0.6435
  821MPD2    H512140   2.136   4.458  12.960 -0.8435 -0.8449 -0.1896
  821MPD2    N112141   1.692   4.190  13.158  0.5880  0.6096 -0.4293
  821MPD2    H712142   1.747   4.160  13.238  1.5116  2.8419 -0.2306
  822MPD2     C12143   2.020   4.565  15.576 -0.4877  0.3529  0.4701
  822MPD2    C112144   1.987   4.524  15.702  0.2115  0.4891  0.5098
  822MPD2    C212145   1.909   4.613  15.774 -0.3113  0.2491 -0.1114
  822MPD2    C312146   1.884   0.001  15.731 -0.0416  0.3248  0.7008
  822MPD2    C412147   1.912   0.040  15.602 -0.4331 -0.6934 -0.7560
  822MPD2    C512148   1.982   4.689  15.526 -0.0333 -0.1134  0.4475
  822MPD2     H12149   1.880   4.592  15.876 -0.9630 -0.9074 -0.5412
  822MPD2    H112150   1.889   0.135  15.557  2.1725 -0.0651 -0.7896
  822MPD2    H212151   2.063   4.499  15.501 -0.7001 -2.1399  2.5201
  822MPD2    H312152   2.009   4.705  15.422  0.2883 -0.4869  0.4708
  822MPD2     N12153   1.830   0.088  15.821  0.2623  0.1189  0.0491
  822MPD2    H512154   1.819   0.051  15.915 -0.3018  0.5715  0.1640
  822MPD2    N112155   2.029   4.392  15.746  0.2586  0.1963 -0.0911
  822MPD2    H712156   2.002   4.367  15.841 -0.5260  1.2156 -0.0426
  823MPD2     C12157   1.573   0.233  16.608  0.0386 -0.0489  0.0102
  823MPD2    C112158   1.615   0.153  16.504  0.0287 -0.2520  0.1176
  823MPD2    C212159   1.629   0.021  16.528 -0.0053 -0.5092  0.4580
  823MPD2    C312160   1.614   4.712  16.659 -0.4241 -0.2162 -0.2692
  823MPD2    C412161   1.569   0.051  16.758 -0.5416 -0.5255 -0.2326
  823MPD2    C512162   1.538   0.179  16.730 -0.4658  0.4695 -0.5253
  823MPD2     H12163   1.662   4.702  16.444  2.5822  1.2585  0.2237
  823MPD2    H112164   1.570   0.019  16.861 -2.2325  1.2431  0.3202
  823MPD2    H212165   1.559   0.340  16.598 -0.8199 -0.3339 -1.8126
  823MPD2    H312166   1.512   0.244  16.813 -2.6303  0.8595 -1.4839
  823MPD2     N12167   1.666   4.583  16.699 -0.1165  0.0279  0.2010
  823MPD2    H512168   1.674   4.576  16.800 -1.3845 -0.2248  0.2833
  823MPD2    N112169   1.649   0.220  16.382 -0.9029 -0.5111  0.1397
  823MPD2    H712170   1.654   0.320  16.400  1.1067 -0.5687 -0.1893
  824MPD2     C12171   2.470   3.575  15.850 -0.2829  0.2858  0.2013
  824MPD2    C112172   2.478   3.687  15.769 -0.4286 -0.3329 -0.4753
  824MPD2    C212173   2.569   3.696  15.663  0.6436  0.5002 -0.6186
  824MPD2    C312174   2.662   3.593  15.640 -0.8461  0.0154 -0.8032
  824MPD2    C412175   2.647   3.480  15.722 -0.5486  0.3542 -0.1953
  824MPD2    C512176   2.559   3.474  15.823  0.2611 -0.1501  0.0603
  824MPD2     H12177   2.573   3.787  15.604 -1.5575  1.3309  0.5052
  824MPD2    H112178   2.701   3.388  15.699  3.6447  2.2055  2.1487
  824MPD2    H212179   2.410   3.571  15.940 -0.0664 -2.2749  0.2425
  824MPD2    H312180   2.562   3.392  15.894 -1.0483  0.5009  0.8820
  824MPD2     N12181   2.757   3.604  15.542  0.1430  0.5397 -0.3590
  824MPD2    H512182   2.758   3.691  15.489  2.7119  1.1242  0.6466
  824MPD2    N112183   2.388   3.791  15.800  0.4495 -0.6640  0.1723
  824MPD2    H712184   2.336   3.778  15.887  1.9980 -0.8427  1.0733
  825MPD2     C12185   3.377   4.012  15.082  0.4261 -0.6672 -0.6310
  825MPD2    C112186   3.307   3.997  15.194 -0.2667  0.2823  0.5173
  825MPD2    C212187   3.282   4.111  15.270 -0.0584 -0.5968 -0.0038
  825MPD2    C312188   3.325   4.239  15.226 -0.4413 -0.1377 -0.5588
  825MPD2    C412189   3.394   4.249  15.108  0.0846 -0.6458  0.6863
  825MPD2    C512190   3.428   4.135  15.047  0.8119 -0.2558  0.1431
  825MPD2     H12191   3.234   4.106  15.367  0.7189  0.2175  0.4301
  825MPD2    H112192   3.442   4.338  15.068  0.2161 -1.1403 -0.2624
  825MPD2    H212193   3.396   3.927  15.017 -1.4603 -1.0509 -0.6660
  825MPD2    H312194   3.482   4.137  14.953  1.3972  1.0889  0.5088
  825MPD2     N12195   3.308   4.361  15.298 -0.6779 -0.1411  0.3236
  825MPD2    H512196   3.326   4.450  15.251  0.1217  1.1232  2.9917
  825MPD2    N112197   3.253   3.865  15.225  0.3597  0.1778 -0.0217
  825MPD2    H712198   3.285   3.792  15.162 -1.7383 -1.0621  0.3602
  826MPD2     C12199   1.903   3.777  13.227 -0.2029  0.3232 -0.0523
  826MPD2    C112200   2.016   3.854  13.189 -0.1184 -0.5861 -0.6934
  826MPD2    C212201   2.044   3.973  13.260  0.4887  0.0626 -1.1556
  826MPD2    C312202   1.975   4.006  13.373  0.5935 -0.1959 -0.2950
  826MPD2    C412203   1.872   3.916  13.412 -0.3132 -0.1833  0.1174
  826MPD2    C512204   1.838   3.803  13.343  0.8019  0.5224 -0.7684
  826MPD2     H12205   2.127   4.033  13.224  1.7213 -0.5206  0.6828
  826MPD2    H112206   1.818   3.932  13.504 -0.9399 -0.5838 -0.1804
  826MPD2    H212207   1.888   3.682  13.178  0.1384 -0.4350  1.3023
  826MPD2    H312208   1.770   3.726  13.378 -0.8228  2.9662  1.4971
  826MPD2     N12209   2.006   4.125  13.434 -0.3612  0.9867 -0.9631
  826MPD2    H512210   2.067   4.191  13.388  1.4767 -0.8885 -1.2457
  826MPD2    N112211   2.094   3.811  13.082  0.2830 -0.4715  0.5626
  826MPD2    H712212   2.050   3.733  13.034 -1.1915  1.5220 -1.3430
  827MPD2     C12213   3.744   0.595   9.868  0.2859  0.5590 -0.3399
  827MPD2    C112214   3.730   0.496   9.952 -0.0087  0.1133  0.1422
  827MPD2    C212215   3.642   0.397   9.924  0.4096  0.0799 -0.3524
  827MPD2    C312216   3.573   0.397   9.801 -0.0894  0.0042 -0.0005
  827MPD2    C412217   3.586   0.507   9.720 -0.3045  0.4416  0.6957
  827MPD2    C512218   3.669   0.610   9.757 -0.1592 -0.2297  0.0175
  827MPD2     H12219   3.632   0.313   9.992  2.6173  1.1819  1.3148
  827MPD2    H112220   3.540   0.522   9.623  2.6771 -0.6720 -0.9203
  827MPD2    H212221   3.821   0.669   9.886  0.9995  0.1686 -1.7094
  827MPD2    H312222   3.678   0.698   9.695 -2.5341 -0.4606 -0.6239
  827MPD2     N12223   3.484   0.292   9.778 -0.1259  0.3102  0.0854
  827MPD2    H512224   3.482   0.217   9.846  1.1459  0.1328 -0.0670
  827MPD2    N112225   3.809   0.503  10.072  0.2185  0.4236  0.7243
  827MPD2    H712226   3.869   0.580  10.099  0.3597 -0.2479  2.2921
  828MPD2     C12227   2.575   4.620  12.378 -0.3291  0.6950  0.0969
  828MPD2    C112228   2.509   4.646  12.263  0.1041 -0.0286  0.0770
  828MPD2    C212229   2.558   4.598  12.143 -0.1328  0.1714  0.0157
  828MPD2    C312230   2.665   4.507  12.138 -0.0703  0.9486 -0.3110
  828MPD2    C412231   2.735   4.485  12.258 -0.1944  0.0069 -0.6658
  828MPD2    C512232   2.683   4.537  12.375  0.2612 -0.9417 -0.7139
  828MPD2     H12233   2.505   4.624  12.052 -0.1112 -1.1119 -0.3637
  828MPD2    H112234   2.821   4.419  12.271 -1.7371 -1.8180  0.3626
  828MPD2    H212235   2.552   4.656  12.477  1.2694  0.9501  0.3749
  828MPD2    H312236   2.732   4.508  12.467  0.3628  1.4864 -0.0048
  828MPD2     N12237   2.717   4.426  12.028  0.1694 -0.6847 -0.1023
  828MPD2    H512238   2.788   4.359  12.054 -0.5609 -1.3576  0.1679
  828MPD2    N112239   2.380   4.701  12.253 -0.1212 -0.5305  0.7429
  828MPD2    H712240   2.352   4.708  12.156  1.6302 -0.6931  0.2277
  829MPD2     C12241   1.680   0.028  11.571 -0.5240  0.4798  0.0768
  829MPD2    C112242   1.597   0.024  11.686 -0.1055  0.2627  0.0397
  829MPD2    C212243   1.651   0.033  11.812 -0.1207 -0.0354 -0.2662
  829MPD2    C312244   1.788   0.023  11.823  0.1957 -0.3477  0.0453
  829MPD2    C412245   1.866   0.033  11.708  1.0175  0.2083 -0.1360
  829MPD2    C512246   1.812   0.021  11.584  0.0433 -0.3001  0.0254
  829MPD2     H12247   1.595   0.022  11.905  0.6050 -1.9806 -0.0436
  829MPD2    H112248   1.973   0.017  11.708  0.6422 -2.2548  0.3198
  829MPD2    H212249   1.644   0.041  11.470 -0.7626  2.5237  0.4216
  829MPD2    H312250   1.876   0.031  11.497 -1.0111  1.4202 -0.5639
  829MPD2     N12251   1.839   0.029  11.955  1.1073 -0.0023  0.2131
  829MPD2    H512252   1.786   0.008  12.038  0.8684 -1.8331 -0.3935
  829MPD2    N112253   1.461   0.002  11.656 -0.5852  1.1010 -0.8722
  829MPD2    H712254   1.437   0.002  11.557 -1.9030 -1.4431 -0.5385
  830MPD2     C12255   2.027   2.260  15.833  0.4073 -0.3025 -0.5701
  830MPD2    C112256   1.961   2.357  15.768 -0.3865 -0.2535  0.0570
  830MPD2    C212257   1.991   2.384  15.633 -0.4210  0.2405 -0.3760
  830MPD2    C312258   2.077   2.306  15.560  0.0333  0.1791  0.0669
  830MPD2    C412259   2.149   2.214  15.627  0.1482 -0.3198  0.4164
  830MPD2    C512260   2.122   2.192  15.761  0.1255  0.5982 -1.0069
  830MPD2     H12261   1.938   2.461  15.579  1.2631  0.3654 -1.8562
  830MPD2    H112262   2.231   2.158  15.585 -2.2001 -2.8130 -0.8731
  830MPD2    H212263   2.022   2.236  15.938  1.3017  1.5405 -0.1110
  830MPD2    H312264   2.180   2.121  15.819 -1.4125  0.4500  0.3450
  830MPD2     N12265   2.125   2.360  15.445 -0.5211 -0.2751 -0.5969
  830MPD2    H512266   2.223   2.337  15.433  0.2868  2.6516  0.3423
  830MPD2    N112267   1.869   2.440  15.842 -0.7224 -0.8486  0.1569
  830MPD2    H712268   1.878   2.424  15.941  0.4215 -0.0303  0.1829
  831MPD2     C12269   2.110   0.044  16.225 -0.8844 -0.1268  0.0498
  831MPD2    C112270   2.127   4.686  16.130  0.1133 -0.2136  0.4058
  831MPD2    C212271   2.039   4.581  16.126 -0.0578 -0.1794 -0.7426
  831MPD2    C312272   1.922   4.579  16.209 -0.2659  0.2031 -0.2768
  831MPD2    C412273   1.911   4.676  16.305 -0.2045 -0.8219 -0.6630
  831MPD2    C512274   2.007   0.034  16.318  1.0993  0.0155 -0.4491
  831MPD2     H12275   2.049   4.516  16.040  1.8022  0.4210 -0.9834
  831MPD2    H112276   1.833   4.673  16.379  0.7585 -1.7956  0.3120
  831MPD2    H212277   2.174   0.132  16.223 -1.2412  0.1783  1.7685
  831MPD2    H312278   1.998   0.111  16.393  3.0169  2.2860 -2.5913
  831MPD2     N12279   1.817   4.485  16.201 -0.4744 -0.4093 -0.3715
  831MPD2    H512280   1.738   4.508  16.260  0.8544  0.7084  0.9727
  831MPD2    N112281   2.221   4.708  16.028 -0.8335 -0.5310  0.0045
  831MPD2    H712282   2.251   0.065  16.024  1.5693 -1.2716 -0.0457
  832MPD2     C12283   0.643   1.230  17.274  0.6855 -0.0161  0.9270
  832MPD2    C112284   0.651   1.347  17.193 -0.6103 -1.1670  0.2177
  832MPD2    C212285   0.540   1.381  17.120  0.8241  0.2286  0.4702
  832MPD2    C312286   0.433   1.290  17.110 -0.1169 -0.5445  0.5817
  832MPD2    C412287   0.426   1.183  17.193 -0.3333  0.4850  0.6648
  832MPD2    C512288   0.527   1.163  17.285 -0.4462  0.6110 -0.4007
  832MPD2     H12289   0.552   1.473  17.064  1.5794  0.5814  1.2159
  832MPD2    H112290   0.342   1.115  17.179 -0.0674  0.2919 -0.0121
  832MPD2    H212291   0.725   1.205  17.341  2.0834 -0.6482 -0.9937
  832MPD2    H312292   0.512   1.079  17.351 -0.1783  0.8716 -0.0061
  832MPD2     N12293   0.323   1.313  17.024  0.5933  0.2745 -0.1322
  832MPD2    H512294   0.256   1.237  17.031  2.6528 -1.5082  0.2165
  832MPD2    N112295   0.774   1.410  17.185 -0.0815  0.0762  0.4603
  832MPD2    H712296   0.847   1.343  17.204  1.0428  0.3427 -2.8027
  833MPD2     C12297   3.156   2.480  12.616 -0.0403  0.1529  0.2285
  833MPD2    C112298   3.119   2.576  12.522 -0.2017  0.1678 -0.5267
  833MPD2    C212299   3.121   2.546  12.393  0.4808 -0.1828  0.2524
  833MPD2    C312300   3.157   2.421  12.349 -0.4139 -0.1642 -0.7791
  833MPD2    C412301   3.198   2.324  12.440 -1.0324  0.4293  1.0122
  833MPD2    C512302   3.191   2.359  12.567 -0.6239  0.1368  0.3860
  833MPD2     H12303   3.100   2.624  12.320  0.6380 -0.2023  0.1874
  833MPD2    H112304   3.231   2.223  12.415 -0.8019  0.6464  0.4370
  833MPD2    H212305   3.141   2.496  12.722  0.6773  0.6007  0.2619
  833MPD2    H312306   3.211   2.285  12.643  1.7252  0.8060  0.4240
  833MPD2     N12307   3.155   2.373  12.215 -0.0230  0.4621 -0.8138
  833MPD2    H512308   3.170   2.276  12.190  0.1672  0.3162 -0.1035
  833MPD2    N112309   3.063   2.699  12.559  0.2942  0.1301 -0.4941
  833MPD2    H712310   3.031   2.759  12.484 -0.9139  1.2436  0.9086
  834MPD2     C12311   2.708   1.642  11.758 -0.2781  0.3930 -0.2030
  834MPD2    C112312   2.747   1.720  11.654 -0.4985  0.1379 -0.7097
  834MPD2    C212313   2.784   1.850  11.685  0.1073 -0.3317 -0.3198
  834MPD2    C312314   2.774   1.903  11.812  0.2898 -0.7602 -0.2830
  834MPD2    C412315   2.721   1.819  11.912 -0.4498 -0.1013  0.2975
  834MPD2    C512316   2.698   1.691  11.882 -0.0242  0.0747  0.1583
  834MPD2     H12317   2.810   1.909  11.598  0.3048  0.7741  0.4866
  834MPD2    H112318   2.695   1.843  12.015  1.4751 -1.1582  1.0265
  834MPD2    H212319   2.673   1.541  11.737  0.3484  0.1388 -0.0074
  834MPD2    H312320   2.681   1.611  11.954  0.4490 -0.6689 -0.5538
  834MPD2     N12321   2.810   2.038  11.837  0.1691 -0.1460 -0.0706
  834MPD2    H512322   2.829   2.098  11.758  0.8448 -1.4324 -0.8828
  834MPD2    N112323   2.750   1.662  11.526  0.0053  0.6304  0.2438
  834MPD2    H712324   2.745   1.561  11.522 -0.5781  0.6682 -0.0362
  835MPD2     C12325   3.356   0.059  10.720  0.4323  0.0244 -0.3797
  835MPD2    C112326   3.225   0.087  10.778 -0.2031  0.2169  0.8197
  835MPD2    C212327   3.188   0.028  10.895 -0.6240  0.3237  0.3258
  835MPD2    C312328   3.283   4.698  10.965  0.2904 -0.0366 -0.3389
  835MPD2    C412329   3.412   4.683  10.917  0.0873 -0.2515 -0.5964
  835MPD2    C512330   3.448   4.727  10.790 -0.1143  0.0665  0.0746
  835MPD2     H12331   3.092   0.059  10.935 -0.7671  0.2320  0.0502
  835MPD2    H112332   3.484   4.619  10.966 -2.0561 -0.0269  2.8117
  835MPD2    H212333   3.390   0.106  10.629  0.6207  2.6820  1.0471
  835MPD2    H312334   3.546   4.702  10.750 -0.6565 -0.2973 -1.0219
  835MPD2     N12335   3.261   4.640  11.092  0.1844 -0.0507  0.1593
  835MPD2    H512336   3.343   4.611  11.145 -0.0648 -0.6770  0.2010
  835MPD2    N112337   3.130   0.171  10.713 -0.0384 -0.0589 -0.2612
  835MPD2    H712338   3.039   0.176  10.757 -1.0035 -1.1955 -2.1368
  836MPD2     C12339   2.602   0.002  11.482  0.0438  0.0460 -0.1659
  836MPD2    C112340   2.707   4.721  11.569 -0.9433 -0.1979 -0.8216
  836MPD2    C212341   2.697   0.030  11.696 -0.0820  0.5610 -0.2261
  836MPD2    C312342   2.590   0.100  11.734 -0.2489  0.5527  0.8192
  836MPD2    C412343   2.480   0.112  11.651  0.4053  0.0350 -0.3101
  836MPD2    C512344   2.489   0.059  11.525  0.8369 -0.0596  0.7811
  836MPD2     H12345   2.782   0.010  11.761  1.6169 -0.1858 -2.6907
  836MPD2    H112346   2.389   0.164  11.681 -0.1233 -0.6903 -0.6391
  836MPD2    H212347   2.613   4.711  11.379 -0.5603 -1.3808  0.1915
  836MPD2    H312348   2.421   0.078  11.443  1.1439  0.6052  0.6880
  836MPD2     N12349   2.579   0.176  11.854  0.5165 -0.4738 -0.3526
  836MPD2    H512350   2.487   0.218  11.869  0.9326  0.1248  0.5368
  836MPD2    N112351   2.826   4.665  11.514  0.1091  0.0584 -0.2547
  836MPD2    H712352   2.826   4.629  11.419  0.0001  0.2396 -0.3239
  837MPD2     C12353   0.504   0.369  10.212  1.1165  0.5895 -0.0583
  837MPD2    C112354   0.511   0.351  10.075 -0.3927  0.7042 -0.3801
  837MPD2    C212355   0.596   0.424  10.002  0.1417 -0.5745 -0.0253
  837MPD2    C312356   0.680   0.517  10.057 -0.3561  0.0274  0.3401
  837MPD2    C412357   0.691   0.528  10.196 -0.1909 -0.7105 -0.4782
  837MPD2    C512358   0.596   0.453  10.269 -0.3966 -0.8085 -0.1315
  837MPD2     H12359   0.605   0.406   9.896 -1.5550 -1.2287 -0.0455
  837MPD2    H112360   0.745   0.605  10.251  0.6947 -2.3053  0.8897
  837MPD2    H212361   0.440   0.308  10.275 -0.5553  1.1074 -1.2744
  837MPD2    H312362   0.590   0.474  10.375  1.6310 -1.7679  0.1734
  837MPD2     N12363   0.745   0.600   9.966  0.5947  0.2835 -0.2647
  837MPD2    H512364   0.729   0.570   9.871  0.7874 -1.4568  0.2575
  837MPD2    N112365   0.434   0.257  10.000  0.6933  0.0517 -0.0055
  837MPD2    H712366   0.450   0.241   9.901  0.5757 -0.0580 -0.0083
  838MPD2     C12367   4.607   3.066  12.068 -0.3422 -0.6421 -0.2135
  838MPD2    C112368   4.492   3.031  12.004 -1.2389 -0.1545  0.0545
  838MPD2    C212369   4.406   2.957  12.077 -0.1992 -0.3682 -0.2584
  838MPD2    C312370   4.425   2.917  12.205  0.3153  0.2657  0.1276
  838MPD2    C412371   4.540   2.960  12.267 -0.1017  0.1097  0.2812
  838MPD2    C512372   4.629   3.038  12.200  0.6510 -0.3032  0.2402
  838MPD2     H12373   4.316   2.920  12.029 -1.4278 -0.7498  2.2861
  838MPD2    H112374   4.552   2.936  12.372  0.2502  1.0346  0.4488
  838MPD2    H212375   4.686   3.120  12.015 -0.0963 -1.7357 -0.9669
  838MPD2    H312376   4.724   3.068  12.242  0.0789 -1.1810  2.1634
  838MPD2     N12377   4.329   2.841  12.276  0.1259 -0.9876  0.2806
  838MPD2    H512378   4.241   2.828  12.228 -0.3196  2.1482  0.3059
  838MPD2    N112379   4.465   3.058  11.874  0.1493  0.3013 -0.8490
  838MPD2    H712380   4.385   3.013  11.829 -1.0076  1.6376 -0.1187
  839MPD2     C12381   4.220   2.332  11.779 -0.8185  0.0479  0.0433
  839MPD2    C112382   4.232   2.355  11.645 -0.3731 -0.0655  0.1125
  839MPD2    C212383   4.292   2.473  11.598 -0.5987 -0.1580 -0.2739
  839MPD2    C312384   4.332   2.570  11.690  0.1984 -0.3711  0.0546
  839MPD2    C412385   4.322   2.542  11.824  0.0086  0.0717 -0.5387
  839MPD2    C512386   4.273   2.425  11.873  0.2339  0.3568  0.2560
  839MPD2     H12387   4.313   2.478  11.492  0.7234 -0.9315 -0.0538
  839MPD2    H112388   4.374   2.608  11.893  0.2339 -0.2322 -0.4144
  839MPD2    H212389   4.171   2.247  11.825 -0.5236 -0.8486 -1.2741
  839MPD2    H312390   4.282   2.408  11.979  0.6714 -0.8671  0.0254
  839MPD2     N12391   4.397   2.690  11.667  0.0775 -1.0053  0.3221
  839MPD2    H512392   4.435   2.741  11.746 -0.8547 -2.1372  1.4915
  839MPD2    N112393   4.161   2.273  11.553  0.5546 -0.3620  0.3967
  839MPD2    H712394   4.147   2.312  11.460 -0.9145  0.4251  0.9456
  840MPD2     C12395   4.211   0.937  10.318  0.2398 -0.6970 -0.5301
  840MPD2    C112396   4.250   0.824  10.384  0.0692 -1.2771  0.4729
  840MPD2    C212397   4.353   0.837  10.473  1.4374  0.2684 -0.7346
  840MPD2    C312398   4.415   0.958  10.503 -0.4980 -0.1115  0.4817
  840MPD2    C412399   4.376   1.067  10.432  0.5303 -1.4482  0.4916
  840MPD2    C512400   4.287   1.046  10.332 -0.4721 -0.2577  0.8004
  840MPD2     H12401   4.394   0.750  10.523  1.1673  0.0620 -0.8740
  840MPD2    H112402   4.413   1.168  10.450  0.6546 -1.6427  1.3190
  840MPD2    H212403   4.131   0.933  10.246 -0.8907 -1.0533  0.7496
  840MPD2    H312404   4.258   1.134  10.274 -1.4378  0.2685  2.0909
  840MPD2     N12405   4.506   0.971  10.605  0.0019  0.9709 -0.1625
  840MPD2    H512406   4.547   1.064  10.611  0.5800  0.7524 -0.7491
  840MPD2    N112407   4.192   0.700  10.348 -0.6096 -0.0167  0.3725
  840MPD2    H712408   4.110   0.696  10.288  0.8163  1.2449 -1.6809
  841MPD2     C12409   3.697   0.022  14.459 -0.3773  0.1187 -0.0320
  841MPD2    C112410   3.671   0.049  14.590 -0.8101  0.2174 -0.2704
  841MPD2    C212411   3.774   0.042  14.683  0.0731 -0.8468  0.8973
  841MPD2    C312412   3.906   0.008  14.646  0.1377 -0.1111  0.5797
  841MPD2    C412413   3.930   4.727  14.511 -0.8721  0.0416  0.1751
  841MPD2    C512414   3.827   4.724  14.422  0.0059  0.3534  0.4842
  841MPD2     H12415   3.754   0.035  14.789 -0.0120 -1.2719  0.8509
  841MPD2    H112416   4.027   4.695  14.473 -1.2042  1.3053 -1.7554
  841MPD2    H212417   3.624   0.023  14.378 -1.0327  1.0945  0.5800
  841MPD2    H312418   3.843   4.697  14.318 -1.0741  1.6206 -0.0107
  841MPD2     N12419   4.008   4.739  14.746 -0.3775  0.4237 -0.0820
  841MPD2    H512420   3.977   0.020  14.840  1.6441 -0.1884  0.7092
  841MPD2    N112421   3.543   0.072  14.641  0.6895 -0.5107  0.1143
  841MPD2    H712422   3.539   0.104  14.737  0.2380 -2.8017  0.8625
  842MPD2     C12423   4.589   1.605  16.855  0.4144  0.3176  0.1124
  842MPD2    C112424   4.489   1.516  16.845  0.1133  0.3991  0.0748
  842MPD2    C212425   4.461   1.439  16.954  0.0605  0.0495 -0.0732
  842MPD2    C312426   4.524   1.453  17.074 -0.0081  1.5264 -0.1071
  842MPD2    C412427   4.619   1.553  17.081  0.0245  1.0515 -0.1277
  842MPD2    C512428   4.648   1.634  16.977  0.0159  0.1155  0.6665
  842MPD2     H12429   4.376   1.372  16.950 -0.0089  0.0679  0.9033
  842MPD2    H112430   4.676   1.562  17.172 -1.5367 -1.9160  1.1175
  842MPD2    H212431   4.620   1.661  16.767 -1.7550  2.0205  0.4525
  842MPD2    H312432   4.728   1.706  16.984  0.2574  0.1825 -2.9785
  842MPD2     N12433   4.496   1.376  17.182  0.4519 -0.2102  0.4827
  842MPD2    H512434   4.520   1.407  17.276 -1.5450 -1.3748  1.3885
  842MPD2    N112435   4.415   1.513  16.720  0.1703  0.4404 -0.1830
  842MPD2    H712436   4.439   1.572  16.641  0.3311  2.3726  1.3305
  843MPD2     C12437   1.524   2.467   0.310  0.4044 -0.0637 -0.1475
  843MPD2    C112438   1.611   2.363   0.333  0.2513 -0.4254  0.8398
  843MPD2    C212439   1.737   2.390   0.386 -0.1130  0.4861  0.8748
  843MPD2    C312440   1.772   2.525   0.422 -0.2598 -0.3732 -0.8775
  843MPD2    C412441   1.678   2.626   0.400 -0.0879  0.1586 -0.8848
  843MPD2    C512442   1.554   2.600   0.341 -0.4967  0.2564 -0.7173
  843MPD2     H12443   1.810   2.310   0.385 -0.4589  0.1918 -0.3395
  843MPD2    H112444   1.689   2.731   0.423 -2.4623  0.2316 -0.0436
  843MPD2    H212445   1.436   2.447   0.251  0.6858 -2.5166  0.2836
  843MPD2    H312446   1.482   2.676   0.313 -0.2290  0.3864 -1.0435
  843MPD2     N12447   1.885   2.572   0.483  0.8132 -0.2273 -0.2859
  843MPD2    H512448   1.881   2.671   0.503  2.8976  0.1771 -1.8773
  843MPD2    N112449   1.574   2.231   0.298  1.2378  0.4118  0.4873
  843MPD2    H712450   1.476   2.210   0.317  0.8440  2.6741  1.0011
  844MPD2     C12451   0.199   0.971  16.457  0.2028 -0.2016 -0.2036
  844MPD2    C112452   0.324   0.905  16.435  0.0128 -0.0462  0.2774
  844MPD2    C212453   0.441   0.971  16.475 -0.3229 -0.3298  0.4907
  844MPD2    C312454   0.432   1.100  16.536 -0.0696  0.2491  0.2092
  844MPD2    C412455   0.305   1.154  16.557  0.3788  0.1666  0.0702
  844MPD2    C512456   0.189   1.088  16.523  0.2216  0.1695  0.2250
  844MPD2     H12457   0.536   0.919  16.469 -0.7882 -1.1209 -0.0362
  844MPD2    H112458   0.290   1.255  16.591  2.0849  0.4070  0.1154
  844MPD2    H212459   0.104   0.927  16.429 -0.0935  0.6541 -0.5268
  844MPD2    H312460   0.094   1.140  16.528  0.5149  0.7999 -0.6937
  844MPD2     N12461   0.550   1.169  16.570 -0.1212 -0.4155  0.6422
  844MPD2    H512462   0.638   1.119  16.563 -0.0899 -0.4760  1.4555
  844MPD2    N112463   0.333   0.783  16.372  0.0340  0.4019 -0.4388
  844MPD2    H712464   0.426   0.747  16.355  0.9137  1.8954  1.2618
  845MPD2     C12465   0.707   2.142  16.674 -0.4044 -0.1388 -1.0749
  845MPD2    C112466   0.733   2.078  16.793  0.2116 -0.5281  0.0149
  845MPD2    C212467   0.758   1.943  16.787 -0.2419  0.2273  0.4672
  845MPD2    C312468   0.750   1.874  16.665 -0.1842  0.1735 -0.3944
  845MPD2    C412469   0.704   1.934  16.551  0.2210 -0.1909 -0.1698
  845MPD2    C512470   0.690   2.070  16.550  0.3859  0.2747  0.0287
  845MPD2     H12471   0.771   1.885  16.877  2.3953  0.9135  0.5402
  845MPD2    H112472   0.684   1.873  16.464  3.1108 -2.6174  0.8683
  845MPD2    H212473   0.687   2.249  16.682  0.0953 -0.0442 -1.0814
  845MPD2    H312474   0.668   2.133  16.464  2.6232  1.1583  0.1059
  845MPD2     N12475   0.770   1.740  16.660  0.3384 -0.8260 -0.5305
  845MPD2    H512476   0.731   1.692  16.580 -1.9779 -0.5991  0.4426
  845MPD2    N112477   0.749   2.160  16.908 -0.0681  0.1462 -0.4169
  845MPD2    H712478   0.718   2.256  16.896  0.3191  0.3217 -0.0058
  846MPD2     C12479   2.163   1.772  13.498 -0.0234 -0.1434  0.7174
  846MPD2    C112480   2.036   1.826  13.523 -0.7159 -0.2461  0.5490
  846MPD2    C212481   1.992   1.852  13.653  0.1257  0.5853 -0.3825
  846MPD2    C312482   2.073   1.820  13.756 -0.5838  0.5982 -0.1821
  846MPD2    C412483   2.193   1.760  13.731 -0.8388 -0.4882  0.9349
  846MPD2    C512484   2.236   1.738  13.608 -0.2370  0.3388 -0.0942
  846MPD2     H12485   1.898   1.907  13.664  0.6792  0.9286  2.6980
  846MPD2    H112486   2.275   1.750  13.801 -0.8148 -1.3917  0.7648
  846MPD2    H212487   2.210   1.756  13.401  0.7178 -1.5964  1.3108
  846MPD2    H312488   2.333   1.690  13.599 -0.6595 -0.6804  0.9124
  846MPD2     N12489   2.043   1.864  13.886  0.2621  0.3337  0.4110
  846MPD2    H512490   1.950   1.898  13.911  0.6532  1.3199  0.5359
  846MPD2    N112491   1.971   1.884  13.412  0.2063 -0.1739 -0.0424
  846MPD2    H712492   1.905   1.960  13.425 -2.1292 -2.2330  0.1031
  847MPD2     C12493   2.187   3.244  13.737  0.3566 -0.2931 -0.3569
  847MPD2    C112494   2.252   3.285  13.853  0.1637  0.9503  0.1015
  847MPD2    C212495   2.260   3.196  13.956 -0.3720  0.5194  0.4037
  847MPD2    C312496   2.196   3.073  13.953 -0.2251 -0.0017  0.3599
  847MPD2    C412497   2.123   3.041  13.844 -0.0857 -0.5299 -0.1385
  847MPD2    C512498   2.130   3.118  13.735 -0.8518  0.9352 -0.0148
  847MPD2     H12499   2.316   3.228  14.043 -0.0734 -1.7962  1.0774
  847MPD2    H112500   2.077   2.943  13.840  0.6719 -0.8780 -0.3651
  847MPD2    H212501   2.177   3.306  13.648 -1.2179  0.0463  0.0493
  847MPD2    H312502   2.081   3.087  13.643  1.3760  0.4002 -1.0061
  847MPD2     N12503   2.205   2.986  14.065  0.0257  0.0024 -0.4112
  847MPD2    H512504   2.257   3.028  14.142  0.3518 -0.3493 -0.4358
  847MPD2    N112505   2.325   3.404  13.870 -0.0228 -0.1687  0.5733
  847MPD2    H712506   2.384   3.405  13.953 -1.1632 -1.8124  1.4056
  848MPD2     C12507   0.111   1.600  16.285  0.1270  0.0014 -0.2880
  848MPD2    C112508   0.107   1.662  16.406 -0.5080  0.2372 -0.4458
  848MPD2    C212509   0.134   1.803  16.411 -0.4286  1.0420 -0.9835
  848MPD2    C312510   0.143   1.871  16.290  0.2010 -0.6526 -0.3126
  848MPD2    C412511   0.140   1.808  16.171 -1.1428 -0.3816 -1.0707
  848MPD2    C512512   0.116   1.673  16.169 -0.4476 -0.1089 -0.6885
  848MPD2     H12513   0.115   1.854  16.505  1.5387  1.2341 -0.6979
  848MPD2    H112514   0.164   1.862  16.080  1.5713  1.1000  0.5019
  848MPD2    H212515   0.083   1.496  16.274  0.1524  0.3483 -3.6448
  848MPD2    H312516   0.120   1.629  16.070  1.5620 -0.1198 -0.6043
  848MPD2     N12517   0.152   2.011  16.280  0.1727 -0.7892  0.0328
  848MPD2    H512518   0.144   2.051  16.187  1.1059  1.0299  0.7391
  848MPD2    N112519   0.086   1.589  16.527 -0.0158  0.8222 -0.2926
  848MPD2    H712520   0.106   1.647  16.608  1.4637 -0.7708  0.4933
  849MPD2     C12521   3.444   0.680  14.857 -1.0810 -0.1556  0.4331
  849MPD2    C112522   3.489   0.617  14.746  0.9972 -0.2973 -0.7266
  849MPD2    C212523   3.619   0.562  14.748 -0.3872  0.0333 -0.0649
  849MPD2    C312524   3.704   0.572  14.856 -0.3291 -0.3503 -0.4013
  849MPD2    C412525   3.655   0.645  14.968 -0.4287 -0.7914  0.6967
  849MPD2    C512526   3.528   0.690  14.968  0.5435 -0.2898 -0.2385
  849MPD2     H12527   3.659   0.518  14.658 -1.7494 -0.2949 -0.5122
  849MPD2    H112528   3.716   0.667  15.055 -0.2457  0.6046  0.2212
  849MPD2    H212529   3.349   0.729  14.874 -1.5933 -0.0922 -2.5355
  849MPD2    H312530   3.494   0.745  15.055  0.7007 -1.0145  0.2771
  849MPD2     N12531   3.846   0.544  14.854 -0.2623 -0.1278 -0.0564
  849MPD2    H512532   3.903   0.590  14.923  0.6029  0.1405 -0.9483
  849MPD2    N112533   3.397   0.604  14.634 -0.1651 -0.3796  0.2304
  849MPD2    H712534   3.303   0.643  14.639 -1.2104 -2.9255  0.7825
  850MPD2     C12535   2.534   3.494  14.852 -0.3394 -0.3482  0.0993
  850MPD2    C112536   2.510   3.595  14.943  0.7308  0.6001  0.4434
  850MPD2    C212537   2.613   3.688  14.963  0.2898  0.0321 -0.2676
  850MPD2    C312538   2.733   3.674  14.899  0.3939  0.5814  0.0282
  850MPD2    C412539   2.750   3.576  14.805  0.5589  0.4742 -0.0367
  850MPD2    C512540   2.648   3.486  14.783 -0.8394 -0.2039 -0.7613
  850MPD2     H12541   2.601   3.772  15.030 -1.7234 -1.0566  0.7326
  850MPD2    H112542   2.839   3.556  14.746  1.6855  1.0456  1.4775
  850MPD2    H212543   2.471   3.406  14.846 -0.6349 -0.1749  0.6784
  850MPD2    H312544   2.667   3.404  14.715  0.7759  0.8856 -1.6140
  850MPD2     N12545   2.834   3.772  14.923 -0.5738  0.3576 -0.0919
  850MPD2    H512546   2.920   3.766  14.869 -1.0789  0.8016 -0.9544
  850MPD2    N112547   2.387   3.603  15.018  0.0030  0.2103  0.7461
  850MPD2    H712548   2.329   3.520  15.007 -0.3439  0.6331 -0.6009
  851MPD2     C12549   2.246   3.300  15.594  0.2328  0.2027  0.4830
  851MPD2    C112550   2.181   3.286  15.477 -0.4519  0.6532 -0.3241
  851MPD2    C212551   2.182   3.163  15.416  0.3172  0.2030 -0.4825
  851MPD2    C312552   2.251   3.053  15.476  0.4025  0.6352  0.0108
  851MPD2    C412553   2.312   3.066  15.599 -0.1733 -0.4334  0.1629
  851MPD2    C512554   2.310   3.194  15.655 -0.0036 -0.8200  0.0605
  851MPD2     H12555   2.129   3.158  15.322  0.1166  2.1788 -0.4729
  851MPD2    H112556   2.361   2.983  15.648  0.7454 -0.1420 -0.2709
  851MPD2    H212557   2.251   3.393  15.649  0.0157 -0.7430  2.1108
  851MPD2    H312558   2.361   3.202  15.750 -1.0626 -0.7700  0.6236
  851MPD2     N12559   2.250   2.931  15.400 -0.1903  0.1770 -0.2554
  851MPD2    H512560   2.195   2.933  15.314 -1.2621 -0.6755  0.4100
  851MPD2    N112561   2.127   3.402  15.419 -0.5739 -0.0164  0.0119
  851MPD2    H712562   2.143   3.487  15.473  0.5095 -0.9405  1.1522
  852MPD2     C12563   2.095   1.710   9.961 -0.2193  0.1135  0.2963
  852MPD2    C112564   2.171   1.715  10.078  0.5113 -0.1202  0.1818
  852MPD2    C212565   2.282   1.797  10.079 -0.0852 -1.2219  0.3395
  852MPD2    C312566   2.324   1.875   9.969 -0.5906 -0.5230  0.0627
  852MPD2    C412567   2.257   1.860   9.850 -0.1388 -0.2872 -0.0213
  852MPD2    C512568   2.149   1.772   9.848  0.3865 -0.7221  0.1063
  852MPD2     H12569   2.336   1.825  10.168 -1.4669  0.6636  0.5874
  852MPD2    H112570   2.291   1.908   9.758  0.9810  1.2626  1.2151
  852MPD2    H212571   2.005   1.650   9.951 -0.8803  0.7333  2.4733
  852MPD2    H312572   2.095   1.760   9.755  3.1974 -1.2858 -1.4511
  852MPD2     N12573   2.432   1.962   9.989 -0.1254  0.4878 -1.2039
  852MPD2    H512574   2.474   1.971  10.081 -2.0493  1.4412 -0.4268
  852MPD2    N112575   2.141   1.642  10.193  0.4947 -0.0908  0.0841
  852MPD2    H712576   2.202   1.659  10.271 -1.5612 -1.6570  2.0307
  853MPD2     C12577   4.198   1.355  12.446  0.1511  0.4606  0.0589
  853MPD2    C112578   4.134   1.442  12.362 -0.4977  0.2038 -0.1172
  853MPD2    C212579   4.099   1.401  12.237  0.1547 -0.3992 -0.3555
  853MPD2    C312580   4.135   1.274  12.194  0.0444 -0.0909 -0.3020
  853MPD2    C412581   4.200   1.186  12.276 -0.5529  0.5190  0.4179
  853MPD2    C512582   4.235   1.232  12.399 -0.2988 -0.6833  0.0561
  853MPD2     H12583   4.058   1.465  12.159  2.1037 -0.8109 -1.7093
  853MPD2    H112584   4.213   1.081  12.251 -0.6270  0.6740 -0.2882
  853MPD2    H212585   4.223   1.387  12.546  1.2141  1.1847 -0.4318
  853MPD2    H312586   4.286   1.160  12.461 -0.5511  0.0386  1.0868
  853MPD2     N12587   4.094   1.221  12.062 -0.0544 -0.2046  0.7600
  853MPD2    H512588   4.124   1.128  12.035  0.3166  0.0999  0.1280
  853MPD2    N112589   4.105   1.573  12.410  0.6411  0.1490 -0.1913
  853MPD2    H712590   4.108   1.585  12.511  0.4661 -0.7293 -0.0886
  854MPD2     C12591   0.505   1.023  12.356  0.3409 -0.0892 -0.1927
  854MPD2    C112592   0.532   1.139  12.427 -0.3387  0.4938 -0.4270
  854MPD2    C212593   0.645   1.140  12.507 -0.4635  0.4303  0.3381
  854MPD2    C312594   0.720   1.029  12.527 -0.0413 -0.3088  0.3699
  854MPD2    C412595   0.687   0.912  12.457  0.6214  0.2578 -0.1117
  854MPD2    C512596   0.582   0.917  12.368 -0.4394  0.2507  0.4535
  854MPD2     H12597   0.676   1.226  12.567  1.1625 -0.1813  0.3803
  854MPD2    H112598   0.757   0.829  12.462 -1.0626 -1.2019 -0.3585
  854MPD2    H212599   0.419   1.021  12.290 -0.3535 -0.7240  0.7278
  854MPD2    H312600   0.542   0.825  12.326 -0.9030 -0.3374  2.1868
  854MPD2     N12601   0.827   1.016  12.618  0.5114 -0.1764  0.3016
  854MPD2    H512602   0.850   0.920  12.640 -0.9849 -1.0232 -1.7974
  854MPD2    N112603   0.450   1.252  12.415  0.3929 -0.0786 -0.5873
  854MPD2    H712604   0.365   1.230  12.365 -1.0172  1.0605  1.3174
  855MPD2     C12605   1.006   1.418  13.550  0.2130 -0.0180  0.2912
  855MPD2    C112606   1.000   1.276  13.541 -0.8278  0.2528  0.4398
  855MPD2    C212607   1.022   1.217  13.419  0.3766 -0.2177  0.1236
  855MPD2    C312608   1.025   1.295  13.302  0.3368  0.3260 -0.4917
  855MPD2    C412609   1.015   1.436  13.318 -0.5120  0.7291  0.4045
  855MPD2    C512610   1.012   1.495  13.440 -0.4282 -0.3494 -0.3455
  855MPD2     H12611   1.025   1.109  13.416 -2.6285 -0.2668 -0.8240
  855MPD2    H112612   1.022   1.510  13.239  2.3729 -0.0726 -0.0904
  855MPD2    H212613   0.996   1.472  13.643 -0.0643  0.7515 -0.1820
  855MPD2    H312614   0.995   1.601  13.443 -0.0290 -0.2594 -1.0609
  855MPD2     N12615   1.038   1.240  13.172  0.7077  0.7733 -0.4282
  855MPD2    H512616   1.050   1.301  13.093  2.0756  0.0982 -0.7535
  855MPD2    N112617   0.983   1.196  13.649  0.4591 -0.3683 -0.8125
  855MPD2    H712618   0.973   1.095  13.637 -4.0548  0.2485 -2.3009
  856MPD2     C12619   2.556   2.234  14.119  0.5112 -0.0499  0.0449
  856MPD2    C112620   2.649   2.333  14.086 -0.3985  0.7008  0.2190
  856MPD2    C212621   2.595   2.451  14.042 -1.2637  0.3299  0.7816
  856MPD2    C312622   2.464   2.465  14.007  0.1303  0.6118 -0.3191
  856MPD2    C412623   2.376   2.356  14.026  0.4525 -0.1142 -0.1789
  856MPD2    C512624   2.427   2.248  14.082  0.1502  0.3764 -0.2314
  856MPD2     H12625   2.669   2.527  14.019 -3.5421  2.4059  0.3630
  856MPD2    H112626   2.274   2.353  13.990 -0.3331 -0.1957  2.0328
  856MPD2    H212627   2.599   2.142  14.156  0.6742 -0.3753 -0.9564
  856MPD2    H312628   2.354   2.167  14.088  1.0117 -0.3563  0.3704
  856MPD2     N12629   2.420   2.587  13.944  0.5467  0.2256  0.7232
  856MPD2    H512630   2.332   2.588  13.894  0.6234 -0.9902  0.5772
  856MPD2    N112631   2.789   2.327  14.107 -0.0736 -0.4069  0.2290
  856MPD2    H712632   2.847   2.410  14.093 -1.5409  0.5374 -0.2366
  857MPD2     C12633   4.125   4.238  12.937 -0.3462 -0.2242 -0.6176
  857MPD2    C112634   4.256   4.205  12.952 -0.1076 -0.0059  0.5397
  857MPD2    C212635   4.340   4.269  13.044  0.3068  0.4313 -0.6401
  857MPD2    C312636   4.295   4.377  13.109 -0.2493 -0.0917 -0.9401
  857MPD2    C412637   4.159   4.415  13.096  0.0600  0.0567  0.2174
  857MPD2    C512638   4.074   4.339  13.021 -0.5812 -0.2877  0.3133
  857MPD2     H12639   4.445   4.247  13.063  0.1837  0.6131  0.2517
  857MPD2    H112640   4.115   4.498  13.150 -0.7366  0.3261 -0.8379
  857MPD2    H212641   4.065   4.192  12.860  0.0147 -0.3259 -0.8375
  857MPD2    H312642   3.973   4.377  13.018 -1.1640 -1.6885  2.0259
  857MPD2     N12643   4.400   4.448  13.175  0.3263  0.3912  0.4933
  857MPD2    H512644   4.495   4.427  13.145  1.3042 -0.5155  4.1639
  857MPD2    N112645   4.313   4.105  12.866 -0.0305 -0.2442 -0.7963
  857MPD2    H712646   4.249   4.065  12.800 -0.1169 -0.9208 -0.3037
  858MPD2     C12647   0.397   3.834  16.324  0.2959 -0.2094  0.7362
  858MPD2    C112648   0.528   3.801  16.337  0.7320 -0.3426 -0.9464
  858MPD2    C212649   0.601   3.837  16.450 -0.9924  0.1054  0.4491
  858MPD2    C312650   0.535   3.900  16.553  0.5092 -0.2624 -0.1051
  858MPD2    C412651   0.401   3.932  16.538 -0.0532  0.2845  0.0332
  858MPD2    C512652   0.333   3.900  16.427  0.2648  0.0150  0.0526
  858MPD2     H12653   0.706   3.811  16.459 -1.0101 -0.1795 -0.1897
  858MPD2    H112654   0.356   3.988  16.619  0.6923  0.7092  0.1544
  858MPD2    H212655   0.333   3.798  16.244  0.8476 -0.1421  0.2653
  858MPD2    H312656   0.226   3.920  16.425  0.8774  3.2826  0.2276
  858MPD2     N12657   0.584   3.934  16.682 -0.0528  0.1891  0.4190
  858MPD2    H512658   0.520   3.986  16.741 -1.6074 -0.7740 -0.4136
  858MPD2    N112659   0.586   3.708  16.244  0.0628  0.3204 -0.3882
  858MPD2    H712660   0.687   3.694  16.247  0.3668  2.4033 -0.6477
  859MPD2     C12661   4.004   0.858  16.022  0.2462 -0.1978 -0.4873
  859MPD2    C112662   3.993   0.801  15.898 -0.4976  0.2040 -0.4932
  859MPD2    C212663   3.969   0.662  15.893 -0.1360 -0.4336  0.6366
  859MPD2    C312664   3.929   0.589  16.001 -0.2860 -0.0629 -0.5007
  859MPD2    C412665   3.936   0.651  16.123  0.2215  0.2139 -0.1432
  859MPD2    C512666   3.964   0.786  16.133  0.2586  0.1639  0.1387
  859MPD2     H12667   3.971   0.616  15.795 -2.5549 -0.1515  0.4530
  859MPD2    H112668   3.901   0.599  16.211 -1.5025  1.6600  0.0387
  859MPD2    H212669   4.028   0.963  16.037  0.1816  0.1119 -2.5756
  859MPD2    H312670   3.956   0.829  16.232  2.1509  0.2136  0.2614
  859MPD2     N12671   3.891   0.455  16.001 -0.2493  0.1987 -0.3198
  859MPD2    H512672   3.879   0.410  16.091 -1.7103  0.0095 -0.5970
  859MPD2    N112673   4.005   0.878  15.781  0.5056 -0.4152 -0.2083
  859MPD2    H712674   4.034   0.975  15.787 -3.3690  0.4950  3.7944
  860MPD2     C12675   1.692   0.456  11.503  0.0891  0.2469 -0.1041
  860MPD2    C112676   1.668   0.584  11.544 -0.1359  0.1579  0.1811
  860MPD2    C212677   1.551   0.609  11.600 -0.5040 -1.7149 -0.3754
  860MPD2    C312678   1.458   0.509  11.633 -0.6629  0.8328 -0.0470
  860MPD2    C412679   1.486   0.380  11.592 -0.9789 -0.2174 -0.0776
  860MPD2    C512680   1.603   0.353  11.521  0.0949  0.5844 -0.2888
  860MPD2     H12681   1.537   0.707  11.645  1.0229 -1.1227 -1.1756
  860MPD2    H112682   1.423   0.293  11.609  1.1711 -1.7989 -0.1978
  860MPD2    H212683   1.786   0.436  11.451  0.2380 -0.6030  0.4906
  860MPD2    H312684   1.609   0.263  11.462 -0.1221  0.3959 -0.0254
  860MPD2     N12685   1.358   0.552  11.716 -0.2373 -0.5026 -0.5415
  860MPD2    H512686   1.343   0.652  11.716 -0.3900 -0.5237  1.4878
  860MPD2    N112687   1.769   0.685  11.540  0.0637 -0.0503 -0.1997
  860MPD2    H712688   1.861   0.644  11.530  0.1645  0.0008  0.5087
  861MPD2     C12689   0.818   4.621  10.739 -0.2328 -0.3373 -1.1493
  861MPD2    C112690   0.708   4.558  10.790 -0.3795 -1.1830  0.1791
  861MPD2    C212691   0.585   4.604  10.750  0.0977 -0.5132 -0.1643
  861MPD2    C312692   0.572   4.701  10.650  0.5300 -0.1287 -0.0143
  861MPD2    C412693   0.685   0.016  10.603 -0.0532 -0.6754  0.1612
  861MPD2    C512694   0.812   4.721  10.648  0.0929  0.3880 -0.2080
  861MPD2     H12695   0.500   4.551  10.791 -0.7068  0.8374 -0.0947
  861MPD2    H112696   0.672   0.097  10.532 -1.4659 -1.3172 -0.3068
  861MPD2    H212697   0.918   4.596  10.773  0.0331  0.1450 -1.5586
  861MPD2    H312698   0.900   0.035  10.614 -0.4720  1.5512  0.1554
  861MPD2     N12699   0.451   4.736  10.583 -0.0516  0.3793  0.1763
  861MPD2    H512700   0.460   0.054  10.500  1.1278  0.0963  0.1071
  861MPD2    N112701   0.721   4.465  10.896  0.4060 -0.3739 -0.5157
  861MPD2    H712702   0.630   4.438  10.930  0.5403  0.1040  0.2273
  862MPD2     C12703   4.400   4.469  10.415  0.8033  0.0933  0.5761
  862MPD2    C112704   4.535   4.458  10.446 -0.0554  0.2478 -0.5757
  862MPD2    C212705   4.587   4.330  10.474  0.0314  0.2614 -0.4908
  862MPD2    C312706   4.501   4.220  10.480 -0.5937  0.2866 -0.3988
  862MPD2    C412707   4.367   4.236  10.458 -0.3925  0.4776  0.0618
  862MPD2    C512708   4.316   4.360  10.423  0.0570  0.2861 -0.4439
  862MPD2     H12709   4.695   4.323  10.479  0.0657  2.5380  1.6089
  862MPD2    H112710   4.298   4.154  10.475  0.1570 -0.0551 -0.2666
  862MPD2    H212711   4.356   4.567  10.396  0.1505 -0.3906 -0.4246
  862MPD2    H312712   4.211   4.378  10.403 -0.1809 -1.0160 -0.3287
  862MPD2     N12713   4.543   4.103  10.537 -0.0179  1.0618  0.1846
  862MPD2    H512714   4.472   4.030  10.530 -0.1051  1.2480 -0.9068
  862MPD2    N112715   4.633   4.561  10.455  0.2724 -0.2705  0.1061
  862MPD2    H712716   4.727   4.536  10.483 -0.3954  0.9153  3.3309
  863MPD2     C12717   3.292   2.565  16.267 -0.5458  0.7608 -0.1711
  863MPD2    C112718   3.311   2.672  16.357  0.0362 -0.0761 -0.1051
  863MPD2    C212719   3.401   2.662  16.459  0.1872  0.8087  0.4215
  863MPD2    C312720   3.470   2.541  16.473  0.3930 -0.0923  0.6525
  863MPD2    C412721   3.456   2.441  16.377  0.5382  0.6491  0.6115
  863MPD2    C512722   3.371   2.453  16.267  0.2247 -0.2260  0.1236
  863MPD2     H12723   3.408   2.738  16.536 -1.9706 -0.0542  1.4613
  863MPD2    H112724   3.506   2.345  16.385  1.5680  0.8391 -3.4421
  863MPD2    H212725   3.237   2.580  16.175  0.7317  0.5497 -0.9700
  863MPD2    H312726   3.345   2.377  16.194  0.9927 -0.2160 -0.1672
  863MPD2     N12727   3.561   2.510  16.571 -0.7065 -0.3383  0.1629
  863MPD2    H512728   3.585   2.412  16.570 -0.2840 -0.2292 -0.6189
  863MPD2    N112729   3.242   2.791  16.329 -0.3591  0.5377 -0.1903
  863MPD2    H712730   3.170   2.785  16.257 -1.1403 -0.3905  0.6694
  864MPD2     C12731   3.887   3.765  17.222 -0.2196 -0.8054  0.0988
  864MPD2    C112732   3.935   3.681  17.126  0.4816 -0.0772 -0.4078
  864MPD2    C212733   4.010   3.730  17.022  0.3600 -0.5406 -0.2846
  864MPD2    C312734   4.061   3.857  17.032 -0.1375 -0.3816 -0.1502
  864MPD2    C412735   4.024   3.940  17.133  0.3509 -0.2682 -0.1528
  864MPD2    C512736   3.941   3.898  17.229  0.4299 -0.3274  0.3721
  864MPD2     H12737   4.056   3.660  16.952  1.0811 -0.6410  0.2865
  864MPD2    H112738   4.063   4.040  17.149 -1.1885  0.3909 -0.5073
  864MPD2    H212739   3.812   3.734  17.293 -1.2691  0.9225 -0.2448
  864MPD2    H312740   3.916   3.968  17.308 -1.9195  0.2443 -0.8897
  864MPD2     N12741   4.161   3.906  16.947 -0.2261  0.0563 -0.4635
  864MPD2    H512742   4.182   4.004  16.963 -1.2264  0.3802 -1.1501
  864MPD2    N112743   3.896   3.545  17.135 -0.1293 -0.0612 -0.3220
  864MPD2    H712744   3.840   3.520  17.216 -0.1552 -0.1007 -0.3522
  865MPD2     C12745   4.208   4.095  16.117  0.2184  0.4121 -0.1414
  865MPD2    C112746   4.213   4.018  16.238 -0.5289 -0.0765  0.3633
  865MPD2    C212747   4.219   4.078  16.364  0.6423 -0.2296  0.0105
  865MPD2    C312748   4.230   4.214  16.369  0.5965 -0.6694 -0.1761
  865MPD2    C412749   4.232   4.288  16.249 -0.5279 -0.6181  0.6665
  865MPD2    C512750   4.227   4.229  16.125  0.1249 -0.2805 -0.5318
  865MPD2     H12751   4.187   4.015  16.446  0.0719  1.1354  0.8314
  865MPD2    H112752   4.238   4.396  16.251 -1.6487 -0.5568  0.7135
  865MPD2    H212753   4.219   4.055  16.017 -0.7251  0.2997 -0.2030
  865MPD2    H312754   4.229   4.292  16.036 -2.0579  1.1786  0.4567
  865MPD2     N12755   4.244   4.298  16.479 -0.6634 -0.4371  0.0945
  865MPD2    H512756   4.233   4.398  16.467  1.3741 -0.2642 -0.4262
  865MPD2    N112757   4.229   3.880  16.214  0.0956  0.3580  0.4952
  865MPD2    H712758   4.227   3.844  16.120 -0.1818 -0.0068  0.6397
  866MPD2     C12759   1.228   4.556  11.186 -0.2256 -0.3304  0.0976
  866MPD2    C112760   1.229   4.630  11.075  0.5236  0.4295 -0.1302
  866MPD2    C212761   1.123   4.705  11.040  0.2737  0.0023  0.7842
  866MPD2    C312762   1.015   4.713  11.131  0.5142 -0.0408  0.3033
  866MPD2    C412763   1.023   4.653  11.255  0.4854 -0.2146  0.2692
  866MPD2    C512764   1.133   4.575  11.283  0.1008 -0.2825 -0.4757
  866MPD2     H12765   1.122   0.016  10.945 -2.0053 -0.4417  0.5685
  866MPD2    H112766   0.949   4.669  11.333  1.1334 -0.3182  0.9112
  866MPD2    H212767   1.310   4.497  11.226  0.7811  0.3649 -0.9492
  866MPD2    H312768   1.151   4.518  11.374 -0.1134  0.9268  0.3263
  866MPD2     N12769   0.893   0.042  11.107 -0.4048 -0.1919 -0.0275
  866MPD2    H512770   0.820   0.024  11.175 -0.2483  3.1980  1.0255
  866MPD2    N112771   1.347   4.627  10.998 -0.6726  0.2378 -0.1273
  866MPD2    H712772   1.418   4.557  11.015 -0.9276 -0.3309 -1.3681
  867MPD2     C12773   2.692   3.977  15.855 -0.5205 -0.3620 -0.6091
  867MPD2    C112774   2.724   3.903  15.963  0.5160  0.2697  0.2524
  867MPD2    C212775   2.691   3.942  16.091  0.3688  0.2562 -0.3780
  867MPD2    C312776   2.619   4.056  16.110 -0.3768 -0.2049  0.1622
  867MPD2    C412777   2.584   4.130  16.001  0.2918 -0.1252 -0.0094
  867MPD2    C512778   2.615   4.083  15.876 -0.2132 -0.2444  0.4076
  867MPD2     H12779   2.725   3.880  16.172  1.6084  2.0668  0.4822
  867MPD2    H112780   2.526   4.219  16.019 -0.1046 -0.2874 -0.4810
  867MPD2    H212781   2.720   3.961  15.752 -1.5678  1.4493 -1.1764
  867MPD2    H312782   2.588   4.148  15.794  0.1865 -0.3396  0.1965
  867MPD2     N12783   2.580   4.091  16.239  0.5788  0.2238  0.6312
  867MPD2    H512784   2.551   4.186  16.259 -0.0719 -0.1704  1.5825
  867MPD2    N112785   2.771   3.770  15.939  0.2421  0.6713  0.2425
  867MPD2    H712786   2.820   3.749  15.853  1.1173  0.7966  0.7079
  868MPD2     C12787   0.213   2.420  12.576 -0.6261 -0.0220  0.2826
  868MPD2    C112788   0.245   2.401  12.711  0.2090  1.0206 -0.3716
  868MPD2    C212789   0.139   2.407  12.800  0.5563  0.7432  0.3689
  868MPD2    C312790   0.011   2.424  12.765  0.7512 -0.2442  1.1224
  868MPD2    C412791   4.717   2.428  12.633  0.2473 -0.3391  0.8885
  868MPD2    C512792   0.078   2.425  12.543 -0.3040  0.2761  0.4132
  868MPD2     H12793   0.161   2.390  12.905  1.9918  0.3621  0.0130
  868MPD2    H112794   4.614   2.427  12.599  0.6337 -0.2862 -0.3081
  868MPD2    H212795   0.289   2.407  12.501 -1.5692  0.9653 -0.8401
  868MPD2    H312796   0.059   2.417  12.437  2.7232  1.0557 -0.1849
  868MPD2     N12797   4.655   2.435  12.879 -0.0968  0.3319  0.4219
  868MPD2    H512798   4.693   2.427  12.973 -0.0022 -0.8799  0.2804
  868MPD2    N112799   0.377   2.377  12.752 -0.1125 -0.0756  0.3984
  868MPD2    H712800   0.449   2.383  12.680 -0.4419  0.8123  0.1566
  869MPD2     C12801   1.286   0.876  17.523 -0.4134  0.8514  0.5345
  869MPD2    C112802   1.218   0.786  17.599  0.1711  0.2255 -0.6426
  869MPD2    C212803   1.223   0.798  17.736 -0.1115 -0.0409  0.2722
  869MPD2    C312804   1.294   0.899   0.040 -0.0966 -0.2076  0.0543
  869MPD2    C412805   1.375   0.977  17.719  0.5885 -0.1809 -0.0674
  869MPD2    C512806   1.353   0.980  17.585  0.5245 -0.6448  0.2340
  869MPD2     H12807   1.165   0.729   0.039  0.1766 -1.2210 -0.8283
  869MPD2    H112808   1.434   1.051   0.015  1.1928  1.8071 -3.5552
  869MPD2    H212809   1.274   0.880  17.415 -0.8671 -0.3564  0.5401
  869MPD2    H312810   1.407   1.052  17.525 -1.8811 -0.3465 -1.5643
  869MPD2     N12811   1.289   0.925   0.181  0.4435 -0.0186  0.1467
  869MPD2    H512812   1.331   1.012   0.212  0.7816  0.3022 -1.2205
  869MPD2    N112813   1.125   0.699  17.529 -0.3043  0.1412 -0.3155
  869MPD2    H712814   1.126   0.718  17.429 -0.5582  0.3207 -0.2825
  870MPD2     C12815   1.885   4.161   1.328  0.0189  0.2649  0.5613
  870MPD2    C112816   1.752   4.131   1.312 -0.7273  0.1563 -0.7877
  870MPD2    C212817   1.655   4.229   1.316  0.1111  0.5999 -0.2095
  870MPD2    C312818   1.694   4.361   1.322 -0.2075  0.0067 -0.1270
  870MPD2    C412819   1.829   4.392   1.345  0.5866  0.1433 -0.6091
  870MPD2    C512820   1.926   4.294   1.348  0.4308 -0.0293  0.3536
  870MPD2     H12821   1.555   4.198   1.290  0.9601  0.1865 -2.9784
  870MPD2    H112822   1.856   4.497   1.346  1.2915 -0.0215 -2.5943
  870MPD2    H212823   1.955   4.080   1.345 -1.2824 -0.8338  0.6395
  870MPD2    H312824   2.033   4.315   1.348 -0.3574  4.0917  0.2325
  870MPD2     N12825   1.595   4.455   1.305 -0.5481 -0.6625 -0.2749
  870MPD2    H512826   1.499   4.431   1.283 -0.9379 -2.2046  3.0652
  870MPD2    N112827   1.724   4.000   1.276  0.0584  0.8822 -0.3080
  870MPD2    H712828   1.793   3.945   1.226 -0.5681 -0.1666 -0.0352
  871MPD2     C12829   1.842   3.994  16.214 -0.0370  0.2375 -0.7634
  871MPD2    C112830   1.840   3.948  16.343  0.1247  0.8708  0.5949
  871MPD2    C212831   1.833   3.814  16.370 -0.7030  0.3994 -0.1454
  871MPD2    C312832   1.832   3.716  16.267  0.7585  0.0395 -0.4391
  871MPD2    C412833   1.846   3.768  16.133  0.1347 -0.4756  0.0311
  871MPD2    C512834   1.855   3.904  16.109 -0.8354  0.6097  0.2456
  871MPD2     H12835   1.820   3.780  16.472 -2.4075  1.1128 -0.1275
  871MPD2    H112836   1.848   3.707  16.044  0.7252  0.9098 -0.8935
  871MPD2    H212837   1.830   4.099  16.192  1.7610  0.3712 -1.0592
  871MPD2    H312838   1.860   3.945  16.008 -1.0459 -0.2156 -0.0980
  871MPD2     N12839   1.839   3.582  16.303 -0.4084  0.6860  0.1590
  871MPD2    H512840   1.844   3.569  16.403  1.5861  1.3671  0.1360
  871MPD2    N112841   1.842   4.046  16.442 -0.6252  0.6985  0.2679
  871MPD2    H712842   1.867   4.139  16.410  0.6566  0.3878  0.3728
  872MPD2     C12843   2.702   1.534  13.469  0.1498 -0.5726 -0.0944
  872MPD2    C112844   2.720   1.611  13.585 -0.1019  0.1521  0.0352
  872MPD2    C212845   2.636   1.598  13.691 -0.9917 -0.4866 -0.3184
  872MPD2    C312846   2.537   1.504  13.688 -0.6720  0.4511  0.1236
  872MPD2    C412847   2.510   1.441  13.571 -0.5046 -0.4422  0.2967
  872MPD2    C512848   2.586   1.456  13.466  0.0190  0.3696 -0.5449
  872MPD2     H12849   2.659   1.659  13.778 -2.0677  1.1732 -1.2060
  872MPD2    H112850   2.417   1.387  13.558 -0.9337  0.0054  1.4722
  872MPD2    H212851   2.759   1.545  13.378  0.8778  0.7208  0.5097
  872MPD2    H312852   2.552   1.404  13.377  0.1572 -0.7101  0.0441
  872MPD2     N12853   2.452   1.472  13.802 -0.3360 -0.4474  0.0721
  872MPD2    H512854   2.368   1.417  13.788 -1.4851  1.1752  0.4930
  872MPD2    N112855   2.835   1.692  13.596 -0.0157  0.0472 -0.1978
  872MPD2    H712856   2.863   1.739  13.681 -1.5986  3.2618 -1.4964
  873MPD2     C12857   3.881   1.059   0.474  0.1205 -0.1583 -0.7626
  873MPD2    C112858   4.001   1.076   0.536 -0.0298  0.7636 -0.2137
  873MPD2    C212859   4.106   0.983   0.514  0.5392  0.3754  0.1415
  873MPD2    C312860   4.090   0.884   0.425  0.3405  0.0269  0.2954
  873MPD2    C412861   3.978   0.869   0.356  0.6765 -0.3733 -0.3553
  873MPD2    C512862   3.873   0.949   0.384  0.6842  0.2673  0.1380
  873MPD2     H12863   4.203   0.993   0.561  2.0641 -1.3061 -2.6411
  873MPD2    H112864   3.969   0.783   0.291 -2.1352 -0.9441  0.7710
  873MPD2    H212865   3.803   1.132   0.491  0.5537  0.3123 -0.7700
  873MPD2    H312866   3.779   0.925   0.337 -1.0126  1.7831  2.7606
  873MPD2     N12867   4.194   0.787   0.410 -0.7905 -0.9436 -0.0351
  873MPD2    H512868   4.165   0.698   0.369  0.3165 -0.9465 -0.8165
  873MPD2    N112869   4.016   1.186   0.627 -0.6482 -0.5825 -0.1736
  873MPD2    H712870   3.942   1.256   0.629  1.1834  1.3918 -1.4745
  874MPD2     C12871   4.070   2.066  16.237 -0.0181 -0.7552 -0.0855
  874MPD2    C112872   4.168   1.985  16.286 -0.1175  0.3278  0.1584
  874MPD2    C212873   4.300   2.035  16.297  0.4884 -0.4434 -0.0650
  874MPD2    C312874   4.331   2.163  16.257  0.0516  0.0757 -0.0409
  874MPD2    C412875   4.234   2.242  16.197 -0.4713 -0.7914  0.1969
  874MPD2    C512876   4.108   2.194  16.196 -0.3839  0.1159  0.2527
  874MPD2     H12877   4.380   1.977  16.339  0.3903 -0.5993 -0.0949
  874MPD2    H112878   4.251   2.345  16.166  0.2566 -1.6788 -2.2902
  874MPD2    H212879   3.969   2.029  16.235  0.1982 -1.3037 -0.7986
  874MPD2    H312880   4.031   2.267  16.172  0.3099  1.2022  1.3529
  874MPD2     N12881   4.469   2.199  16.266  0.5501  0.6582  0.5794
  874MPD2    H512882   4.532   2.123  16.291 -1.7242 -0.9762  1.3873
  874MPD2    N112883   4.139   1.853  16.325  0.4747  0.3068  0.1373
  874MPD2    H712884   4.043   1.824  16.344  0.9101 -1.1279  0.1163
  875MPD2     C12885   0.730   0.042  14.518 -0.3837 -0.1213 -0.3717
  875MPD2    C112886   0.617   0.035  14.602 -0.6426  0.5056 -0.2228
  875MPD2    C212887   0.621   0.084  14.733  0.3914  1.2357 -0.1074
  875MPD2    C312888   0.740   0.112  14.787  0.1090 -0.1594  0.3931
  875MPD2    C412889   0.851   0.123  14.709  1.0756 -0.0268  0.1330
  875MPD2    C512890   0.841   0.090  14.576  0.1183  0.1184 -0.2308
  875MPD2     H12891   0.527   0.092  14.786  0.8411 -0.1091  0.8772
  875MPD2    H112892   0.947   0.146  14.752  1.9991 -0.5737 -1.6560
  875MPD2    H212893   0.737   4.739  14.419  0.3177  0.7863 -0.7047
  875MPD2    H312894   0.932   0.080  14.518 -0.1306  1.7718 -0.9062
  875MPD2     N12895   0.760   0.123  14.928 -0.4520 -0.4331 -0.0135
  875MPD2    H512896   0.857   0.124  14.958 -1.0116  0.8166  1.7274
  875MPD2    N112897   0.496   4.720  14.560  0.1819 -0.1846  0.4514
  875MPD2    H712898   0.416   4.721  14.623 -1.2710 -2.0122 -1.3581
  876MPD2     C12899   4.135   1.197  16.308  0.0658  0.3137 -0.4591
  876MPD2    C112900   4.242   1.172  16.220 -0.3067 -0.0941 -0.3366
  876MPD2    C212901   4.295   1.044  16.223 -0.2940  0.1766 -0.4970
  876MPD2    C312902   4.241   0.950  16.317 -0.7094 -1.0559  0.7151
  876MPD2    C412903   4.138   0.986  16.402 -0.3652  0.3967 -0.2196
  876MPD2    C512904   4.086   1.113  16.401  0.3395  0.1993  0.2095
  876MPD2     H12905   4.381   1.022  16.161  0.3673  2.4121 -0.4051
  876MPD2    H112906   4.103   0.927  16.486  1.4559 -2.5470 -1.5339
  876MPD2    H212907   4.096   1.298  16.301  1.9750  1.1696  1.1822
  876MPD2    H312908   4.004   1.149  16.462  0.3791 -0.5183  0.6945
  876MPD2     N12909   4.305   0.826  16.324 -0.4544 -0.2863  0.5098
  876MPD2    H512910   4.387   0.822  16.264  0.9213  1.9827  2.2463
  876MPD2    N112911   4.290   1.276  16.138  0.2037 -0.4215  0.1961
  876MPD2    H712912   4.231   1.355  16.112  0.7064 -1.0919 -2.9547
  877MPD2     C12913   4.084   1.398  15.433  0.2850  0.0534  0.6773
  877MPD2    C112914   4.201   1.469  15.435 -0.9908  0.1856 -0.9435
  877MPD2    C212915   4.270   1.484  15.316 -0.0155  0.4326 -0.0073
  877MPD2    C312916   4.227   1.417  15.200  0.0675  0.8838 -0.1066
  877MPD2    C412917   4.125   1.330  15.208 -0.3253 -0.1911 -0.3668
  877MPD2    C512918   4.048   1.320  15.322  0.2773  0.5339  0.2050
  877MPD2     H12919   4.360   1.543  15.312  0.9040 -0.8196  2.0749
  877MPD2    H112920   4.111   1.263  15.123 -1.3104  0.4245 -0.6822
  877MPD2    H212921   4.021   1.387  15.520  1.2602  2.0052  1.6337
  877MPD2    H312922   3.958   1.259  15.326  0.7581 -0.1923 -0.0205
  877MPD2     N12923   4.299   1.423  15.079 -0.9665  0.5718  0.3677
  877MPD2    H512924   4.289   1.351  15.008 -1.3165  0.2184  0.7691
  877MPD2    N112925   4.255   1.521  15.557  0.0382 -0.2030 -0.3780
  877MPD2    H712926   4.337   1.579  15.544 -0.7935  0.7608 -1.2942
  878MPD2     C12927   3.480   1.117  13.806 -0.7839  0.0126  0.2421
  878MPD2    C112928   3.525   0.988  13.784 -0.2969  0.6366  0.1581
  878MPD2    C212929   3.488   0.884  13.866  0.2557  0.5403 -0.3111
  878MPD2    C312930   3.440   0.910  13.990 -0.2813 -0.0818  0.2607
  878MPD2    C412931   3.399   1.039  14.025  0.5267 -0.4720  0.3339
  878MPD2    C512932   3.409   1.134  13.924  0.3079  0.1407 -0.7648
  878MPD2     H12933   3.511   0.779  13.849  2.5708  0.8213  0.9407
  878MPD2    H112934   3.337   1.060  14.111 -0.2786 -1.0574 -0.1078
  878MPD2    H212935   3.493   1.206  13.746  0.1740  1.0188  1.9195
  878MPD2    H312936   3.353   1.223  13.953  0.1027 -0.0262 -0.6488
  878MPD2     N12937   3.428   0.796  14.073  0.2745  0.0622  0.5755
  878MPD2    H512938   3.457   0.707  14.035 -0.0031  0.4886 -0.6317
  878MPD2    N112939   3.612   0.972  13.676  0.1911  0.6990  0.1411
  878MPD2    H712940   3.637   1.059  13.631  4.3562 -0.9489 -0.6426
  879MPD2     C12941   0.076   2.023  16.911 -0.4503  0.6653 -0.1840
  879MPD2    C112942   4.720   1.991  17.008 -0.4636 -0.7437  0.4956
  879MPD2    C212943   4.587   1.975  16.971 -0.5331  0.0096  0.5765
  879MPD2    C312944   4.559   1.961  16.832 -0.2420 -0.0121  0.1873
  879MPD2    C412945   4.661   1.982  16.742 -0.7392  0.0182 -0.0463
  879MPD2    C512946   0.047   2.021  16.780  0.2664 -0.2701 -0.5013
  879MPD2     H12947   4.504   1.966  17.041 -2.7287  0.5042 -1.9344
  879MPD2    H112948   4.634   1.958  16.639  2.2163 -0.0012 -0.8230
  879MPD2    H212949   0.179   2.050  16.933 -0.5532  0.1291  0.9525
  879MPD2    H312950   0.122   2.046  16.705 -0.2451 -1.5762 -1.4382
  879MPD2     N12951   4.430   1.930  16.796  0.0360 -0.0386  0.0150
  879MPD2    H512952   4.360   1.916  16.868 -0.6198 -3.0746 -1.2149
  879MPD2    N112953   0.020   1.996  17.143  0.2939 -0.4664  0.2168
  879MPD2    H712954   0.114   2.030  17.160  0.6327 -0.6888 -1.2137
  880MPD2     C12955   0.845   3.854   0.431 -0.3172  0.1204 -0.3276
  880MPD2    C112956   0.946   3.952   0.426 -0.4978 -0.5678  0.0005
  880MPD2    C212957   1.082   3.901   0.452 -0.3343 -0.4112  0.0840
  880MPD2    C312958   1.108   3.765   0.463  0.3157  0.5717  0.6940
  880MPD2    C412959   1.005   3.673   0.443  0.3394  0.0512 -1.1546
  880MPD2    C512960   0.872   3.722   0.433 -0.2105  0.3900 -0.3031
  880MPD2     H12961   1.169   3.964   0.462 -1.6530  1.4390 -0.1494
  880MPD2    H112962   1.020   3.567   0.431  0.3131 -0.0936  0.0614
  880MPD2    H212963   0.742   3.885   0.421 -0.1916  0.8980  0.8325
  880MPD2    H312964   0.789   3.653   0.421  0.8948 -0.9010 -0.5125
  880MPD2     N12965   1.243   3.734   0.509 -0.7172 -0.5521 -0.8024
  880MPD2    H512966   1.284   3.818   0.548 -0.7475  0.0575 -2.0604
  880MPD2    N112967   0.918   4.089   0.411  0.4373 -0.6782  0.0209
  880MPD2    H712968   0.823   4.117   0.429  0.6346 -0.4600  0.7183
  881MPD2     C12969   1.154   0.271  17.638  0.2563 -0.5724  0.0499
  881MPD2    C112970   1.157   0.141  17.592 -0.1790  0.0747  0.8149
  881MPD2    C212971   1.113   0.043  17.683  0.2762  0.6070  0.0888
  881MPD2    C312972   1.104   0.075   0.061  0.4141  0.4885  0.1184
  881MPD2    C412973   1.130   0.202   0.101 -0.5103  0.2190  0.0284
  881MPD2    C512974   1.158   0.298   0.010 -0.3136  0.2560 -0.5323
  881MPD2     H12975   1.081   4.684  17.653  0.4233  0.6418 -0.1839
  881MPD2    H112976   1.133   0.227   0.206 -1.2289 -0.8378  0.2926
  881MPD2    H212977   1.184   0.351  17.571 -0.2394  0.9439  1.6510
  881MPD2    H312978   1.169   0.402   0.039 -0.3041  0.4037 -1.0591
  881MPD2     N12979   1.080   4.719   0.162  0.0863 -0.0480 -0.4215
  881MPD2    H512980   1.085   0.019   0.255 -0.8031 -1.1568  0.1048
  881MPD2    N112981   1.149   0.122  17.452 -0.0331 -0.0682  0.6129
  881MPD2    H712982   1.180   0.197  17.391  0.0856 -0.0359  0.7128
  882MPD2     C12983   4.388   1.450  14.256 -0.3072 -0.3817 -0.3517
  882MPD2    C112984   4.347   1.484  14.383 -0.4639 -0.3171  0.3039
  882MPD2    C212985   4.219   1.448  14.418 -0.9146 -0.3380  0.2876
  882MPD2    C312986   4.135   1.367  14.343 -0.0367  0.1000  0.8310
  882MPD2    C412987   4.185   1.331  14.216 -0.1658 -0.2206 -0.2131
  882MPD2    C512988   4.310   1.376  14.178  0.4247 -0.2552 -0.2736
  882MPD2     H12989   4.193   1.475  14.520 -2.2836 -0.0609 -0.1289
  882MPD2    H112990   4.125   1.281  14.142  1.2350  0.4360 -1.7913
  882MPD2    H212991   4.484   1.488  14.221 -1.9823  2.7050 -1.5671
  882MPD2    H312992   4.335   1.375  14.072 -3.6894 -0.3891 -1.2668
  882MPD2     N12993   4.014   1.306  14.383  0.0728  0.1899 -0.7964
  882MPD2    H512994   3.962   1.254  14.314 -0.3318  0.4610 -0.6987
  882MPD2    N112995   4.435   1.544  14.482  0.1738 -0.4634  0.0234
  882MPD2    H712996   4.532   1.561  14.457 -0.0878  0.7330 -0.1668
  883MPD2     C12997   1.452   1.363  16.387 -0.8028 -0.1596 -0.7338
  883MPD2    C112998   1.509   1.462  16.327  0.4588 -0.0793 -0.3087
  883MPD2    C212999   1.632   1.514  16.374  0.8395  0.0947 -0.3875
  883MPD2    C313000   1.699   1.448  16.483 -0.9212  0.0706 -0.0075
  883MPD2    C413001   1.638   1.338  16.538 -0.0564 -0.5161  0.9672
  883MPD2    C513002   1.516   1.296  16.487 -0.4494  0.7021 -0.4278
  883MPD2     H13003   1.675   1.600  16.324 -0.1616  0.4915 -0.5720
  883MPD2    H113004   1.678   1.274  16.615  0.9837 -1.5419 -0.4306
  883MPD2    H213005   1.356   1.320  16.361 -0.8798  0.0466 -0.7892
  883MPD2    H313006   1.474   1.204  16.526  3.0879 -0.9668 -0.5510
  883MPD2     N13007   1.823   1.495  16.534  0.5319  0.2877  1.1056
  883MPD2    H513008   1.861   1.580  16.494 -1.7842  1.2851  1.0428
  883MPD2    N113009   1.453   1.517  16.216  0.2049  0.5694 -0.9239
  883MPD2    H713010   1.502   1.593  16.169  2.1529 -1.2561 -1.8340
  884MPD2     C13011   2.845   2.133  15.120 -0.3596  0.7585 -0.1291
  884MPD2    C113012   2.923   2.148  15.004  0.7142  0.2596 -0.2183
  884MPD2    C213013   2.866   2.223  14.898  0.5781  0.5217 -0.0126
  884MPD2    C313014   2.733   2.267  14.905 -0.2649 -0.6440 -0.0804
  884MPD2    C413015   2.657   2.236  15.017 -0.5096  0.5552  0.8812
  884MPD2    C513016   2.712   2.180  15.126 -0.1832  0.0391 -0.7800
  884MPD2     H13017   2.919   2.255  14.809 -1.2207  0.6975 -1.0295
  884MPD2    H113018   2.549   2.243  15.025 -0.8168 -1.8134 -1.2277
  884MPD2    H213019   2.864   2.074  15.209 -1.5514  2.5729  1.3257
  884MPD2    H313020   2.651   2.150  15.211  2.3029 -0.0663  0.9716
  884MPD2     N13021   2.681   2.333  14.797  0.2443  0.4073 -0.0190
  884MPD2    H513022   2.741   2.346  14.716 -0.3485 -0.2050 -0.5589
  884MPD2    N113023   3.052   2.090  15.000 -0.3597 -0.2671 -0.0168
  884MPD2    H713024   3.103   2.095  14.912 -1.5734  3.8586 -0.4835
  885MPD2     C13025   1.504   3.114   0.550  0.1633  0.4080  0.2466
  885MPD2    C113026   1.619   3.047   0.521 -0.9243 -0.0707  0.4008
  885MPD2    C213027   1.649   3.011   0.387  0.3336 -0.4323 -0.2927
  885MPD2    C313028   1.558   3.038   0.287 -0.5812 -1.1136 -0.4060
  885MPD2    C413029   1.439   3.100   0.318  0.9049  0.1794  0.1732
  885MPD2    C513030   1.413   3.140   0.449 -0.8693  0.1635  0.4446
  885MPD2     H13031   1.746   2.972   0.359  1.2147  0.5914  1.2817
  885MPD2    H113032   1.353   3.112   0.252  0.8537 -1.2468 -0.0113
  885MPD2    H213033   1.489   3.154   0.650  0.0406 -0.2833  0.5008
  885MPD2    H313034   1.318   3.189   0.470 -1.9979 -1.8941  0.1291
  885MPD2     N13035   1.588   2.978   0.156 -0.6130 -0.5600  0.5203
  885MPD2    H513036   1.682   2.942   0.152 -0.0861  0.8689  0.1384
  885MPD2    N113037   1.701   3.021   0.632 -0.3100  0.1276  0.8791
  885MPD2    H713038   1.678   3.061   0.723 -0.2138  2.3841 -0.1100
  886MPD2     C13039   3.092   1.143  15.719  0.5409  0.5448 -0.7047
  886MPD2    C113040   3.129   1.020  15.656 -0.0691 -0.0483 -0.1578
  886MPD2    C213041   3.113   1.005  15.522  0.6489 -0.4005  0.9452
  886MPD2    C313042   3.079   1.115  15.448  0.4840 -0.1200 -0.5365
  886MPD2    C413043   3.056   1.239  15.508 -0.2112  1.1223 -0.5582
  886MPD2    C513044   3.051   1.251  15.643 -0.0382 -0.0007  0.6219
  886MPD2     H13045   3.144   0.910  15.480  2.4964  0.1019  1.1725
  886MPD2    H113046   3.041   1.328  15.449 -0.8267  0.2790 -1.6661
  886MPD2    H213047   3.072   1.135  15.826 -3.1088 -0.8721 -1.4952
  886MPD2    H313048   3.022   1.347  15.685 -1.5823 -0.1527 -0.1012
  886MPD2     N13049   3.084   1.108  15.309 -0.1657  0.7227 -0.2204
  886MPD2    H513050   3.100   1.015  15.270  1.3752  1.0549 -0.3864
  886MPD2    N113051   3.181   0.924  15.741  0.2518 -0.0339 -0.2960
  886MPD2    H713052   3.187   0.964  15.834  1.1827 -0.4697 -0.1779
  887MPD2     C13053   3.733   1.044  16.145  0.3260 -0.2548  0.9420
  887MPD2    C113054   3.626   1.069  16.065 -0.0174 -0.8073 -0.8806
  887MPD2    C213055   3.615   1.200  16.020  0.3011 -0.0515  0.9949
  887MPD2    C313056   3.712   1.295  16.048 -0.6015  0.2677 -0.7715
  887MPD2    C413057   3.824   1.263  16.121 -0.3227  0.1285 -0.5300
  887MPD2    C513058   3.831   1.138  16.164 -0.8063  0.3007  0.2308
  887MPD2     H13059   3.529   1.231  15.963  0.6141 -2.3452 -0.7260
  887MPD2    H113060   3.902   1.331  16.152 -0.3375  0.7658 -1.8907
  887MPD2    H213061   3.755   0.944  16.180  1.5313  0.2452  1.6144
  887MPD2    H313062   3.914   1.110  16.228 -0.3263  0.5491 -0.2708
  887MPD2     N13063   3.690   1.427  15.988  0.3074 -0.0354  0.0689
  887MPD2    H513064   3.601   1.445  15.942 -0.2464  1.0219  1.5479
  887MPD2    N113065   3.525   0.978  16.038  0.3030  0.4514 -0.3665
  887MPD2    H713066   3.451   1.002  15.972  0.1404  2.0585  0.4020
  888MPD2     C13067   0.811   1.204  14.747 -0.1394  0.1614  0.2035
  888MPD2    C113068   0.815   1.238  14.878  0.3404 -0.2168 -0.5721
  888MPD2    C213069   0.874   1.358  14.916 -0.1247  0.0694 -0.3502
  888MPD2    C313070   0.931   1.440  14.817  0.1011 -0.0122 -0.8608
  888MPD2    C413071   0.922   1.409  14.684  0.2301  0.3965 -0.8083
  888MPD2    C513072   0.861   1.290  14.652 -0.2387  0.1127  0.3745
  888MPD2     H13073   0.868   1.389  15.019 -0.9320  1.4808 -0.8250
  888MPD2    H113074   0.953   1.474  14.603  1.8180  0.9042  0.2053
  888MPD2    H213075   0.752   1.121  14.710 -0.5022  0.1401  0.8315
  888MPD2    H313076   0.850   1.262  14.548  1.2379 -3.2891  1.1291
  888MPD2     N13077   0.992   1.555  14.864  0.1711  0.9889  0.0799
  888MPD2    H513078   0.983   1.577  14.963 -0.3067 -1.1438  0.5025
  888MPD2    N113079   0.751   1.158  14.981  0.3883 -0.5931  0.3326
  888MPD2    H713080   0.739   1.206  15.069  3.7836  2.4437 -0.8637
  889MPD2     C13081   4.288   0.203  13.803 -0.1549 -0.7588  0.0859
  889MPD2    C113082   4.416   0.204  13.746 -0.2101  0.4004  0.0260
  889MPD2    C213083   4.478   0.329  13.769 -0.7978 -0.0103 -0.2490
  889MPD2    C313084   4.417   0.428  13.833  0.0622 -0.2192 -0.0004
  889MPD2    C413085   4.289   0.419  13.883 -0.4495 -0.2986  0.3483
  889MPD2    C513086   4.223   0.301  13.873 -0.1968  0.0821 -0.0076
  889MPD2     H13087   4.551   0.367  13.698  1.6848 -0.7811  1.8637
  889MPD2    H113088   4.232   0.504  13.918 -1.4474 -1.5032  1.6407
  889MPD2    H213089   4.223   0.117  13.788 -5.0682  2.6029  2.0871
  889MPD2    H313090   4.119   0.284  13.896  0.1568 -0.8511  0.8919
  889MPD2     N13091   4.486   0.552  13.850  0.5403  0.4152 -0.1856
  889MPD2    H513092   4.423   0.620  13.891  0.9144  1.3406 -1.1478
  889MPD2    N113093   4.451   0.116  13.640  0.3238 -0.4375  0.3976
  889MPD2    H713094   4.379   0.053  13.606 -0.8416  1.0231  0.1625
  890MPD2     C13095   4.531   2.014  14.573 -0.4545  0.0168 -0.3639
  890MPD2    C113096   4.520   2.126  14.658  0.5213  0.6927  0.4636
  890MPD2    C213097   4.560   2.114  14.790 -0.2536 -0.1116  0.2016
  890MPD2    C313098   4.619   1.995  14.832  0.4331  0.3445  0.1036
  890MPD2    C413099   4.637   1.891  14.741 -0.4475  0.2638  0.1311
  890MPD2    C513100   4.590   1.901  14.617  0.1100  0.1691  0.2739
  890MPD2     H13101   4.567   2.201  14.854  0.9229 -0.1241  0.0815
  890MPD2    H113102   4.661   1.792  14.779 -0.5879  0.5866  1.0740
  890MPD2    H213103   4.505   2.015  14.468 -1.3660  2.0882 -0.1248
  890MPD2    H313104   4.595   1.815  14.551 -2.1761  1.0282 -1.0487
  890MPD2     N13105   4.641   1.981  14.969 -0.3302  0.0176  0.4355
  890MPD2    H513106   4.623   2.053  15.038  0.5689  0.0532  0.6211
  890MPD2    N113107   4.478   2.243  14.593 -0.1602 -0.0242  0.4432
  890MPD2    H713108   4.470   2.245  14.492  1.6705  1.6087  0.3095
  891MPD2     C13109   2.357   0.498  16.644 -0.1722  0.3684  0.4065
  891MPD2    C113110   2.391   0.628  16.658 -0.0432  0.2586 -0.0480
  891MPD2    C213111   2.513   0.667  16.708 -0.6522  0.0357  0.5865
  891MPD2    C313112   2.591   0.572  16.768  0.2143  0.7200 -0.1084
  891MPD2    C413113   2.558   0.433  16.766 -0.3058 -0.0635 -0.5398
  891MPD2    C513114   2.440   0.395  16.706  0.6746 -0.0354  0.2096
  891MPD2     H13115   2.539   0.772  16.717  1.2696 -0.4426  0.8301
  891MPD2    H113116   2.620   0.355  16.808 -0.1271  0.2664 -0.1919
  891MPD2    H213117   2.266   0.468  16.594  0.5337 -0.3907 -0.4035
  891MPD2    H313118   2.422   0.291  16.683  1.9210 -0.8144  2.7275
  891MPD2     N13119   2.711   0.617  16.825  0.5743  0.1320 -0.1097
  891MPD2    H513120   2.741   0.708  16.792  2.0947  0.2440  1.5795
  891MPD2    N113121   2.305   0.721  16.614 -0.2302  0.6892  0.6550
  891MPD2    H713122   2.215   0.689  16.578 -0.3832  1.6989  0.1428
  892MPD2     C13123   3.549   1.486  15.313 -0.2882  0.6740 -0.2518
  892MPD2    C113124   3.463   1.474  15.205 -0.3583  0.3876 -0.0348
  892MPD2    C213125   3.504   1.418  15.085  0.2680  0.2466 -0.2752
  892MPD2    C313126   3.635   1.364  15.076 -0.0611  0.3380 -0.0108
  892MPD2    C413127   3.713   1.377  15.185 -0.3100 -0.4599 -0.7892
  892MPD2    C513128   3.674   1.436  15.299 -0.3904 -0.7755 -0.3751
  892MPD2     H13129   3.426   1.410  15.010  1.8078 -2.8220 -1.5609
  892MPD2    H113130   3.811   1.329  15.185 -1.6931 -3.2916 -0.2516
  892MPD2    H213131   3.529   1.544  15.403 -0.7930  0.4331 -0.2049
  892MPD2    H313132   3.745   1.452  15.379  1.2420  1.5661 -2.2986
  892MPD2     N13133   3.679   1.312  14.950 -0.6185 -0.2388  0.4077
  892MPD2    H513134   3.776   1.285  14.939 -0.6416  0.0737 -0.5749
  892MPD2    N113135   3.334   1.529  15.192 -0.1490  0.6436 -0.0410
  892MPD2    H713136   3.300   1.529  15.097 -0.5547 -0.8603  0.1049
  893MPD2     C13137   0.188   4.483   0.520  0.3471  0.2485  0.0471
  893MPD2    C113138   0.252   4.525   0.633  0.9671  0.3197 -0.5509
  893MPD2    C213139   0.219   4.481   0.757  0.2510 -0.3226 -0.2016
  893MPD2    C313140   0.119   4.390   0.774  0.0078  0.4645 -0.4243
  893MPD2    C413141   0.056   4.344   0.657 -0.3246  0.0840  0.2401
  893MPD2    C513142   0.086   4.395   0.532 -0.2069 -0.1712  0.0825
  893MPD2     H13143   0.275   4.500   0.847 -0.0592 -0.8202  0.0931
  893MPD2    H113144   4.711   4.278   0.673 -0.2682 -0.5608 -2.1265
  893MPD2    H213145   0.221   4.516   0.422 -0.1216 -0.3249 -0.3080
  893MPD2    H313146   0.023   4.369   0.449 -2.1295  1.1029  1.1340
  893MPD2     N13147   0.080   4.334   0.898 -0.0050  0.0904 -0.8425
  893MPD2    H513148   0.005   4.266   0.894  1.3948 -1.4904 -0.1666
  893MPD2    N113149   0.358   4.612   0.609  0.0091 -0.0449 -0.6079
  893MPD2    H713150   0.372   4.620   0.508 -0.5777 -1.0170 -0.7646
  894MPD2     C13151   3.283   2.604   0.675 -0.0350  0.3994  0.5260
  894MPD2    C113152   3.314   2.672   0.794  1.2228  0.1944 -0.0180
  894MPD2    C213153   3.363   2.797   0.780  0.4479  0.0065 -0.1920
  894MPD2    C313154   3.381   2.851   0.657  0.4660  0.0053 -0.0897
  894MPD2    C413155   3.320   2.798   0.546 -0.0959 -0.2577 -0.1893
  894MPD2    C513156   3.268   2.669   0.556 -0.7313  0.2282 -0.8148
  894MPD2     H13157   3.398   2.856   0.864 -1.3310  0.0175  0.5394
  894MPD2    H113158   3.319   2.851   0.451 -1.6791  1.2477  0.6552
  894MPD2    H213159   3.248   2.501   0.678  0.0130  0.3601 -0.3512
  894MPD2    H313160   3.232   2.616   0.469 -1.1180 -0.3123 -0.3277
  894MPD2     N13161   3.444   2.975   0.651 -0.5130  0.2717 -0.0281
  894MPD2    H513162   3.475   3.012   0.741  0.6992  0.7490 -0.6422
  894MPD2    N113163   3.308   2.620   0.922  0.0445  0.4371  0.6990
  894MPD2    H713164   3.338   2.683   0.995 -0.6302 -0.4613  1.7568
  895MPD2     C13165   2.232   1.174  13.869  0.2764  0.1835  0.1945
  895MPD2    C113166   2.217   1.124  13.739  0.1727  0.0178  0.4886
  895MPD2    C213167   2.326   1.068  13.685 -0.3504  1.1231  0.4393
  895MPD2    C313168   2.448   1.055  13.745 -0.6105 -0.1274  0.4540
  895MPD2    C413169   2.457   1.102  13.873 -0.8041  0.1436  0.5904
  895MPD2    C513170   2.355   1.167  13.934 -0.1187 -0.2758 -0.0760
  895MPD2     H13171   2.316   1.018  13.589 -1.5606 -1.3675  1.8493
  895MPD2    H113172   2.553   1.106  13.923  0.2968  0.7802 -1.5403
  895MPD2    H213173   2.147   1.217  13.922 -0.1347 -0.0914 -0.2449
  895MPD2    H313174   2.373   1.201  14.035 -0.2258  0.5319 -0.3280
  895MPD2     N13175   2.565   0.985  13.703  0.1167 -0.3379  0.4044
  895MPD2    H513176   2.629   0.960  13.779  1.1190  1.2281  0.0931
  895MPD2    N113177   2.090   1.120  13.680 -0.5326  0.1801 -0.1370
  895MPD2    H713178   2.087   1.054  13.603 -1.0014 -0.0242  0.0546
  896MPD2     C13179   0.411   3.001   1.316 -0.5140  0.2304 -0.1081
  896MPD2    C113180   0.352   3.123   1.290  0.0077 -0.0838  0.2094
  896MPD2    C213181   0.236   3.122   1.209  0.1709  0.4588 -0.1465
  896MPD2    C313182   0.176   3.006   1.171 -0.0550 -0.0884  0.4906
  896MPD2    C413183   0.228   2.889   1.208 -0.0844 -0.6060  0.5094
  896MPD2    C513184   0.349   2.882   1.269  0.1625 -0.8396  0.2325
  896MPD2     H13185   0.204   3.222   1.185 -0.1860  0.1541 -0.9542
  896MPD2    H113186   0.187   2.795   1.174 -1.8937  0.9330 -1.5276
  896MPD2    H213187   0.496   2.993   1.383 -0.0943  1.3697 -0.5164
  896MPD2    H313188   0.391   2.782   1.276  0.3556 -0.9291 -2.1114
  896MPD2     N13189   0.047   3.016   1.108 -0.2425 -0.4310 -0.1809
  896MPD2    H513190   0.023   3.110   1.076 -0.1739  0.7047  3.1503
  896MPD2    N113191   0.410   3.238   1.345 -0.7654  0.9002 -0.2285
  896MPD2    H713192   0.500   3.227   1.390 -1.2541 -0.8468  0.3319
  897MPD2     C13193   1.069   0.479  10.394 -1.0011 -0.5669 -0.1341
  897MPD2    C113194   1.117   0.608  10.402 -0.2541 -0.6042  0.5897
  897MPD2    C213195   1.103   0.679  10.518  0.1220  0.1629 -0.1655
  897MPD2    C313196   1.026   0.631  10.625  0.1332  0.1986  0.1773
  897MPD2    C413197   0.966   0.502  10.610 -0.1110  0.1491  0.1202
  897MPD2    C513198   0.997   0.426  10.497 -1.0631  0.1665  0.6634
  897MPD2     H13199   1.137   0.782  10.521  0.7284 -0.0528  0.2554
  897MPD2    H113200   0.891   0.458  10.676  0.9375  0.0548  1.2457
  897MPD2    H213201   1.083   0.430  10.298 -0.0943 -0.6660  0.0522
  897MPD2    H313202   0.946   0.331  10.489  1.7789 -1.2771 -0.1800
  897MPD2     N13203   0.992   0.710  10.734 -0.1522 -0.6216 -0.0586
  897MPD2    H513204   1.023   0.806  10.736 -0.5910 -0.4336 -2.4140
  897MPD2    N113205   1.191   0.668  10.295 -0.0011  0.2915  0.2835
  897MPD2    H713206   1.253   0.746  10.313 -0.7760  0.5397  1.9028
  898MPD2     C13207   2.258   1.272  17.705 -0.7096 -0.5824  0.1922
  898MPD2    C113208   2.388   1.241  17.722 -0.1784  0.0294  0.1081
  898MPD2    C213209   2.484   1.342  17.713  0.5287  0.0150 -0.1631
  898MPD2    C313210   2.449   1.471  17.705  0.2253  0.2795 -0.2046
  898MPD2    C413211   2.318   1.505  17.669 -0.5026  0.1707 -0.0741
  898MPD2    C513212   2.227   1.403  17.671 -0.9859 -0.6166  0.6655
  898MPD2     H13213   2.585   1.306  17.730  1.6964  4.5723  2.4801
  898MPD2    H113214   2.291   1.606  17.641  1.0189  1.0179  1.4834
  898MPD2    H213215   2.182   1.196  17.693 -0.8230 -0.4485  0.0424
  898MPD2    H313216   2.126   1.426  17.640  0.0421  1.8556 -0.9478
  898MPD2     N13217   2.552   1.568  17.703 -0.1943 -0.1409  0.4940
  898MPD2    H513218   2.644   1.526  17.714  0.6457  1.2996 -1.0063
  898MPD2    N113219   2.432   1.105  17.746 -0.1129  0.0145 -0.0891
  898MPD2    H713220   2.532   1.092   0.006 -0.6503 -3.9113  0.0729
  899MPD2     C13221   3.597   1.933  16.709  0.0638 -0.1971 -0.4209
  899MPD2    C113222   3.631   1.997  16.830  0.6188  0.4714  0.4467
  899MPD2    C213223   3.612   1.940  16.951  0.7049 -0.2692 -0.2979
  899MPD2    C313224   3.581   1.804  16.957  0.1214 -0.7419 -0.2544
  899MPD2    C413225   3.567   1.744  16.836  0.4128 -0.0250 -0.1708
  899MPD2    C513226   3.578   1.801  16.710  0.4459  0.4385 -0.3147
  899MPD2     H13227   3.625   1.999  17.041  1.7285 -2.1317  0.7848
  899MPD2    H113228   3.537   1.640  16.838 -2.3197  0.7707 -0.7623
  899MPD2    H213229   3.599   1.987  16.615  0.3694 -0.8289 -0.7809
  899MPD2    H313230   3.550   1.743  16.623 -0.2927  1.4593 -0.7612
  899MPD2     N13231   3.578   1.720  17.069  0.0992 -0.1509 -1.0700
  899MPD2    H513232   3.585   1.621  17.048  0.8764  0.2149 -2.5526
  899MPD2    N113233   3.669   2.133  16.824 -0.0252  0.0743  0.0045
  899MPD2    H713234   3.682   2.160  16.727 -0.6907  0.2755 -0.0298
  900MPD2     C13235   3.527   3.347  12.604  1.0469  0.9130  0.2195
  900MPD2    C113236   3.498   3.209  12.595  0.1678  0.2995  0.0762
  900MPD2    C213237   3.392   3.172  12.511  0.6762  0.0794  0.1601
  900MPD2    C313238   3.318   3.268  12.448  0.3172 -0.2442 -0.1297
  900MPD2    C413239   3.342   3.403  12.477 -0.1316  0.1595 -0.5010
  900MPD2    C513240   3.448   3.439  12.554  0.6536 -0.0868 -0.1755
  900MPD2     H13241   3.370   3.068  12.492 -1.7471  0.5957  0.0313
  900MPD2    H113242   3.280   3.481  12.435 -0.5631  0.3867  0.5666
  900MPD2    H213243   3.600   3.396  12.668 -1.3870  0.9871  2.9595
  900MPD2    H313244   3.469   3.542  12.578  0.2304  0.1218 -0.6756
  900MPD2     N13245   3.219   3.219  12.360  0.1313  0.6058  0.7369
  900MPD2    H513246   3.212   3.118  12.355 -0.0239  0.7825 -2.2656
  900MPD2    N113247   3.577   3.111  12.649  0.3608  0.1834 -0.0974
  900MPD2    H713248   3.548   3.014  12.647  4.5863 -1.0857 -0.3285
  901MPD2     C13249   3.559   2.214  12.945  0.0468 -1.4042 -0.0891
  901MPD2    C113250   3.694   2.219  12.960  0.7602 -0.6372  0.0121
  901MPD2    C213251   3.749   2.342  12.944  0.7437 -0.3225 -0.0307
  901MPD2    C313252   3.683   2.457  12.894  0.0701 -0.0167  0.1077
  901MPD2    C413253   3.551   2.438  12.856  0.5571  0.6974 -0.4598
  901MPD2    C513254   3.488   2.322  12.901 -0.4807  0.5876 -0.0033
  901MPD2     H13255   3.856   2.356  12.951  1.0665 -1.6915 -2.2691
  901MPD2    H113256   3.486   2.514  12.814  0.1410  1.1474  0.9893
  901MPD2    H213257   3.507   2.122  12.970 -1.5582 -0.0260  1.6044
  901MPD2    H313258   3.380   2.314  12.899 -0.3951 -0.4802 -0.5991
  901MPD2     N13259   3.749   2.585  12.896 -0.4729  0.5818  0.0648
  901MPD2    H513260   3.850   2.584  12.894 -0.4568 -0.3252  0.9771
  901MPD2    N113261   3.758   2.096  12.991 -0.4229  0.7685 -0.1551
  901MPD2    H713262   3.705   2.015  13.021  1.1243 -0.0895  0.2850
  902MPD2     C13263   2.540   1.210  12.544  0.2797  0.1519  0.5802
  902MPD2    C113264   2.573   1.215  12.410 -0.6008  0.0806  0.7214
  902MPD2    C213265   2.669   1.117  12.372 -0.1342 -0.1858  0.2746
  902MPD2    C313266   2.725   1.032  12.463 -0.9848  0.3708  0.2506
  902MPD2    C413267   2.690   1.026  12.595 -0.3932 -0.2052 -0.3027
  902MPD2    C513268   2.605   1.124  12.636  0.2397  0.3127 -0.1364
  902MPD2     H13269   2.704   1.119  12.270 -0.9932 -1.0648 -0.0363
  902MPD2    H113270   2.726   0.968  12.679 -1.4358  0.7734  0.8089
  902MPD2    H213271   2.462   1.274  12.584  0.1192 -0.9378  1.9889
  902MPD2    H313272   2.570   1.138  12.737  1.3084 -0.3573  0.3251
  902MPD2     N13273   2.818   0.930  12.430 -0.5131  0.2258  0.3727
  902MPD2    H513274   2.826   0.841  12.478  1.5007 -1.1249 -2.4727
  902MPD2    N113275   2.507   1.313  12.317  0.0280  0.1350 -0.8650
  902MPD2    H713276   2.446   1.379  12.363  0.9774  0.7296 -0.4463
  903MPD2     C13277   2.645   0.496  11.752 -0.9724  0.1200  0.4403
  903MPD2    C113278   2.621   0.557  11.873 -0.5021  0.0039  1.1006
  903MPD2    C213279   2.498   0.622  11.893  0.5565  0.2962 -0.5326
  903MPD2    C313280   2.402   0.631  11.789  0.3680 -0.1276  0.2854
  903MPD2    C413281   2.436   0.565  11.670 -0.0419  0.5255 -0.0254
  903MPD2    C513282   2.553   0.496  11.652  0.7259 -0.5108 -0.0160
  903MPD2     H13283   2.468   0.662  11.989  0.8676 -1.4066  0.2779
  903MPD2    H113284   2.359   0.559  11.594 -1.7246 -0.0674  1.7368
  903MPD2    H213285   2.738   0.441  11.739 -0.0277  1.7791  0.2122
  903MPD2    H313286   2.581   0.442  11.562  0.0757  0.4485 -0.7871
  903MPD2     N13287   2.282   0.709  11.797 -0.2341  0.2856 -0.0071
  903MPD2    H513288   2.245   0.728  11.890 -2.6032  2.0803 -1.3457
  903MPD2    N113289   2.727   0.564  11.962  0.0439 -0.2902  0.2956
  903MPD2    H713290   2.813   0.523  11.927  0.3618  0.7623 -0.1620
  904MPD2     C13291   2.448   0.274  14.094  0.1416 -0.3665  0.3582
  904MPD2    C113292   2.458   0.381  13.999 -0.2358 -0.2191  0.3551
  904MPD2    C213293   2.579   0.424  13.952  0.1062  0.6377  0.6309
  904MPD2    C313294   2.695   0.383  14.015  0.6539  0.8524 -0.5181
  904MPD2    C413295   2.688   0.293  14.119  0.2336  0.0898 -0.2419
  904MPD2    C513296   2.567   0.240  14.151 -0.2453 -0.4385 -0.0859
  904MPD2     H13297   2.583   0.490  13.866 -0.1022 -1.8043 -1.2509
  904MPD2    H113298   2.775   0.255  14.171 -0.5836 -1.8526 -0.2805
  904MPD2    H213299   2.353   0.231  14.125  0.1906 -0.7693 -0.0426
  904MPD2    H313300   2.568   0.161  14.225  1.0390 -2.7624 -2.5682
  904MPD2     N13301   2.815   0.434  13.969  0.0910  0.0260 -0.3320
  904MPD2    H513302   2.812   0.482  13.879  0.6677 -0.0505 -0.3892
  904MPD2    N113303   2.344   0.447  13.939  0.0561  0.2081 -0.2227
  904MPD2    H713304   2.374   0.514  13.868 -0.6390  0.4810 -0.2543
  905MPD2     C13305   2.212   0.526  13.253  1.1187  0.3414 -0.1193
  905MPD2    C113306   2.233   0.620  13.353 -0.1012  0.0073  0.3420
  905MPD2    C213307   2.330   0.711  13.341 -0.6440  0.1086  0.0152
  905MPD2    C313308   2.410   0.721  13.235 -1.0753 -0.2332 -0.5601
  905MPD2    C413309   2.391   0.633  13.133  0.5298 -0.0425 -0.6743
  905MPD2    C513310   2.295   0.535  13.144 -0.2861  0.3547  0.4194
  905MPD2     H13311   2.357   0.780  13.420  0.5006 -1.6018  1.1132
  905MPD2    H113312   2.458   0.617  13.049  1.0651 -3.4061  0.3900
  905MPD2    H213313   2.146   0.442  13.272  0.9964  0.5835  0.5350
  905MPD2    H313314   2.282   0.465  13.062 -1.0856  0.3900  0.5195
  905MPD2     N13315   2.529   0.802  13.252 -0.3361  0.4749  0.1010
  905MPD2    H513316   2.529   0.862  13.334 -0.1986  0.3621  0.1831
  905MPD2    N113317   2.180   0.600  13.483  0.4429 -0.7023  0.7238
  905MPD2    H713318   2.143   0.510  13.512 -1.3805 -0.0004  0.5749
  906MPD2     C13319   4.582   0.670  11.386  0.1993  0.1497 -0.3295
  906MPD2    C113320   4.632   0.633  11.261 -0.2000  0.1191 -0.0695
  906MPD2    C213321   4.665   0.497  11.236  0.6144 -0.2538 -0.0091
  906MPD2    C313322   4.647   0.400  11.333  0.3471 -0.4800  0.5896
  906MPD2    C413323   4.607   0.436  11.457 -0.4260  0.1895  0.2933
  906MPD2    C513324   4.576   0.572  11.482  0.3087 -0.4740 -0.1764
  906MPD2     H13325   4.693   0.463  11.137  1.6936 -0.6026  0.4110
  906MPD2    H113326   4.595   0.354  11.526 -0.7476 -1.0507 -1.2305
  906MPD2    H213327   4.553   0.769  11.419 -0.6166 -0.8976  2.1136
  906MPD2    H313328   4.548   0.599  11.583  0.2818  2.2905 -0.9372
  906MPD2     N13329   4.681   0.267  11.317  0.3037 -0.2518  0.7064
  906MPD2    H513330   4.652   0.202  11.390 -0.2476 -1.6969 -0.8072
  906MPD2    N113331   4.642   0.729  11.149  0.1421 -0.7214 -0.3186
  906MPD2    H713332   4.660   0.683  11.061 -1.3270  0.0237 -1.0057
  907MPD2     C13333   3.185   0.001  16.050  0.3639 -0.0136 -0.3582
  907MPD2    C113334   3.199   4.614  15.997  0.0279  0.1095  0.2315
  907MPD2    C213335   3.259   4.514  16.069  0.4338 -0.9703  0.5860
  907MPD2    C313336   3.290   4.544  16.205  0.2711 -0.4870  0.0712
  907MPD2    C413337   3.265   4.671  16.255  0.0531 -0.2574  0.0688
  907MPD2    C513338   3.229   0.024  16.171  0.1393 -0.1976  0.7507
  907MPD2     H13339   3.292   4.420  16.027 -2.0528 -0.2648 -2.8906
  907MPD2    H113340   3.306   4.706  16.349 -0.0622 -0.2313  0.1091
  907MPD2    H213341   3.159   0.087  15.989  0.1100 -1.7521 -2.6945
  907MPD2    H313342   3.238   0.125  16.210 -0.5542 -0.3247  1.2398
  907MPD2     N13343   3.338   4.438  16.281  0.0044  0.1234 -0.0807
  907MPD2    H513344   3.374   4.357  16.231 -1.5894  0.3221 -1.5313
  907MPD2    N113345   3.168   4.585  15.864  0.0172  0.0169  0.2839
  907MPD2    H713346   3.197   4.493  15.831  0.6281 -0.9603  3.5446
  908MPD2     C13347   1.060   0.938   9.325  0.6899  0.0784  0.0787
  908MPD2    C113348   1.052   0.800   9.359 -0.4116 -0.0947 -0.2640
  908MPD2    C213349   1.113   0.763   9.480 -0.0129 -0.8596  0.0062
  908MPD2    C313350   1.163   0.853   9.567  0.2868  0.1070 -0.2903
  908MPD2    C413351   1.153   0.990   9.531  0.3989  0.7837 -0.2629
  908MPD2    C513352   1.101   1.031   9.415 -0.0779 -0.2737 -0.5913
  908MPD2     H13353   1.128   0.661   9.514  0.8117 -1.3416 -1.8159
  908MPD2    H113354   1.199   1.068   9.591 -0.3462  1.6547 -0.8267
  908MPD2    H213355   1.019   0.967   9.229  0.7438 -2.4812 -0.7174
  908MPD2    H313356   1.090   1.136   9.391 -0.8078  0.4054  2.7005
  908MPD2     N13357   1.226   0.805   9.684  0.1448  0.0095  0.4364
  908MPD2    H513358   1.214   0.706   9.704 -0.7681  0.1010  0.3522
  908MPD2    N113359   0.990   0.718   9.267  0.1596  0.1113  0.1916
  908MPD2    H713360   0.935   0.773   9.202  0.6871  0.5689  0.1386
  909MPD2     C13361   2.198   3.519  11.321 -0.0630  0.1422  0.5837
  909MPD2    C113362   2.105   3.587  11.243  0.9653 -0.0646  0.3816
  909MPD2    C213363   1.982   3.629  11.301 -0.6990 -0.4570 -0.8129
  909MPD2    C313364   1.953   3.606  11.435  0.5797 -0.4132 -0.0157
  909MPD2    C413365   2.051   3.543  11.508  0.6422  0.4747  0.1595
  909MPD2    C513366   2.160   3.495  11.451 -0.2461 -0.2060 -0.5089
  909MPD2     H13367   1.912   3.672  11.230 -0.5227  0.5109 -0.4043
  909MPD2    H113368   2.043   3.512  11.611 -0.0370  0.6540  0.1596
  909MPD2    H213369   2.294   3.482  11.287  0.1603  0.7442  0.5555
  909MPD2    H313370   2.233   3.454  11.520  0.3051 -1.7152 -1.9817
  909MPD2     N13371   1.823   3.625  11.488 -0.2148  0.6133 -0.1405
  909MPD2    H513372   1.747   3.647  11.425 -1.4249 -0.0725  1.0711
  909MPD2    N113373   2.123   3.614  11.109 -0.4360 -0.1886  0.7657
  909MPD2    H713374   2.062   3.678  11.060 -2.9793 -1.4851  2.2666
  910MPD2     C13375   2.732   0.561  16.270  0.1152 -0.0127 -0.1148
  910MPD2    C113376   2.754   0.443  16.201 -0.3052  0.5725  0.1916
  910MPD2    C213377   2.700   0.431  16.074  0.3905 -0.1726  0.2402
  910MPD2    C313378   2.613   0.529  16.025  0.2305 -0.1103  0.4379
  910MPD2    C413379   2.588   0.644  16.102  0.1947 -0.2269  0.1442
  910MPD2    C513380   2.646   0.660  16.223  1.2462  0.0827  0.1223
  910MPD2     H13381   2.729   0.352  16.006  1.9210 -1.8544  2.8543
  910MPD2    H113382   2.546   0.732  16.055  2.0069 -0.1622 -1.3273
  910MPD2    H213383   2.780   0.583  16.365  2.3059  1.4938 -1.5585
  910MPD2    H313384   2.631   0.747  16.287  1.8389  0.2137  0.0845
  910MPD2     N13385   2.552   0.528  15.898  0.1314  0.4295 -0.9346
  910MPD2    H513386   2.484   0.600  15.880  0.0674  0.5799 -0.0721
  910MPD2    N113387   2.826   0.326  16.246  0.1916 -0.1409 -0.1460
  910MPD2    H713388   2.849   0.253  16.180  2.2624  0.5060 -0.1416
  911MPD2     C13389   0.715   0.803  15.979 -0.3563  0.2195 -0.2252
  911MPD2    C113390   0.757   0.844  16.101  0.5535  0.7220  0.0433
  911MPD2    C213391   0.690   0.955  16.154  0.3103  0.4523  0.2285
  911MPD2    C313392   0.582   1.008  16.090 -0.6515 -0.1864  0.6780
  911MPD2    C413393   0.530   0.953  15.974  0.3648  0.0657  0.0398
  911MPD2    C513394   0.611   0.859  15.914  0.5216  0.2848 -0.6936
  911MPD2     H13395   0.732   1.006  16.240  0.1250  0.3177  0.3981
  911MPD2    H113396   0.445   0.995  15.922  1.8864 -1.3022 -3.5804
  911MPD2    H213397   0.760   0.717  15.931 -0.0796  0.2029  0.0640
  911MPD2    H313398   0.607   0.812  15.817 -0.6727 -0.4706 -0.2779
  911MPD2     N13399   0.514   1.122  16.145  0.5038 -0.3121 -0.1162
  911MPD2    H513400   0.427   1.154  16.102  1.9708  1.6014 -1.6806
  911MPD2    N113401   0.878   0.786  16.151 -0.6245  0.2223 -0.1283
  911MPD2    H713402   0.917   0.710  16.097 -0.5707 -0.0303  0.2675
  912MPD2     C13403   0.272   1.140  15.686  0.1689  0.4958 -0.1358
  912MPD2    C113404   0.210   1.138  15.817  0.0732 -0.1734 -0.5856
  912MPD2    C213405   0.181   1.014  15.868  0.0159  0.2990  0.5761
  912MPD2    C313406   0.222   0.895  15.810  0.3723 -0.0220 -0.3078
  912MPD2    C413407   0.256   0.903  15.680 -0.1563  1.3525  0.2686
  912MPD2    C513408   0.291   1.022  15.626 -0.2723  0.1212  0.9372
  912MPD2     H13409   0.125   1.010  15.961 -0.4053 -0.9273  0.2819
  912MPD2    H113410   0.275   0.822  15.610 -1.2879 -0.7143  2.3446
  912MPD2    H213411   0.318   1.225  15.636 -1.4123  0.7715 -1.1258
  912MPD2    H313412   0.337   1.027  15.528 -0.1561 -1.0280  0.9372
  912MPD2     N13413   0.220   0.776  15.887  0.9723 -0.0664  0.5117
  912MPD2    H513414   0.180   0.781  15.980 -2.1522  0.3472 -0.8771
  912MPD2    N113415   0.213   1.259  15.890 -0.1613  0.1184 -0.4635
  912MPD2    H713416   0.265   1.336  15.850 -0.8717 -0.3786 -2.3109
  913MPD2     C13417   0.422   2.509  10.162 -0.1615  0.1769 -0.1314
  913MPD2    C113418   0.510   2.581  10.238 -0.3045 -0.0304 -0.1154
  913MPD2    C213419   0.525   2.717  10.220 -0.3721 -0.7982 -0.0850
  913MPD2    C313420   0.457   2.788  10.126 -0.4372  0.1790  0.2969
  913MPD2    C413421   0.377   2.711  10.048 -0.5708 -0.0394 -0.2409
  913MPD2    C513422   0.359   2.576  10.069  0.7718  0.3885 -0.7707
  913MPD2     H13423   0.595   2.770  10.283 -1.4434  1.5250 -0.8455
  913MPD2    H113424   0.318   2.757   9.970  2.3240  2.2755 -1.0653
  913MPD2    H213425   0.400   2.404  10.179 -0.8181  0.1353 -1.2121
  913MPD2    H313426   0.299   2.521   9.997 -1.3092  0.6631  0.7613
  913MPD2     N13427   0.477   2.924  10.087  0.1143  0.4179  0.2983
  913MPD2    H513428   0.441   2.947   9.995  1.7140 -0.4367 -0.5351
  913MPD2    N113429   0.587   2.496  10.330 -0.7516  0.4316  0.3170
  913MPD2    H713430   0.558   2.399  10.334  0.4379  0.0235 -0.8457
  914MPD2     C13431   4.416   2.167  12.607 -0.5995 -0.4622  0.0190
  914MPD2    C113432   4.301   2.230  12.658 -0.6615 -0.2067 -0.1478
  914MPD2    C213433   4.240   2.174  12.763  0.3930 -0.3662 -0.1412
  914MPD2    C313434   4.293   2.062  12.823 -0.4075 -0.5983  0.2343
  914MPD2    C413435   4.412   2.012  12.780  0.3771 -0.6208  0.3346
  914MPD2    C513436   4.471   2.063  12.664  0.3120  0.2050  0.2306
  914MPD2     H13437   4.155   2.217  12.813  1.4688 -0.6706  1.9739
  914MPD2    H113438   4.456   1.927  12.831  2.3246  1.0131  1.4282
  914MPD2    H213439   4.459   2.217  12.520 -0.9700 -1.4765 -0.7478
  914MPD2    H313440   4.557   2.010  12.624  0.1305  0.1739 -0.1234
  914MPD2     N13441   4.225   2.025  12.941  0.0732 -0.2621 -0.1074
  914MPD2    H513442   4.143   2.080  12.966  1.0863 -0.1014  2.8782
  914MPD2    N113443   4.260   2.353  12.604  0.0201 -0.1656 -0.4318
  914MPD2    H713444   4.318   2.408  12.541  0.0752  0.4029  0.1213
  915MPD2     C13445   1.722   2.074  16.059 -0.6230  0.1736  0.0912
  915MPD2    C113446   1.680   2.157  15.960  0.0083  0.3851 -0.7241
  915MPD2    C213447   1.624   2.273  16.003  0.6086 -0.1909  0.0752
  915MPD2    C313448   1.600   2.301  16.135 -0.0874 -0.4213  0.0739
  915MPD2    C413449   1.653   2.215  16.232  0.2566  0.0787 -0.0786
  915MPD2    C513450   1.709   2.104  16.192 -0.1940  0.2168  0.1506
  915MPD2     H13451   1.587   2.349  15.934  0.5792  0.2696  0.5963
  915MPD2    H113452   1.648   2.227  16.340 -0.2505 -2.9493  0.2291
  915MPD2    H213453   1.757   1.974  16.036 -0.1565  0.2420  0.4937
  915MPD2    H313454   1.748   2.030  16.260 -0.2083 -0.6781 -0.8151
  915MPD2     N13455   1.544   2.427  16.169 -0.4150  0.0372  0.5131
  915MPD2    H513456   1.502   2.476  16.091  0.7917 -0.1065 -0.2335
  915MPD2    N113457   1.693   2.119  15.821 -0.7877  0.0833 -0.2043
  915MPD2    H713458   1.757   2.042  15.805 -0.2966  0.2733  0.8555
  916MPD2     C13459   4.640   0.618  15.871 -0.2001  0.0483 -0.1517
  916MPD2    C113460   4.663   0.523  15.968  0.4189  0.1391 -0.5755
  916MPD2    C213461   0.001   0.415  15.938  0.0353  1.2546 -0.1457
  916MPD2    C313462   0.053   0.399  15.812 -0.3040  0.1817 -0.2652
  916MPD2    C413463   0.043   0.508  15.724 -0.1579 -0.2885  0.5142
  916MPD2    C513464   4.698   0.617  15.747  0.6454  0.5635 -0.1510
  916MPD2     H13465   0.020   0.332  16.004  2.3598  1.9476  0.0453
  916MPD2    H113466   0.090   0.509  15.626  0.2112 -0.8264  0.6861
  916MPD2    H213467   4.591   0.711  15.898 -0.5897 -0.2897  0.3071
  916MPD2    H313468   4.674   0.701  15.683  2.4664  2.1918  1.3054
  916MPD2     N13469   0.100   0.268  15.778  0.2230  0.2493  0.6386
  916MPD2    H513470   0.123   0.212  15.860 -1.4932  0.7835  1.4687
  916MPD2    N113471   4.618   0.543  16.098  0.1568 -0.2902 -0.9602
  916MPD2    H713472   4.561   0.626  16.113  1.0214 -0.1532  1.6612
  917MPD2     C13473   1.017   2.958  11.614  0.4175  1.0661  0.1196
  917MPD2    C113474   0.897   2.987  11.565 -0.5684  1.1155  0.5553
  917MPD2    C213475   0.898   3.065  11.453 -0.6284 -0.4876 -0.0045
  917MPD2    C313476   1.017   3.120  11.389  1.4997 -0.8459 -0.3242
  917MPD2    C413477   1.132   3.076  11.436  0.1789  0.5724  0.2359
  917MPD2    C513478   1.127   2.996  11.550  0.9481  0.6929  0.3496
  917MPD2     H13479   0.802   3.092  11.410 -1.6766  1.2920  3.4895
  917MPD2    H113480   1.221   3.104  11.381 -0.0095  0.8877  0.0946
  917MPD2    H213481   1.036   2.908  11.708 -0.5742 -2.4109 -1.5537
  917MPD2    H313482   1.217   2.963  11.601  1.1282 -1.6692 -1.5071
  917MPD2     N13483   1.016   3.214  11.285  0.1713  0.4277  0.3656
  917MPD2    H513484   1.103   3.225  11.234  0.3575 -1.9060  0.1559
  917MPD2    N113485   0.780   2.949  11.637  0.8930  0.8374  0.8374
  917MPD2    H713486   0.792   2.912  11.731 -2.6434  1.4136  1.4801
  918MPD2     C13487   0.718   3.063  12.454  0.3789  0.0875  0.3285
  918MPD2    C113488   0.820   3.040  12.357  0.3305  0.0438 -0.6213
  918MPD2    C213489   0.780   2.996  12.234 -0.2920  0.5713 -0.0178
  918MPD2    C313490   0.651   2.972  12.205  0.3951 -0.8193  0.0650
  918MPD2    C413491   0.555   3.000  12.303 -0.0361  0.5970  0.1765
  918MPD2    C513492   0.585   3.040  12.426  0.7833 -0.6963 -0.5393
  918MPD2     H13493   0.854   2.983  12.156 -0.3532 -0.0810  0.0330
  918MPD2    H113494   0.449   3.000  12.277  0.0490  1.7585 -0.1617
  918MPD2    H213495   0.754   3.085  12.554 -1.9240 -1.1297  1.4159
  918MPD2    H313496   0.502   3.046  12.496  0.4052  1.1102 -1.1398
  918MPD2     N13497   0.619   2.925  12.077 -0.1386 -0.1355  0.3176
  918MPD2    H513498   0.697   2.918  12.013 -1.3263  2.0929 -1.3641
  918MPD2    N113499   0.959   3.072  12.378  0.5413 -0.0174  0.4231
  918MPD2    H713500   1.015   3.075  12.293 -1.3820  2.3037 -0.7918
  919MPD2     C13501   1.208   1.729  11.280 -0.1064  0.0356  0.3746
  919MPD2    C113502   1.096   1.663  11.333 -0.2351  0.0563 -0.1032
  919MPD2    C213503   0.973   1.738  11.323  0.0695  0.3940  0.1360
  919MPD2    C313504   0.979   1.859  11.258 -0.0320 -0.2408  0.3018
  919MPD2    C413505   1.091   1.897  11.192 -0.5307  0.4380 -0.3539
  919MPD2    C513506   1.213   1.844  11.206  0.1615  0.5525  0.1244
  919MPD2     H13507   0.885   1.692  11.366  0.1426 -0.1112 -0.2538
  919MPD2    H113508   1.080   1.977  11.120 -0.6291  1.6365  0.9803
  919MPD2    H213509   1.306   1.684  11.287  0.2092  0.4301 -1.3752
  919MPD2    H313510   1.296   1.881  11.146  1.4904 -2.1660  0.3021
  919MPD2     N13511   0.854   1.932  11.237  0.0432 -0.2313  0.2106
  919MPD2    H513512   0.858   2.012  11.175  0.2226 -0.4855 -0.1042
  919MPD2    N113513   1.106   1.547  11.411 -0.1802 -0.5219 -0.0030
  919MPD2    H713514   1.023   1.521  11.464 -0.5438 -1.3555 -0.9848
  920MPD2     C13515   0.547   2.691  10.745  0.3615  0.5349 -0.3222
  920MPD2    C113516   0.441   2.607  10.746  0.1617 -0.6871  0.4745
  920MPD2    C213517   0.434   2.504  10.843 -0.4331 -0.5701  0.0097
  920MPD2    C313518   0.538   2.481  10.930  0.0142  0.6702 -0.5005
  920MPD2    C413519   0.643   2.566  10.933  0.2632  0.6128 -0.2193
  920MPD2    C513520   0.648   2.670  10.836  0.1622  0.1219  0.5192
  920MPD2     H13521   0.347   2.439  10.844 -2.0888  1.6650  0.2835
  920MPD2    H113522   0.726   2.563  11.001  0.1235 -0.0992 -0.0780
  920MPD2    H213523   0.553   2.772  10.673 -0.0026  0.1653 -0.7734
  920MPD2    H313524   0.738   2.731  10.835  0.3342 -0.1404 -0.0645
  920MPD2     N13525   0.523   2.371  11.020  0.6114 -0.2347 -0.5859
  920MPD2    H513526   0.438   2.316  11.012  0.2664  0.3452 -0.8617
  920MPD2    N113527   0.334   2.622  10.652 -0.1630 -0.6187 -0.8127
  920MPD2    H713528   0.259   2.557  10.670  1.8354 -2.3790  1.1371
  921MPD2     C13529   1.559   1.101  16.801  0.0975  0.4500  0.1542
  921MPD2    C113530   1.626   1.002  16.733 -0.4371  0.2083  0.0082
  921MPD2    C213531   1.546   0.906  16.664 -0.2313 -0.9628  0.3332
  921MPD2    C313532   1.409   0.909  16.662  0.3716 -0.5053  0.4974
  921MPD2    C413533   1.350   1.007  16.739  0.5601  0.5317  0.2127
  921MPD2    C513534   1.425   1.097  16.808 -0.0769 -0.2191 -0.1089
  921MPD2     H13535   1.584   0.825  16.603 -1.0894 -0.3402 -1.0357
  921MPD2    H113536   1.242   1.013  16.734  0.5125  0.6757  1.3881
  921MPD2    H213537   1.599   1.193  16.842 -2.3890  2.0362 -0.9561
  921MPD2    H313538   1.375   1.181  16.856 -1.0285 -0.6899 -0.2720
  921MPD2     N13539   1.316   0.832  16.582 -0.3750 -0.0935  0.0695
  921MPD2    H513540   1.225   0.875  16.570 -1.0702 -1.4939  0.3658
  921MPD2    N113541   1.764   1.015  16.726  0.3150  0.1071  0.0737
  921MPD2    H713542   1.806   1.099  16.764  0.6998 -0.4924  0.9804
  922MPD2     C13543   2.068   3.632  17.123  0.5763  0.0059  0.3351
  922MPD2    C113544   2.047   3.698  17.242 -0.6646 -0.2509 -0.2170
  922MPD2    C213545   1.986   3.634  17.345 -0.0628 -0.4230  0.4557
  922MPD2    C313546   1.955   3.499  17.336 -0.2027  0.0684  0.3237
  922MPD2    C413547   1.993   3.427  17.222 -0.0378  0.2473 -0.1493
  922MPD2    C513548   2.049   3.499  17.118  0.4362 -0.4548  0.6749
  922MPD2     H13549   1.952   3.697  17.426  0.1370 -1.9395  1.7030
  922MPD2    H113550   1.969   3.323  17.207  0.0891  0.1445  0.3590
  922MPD2    H213551   2.100   3.686  17.035  0.2635 -2.1659 -1.1095
  922MPD2    H313552   2.066   3.456  17.020  0.1025 -0.4559  0.6185
  922MPD2     N13553   1.871   3.447  17.434  0.4329  0.2722 -0.7629
  922MPD2    H513554   1.831   3.509  17.504 -4.4502 -1.9816 -1.5751
  922MPD2    N113555   2.087   3.832  17.261  0.2147  0.1292  0.2552
  922MPD2    H713556   2.079   3.873  17.354 -1.5906  0.3335  0.0265
  923MPD2     C13557   3.259   0.729   8.627  0.2265 -0.5743  0.0700
  923MPD2    C113558   3.333   0.845   8.617 -0.0640 -0.7386 -0.0283
  923MPD2    C213559   3.465   0.845   8.676 -0.2449  0.6960 -0.5916
  923MPD2    C313560   3.519   0.734   8.739 -0.5913  0.5092 -0.2506
  923MPD2    C413561   3.438   0.618   8.736 -0.0140  0.6338 -0.2611
  923MPD2    C513562   3.315   0.617   8.673  0.0526 -0.3513 -0.0401
  923MPD2     H13563   3.523   0.936   8.670  0.1271  0.4851 -0.2434
  923MPD2    H113564   3.462   0.522   8.780  3.7264  0.5684 -2.4943
  923MPD2    H213565   3.161   0.731   8.583 -0.5046 -0.1668  1.7022
  923MPD2    H313566   3.258   0.525   8.674 -0.6431  0.0703 -1.6415
  923MPD2     N13567   3.637   0.741   8.811 -0.0047  0.0498  0.1814
  923MPD2    H513568   3.646   0.660   8.871  0.6794  0.2614  0.3726
  923MPD2    N113569   3.272   0.959   8.563 -0.5045 -0.0646 -0.0579
  923MPD2    H713570   3.195   0.942   8.498 -1.3837 -0.9203  1.2186
  924MPD2     C13571   3.444   3.568  16.155  0.4708  0.4459 -0.0661
  924MPD2    C113572   3.402   3.599  16.278  0.6695  0.2073 -0.2336
  924MPD2    C213573   3.404   3.726  16.325 -0.5380  0.2983  0.1266
  924MPD2    C313574   3.451   3.828  16.246  1.2311  0.1716  0.2631
  924MPD2    C413575   3.488   3.804  16.120 -0.1651 -0.0978  0.0433
  924MPD2    C513576   3.491   3.677  16.079 -0.1284 -1.0401 -0.5389
  924MPD2     H13577   3.378   3.737  16.430  0.8541 -0.4070  0.5478
  924MPD2    H113578   3.523   3.884  16.056 -0.3775 -1.0250 -1.2455
  924MPD2    H213579   3.427   3.472  16.107 -1.2796  0.3305  0.7767
  924MPD2    H313580   3.533   3.645  15.985  1.5248  0.5209 -0.3346
  924MPD2     N13581   3.463   3.959  16.287 -0.5124  0.5102 -0.0591
  924MPD2    H513582   3.511   4.014  16.216  2.7201 -0.5667  1.2948
  924MPD2    N113583   3.361   3.489  16.360 -0.3604  0.3933 -0.2624
  924MPD2    H713584   3.385   3.401  16.317 -0.5339  0.3297 -0.2286
  925MPD2     C13585   2.420   1.363  14.667  0.1791 -0.3696 -0.1301
  925MPD2    C113586   2.342   1.473  14.631 -0.5110  0.5278 -0.1594
  925MPD2    C213587   2.293   1.548  14.734  0.1263 -0.0976  0.3159
  925MPD2    C313588   2.320   1.514  14.868  0.4913  0.9196 -0.6492
  925MPD2    C413589   2.389   1.402  14.901  0.9818  0.5302  0.1187
  925MPD2    C513590   2.437   1.323  14.801  0.0293 -0.6266 -0.4365
  925MPD2     H13591   2.234   1.639  14.726 -0.5563 -0.4419  1.2698
  925MPD2    H113592   2.400   1.368  15.003  0.7489  3.4235  1.0950
  925MPD2    H213593   2.476   1.301  14.598  0.3001 -1.4425  0.9147
  925MPD2    H313594   2.502   1.241  14.825 -0.2530 -0.9545 -0.7908
  925MPD2     N13595   2.273   1.594  14.979  0.0878  0.4810 -0.2506
  925MPD2    H513596   2.288   1.543  15.066  1.6100  0.7717 -0.3325
  925MPD2    N113597   2.302   1.503  14.491  0.1012 -0.4837 -0.5088
  925MPD2    H713598   2.228   1.572  14.480  0.6942  0.0761 -0.9965
  926MPD2     C13599   1.171   4.739  13.547 -0.4518  0.2254  0.1377
  926MPD2    C113600   1.078   0.027  13.446  0.5255 -0.3601 -0.7389
  926MPD2    C213601   1.121   0.064  13.314 -0.5449 -0.1966 -0.6402
  926MPD2    C313602   1.250   0.075  13.285 -0.4501  0.4145 -0.0362
  926MPD2    C413603   1.345   0.046  13.385 -0.6710  0.0017  0.4277
  926MPD2    C513604   1.306   0.016  13.512 -0.1420 -0.0965  0.4559
  926MPD2     H13605   1.040   0.079  13.245 -1.1770  0.0097  0.1452
  926MPD2    H113606   1.448   0.036  13.355 -1.0015 -1.0991 -0.3742
  926MPD2    H213607   1.140   4.701  13.644  0.3607 -1.8550 -0.3975
  926MPD2    H313608   1.382   4.725  13.583 -0.7353 -0.3889  0.9665
  926MPD2     N13609   1.298   0.125  13.163 -0.3860  0.1820  0.2305
  926MPD2    H513610   1.398   0.139  13.155 -0.4460  0.0973 -0.6538
  926MPD2    N113611   0.939   0.020  13.470  0.3457 -0.3412 -0.6446
  926MPD2    H713612   0.877   0.034  13.391 -0.4126 -2.0986 -0.3810
  927MPD2     C13613   0.463   2.754  17.385  0.1769 -0.3904  0.0345
  927MPD2    C113614   0.564   2.685  17.442 -0.3027  0.1475 -0.1414
  927MPD2    C213615   0.689   2.692  17.382 -0.3332 -0.0934  0.2088
  927MPD2    C313616   0.711   2.759  17.264 -0.2002  0.6538 -0.0607
  927MPD2    C413617   0.606   2.817  17.201  0.4313  0.1750  0.8673
  927MPD2    C513618   0.482   2.816  17.268  0.2191 -0.3134 -0.7242
  927MPD2     H13619   0.766   2.644  17.442 -0.5609  1.7454  1.9875
  927MPD2    H113620   0.619   2.884  17.116  0.1622 -2.0230 -0.8945
  927MPD2    H213621   0.371   2.753  17.442  0.8094 -1.3489  1.0402
  927MPD2    H313622   0.398   2.872  17.229  0.1897  0.4635  0.4248
  927MPD2     N13623   0.845   2.777  17.216  0.0116 -0.2146 -0.3989
  927MPD2    H513624   0.918   2.734  17.271 -0.7112 -0.9607 -0.0111
  927MPD2    N113625   0.535   2.615  17.559  0.9658  0.1097  0.1457
  927MPD2    H713626   0.445   2.632  17.604  2.1514  0.5485  2.3585
  928MPD2     C13627   3.182   0.051   0.572 -0.3375  0.5038 -0.0025
  928MPD2    C113628   3.258   0.140   0.646  0.4871 -0.3640  0.2479
  928MPD2    C213629   3.330   0.235   0.573 -0.5093  0.2296  0.7425
  928MPD2    C313630   3.333   0.236   0.434  0.6658  0.4956  0.4060
  928MPD2    C413631   3.262   0.138   0.364 -0.7354 -0.7042  0.0239
  928MPD2    C513632   3.190   0.044   0.433  0.0152 -0.0788  0.2432
  928MPD2     H13633   3.380   0.311   0.632 -1.2737  1.2754  0.0298
  928MPD2    H113634   3.273   0.131   0.256 -0.7823 -2.8587  0.1406
  928MPD2    H213635   3.132   4.712   0.627  2.9587 -1.5297  0.0592
  928MPD2    H313636   3.152   4.707   0.366  0.3553  1.1767 -1.4073
  928MPD2     N13637   3.406   0.329   0.354  0.1003 -0.0695 -0.2840
  928MPD2    H513638   3.387   0.314   0.255 -3.1141 -0.1739  0.3651
  928MPD2    N113639   3.250   0.139   0.789  0.0838  1.2715  0.0703
  928MPD2    H713640   3.181   0.079   0.833  0.4635  0.3272 -0.6306
  929MPD2     C13641   4.000   1.203   9.625 -0.5164 -0.1037 -0.0414
  929MPD2    C113642   3.864   1.196   9.634  0.9021 -0.2680  0.4227
  929MPD2    C213643   3.797   1.265   9.531 -0.4410 -0.6806 -0.1004
  929MPD2    C313644   3.870   1.336   9.434 -0.0643  0.2334  0.0463
  929MPD2    C413645   4.007   1.353   9.445  0.1309 -0.5212 -0.6045
  929MPD2    C513646   4.069   1.293   9.550 -0.0422  0.1233 -0.2922
  929MPD2     H13647   3.689   1.269   9.532 -0.3698  1.0804 -1.3676
  929MPD2    H113648   4.058   1.403   9.364 -0.3162 -0.2546 -0.7209
  929MPD2    H213649   4.062   1.160   9.702 -2.8587  1.4924  2.7408
  929MPD2    H313650   4.177   1.298   9.541 -0.1141  1.5242 -0.4974
  929MPD2     N13651   3.814   1.411   9.329  0.3092  0.4242  0.4896
  929MPD2    H513652   3.867   1.489   9.292  0.4065 -0.4885 -1.3104
  929MPD2    N113653   3.809   1.118   9.738 -0.3449 -0.3711  0.5189
  929MPD2    H713654   3.879   1.071   9.795  1.8281  0.8256 -1.1463
  930MPD2     C13655   0.856   2.486  14.102  0.4779  0.4581  0.4985
  930MPD2    C113656   0.840   2.579  14.008 -0.0169 -0.4652  0.3575
  930MPD2    C213657   0.803   2.534  13.885  0.2736  1.2137 -0.1745
  930MPD2    C313658   0.806   2.404  13.838  0.1918 -0.0485 -0.5348
  930MPD2    C413659   0.826   2.314  13.933  0.0154  0.0500  0.0407
  930MPD2    C513660   0.851   2.352  14.060  0.4109 -0.3037 -0.1578
  930MPD2     H13661   0.779   2.606  13.807 -2.1299  0.5165 -0.0786
  930MPD2    H113662   0.836   2.211  13.902 -1.8929 -0.5398  1.3920
  930MPD2    H213663   0.863   2.504  14.208  0.7995  0.4565  0.4765
  930MPD2    H313664   0.872   2.277  14.136  1.2099 -0.1352 -0.2027
  930MPD2     N13665   0.775   2.383  13.702 -0.3318  0.2065  0.4797
  930MPD2    H513666   0.773   2.467  13.644 -0.3741 -0.5354 -0.5950
  930MPD2    N113667   0.858   2.716  14.024 -0.1118  0.6064  0.1264
  930MPD2    H713668   0.853   2.770  13.937 -0.4402  1.1396  0.4760
  931MPD2     C13669   0.936   2.069   0.252 -0.6096 -0.4329  0.4241
  931MPD2    C113670   0.812   2.108   0.295 -0.2657  1.1898 -0.1908
  931MPD2    C213671   0.750   2.019   0.382 -0.1000  0.2319 -0.4048
  931MPD2    C313672   0.809   1.910   0.438 -0.4066  0.0271 -0.7152
  931MPD2    C413673   0.939   1.884   0.411  0.0299 -0.1628  0.3994
  931MPD2    C513674   0.996   1.959   0.310  0.2277 -0.0530  0.1757
  931MPD2     H13675   0.643   2.015   0.397  0.1742 -2.0735  0.8832
  931MPD2    H113676   0.997   1.801   0.450  1.2397 -0.1537 -1.3942
  931MPD2    H213677   0.991   2.120   0.173  0.6333 -0.9103  0.9830
  931MPD2    H313678   1.098   1.933   0.286 -0.6197 -1.7083 -1.6504
  931MPD2     N13679   0.751   1.811   0.528  0.1861 -0.0453  0.3925
  931MPD2    H513680   0.803   1.728   0.553 -0.2260 -0.8238 -1.3087
  931MPD2    N113681   0.744   2.218   0.229 -0.1342 -0.7794 -0.1997
  931MPD2    H713682   0.799   2.276   0.166  1.4929  1.0940  2.9177
  932MPD2     C13683   2.769   1.079  11.003  0.6127  0.0183 -0.0461
  932MPD2    C113684   2.865   1.089  11.100  0.0256  0.9168 -0.2056
  932MPD2    C213685   2.956   0.987  11.109 -0.1534 -0.3398  0.0578
  932MPD2    C313686   2.957   0.880  11.031  0.7922 -0.1021  0.5683
  932MPD2    C413687   2.863   0.875  10.924  0.0825 -0.0825 -0.8003
  932MPD2    C513688   2.773   0.975  10.916 -0.1696 -0.1229 -0.1128
  932MPD2     H13689   3.024   0.985  11.193 -1.5196  1.2224  1.2275
  932MPD2    H113690   2.849   0.795  10.852 -1.1148 -0.1302 -0.5182
  932MPD2    H213691   2.694   1.156  10.998  0.3668 -0.0821  2.2594
  932MPD2    H313692   2.697   0.968  10.838 -0.2555 -0.7574  0.0260
  932MPD2     N13693   3.046   0.777  11.066 -0.3302 -0.3529  0.1206
  932MPD2    H513694   3.088   0.772  11.158 -0.8366 -0.5647  0.3384
  932MPD2    N113695   2.876   1.201  11.182 -0.2033 -0.5499 -0.0205
  932MPD2    H713696   2.955   1.212  11.244 -1.1177 -1.7795  1.3595
  933MPD2     C13697   2.722   0.161   1.426 -0.1952  0.3574 -0.7530
  933MPD2    C113698   2.795   0.234   1.338 -0.1922 -0.2574 -0.2836
  933MPD2    C213699   2.745   0.355   1.317 -0.0195  0.0088 -0.4450
  933MPD2    C313700   2.621   0.403   1.356  0.2185 -0.2064  0.5423
  933MPD2    C413701   2.549   0.327   1.440  0.4366 -0.5283 -0.0224
  933MPD2    C513702   2.596   0.202   1.468  0.5137  0.5086  0.1978
  933MPD2     H13703   2.802   0.427   1.259  1.7443  0.3798  1.7425
  933MPD2    H113704   2.453   0.354   1.482  0.9981 -1.0296  1.5787
  933MPD2    H213705   2.748   0.062   1.461  2.4426  1.5517  0.7309
  933MPD2    H313706   2.529   0.139   1.525  0.3677 -0.2066 -0.7632
  933MPD2     N13707   2.576   0.532   1.318 -0.3374  0.6829  1.1213
  933MPD2    H513708   2.639   0.591   1.265 -3.1296  2.4960 -0.1767
  933MPD2    N113709   2.911   0.177   1.285 -0.0801  0.0664 -0.6598
  933MPD2    H713710   2.952   0.093   1.325 -0.8305  1.3472  2.7949
  934MPD2     C13711   4.260   2.000   1.714  0.2260 -0.4780 -0.6824
  934MPD2    C113712   4.325   2.122   1.680 -0.2501 -0.0208 -0.6923
  934MPD2    C213713   4.308   2.187   1.562  0.0445  0.9201  0.5207
  934MPD2    C313714   4.218   2.136   1.474 -0.2061 -0.1079  0.5404
  934MPD2    C413715   4.159   2.015   1.497 -0.3701  0.9914 -0.3648
  934MPD2    C513716   4.184   1.943   1.609  0.7526 -0.0944 -0.2931
  934MPD2     H13717   4.344   2.287   1.542  1.2564  0.0777 -1.4214
  934MPD2    H113718   4.083   1.978   1.430 -1.9345  1.1089  1.3312
  934MPD2    H213719   4.269   1.954   1.811  0.0006 -0.0295 -0.4464
  934MPD2    H313720   4.140   1.845   1.624 -1.2206  1.0717  1.5608
  934MPD2     N13721   4.187   2.185   1.348  0.1490 -0.5188  0.5833
  934MPD2    H513722   4.129   2.129   1.286  1.0325 -0.7947 -0.0051
  934MPD2    N113723   4.398   2.198   1.772 -0.4873 -0.0536  0.0515
  934MPD2    H713724   4.443   2.285   1.743  1.7476 -0.8575  1.1608
  935MPD2     C13725   4.405   1.732   0.695  0.1233  0.5234 -0.3237
  935MPD2    C113726   4.277   1.771   0.672  0.3239 -1.1475  0.0475
  935MPD2    C213727   4.231   1.884   0.737 -0.3741  0.4108 -0.9872
  935MPD2    C313728   4.318   1.955   0.817 -0.3264 -0.7330  0.3575
  935MPD2    C413729   4.450   1.918   0.840 -0.2199  0.2026  0.0406
  935MPD2    C513730   4.491   1.804   0.775  0.7311  0.7362 -0.0449
  935MPD2     H13731   4.134   1.926   0.714 -0.2215  1.1048 -0.3579
  935MPD2    H113732   4.513   1.973   0.908 -1.1329 -0.6759  1.6101
  935MPD2    H213733   4.441   1.649   0.636  0.9705  0.5500  0.1638
  935MPD2    H313734   4.593   1.769   0.787 -0.1172 -2.1417 -1.0874
  935MPD2     N13735   4.276   2.075   0.879 -0.1796  0.0250 -0.0977
  935MPD2    H513736   4.328   2.097   0.963 -0.2623 -1.3885  0.3226
  935MPD2    N113737   4.183   1.712   0.585 -0.2450 -0.1279 -0.2724
  935MPD2    H713738   4.087   1.747   0.581 -0.7278 -1.5777 -1.3932
  936MPD2     C13739   3.237   3.771  12.534 -0.4471  0.0134  0.5842
  936MPD2    C113740   3.298   3.897  12.558  0.0563 -1.1209  0.4966
  936MPD2    C213741   3.328   3.987  12.457 -0.7353 -0.0258 -0.2027
  936MPD2    C313742   3.264   3.966  12.337  0.3226  0.2644 -0.0164
  936MPD2    C413743   3.192   3.851  12.315  0.4729 -0.3202 -1.1186
  936MPD2    C513744   3.186   3.750  12.412  0.1218  0.0875  0.2467
  936MPD2     H13745   3.380   4.079  12.479  0.7183 -0.9254  0.1854
  936MPD2    H113746   3.145   3.824  12.222  1.2272  0.2096 -1.6511
  936MPD2    H213747   3.235   3.695  12.611 -3.3708 -0.5587 -0.0778
  936MPD2    H313748   3.135   3.656  12.394 -0.6080  0.8792 -1.7934
  936MPD2     N13749   3.272   4.059  12.238  0.8456 -0.2517  0.4663
  936MPD2    H513750   3.203   4.054  12.164  2.0605 -0.3636 -0.6534
  936MPD2    N113751   3.339   3.944  12.690 -0.7213  0.4874  0.4958
  936MPD2    H713752   3.370   4.041  12.688  0.8164 -0.0481 -1.4775
  937MPD2     C13753   1.178   0.784  11.445 -0.2349  0.1174  0.0167
  937MPD2    C113754   1.274   0.885  11.427 -0.4914  0.0418  0.3036
  937MPD2    C213755   1.387   0.847  11.356 -0.3949  0.9298 -0.0493
  937MPD2    C313756   1.412   0.724  11.302  0.4755 -0.3640  0.0702
  937MPD2    C413757   1.316   0.629  11.315 -0.0356  0.7267 -0.5550
  937MPD2    C513758   1.197   0.658  11.384 -0.5090  0.2872 -0.5192
  937MPD2     H13759   1.464   0.922  11.352 -0.3021  0.9871  3.1666
  937MPD2    H113760   1.324   0.527  11.278  0.4974 -0.6131  3.3086
  937MPD2    H213761   1.086   0.795  11.501 -0.2940  0.6889 -0.1928
  937MPD2    H313762   1.132   0.572  11.397  0.4795 -0.5068 -0.8213
  937MPD2     N13763   1.521   0.709  11.216  0.8630  0.0759  0.3191
  937MPD2    H513764   1.567   0.799  11.206  0.9016  0.0948  0.6741
  937MPD2    N113765   1.269   1.009  11.495 -0.1719 -0.0612 -0.1959
  937MPD2    H713766   1.352   1.067  11.500 -0.2896  0.0193  0.8062
  938MPD2     C13767   3.431   2.553   0.089  0.6267 -0.5791 -0.0853
  938MPD2    C113768   3.459   2.599   0.218 -0.6436  0.2584  0.1797
  938MPD2    C213769   3.462   2.513   0.326  0.0135 -0.1351  0.4870
  938MPD2    C313770   3.415   2.383   0.316  0.1099 -0.1028  0.2137
  938MPD2    C413771   3.379   2.338   0.193  0.0852  0.5702 -0.0484
  938MPD2    C513772   3.387   2.417   0.079 -0.1400 -0.4824  0.1288
  938MPD2     H13773   3.478   2.548   0.428  0.7300  0.3248  0.2180
  938MPD2    H113774   3.334   2.241   0.171  0.5818  0.8138 -2.1602
  938MPD2    H213775   3.440   2.614  17.756 -0.0842  1.3327  1.1467
  938MPD2    H313776   3.357   2.376  17.740 -0.1922  2.0370 -0.9442
  938MPD2     N13777   3.400   2.298   0.429  0.2637  0.1424 -0.8730
  938MPD2    H513778   3.367   2.202   0.421 -1.0470  0.4199  1.0362
  938MPD2    N113779   3.511   2.729   0.245  0.0013  0.0593  0.1656
  938MPD2    H713780   3.547   2.747   0.338 -0.0651  0.4092  0.1218
  939MPD2     C13781   4.574   3.118   0.588  0.4194 -0.3520  0.1169
  939MPD2    C113782   4.567   3.257   0.574  0.0589  0.5541 -0.4584
  939MPD2    C213783   4.588   3.314   0.447  0.6633  0.2332 -0.4986
  939MPD2    C313784   4.589   3.231   0.330 -0.2597  0.7999  0.3227
  939MPD2    C413785   4.578   3.094   0.346 -0.2330 -0.6160  0.6124
  939MPD2    C513786   4.576   3.043   0.476 -0.1332 -0.1021  0.6699
  939MPD2     H13787   4.592   3.422   0.443 -1.9738  0.4456  2.4991
  939MPD2    H113788   4.587   3.022   0.266  0.0404 -0.3745  0.4272
  939MPD2    H213789   4.557   3.080   0.688  0.2527  1.0814  0.6329
  939MPD2    H313790   4.559   2.937   0.486  1.9462 -0.6017 -0.9385
  939MPD2     N13791   4.591   3.297   0.198  0.2134  0.6239 -0.0337
  939MPD2    H513792   4.608   3.398   0.195  1.6300  0.3969  0.0534
  939MPD2    N113793   4.562   3.333   0.688  0.5719  0.2478 -0.2624
  939MPD2    H713794   4.608   3.288   0.766  2.7086 -0.6013 -2.0232
  940MPD2     C13795   3.480   0.099  13.189 -0.0133  0.0396  0.0415
  940MPD2    C113796   3.510   4.712  13.214 -0.3866  0.9536  0.6945
  940MPD2    C213797   3.575   4.640  13.122  0.1707 -0.4542 -0.0255
  940MPD2    C313798   3.612   4.696  12.999 -0.0736 -0.5614 -0.3607
  940MPD2    C413799   3.562   0.083  12.971  0.4063 -0.5620  0.0754
  940MPD2    C513800   3.485   0.148  13.060 -0.6192  0.4816  0.4244
  940MPD2     H13801   3.606   4.540  13.149  2.3349 -0.4925 -2.5758
  940MPD2    H113802   3.590   0.130  12.878  0.8147  0.2788  0.6266
  940MPD2    H213803   3.457   0.170  13.267  2.6994 -0.7058  1.5079
  940MPD2    H313804   3.452   0.249  13.039 -1.3126  0.3775  1.0045
  940MPD2     N13805   3.698   4.636  12.910  0.1167  0.5126  0.5621
  940MPD2    H513806   3.709   4.701  12.833  1.8310 -0.8582 -0.3520
  940MPD2    N113807   3.493   4.659  13.348 -0.1386 -0.4411  0.2702
  940MPD2    H713808   3.539   4.572  13.372  1.0459  0.0254 -0.3123
  941MPD2     C13809   2.925   4.027   9.859  0.0352 -0.1349 -0.3485
  941MPD2    C113810   3.030   3.946   9.887 -0.3417 -0.2900  0.1514
  941MPD2    C213811   3.013   3.818   9.937 -0.2198 -0.0763  0.9107
  941MPD2    C313812   2.885   3.780   9.981 -0.1437 -0.2344  0.5811
  941MPD2    C413813   2.784   3.874   9.965  0.2104 -0.6133 -0.0518
  941MPD2    C513814   2.802   3.989   9.894  0.5221 -0.0361 -0.9112
  941MPD2     H13815   3.097   3.750   9.948 -1.0305 -1.2351 -0.0718
  941MPD2    H113816   2.685   3.857  10.006 -0.0739  1.6419  0.2013
  941MPD2    H213817   2.923   4.121   9.806  2.0418  1.0765  1.7995
  941MPD2    H313818   2.716   4.047   9.864 -0.0345 -0.1337  0.5342
  941MPD2     N13819   2.856   3.654  10.032 -0.5612 -0.1267 -0.1334
  941MPD2    H513820   2.762   3.645  10.068  0.7232  1.4798  3.6619
  941MPD2    N113821   3.156   3.986   9.853 -0.0257 -0.3899  0.0659
  941MPD2    H713822   3.231   3.931   9.892  1.5783  1.4427 -0.4601
  942MPD2     C13823   2.600   1.541   8.672 -0.4559 -0.0348  0.3066
  942MPD2    C113824   2.735   1.548   8.642  0.2902 -0.2467 -0.2648
  942MPD2    C213825   2.816   1.444   8.681  0.0881  0.9033  0.3840
  942MPD2    C313826   2.776   1.347   8.765 -0.3350 -0.2935  0.5020
  942MPD2    C413827   2.640   1.347   8.797  0.2433  0.2530  0.0960
  942MPD2    C513828   2.547   1.439   8.747 -0.0733  0.6672  0.3991
  942MPD2     H13829   2.912   1.441   8.630 -0.0591 -3.0116  0.3305
  942MPD2    H113830   2.586   1.263   8.839  0.4260  0.0998  0.0269
  942MPD2    H213831   2.531   1.616   8.636 -2.0408 -1.3656  0.5701
  942MPD2    H313832   2.441   1.434   8.766  0.3303 -1.3639  2.1395
  942MPD2     N13833   2.866   1.260   8.825  0.1514  0.2970 -0.0662
  942MPD2    H513834   2.823   1.192   8.888  0.1915 -0.8377 -1.2741
  942MPD2    N113835   2.781   1.644   8.558 -0.2345  0.6218 -0.4420
  942MPD2    H713836   2.873   1.633   8.517 -0.2957 -1.2361 -0.0843
  943MPD2     C13837   1.090   4.618   9.351  0.2413  0.7689  0.7664
  943MPD2    C113838   1.166   4.498   9.372  0.1709  0.8076  0.9425
  943MPD2    C213839   1.305   4.503   9.392 -0.3993  0.6886  0.8975
  943MPD2    C313840   1.372   4.620   9.391 -0.3116  0.3829  0.2448
  943MPD2    C413841   1.298   4.734   9.372 -0.4998  1.1043  0.4642
  943MPD2    C513842   1.157   4.733   9.350  0.1953 -0.0885  0.3944
  943MPD2     H13843   1.369   4.416   9.405  0.9194  1.3115 -1.4007
  943MPD2    H113844   1.334   0.096   9.376  1.4212  0.3831  1.5004
  943MPD2    H213845   0.984   4.611   9.330  0.1106  2.5131  0.8000
  943MPD2    H313846   1.109   0.089   9.331  2.1363  1.4811  3.3005
  943MPD2     N13847   1.515   4.618   9.403 -0.0591  0.1429  0.0374
  943MPD2    H513848   1.552   4.525   9.420 -0.1068  0.3272  1.1092
  943MPD2    N113849   1.097   4.378   9.388 -0.6240 -0.4387  0.0531
  943MPD2    H713850   0.996   4.379   9.375 -0.8676 -0.1423  1.9911
  944MPD2     C13851   2.285   2.993  11.038 -0.5462 -0.6452 -0.0637
  944MPD2    C113852   2.217   3.100  10.982 -0.2811 -0.7983  0.2722
  944MPD2    C213853   2.119   3.167  11.054  0.3440 -0.3811 -1.2338
  944MPD2    C313854   2.098   3.123  11.182 -0.1255 -0.1426  0.1414
  944MPD2    C413855   2.180   3.026  11.237 -1.1209  0.3262 -0.0211
  944MPD2    C513856   2.266   2.956  11.165 -0.1740  0.3641 -0.2463
  944MPD2     H13857   2.063   3.252  11.016 -1.7979 -0.8858  0.7516
  944MPD2    H113858   2.175   2.997  11.341  2.4620 -0.1307  0.0220
  944MPD2    H213859   2.346   2.923  10.983 -0.5701  0.0586 -0.9934
  944MPD2    H313860   2.325   2.873  11.202 -1.2649 -0.0724  0.5201
  944MPD2     N13861   1.988   3.184  11.259 -0.7702 -0.2855  0.3339
  944MPD2    H513862   1.925   3.242  11.205  0.5069 -0.3269 -1.1981
  944MPD2    N113863   2.257   3.149  10.848  0.4693  0.2177  0.8408
  944MPD2    H713864   2.290   3.077  10.784 -3.0581  0.3349 -1.0991
    1TMC1    C113865   4.605   3.467  14.198 -0.6256 -0.4109  0.1574
    1TMC1    C213866   4.656   3.359  14.136 -0.3004  0.2040 -0.2348
    1TMC1    C313867   0.008   3.282  14.201 -0.2174 -0.0645  0.6120
    1TMC1    C413868   4.636   3.496  14.330  0.4732 -0.0401 -0.2409
    1TMC1    C513869   4.723   3.408  14.398 -0.3755  0.5602  0.1544
    1TMC1    C613870   0.036   3.304  14.333 -0.4180 -0.3039  0.3240
    1TMC1     C13871   4.487   3.522  14.144 -0.7775 -0.5201 -0.5001
    1TMC1     O13872   4.420   3.436  14.091  0.2255  0.6120 -0.0918
    1TMC1     H13873   4.642   3.340  14.030 -2.4581  1.3813 -0.1689
    1TMC1    H113874   4.589   3.568  14.396  1.0382 -1.1199  1.3612
    1TMC1    H213875   0.089   3.228  14.389  0.2292 -0.9261 -1.1081
    1TMC1    C713876   0.015   3.448  14.536 -0.2689 -0.3348  0.4593
    1TMC1    C813877   0.018   3.142  14.152  0.0055  0.0561  0.0976
    1TMC1    O113878   4.684   3.517  14.609  0.5149 -0.2781 -0.2404
    1TMC1    O213879   0.121   3.076  14.179 -0.6414 -0.0836  0.3491
    1TMC1    O313880   0.144   3.427  14.567 -0.5945  0.0241  0.5712
    1TMC1    H313881   0.194   3.361  14.515 -0.8671 -0.4047  0.8593
    1TMC1    O513882   4.642   3.096  14.113 -0.3347 -0.9956 -0.0781
    1TMC1    H513883   4.570   3.158  14.137  0.3944 -0.8262  1.6681
    2MPD2     C13884   4.156   3.909  14.043 -0.0691  0.0775  0.0001
    2MPD2    C113885   4.235   3.949  14.153 -0.5276 -0.0335  0.2845
    2MPD2    C213886   4.333   3.857  14.196  0.2084 -0.7702 -0.0708
    2MPD2    C313887   4.360   3.734  14.140  0.8325  0.4988  0.9290
    2MPD2    C413888   4.271   3.695  14.038 -0.2915  0.2940  0.2924
    2MPD2    C513889   4.171   3.780  13.995 -0.2735  0.0382 -0.0333
    2MPD2     H13890   4.404   3.884  14.273  0.5413  2.2293 -1.4148
    2MPD2    H113891   4.291   3.602  13.988  1.0976 -0.3112  1.9622
    2MPD2    H213892   4.084   3.974  13.994  1.3483  2.4840  1.1255
    2MPD2    H313893   4.108   3.749  13.912 -0.2048  0.0165 -0.0774
    2MPD2     N13894   4.464   3.651  14.183 -0.0198 -0.0413 -0.3973
    2MPD2    H513895   4.533   3.695  14.243  0.4856  0.5356 -1.4027
    2MPD2    N113896   4.205   4.070  14.211  0.2499 -0.0458  0.1737
    2MPD2    H713897   4.112   4.105  14.190  0.5095 -1.3441 -3.0474
    3TMC2    C113898   4.213   4.237  14.388 -0.8183  0.0920 -0.1975
    3TMC2    C213899   4.229   4.238  14.525 -1.1216  0.2440 -0.0633
    3TMC2    C313900   4.148   4.315  14.596 -0.5461  0.8858 -0.3084
    3TMC2    C413901   4.105   4.303  14.327  0.1828  0.1809 -0.3205
    3TMC2    C513902   4.019   4.369  14.407  0.0984 -0.2144 -0.2459
    3TMC2    C613903   4.040   4.375  14.540  0.9043 -0.8473 -0.1097
    3TMC2     C13904   4.279   4.123  14.320  0.3485 -0.1416  0.9083
    3TMC2     O13905   4.388   4.091  14.361 -0.2077 -0.3588  0.0675
    3TMC2     H13906   4.296   4.166  14.571  0.1782  1.3120 -0.3093
    3TMC2    H113907   4.082   4.286  14.222  1.1043 -1.0143 -0.3302
    3TMC2    H213908   3.963   4.415  14.605  0.3441 -1.9686 -0.0837
    3TMC2    C713909   3.882   4.412  14.365 -0.2329 -0.3780 -0.6417
    3TMC2    C813910   4.141   4.290  14.736  0.2162  0.5290 -0.2267
    3TMC2    O113911   3.793   4.373  14.438  0.2664 -0.3294  0.3898
    3TMC2    O213912   4.032   4.270  14.784  0.0827 -0.2378 -0.5825
    3TMC2    O513913   4.244   4.367  14.791  0.0209  0.3354  0.3710
    3TMC2    H513914   4.314   4.389  14.727 -0.7555 -0.5177 -0.7851
    4TMC2    C113915   3.654   0.281  13.506 -1.1684  0.4469  0.3134
    4TMC2    C213916   3.733   0.232  13.414 -0.0149 -0.3657 -0.1587
    4TMC2    C313917   3.789   0.116  13.454 -0.3676 -0.0624 -0.6896
    4TMC2    C413918   3.626   0.229  13.628  0.0720 -0.1119 -0.0879
    4TMC2    C513919   3.685   0.119  13.670  1.2273  0.0652 -0.4948
    4TMC2    C613920   3.765   0.053  13.575 -0.0757 -0.1727 -0.3615
    4TMC2     C13921   3.595   0.414  13.482 -0.3074 -0.0904 -0.2044
    4TMC2     O13922   3.558   0.481  13.573 -0.5298  0.4501 -0.4156
    4TMC2     H13923   3.775   0.286  13.330  1.3497 -0.2915  0.5691
    4TMC2    H113924   3.565   0.286  13.696  1.7156  1.7926 -0.2130
    4TMC2    H213925   3.812   4.700  13.604 -0.5350 -0.4576 -0.5290
    4TMC2    C713926   3.630   0.053  13.786  0.3786  0.3390  0.0933
    4TMC2    C813927   3.913   0.090  13.389  0.3011  0.0627 -0.6121
    4TMC2    O113928   3.512   0.074  13.804  0.2707 -0.0167 -0.2689
    4TMC2    O213929   3.973   0.187  13.344  0.3461  1.2051  0.2605
    4TMC2    O513930   3.966   4.718  13.437 -0.0392 -0.0482 -0.1367
    4TMC2    H513931   3.900   4.646  13.448 -0.0207  0.3322  2.4017
    5MPD2     C13932   3.347   0.706  13.140 -0.1551  0.4250  0.2826
    5MPD2    C113933   3.417   0.608  13.067 -0.6639  0.2507  0.4001
    5MPD2    C213934   3.492   0.521  13.142  0.0223 -0.3099 -0.2717
    5MPD2    C313935   3.503   0.529  13.281  0.4575  0.5352 -0.3432
    5MPD2    C413936   3.432   0.627  13.347  0.0018 -0.7624 -0.4218
    5MPD2    C513937   3.350   0.709  13.278  0.2558 -0.1230 -0.0643
    5MPD2     H13938   3.557   0.454  13.087 -0.4503 -0.6716 -0.3884
    5MPD2    H113939   3.430   0.634  13.455 -0.7747 -0.5582 -0.4533
    5MPD2    H213940   3.282   0.770  13.083 -1.4153  0.9654  2.3111
    5MPD2    H313941   3.292   0.787  13.327 -1.5852 -0.5345 -1.6112
    5MPD2     N13942   3.588   0.434  13.346  0.1785  0.2685 -0.0810
    5MPD2    H513943   3.622   0.352  13.295  1.0426  0.7803 -0.3320
    5MPD2    N113944   3.401   0.609  12.928  0.5917 -0.1363  0.2237
    5MPD2    H713945   3.345   0.684  12.888 -0.3269 -0.9939 -0.1047
    6MPD1     C13946   3.651   2.201  12.129  0.3226  0.7262  0.0565
    6MPD1    C113947   3.565   2.205  12.236 -0.1804 -0.5809  0.9860
    6MPD1    C213948   3.534   2.092  12.304 -0.2173  0.4610 -0.1751
    6MPD1    C313949   3.595   1.969  12.261  0.0583 -1.2241 -0.3361
    6MPD1    C413950   3.686   1.974  12.155  0.9549  0.2171  0.1209
    6MPD1    C513951   3.724   2.087  12.094  0.8183  0.0843 -0.0267
    6MPD1     H13952   3.453   2.097  12.375 -0.1061  1.5870 -0.1324
    6MPD1    H113953   3.723   1.879  12.116  0.2788 -0.1055  0.2637
    6MPD1    H213954   3.677   2.290  12.074  2.5470 -1.4130 -2.3731
    6MPD1    H313955   3.791   2.083  12.009 -0.6797  0.1631 -1.2217
    6MPD1     N13956   3.568   1.844  12.318  0.7125 -1.0010  0.1607
    6MPD1    H513957   3.617   1.764  12.278 -0.1591 -0.8875 -1.1045
    6MPD1    N113958   3.484   2.319  12.250  0.4429  0.3265  0.9058
    6MPD1    H613959   3.531   2.409  12.242  2.8072 -0.9949 -0.0380
    6MPD1    H713960   3.423   2.315  12.332 -0.0110 -1.0046  0.5069
    7MPD2     C13961   3.027   1.234  12.682 -0.7304  0.6209 -0.0591
    7MPD2    C113962   3.149   1.210  12.615 -0.1365  0.2942  0.0136
    7MPD2    C213963   3.197   1.087  12.586 -0.5230  0.0321 -0.2734
    7MPD2    C313964   3.130   0.979  12.634  0.1078  0.4031 -0.5031
    7MPD2    C413965   3.019   1.003  12.713  0.0012 -0.1260 -0.4682
    7MPD2    C513966   2.974   1.128  12.743  0.0067 -0.1983 -0.6004
    7MPD2     H13967   3.283   1.073  12.523 -0.8013 -1.3039 -0.3418
    7MPD2    H113968   2.960   0.919  12.747  0.6004 -0.3015  0.1581
    7MPD2    H213969   2.981   1.331  12.696  0.3977  1.0981  0.2480
    7MPD2    H313970   2.892   1.134  12.814  0.2242  2.8866 -0.6481
    7MPD2     N13971   3.166   0.848  12.615 -0.4537 -0.2633  0.5860
    7MPD2    H513972   3.130   0.770  12.668 -0.2702 -2.0410 -1.9226
    7MPD2    N113973   3.235   1.315  12.578  0.1090  0.6455  0.4822
    7MPD2    H713974   3.314   1.285  12.522  0.0002  0.5677  0.3684
    8TMC3    C113975   3.305   0.666  12.536  0.0073  0.4011  0.6409
    8TMC3    C213976   3.311   0.630  12.670 -0.0736 -0.2800  0.3556
    8TMC3    C313977   3.431   0.563  12.699  0.1191  0.4973 -0.6836
    8TMC3    C413978   3.398   0.645  12.442 -0.1972 -0.2562 -0.1623
    8TMC3    C513979   3.516   0.596  12.490 -0.2986  0.2721  0.8414
    8TMC3    C613980   3.539   0.551  12.615 -0.3209 -0.5271  0.6464
    8TMC3     C13981   3.248   0.801  12.515 -0.3216  0.1312 -0.0592
    8TMC3     O13982   3.314   0.865  12.434  0.2481  0.0216 -0.4208
    8TMC3     H13983   3.225   0.626  12.736 -2.5765  0.2319 -2.9485
    8TMC3    H113984   3.392   0.679  12.339 -2.8336 -1.2971 -0.3308
    8TMC3    H213985   3.634   0.516  12.655  0.3047 -0.7312 -1.0066
    8TMC3    C713986   3.636   0.668  12.450  0.5507  0.1187 -0.1082
    8TMC3    C813987   3.469   0.534  12.835 -0.0691 -0.2197  0.9762
    8TMC3    O113988   3.748   0.619  12.475 -0.1833 -0.1984  0.3460
    8TMC3    O213989   3.559   0.453  12.853 -0.5924 -0.4178  0.3511
    9TMC3    C113990   3.460   1.690  12.456 -0.2485 -0.2440  0.3807
    9TMC3    C213991   3.576   1.617  12.442  0.0808  0.9090  0.1823
    9TMC3    C313992   3.571   1.491  12.499 -0.6280  0.4354 -0.4088
    9TMC3    C413993   3.343   1.642  12.508  0.8866 -0.5289  0.7542
    9TMC3    C513994   3.346   1.511  12.552  1.0818 -0.3953  0.3226
    9TMC3    C613995   3.460   1.433  12.550 -0.4362 -0.5788 -0.2818
    9TMC3     C13996   3.467   1.824  12.402  0.7798 -0.3599  0.2094
    9TMC3     O13997   3.388   1.907  12.445 -0.1256  0.1938  0.1204
    9TMC3     H13998   3.673   1.657  12.415  0.1802  1.2459  1.0226
    9TMC3    H113999   3.253   1.702  12.509  0.3740 -1.3109  1.6212
    9TMC3    H214000   3.469   1.335  12.593  1.6723 -0.1661  0.2164
    9TMC3    C714001   3.223   1.446  12.598  0.3370  0.1534 -0.4890
    9TMC3    C814002   3.678   1.402  12.460 -0.0406 -0.3625 -0.0272
    9TMC3    O114003   3.131   1.511  12.641  0.0224 -0.1768  0.1557
    9TMC3    O214004   3.792   1.449  12.463  0.1907 -0.3501  1.2741
   10MPD2     C14005   3.823   0.896  12.442  0.2768 -0.5120  0.0061
   10MPD2    C114006   3.687   0.912  12.433 -0.9149 -0.6819 -0.1637
   10MPD2    C214007   3.629   1.033  12.433  0.3204  0.7453  0.0511
   10MPD2    C314008   3.710   1.149  12.433 -0.4541  0.0231 -0.0206
   10MPD2    C414009   3.848   1.134  12.424  0.0407  0.2645 -1.1231
   10MPD2    C514010   3.904   1.009  12.434  0.5123  0.0117 -0.6353
   10MPD2     H14011   3.525   1.046  12.459  0.5191  3.1975 -0.3372
   10MPD2    H114012   3.916   1.218  12.430 -0.8728  0.8394  1.1635
   10MPD2    H214013   3.883   0.806  12.432  0.8036  0.0230 -1.7130
   10MPD2    H314014   4.013   1.012  12.437  0.5060  0.0600 -0.4791
   10MPD2     N14015   3.634   1.274  12.437  0.3724 -0.4712  0.2629
   10MPD2    H514016   3.533   1.264  12.430  0.0366  1.2122  2.6915
   10MPD2    N114017   3.602   0.802  12.435 -0.4295 -0.0062  0.5652
   10MPD2    H714018   3.503   0.820  12.442 -0.2920  1.3617 -1.0141
   11MPD2     C14019   3.645   4.524  14.218  0.3255  0.3320 -0.0815
   11MPD2    C114020   3.772   4.523  14.163 -0.2230  0.3587 -0.4737
   11MPD2    C214021   3.793   4.576  14.035 -0.1432  0.3487  0.5653
   11MPD2    C314022   3.686   4.639  13.970 -0.2058  0.8499  0.7685
   11MPD2    C414023   3.560   4.631  14.025 -0.1262  0.3350 -0.0438
   11MPD2    C514024   3.542   4.579  14.149  0.3918 -0.9582  0.5004
   11MPD2     H14025   3.897   4.585  14.005 -0.3707  2.2287  0.3096
   11MPD2    H114026   3.475   4.679  13.977 -0.2226  0.0034 -0.2004
   11MPD2    H214027   3.629   4.483  14.317  1.2956  1.0934  0.3865
   11MPD2    H314028   3.444   4.587  14.195  2.1749 -1.4819  4.4014
   11MPD2     N14029   3.718   4.713  13.851  0.2530  0.2835  0.3933
   11MPD2    H514030   3.812   4.703  13.814  0.8837  1.6837  1.6163
   11MPD2    N114031   3.879   4.464  14.236 -0.4251 -0.0931 -0.2985
   11MPD2    H714032   3.974   4.467  14.200 -0.0792  0.7073  0.6625
    1MPD1     C14033   1.868   1.091  17.048  1.0089 -0.1626  0.1098
    1MPD1    C114034   2.005   1.064  17.047 -0.4466 -0.3875 -0.6006
    1MPD1    C214035   2.102   1.158  17.064  0.2520 -0.4272 -0.8804
    1MPD1    C314036   2.062   1.284  17.110 -0.0274 -0.0451 -0.5828
    1MPD1    C414037   1.929   1.308  17.119 -0.6052 -0.9465 -0.0086
    1MPD1    C514038   1.832   1.215  17.093 -0.3106 -0.4140 -0.2163
    1MPD1     H14039   2.206   1.129  17.062  0.3599 -0.1477  0.6898
    1MPD1    H114040   1.897   1.407  17.150  1.3562  0.4901 -2.5751
    1MPD1    H214041   1.791   1.019  17.023  0.7122  0.4071 -0.6053
    1MPD1    H314042   1.726   1.240  17.093 -0.4953 -1.2077 -1.3966
    1MPD1     N14043   2.148   1.388  17.146  0.2442  0.3619 -0.6778
    1MPD1    H514044   2.115   1.473  17.191  3.1619 -0.4329  2.9295
    1MPD1    N114045   2.043   0.944  16.990 -0.2442 -0.0131 -0.1421
    1MPD1    H614046   2.136   0.909  17.014  0.3077  1.7453  0.3265
    1MPD1    H714047   1.971   0.872  16.988  0.0729 -0.3485  0.4594
    2MPD1     C14048   2.064   2.245  17.597 -0.2296 -0.0244  0.0553
    2MPD1    C114049   2.191   2.226  17.628 -0.0215  0.3135  0.2910
    2MPD1    C214050   2.253   2.118  17.577 -0.1193 -0.0209 -0.8977
    2MPD1    C314051   2.186   2.007  17.523  0.2807  0.3184  0.4970
    2MPD1    C414052   2.047   2.018  17.510 -0.5973  1.0571  0.2476
    2MPD1    C514053   1.987   2.139  17.543  0.1436  0.0907 -0.0218
    2MPD1     H14054   2.361   2.111  17.577 -0.2286 -1.9286  1.4831
    2MPD1    H114055   1.994   1.930  17.475 -0.6009  1.7561 -1.5037
    2MPD1    H214056   2.017   2.341  17.618 -0.2240 -0.3291  1.4677
    2MPD1    H314057   1.882   2.158  17.522  0.3585 -0.6386 -1.7155
    2MPD1     N14058   2.262   1.900  17.466  0.4836 -0.0864  0.0515
    2MPD1    H514059   2.360   1.891  17.491  0.1180 -1.7456  0.8406
    2MPD1    N114060   2.269   2.333  17.672 -0.6490  0.1186  0.5635
    2MPD1    H614061   2.213   2.393  17.732 -0.0110  1.0636  0.2119
    2MPD1    H714062   2.352   2.310  17.726 -0.4291 -0.8483 -0.1723
    3TMC3    C114063   2.301   1.718  17.313  0.0210  1.1618 -0.4863
    3TMC3    C214064   2.436   1.723  17.347  0.2341  0.2270  0.0352
    3TMC3    C314065   2.520   1.638  17.288 -0.6583  0.2504  0.0793
    3TMC3    C414066   2.246   1.621  17.239 -0.1062  0.7633  0.1826
    3TMC3    C514067   2.333   1.514  17.205  0.5873  0.1423 -0.8409
    3TMC3    C614068   2.471   1.535  17.212  0.1286  0.2655  0.8044
    3TMC3     C14069   2.211   1.821  17.366 -0.2138 -0.3112 -1.2584
    3TMC3     O14070   2.096   1.810  17.325  0.3122 -0.1327  0.3969
    3TMC3     H14071   2.473   1.793  17.421  3.1418 -1.2279 -0.0205
    3TMC3    H114072   2.140   1.628  17.220 -0.6216  2.3444  3.5322
    3TMC3    H214073   2.550   1.475  17.169  0.3678  1.1341  0.0136
    3TMC3    C714074   2.282   1.390  17.138 -0.6922  0.7086  0.5252
    3TMC3    C814075   2.670   1.635  17.311  0.9367 -0.4843  0.0047
    3TMC3    O114076   2.363   1.318  17.074 -0.5551 -0.3388  0.0071
    3TMC3    O214077   2.730   1.525  17.304 -0.4715  0.6870  0.0412
    4MPD1     C14078   3.096   1.876  17.433  0.8423  0.5749  0.2513
    4MPD1    C114079   2.998   1.965  17.415  0.1628  0.2009 -0.2277
    4MPD1    C214080   2.871   1.918  17.386  0.2153 -0.6719 -0.1961
    4MPD1    C314081   2.845   1.786  17.372 -0.1093 -0.4636  0.0740
    4MPD1    C414082   2.944   1.697  17.408  0.4666  0.3983 -0.3242
    4MPD1    C514083   3.071   1.743  17.431 -0.4771  0.2429 -0.1056
    4MPD1     H14084   2.791   1.990  17.370 -0.0298 -1.0663 -0.7297
    4MPD1    H114085   2.938   1.589  17.404  1.2731  0.3472 -0.1585
    4MPD1    H214086   3.197   1.908  17.458  1.0365  0.0853  0.1114
    4MPD1    H314087   3.148   1.671  17.455  0.9361  1.0374 -2.2773
    4MPD1     N14088   2.711   1.758  17.340  0.4153 -0.4526 -0.1892
    4MPD1    H514089   2.646   1.836  17.331  1.3338  0.3095 -0.2114
    4MPD1    N114090   3.036   2.099  17.399  0.0735 -0.0055 -0.6494
    4MPD1    H614091   2.962   2.156  17.440  0.4184  0.8703 -1.2541
    4MPD1    H714092   3.117   2.122  17.457  1.8875 -0.1144 -3.1722
    1TCq1    O114093   3.077   0.346  12.146 -0.8585  0.2712 -0.1371
    1TCq1    C114094   3.201   0.380  12.199 -0.0489  0.0451 -0.2492
    1TCq1    O214095   3.228   0.452  12.295  0.4498 -0.0908  0.0848
    1TCq1    C214096   3.300   0.314  12.116 -0.6518 -0.0585  0.0433
    1TCq1    C314097   3.272   0.191  12.066  0.1796  0.1236 -0.1351
    1TCq1    C414098   3.362   0.122  11.995  0.1379  0.1575 -0.3432
    1TCq1    C514099   3.467   0.190  11.945  0.1062 -0.8757  0.3188
    1TCq1    C614100   3.498   0.314  11.997  0.5082 -0.3101  0.0927
    1TCq1    C714101   3.414   0.380  12.082 -1.1751 -0.0407 -0.0310
    1TCq1    C814102   3.607   0.393  11.935  0.0517 -0.0741 -0.8357
    1TCq1    O414103   3.639   0.489  12.001  0.1715 -0.3355 -0.1975
    1TCq1    C914104   3.304   0.018  11.912  0.0164 -0.2340  0.8117
    1TCq1    O514105   3.359   0.008  11.802 -0.2649  0.1534 -0.2655
    1TCq1    O614106   3.186   4.730  11.934 -0.2851 -0.1839  0.1147
    1TCq1    H114107   3.083   0.307  12.056 -0.3392  3.0101 -1.2992
    1TCq1    H214108   3.187   0.140  12.108  1.0897 -0.9976  0.3542
    1TCq1    H314109   3.523   0.141  11.867 -0.5638  0.0685 -0.7584
    1TCq1    H414110   3.451   0.472  12.126  0.1663  0.2964 -1.8781
    2MPD1     C14111   3.867   0.563  11.548  0.1347  0.3893 -0.6444
    2MPD1    C114112   3.771   0.476  11.491 -0.2560 -0.6820 -0.4031
    2MPD1    C214113   3.698   0.405  11.586 -0.3502 -0.3624 -0.3401
    2MPD1    C314114   3.717   0.423  11.723 -0.8874 -0.0465  0.5644
    2MPD1    C414115   3.818   0.504  11.772  0.3303  0.3439  0.8102
    2MPD1    C514116   3.887   0.581  11.680  0.5641 -0.2819  0.0287
    2MPD1     H14117   3.618   0.342  11.547  1.1823 -0.6802 -2.9868
    2MPD1    H114118   3.840   0.522  11.877 -0.7149 -0.9551  1.2523
    2MPD1    H214119   3.919   0.623  11.474 -1.2878 -0.7653 -2.5850
    2MPD1    H314120   3.956   0.655  11.719 -1.2156  0.1052  2.4092
    2MPD1     N14121   3.634   0.354  11.810  0.0193 -0.1437 -0.5154
    2MPD1    H514122   3.561   0.297  11.768  1.0015  0.0874 -2.5426
    2MPD1    N114123   3.752   0.471  11.353  0.2861 -0.2517 -0.1947
    2MPD1    H614124   3.708   0.384  11.320  1.8756 -1.8851  2.0059
    2MPD1    H714125   3.839   0.483  11.301  0.8482  0.1271  0.8515
    1TMC1    C114126   4.110   0.352   1.113  0.3197  0.1681 -0.3059
    1TMC1    C214127   3.986   0.297   1.122  0.5949 -0.5152  0.8229
    1TMC1    C314128   3.924   0.269   1.005 -0.3644  0.6853 -0.0065
    1TMC1    C414129   4.175   0.370   0.996  0.4478 -0.0930  0.0020
    1TMC1    C514130   4.120   0.333   0.883  0.7948 -0.9221  0.3155
    1TMC1    C614131   3.990   0.281   0.883  0.2359 -0.7650  0.4061
    1TMC1     C14132   4.148   0.442   1.234 -0.2154 -0.4841  0.8661
    1TMC1     O14133   4.061   0.438   1.323 -0.7600  0.6421 -0.0593
    1TMC1     H14134   3.935   0.272   1.215 -0.3801 -2.3590 -0.2061
    1TMC1    H114135   4.262   0.435   0.992  0.1316  0.3889  0.9176
    1TMC1    H214136   3.939   0.274   0.788  0.8955 -0.8771  0.0638
    1TMC1    C714137   4.209   0.351   0.768 -0.5593  0.5700 -0.5546
    1TMC1    C814138   3.799   0.199   1.008  0.5421  0.6272 -0.3035
    1TMC1    O114139   4.320   0.396   0.766 -0.0821 -0.6698  0.0138
    1TMC1    O214140   3.722   0.223   1.100 -0.4104  0.2858 -0.2982
    1TMC1    O314141   4.165   0.253   0.679 -0.9762  0.0643 -0.3772
    1TMC1    H314142   4.079   0.206   0.684 -1.6065  1.2698  0.1761
    1TMC1    O514143   3.818   0.072   0.954  0.3934  0.1885  0.3141
    1TMC1    H514144   3.889   0.058   0.888  0.5577  0.3845  0.4500
    2MPD1     C14145   4.477   0.716   1.518 -0.2432 -0.2937  0.6307
    2MPD1    C114146   4.541   0.688   1.400 -0.9613 -0.0379 -0.2675
    2MPD1    C214147   4.486   0.594   1.316  0.2406  0.1955 -0.3304
    2MPD1    C314148   4.346   0.562   1.330 -0.5454  0.1854  0.4069
    2MPD1    C414149   4.281   0.609   1.436 -0.8678  0.6927 -0.2529
    2MPD1    C514150   4.347   0.682   1.537  0.0826 -0.0114  0.5060
    2MPD1     H14151   4.543   0.555   1.233 -0.6021 -3.3425  0.7460
    2MPD1    H114152   4.174   0.605   1.453 -0.6311  1.0221  1.2831
    2MPD1    H214153   4.523   0.780   1.593  0.3646 -3.3801  2.8914
    2MPD1    H314154   4.289   0.716   1.622 -3.0150  0.5777 -1.8276
    2MPD1     N14155   4.281   0.480   1.233 -0.6412  0.1036 -0.0408
    2MPD1    H514156   4.338   0.450   1.155  1.7117  0.0946  1.6802
    2MPD1    N114157   4.678   0.726   1.385 -0.2463  0.5177  0.2007
    2MPD1    H614158   4.701   0.732   1.286 -0.7381 -0.3581  0.0384
    2MPD1    H714159   4.685   0.813   1.438  3.3115  0.0822  0.4491
    1MPD1     C14160   4.226   0.240  12.509 -0.4086 -0.2238 -0.2868
    1MPD1    C114161   4.236   0.348  12.589 -0.1444 -0.8034 -0.1458
    1MPD1    C214162   4.337   0.438  12.548  0.1470  0.3473  0.5685
    1MPD1    C314163   4.420   0.410  12.439  0.0538 -0.4276 -0.3682
    1MPD1    C414164   4.415   0.285  12.381  1.0263  0.3777 -0.0809
    1MPD1    C514165   4.301   0.213  12.402 -0.3258 -0.1590  0.1857
    1MPD1     H14166   4.341   0.533  12.599 -0.8272  0.7075 -0.0193
    1MPD1    H114167   4.453   0.267  12.281  0.4466 -1.3482  0.0208
    1MPD1    H214168   4.148   0.170  12.536 -1.3900  1.4257  1.1616
    1MPD1    H314169   4.266   0.131  12.340 -2.3171 -0.0064  1.1100
    1MPD1     N14170   4.515   0.506  12.397  0.1207 -0.1426 -0.1623
    1MPD1    H514171   4.496   0.599  12.433 -1.4354 -0.1928 -0.8823
    1MPD1    N114172   4.135   0.381  12.682 -0.5835 -0.0103 -0.1378
    1MPD1    H614173   4.165   0.454  12.745 -0.5366  0.5052 -0.7554
    1MPD1    H714174   4.096   0.300  12.730  1.5720 -0.5683  0.6815
    2MPD1     C14175   0.855   2.160  10.348  0.5454 -0.3600  0.1958
    2MPD1    C114176   0.723   2.119  10.364  0.6610 -0.7521  0.7974
    2MPD1    C214177   0.697   2.004  10.433 -0.9758  0.0556 -0.1240
    2MPD1    C314178   0.804   1.932  10.490 -0.3865 -0.0137 -0.0237
    2MPD1    C414179   0.935   1.980  10.468  0.3375  0.1823  0.8404
    2MPD1    C514180   0.954   2.097  10.405  0.0358 -0.2055 -0.5721
    2MPD1     H14181   0.592   1.980  10.445 -0.8902 -0.9488 -1.4090
    2MPD1    H114182   1.020   1.934  10.518 -0.4326 -3.0871 -0.8721
    2MPD1    H214183   0.875   2.260  10.309 -2.9258 -0.3186 -1.4928
    2MPD1    H314184   1.053   2.139  10.394  1.4277 -2.9161  1.6782
    2MPD1     N14185   0.787   1.811  10.564 -0.4702 -0.3661 -0.2006
    2MPD1    H514186   0.875   1.762  10.577  0.4230  0.5493 -2.6650
    2MPD1    N114187   0.626   2.194  10.298  0.0260 -0.1191 -0.6273
    2MPD1    H614188   0.531   2.159  10.308 -0.5392  1.9323  1.1336
    2MPD1    H714189   0.647   2.208  10.200 -2.8094 -1.6259 -1.4538
    3MPD1     C14190   1.199   1.105  11.101  0.5990 -0.0923  0.4923
    3MPD1    C114191   1.221   1.148  10.976  0.0723 -0.7338 -0.5580
    3MPD1    C214192   1.125   1.230  10.920 -0.5652 -0.0291  0.4918
    3MPD1    C314193   1.015   1.269  10.992 -0.3152 -0.3153 -0.5747
    3MPD1    C414194   1.001   1.230  11.128 -0.0708 -0.5341  0.3727
    3MPD1    C514195   1.089   1.138  11.174 -0.6282 -0.7869 -0.5486
    3MPD1     H14196   1.133   1.249  10.814 -2.2903 -1.7599  0.0412
    3MPD1    H114197   0.923   1.263  11.195 -0.8658 -1.0886 -0.2816
    3MPD1    H214198   1.269   1.041  11.153  0.4621 -0.6708 -0.0253
    3MPD1    H314199   1.080   1.106  11.277  1.5570  0.6977  0.1202
    3MPD1     N14200   0.908   1.344  10.940  0.5623 -0.0008  0.6855
    3MPD1    H514201   0.832   1.368  11.004  1.4901 -0.7542  2.0767
    3MPD1    N114202   1.337   1.097  10.910  0.1551 -0.0765 -0.7448
    3MPD1    H614203   1.365   1.162  10.836 -1.7949  1.1652 -0.3902
    3MPD1    H714204   1.420   1.090  10.969 -0.4846 -1.2054  0.0025
    4MPD2     C14205   4.537   1.211  12.174  0.4246  0.4806 -1.1739
    4MPD2    C114206   4.646   1.136  12.144 -0.9303  0.2019  0.7551
    4MPD2    C214207   0.001   1.182  12.051 -0.2804  0.1809 -1.3760
    4MPD2    C314208   4.714   1.297  11.980 -0.1237 -0.2587 -1.0403
    4MPD2    C414209   4.595   1.363  12.003 -0.2182 -0.6405 -0.1442
    4MPD2    C514210   4.507   1.314  12.092 -0.1190  0.1121  0.1111
    4MPD2     H14211   0.090   1.126  12.025  0.3188  0.2664  0.4622
    4MPD2    H114212   4.567   1.450  11.945 -1.2528 -0.2020  1.0057
    4MPD2    H214213   4.463   1.180  12.247 -1.9584  1.2895 -3.2544
    4MPD2    H314214   4.405   1.351  12.097  0.7323  2.5124 -0.0151
    4MPD2     N14215   0.061   1.320  11.874  0.1233  0.3129  0.0357
    4MPD2    H514216   0.148   1.270  11.866 -0.5633 -0.8320 -0.2821
    4MPD2    N114217   4.684   1.015  12.209  0.0570  0.5783 -0.2894
    4MPD2    H714218   0.035   0.975  12.190  0.3224  1.9834 -1.9422
    5TMC3    C114219   4.683   0.834  12.362  0.2797  0.2544  0.8130
    5TMC3    C214220   4.612   0.724  12.325  0.1497 -0.1469  0.3753
    5TMC3    C314221   4.683   0.613  12.285  0.2413 -0.8162 -0.1753
    5TMC3    C414222   0.075   0.835  12.348  0.7892  0.0886  0.7483
    5TMC3    C514223   0.133   0.738  12.275 -0.4330 -0.5901 -0.5352
    5TMC3    C614224   0.076   0.613  12.250  0.5618  0.3100 -0.1592
    5TMC3     C14225   4.616   0.957  12.316 -0.2094 -0.3925 -1.0976
    5TMC3     O14226   4.498   0.975  12.347  0.1232 -0.3495 -0.5424
    5TMC3     H14227   4.504   0.730  12.319  0.1577  0.1169  0.5105
    5TMC3    H114228   0.138   0.916  12.385  0.3449 -0.0748  1.8815
    5TMC3    H214229   0.125   0.528  12.206  1.2568  0.9972 -0.7210
    5TMC3    C714230   0.197   0.801  12.164  0.5585 -0.4905 -0.3499
    5TMC3    C814231   4.614   0.488  12.301 -0.5894  0.7869 -0.2625
    5TMC3    O114232   0.207   0.922  12.169 -0.0574 -0.1291 -0.2500
    5TMC3    O214233   4.653   0.386  12.250  0.1414 -0.7563 -0.2456
    6TMC3    C114234   0.673   1.650  10.703  0.2841  0.1290 -0.4585
    6TMC3    C214235   0.787   1.581  10.713 -0.2092  0.2332  0.6603
    6TMC3    C314236   0.779   1.480  10.805 -0.1038  0.6289  0.2607
    6TMC3    C414237   0.551   1.615  10.756  0.6144  0.5296  0.0123
    6TMC3    C514238   0.553   1.507  10.842 -0.4139  1.0716  0.1079
    6TMC3    C614239   0.668   1.446  10.879 -0.0841  0.4203  0.3031
    6TMC3     C14240   0.663   1.764  10.613 -0.3742  0.4791 -1.0624
    6TMC3     O14241   0.554   1.817  10.591  0.2095 -0.0034 -0.1713
    6TMC3     H14242   0.869   1.600  10.643 -0.9939 -2.6886 -1.0582
    6TMC3    H114243   0.456   1.658  10.726  0.1009 -0.3458  0.3889
    6TMC3    H214244   0.667   1.352  10.933  0.1251  0.3684  0.2153
    6TMC3    C714245   0.443   1.466  10.929 -0.6378 -0.0215  0.4578
    6TMC3    C814246   0.900   1.399  10.817  0.4102 -0.1509 -0.2703
    6TMC3    O114247   0.474   1.386  11.018 -0.7066  0.2056  0.3771
    6TMC3    O214248   0.978   1.400  10.727 -0.1388 -0.3110 -0.6811
    7MPD2     C14249   0.406   0.750  11.701  0.3048 -0.2033  0.0175
    7MPD2    C114250   0.347   0.863  11.762 -0.6436 -0.4659  0.2140
    7MPD2    C214251   0.304   0.846  11.889 -0.0610  0.3528  0.6767
    7MPD2    C314252   0.325   0.732  11.959 -0.3610 -0.4621 -0.0914
    7MPD2    C414253   0.397   0.626  11.907  0.3867  0.4538  1.2028
    7MPD2    C514254   0.431   0.639  11.770 -0.7365 -0.2202  0.1757
    7MPD2     H14255   0.253   0.927  11.940 -1.4838  0.6410 -1.1910
    7MPD2    H114256   0.407   0.532  11.960  1.2235  0.4607  1.0553
    7MPD2    H214257   0.440   0.759  11.598 -1.9625  1.0511 -0.6306
    7MPD2    H314258   0.473   0.555  11.716  2.3023  1.7721 -0.5594
    7MPD2     N14259   0.269   0.709  12.091 -0.9149  0.4151 -0.1096
    7MPD2    H514260   0.286   0.614  12.121 -2.2569  0.2448  0.0653
    7MPD2    N114261   0.351   0.993  11.697  0.0654  0.2467 -0.1416
    7MPD2    H714262   0.393   0.997  11.604  2.2907  0.7030  0.8751
    8TMC3    C114263   0.304   1.217  11.674 -0.1150  0.4129 -0.1706
    8TMC3    C214264   0.265   1.185  11.547  0.5511  1.4372 -0.4716
    8TMC3    C314265   0.162   1.262  11.495 -0.7224 -0.0496  0.3652
    8TMC3    C414266   0.251   1.331  11.734  0.0482 -0.3560 -0.3232
    8TMC3    C514267   0.145   1.397  11.682 -0.4476 -0.1379 -0.2958
    8TMC3    C614268   0.101   1.361  11.563  0.2186  0.0375  0.7412
    8TMC3     C14269   0.313   1.109  11.766 -0.7319 -0.1399  0.7992
    8TMC3     O14270   0.259   1.127  11.872 -0.2310 -0.1550  0.5446
    8TMC3     H14271   0.313   1.110  11.486  1.2964  0.5587  1.2057
    8TMC3    H114272   0.300   1.361  11.826  0.5879  1.0411 -1.0597
    8TMC3    H214273   0.006   1.404  11.533 -0.4881 -1.0935  1.3005
    8TMC3    C714274   0.036   1.407  11.771  0.9120  0.1180  0.9327
    8TMC3    C814275   0.183   1.286  11.358 -0.1525 -0.3348 -0.7357
    8TMC3    O114276   4.678   1.475  11.740 -0.3636 -0.4631 -0.0919
    8TMC3    O214277   0.294   1.255  11.317 -0.4189 -0.5367  0.1795
    9MPD2     C14278   4.717   1.464  11.125  0.2263 -0.1369  0.2593
    9MPD2    C114279   0.098   1.423  11.178 -0.1421  0.0042 -0.4959
    9MPD2    C214280   0.208   1.437  11.096  0.0705  0.1223 -0.2909
    9MPD2    C314281   0.201   1.492  10.966  0.0872 -0.5624  0.0992
    9MPD2    C414282   0.079   1.541  10.919 -0.5084  1.0349  0.5598
    9MPD2    C514283   4.708   1.534  11.006  0.1534  0.1465 -0.2387
    9MPD2     H14284   0.303   1.437  11.149 -1.3016 -2.2199  2.1206
    9MPD2    H114285   0.085   1.609  10.834 -2.7397  0.4390 -0.0858
    9MPD2    H214286   4.629   1.453  11.187 -0.9939  0.9550 -1.2884
    9MPD2    H314287   4.612   1.571  10.974  0.9929  1.5628 -1.0994
    9MPD2     N14288   0.319   1.517  10.888  0.5273 -0.0704  0.2077
    9MPD2    H514289   0.328   1.564  10.799  1.1973 -1.4481 -0.4536
    9MPD2    N114290   0.083   1.357  11.295 -0.0700 -0.8347  0.2556
    9MPD2    H714291   4.728   1.334  11.324 -0.2014  0.1545  0.6108
    1MPD1     C14292   1.458   4.464  15.816 -0.0355 -0.2870  0.3567
    1MPD1    C114293   1.349   4.419  15.893 -0.3680 -0.4750  0.3386
    1MPD1    C214294   1.332   4.485  16.012  0.8445  0.2922 -0.2475
    1MPD1    C314295   1.431   4.554  16.073 -0.1352 -1.0106 -0.1739
    1MPD1    C414296   1.543   4.583  16.000  0.5639 -0.0020 -0.8938
    1MPD1    C514297   1.557   4.537  15.871  0.2028  0.4509  0.0430
    1MPD1     H14298   1.244   4.467  16.072 -0.1181 -0.1644 -1.7916
    1MPD1    H114299   1.620   4.642  16.050  1.4798 -3.2027  1.4553
    1MPD1    H214300   1.479   4.436  15.713 -0.7067 -1.2778  0.4884
    1MPD1    H314301   1.645   4.562  15.814 -0.4273  0.1649 -1.0677
    1MPD1     N14302   1.412   4.618  16.202  0.0532 -0.4330 -0.6756
    1MPD1    H514303   1.474   4.697  16.213  0.1056 -0.6498  0.6114
    1MPD1    N114304   1.241   4.350  15.832  0.3142  0.6200 -0.1385
    1MPD1    H614305   1.290   4.288  15.768 -1.1528 -0.0192 -0.6307
    1MPD1    H714306   1.190   4.292  15.898  1.0454 -2.8003 -2.5721
    2TMC2    C114307   1.165   0.012  16.574 -0.1782  0.7064  0.0250
    2TMC2    C214308   1.181   0.146  16.555 -0.5123  0.2177 -0.4448
    2TMC2    C314309   1.238   0.180  16.440 -0.2925  0.0772 -0.2923
    2TMC2    C414310   1.211   4.657  16.491 -0.1126 -0.7855 -0.3380
    2TMC2    C514311   1.284   4.695  16.384  0.9116 -0.6050 -0.3044
    2TMC2    C614312   1.303   0.085  16.354 -0.1749  0.1417 -0.1060
    2TMC2     C14313   1.107   4.713  16.701 -0.1505 -0.2098 -0.1666
    2TMC2     O14314   1.156   4.612  16.758  0.1694  0.2943  0.1972
    2TMC2     H14315   1.167   0.222  16.630  3.8338  0.5651  0.0254
    2TMC2    H114316   1.209   4.551  16.512 -0.1760 -0.5075  1.0178
    2TMC2    H214317   1.346   0.126  16.263  3.4600  0.0706  1.5980
    2TMC2    C714318   1.309   4.586  16.291  0.2897  0.2490 -0.9434
    2TMC2    C814319   1.258   0.319  16.399 -0.3300  0.0175  0.3736
    2TMC2    O114320   1.246   4.483  16.305 -0.0579 -0.0006  0.1490
    2TMC2    O214321   1.324   0.348  16.302  0.5368  0.0919 -0.4872
    2TMC2    O514322   1.151   0.399  16.435  0.2732  0.2761 -0.2762
    2TMC2    H514323   1.096   0.365  16.508 -1.9982 -0.1796 -2.2012
    3MPD1     C14324   0.776   0.037  17.092 -0.3539 -0.1376 -0.4993
    3MPD1    C114325   0.754   0.136  16.995  0.0584 -0.1095  0.6136
    3MPD1    C214326   0.833   0.133  16.885  0.1464  0.1792 -0.1550
    3MPD1    C314327   0.926   0.041  16.865 -0.0018 -0.2440  0.1631
    3MPD1    C414328   0.933   4.675  16.959  0.8457  0.0533  0.4992
    3MPD1    C514329   0.870   4.684  17.081  0.8099  0.4119  0.7536
    3MPD1     H14330   0.816   0.205  16.806 -2.2478 -0.9937 -0.6978
    3MPD1    H114331   1.011   4.602  16.942  2.0535  2.2550 -3.6186
    3MPD1    H214332   0.719   0.046  17.183 -0.1684  0.1700 -0.4122
    3MPD1    H314333   0.901   4.613  17.156  0.5369  1.7370  2.1035
    3MPD1     N14334   1.004   0.059  16.745  0.1495  0.1202  0.3336
    3MPD1    H514335   0.983   0.139  16.686  1.4594 -0.3396 -0.7652
    3MPD1    N114336   0.669   0.241  17.031  0.5220 -0.3284 -0.0127
    3MPD1    H614337   0.641   0.301  16.954  0.0529 -0.8474 -0.2457
    3MPD1    H714338   0.583   0.211  17.077  0.4464  1.1240  0.7938
    1TMC1    C114339   2.490   3.579  12.588 -0.1982  0.0224  0.1934
    1TMC1    C214340   2.378   3.624  12.525 -0.1207 -0.2327  0.7508
    1TMC1    C314341   2.334   3.541  12.421 -0.2657 -0.5428  0.6539
    1TMC1    C414342   2.549   3.455  12.557  0.1030  0.5946  0.6508
    1TMC1    C514343   2.506   3.381  12.450  0.5024  0.1020 -0.4118
    1TMC1    C614344   2.398   3.428  12.376  0.4718  0.4470 -0.4199
    1TMC1     C14345   2.564   3.680  12.663 -0.1770  0.2841 -0.1417
    1TMC1     O14346   2.505   3.789  12.670  0.7256  0.4295 -0.0729
    1TMC1     H14347   2.313   3.704  12.560  1.3751  1.0462  0.6158
    1TMC1    H114348   2.641   3.425  12.606  1.3563  1.0095 -1.4264
    1TMC1    H214349   2.356   3.387  12.285 -0.2214 -4.9067  2.3736
    1TMC1    C714350   2.603   3.290  12.394 -0.0304 -0.1936 -0.4535
    1TMC1    C814351   2.215   3.584  12.351  0.8680 -0.1825 -0.4364
    1TMC1    O114352   2.718   3.303  12.424  0.0104 -0.2114 -0.8537
    1TMC1    O214353   2.208   3.577  12.228 -0.1149  0.3206 -0.2742
    1TMC1    O314354   2.541   3.180  12.348 -0.2499  0.9617  0.5850
    1TMC1    H314355   2.445   3.175  12.367 -0.0680  0.4901  1.3555
    1TMC1    O514356   2.110   3.599  12.435 -0.7660  0.0427 -0.1410
    1TMC1    H514357   2.134   3.586  12.529  3.2242  0.5688 -1.1195
    2MPD2     C14358   2.726   3.826  12.857 -0.0791  0.6728  0.0718
    2MPD2    C114359   2.747   3.696  12.828 -0.4354  0.0077  0.1547
    2MPD2    C214360   2.845   3.629  12.900  0.0647  0.4925 -0.2392
    2MPD2    C314361   2.919   3.695  12.991  0.1571  0.7753  0.7032
    2MPD2    C414362   2.895   3.828  13.018 -0.1258  1.1124 -0.1474
    2MPD2    C514363   2.808   3.898  12.938  0.1803  0.0469  0.3553
    2MPD2     H14364   2.849   3.521  12.891 -3.0435  0.4466 -1.2460
    2MPD2    H114365   2.962   3.874  13.090  0.5676  1.3814 -0.9606
    2MPD2    H214366   2.652   3.884  12.804 -0.6678  1.2170  1.4708
    2MPD2    H314367   2.796   4.004  12.958 -0.6461  0.2381 -1.1218
    2MPD2     N14368   3.007   3.613  13.066 -0.3372  0.0251  0.2452
    2MPD2    H514369   3.016   3.513  13.055  2.6154  0.3571 -0.3797
    2MPD2    N114370   2.673   3.629  12.738  1.0227 -0.8215  0.2203
    2MPD2    H714371   2.695   3.530  12.737  0.5460 -0.8936 -2.2817
    3TCq1    O114372   3.258   3.105  13.305 -0.2742  0.3030  0.3931
    3TCq1    C114373   3.154   3.183  13.259 -0.0436  0.1741  0.5669
    3TCq1    O214374   3.065   3.148  13.182 -0.0408 -0.9333 -0.0958
    3TCq1    C214375   3.196   3.322  13.276  1.1304  0.0554  0.5920
    3TCq1    C314376   3.240   3.360  13.402  0.0168 -0.1886 -0.4673
    3TCq1    C414377   3.250   3.494  13.439 -0.4366 -0.7041  0.8183
    3TCq1    C514378   3.204   3.588  13.355 -0.6322 -0.0302 -0.4213
    3TCq1    C614379   3.161   3.554  13.232  0.8519 -0.0805 -0.0995
    3TCq1    C714380   3.159   3.420  13.196  0.1660  0.1624 -0.3065
    3TCq1    C814381   3.093   3.659  13.163 -0.2238  0.2826 -0.0834
    3TCq1    O414382   3.117   3.775  13.199  0.2487 -0.0177  0.2391
    3TCq1    C914383   3.304   3.525  13.570 -0.4129 -0.1420  0.0807
    3TCq1    O514384   3.347   3.432  13.645 -0.8298 -0.3052  0.4416
    3TCq1    O614385   3.297   3.646  13.605 -0.4645 -0.2166  0.3819
    3TCq1    H114386   3.333   3.154  13.346  0.1580 -0.2291  0.2301
    3TCq1    H214387   3.278   3.282  13.468 -1.0601 -1.0757 -0.8939
    3TCq1    H314388   3.213   3.689  13.393 -2.5241 -0.6076  1.5197
    3TCq1    H414389   3.108   3.388  13.106 -0.2062  0.4431 -0.1934
    1MPD2     C14390   1.857   0.166  15.096  0.3292  0.0036 -0.3734
    1MPD2    C114391   1.783   0.108  14.997  0.0650 -0.2580 -0.1683
    1MPD2    C214392   1.719   4.731  15.028  0.3317  0.4045  0.0291
    1MPD2    C314393   1.728   4.666  15.145  0.5037  0.1768 -0.3215
    1MPD2    C414394   1.808   4.718  15.242 -0.5593  0.0470  0.0628
    1MPD2    C514395   1.865   0.099  15.221 -0.6429 -0.0735 -0.5473
    1MPD2     H14396   1.651   4.692  14.953 -0.1515 -1.8596  1.6739
    1MPD2    H114397   1.824   4.680  15.342 -2.2824  0.9214  0.6594
    1MPD2    H214398   1.911   0.259  15.087  1.1589 -0.5515 -1.0770
    1MPD2    H314399   1.934   0.144  15.291  2.7519 -4.1254 -1.2706
    1MPD2     N14400   1.651   4.549  15.164  0.2155  0.3132  0.7629
    1MPD2    H514401   1.574   4.533  15.099  0.5968 -3.2861  1.1958
    1MPD2    N114402   1.786   0.161  14.869 -0.3501 -0.0077 -0.4014
    1MPD2    H714403   1.831   0.251  14.856 -0.7836  0.3319  0.4902
    2TMC3    C114404   1.737   0.170  14.639  0.0760 -0.1302  0.4367
    2TMC3    C214405   1.688   0.104  14.532 -0.3208  0.3537 -0.8370
    2TMC3    C314406   1.586   0.157  14.456 -0.7107  0.2798 -0.4988
    2TMC3    C414407   1.696   0.300  14.659  0.7427  0.2928 -0.3050
    2TMC3    C514408   1.606   0.355  14.569  0.3990 -0.9202  0.0111
    2TMC3    C614409   1.554   0.287  14.467 -0.0200 -0.2329  0.1981
    2TMC3     C14410   1.752   0.089  14.756  0.0902  0.5200  0.3935
    2TMC3     O14411   1.716   4.713  14.740 -0.3399 -0.0510  0.0872
    2TMC3     H14412   1.718   0.001  14.515  1.1086  0.6063  0.1576
    2TMC3    H114413   1.732   0.348  14.749 -0.6076  0.8537 -0.0584
    2TMC3    H214414   1.481   0.323  14.396 -0.3462  1.0212  1.1601
    2TMC3    C714415   1.636   0.492  14.538  0.0899  0.1042 -0.0619
    2TMC3    C814416   1.487   0.053  14.429  0.4144  0.3115 -0.0121
    2TMC3    O114417   1.609   0.533  14.426 -0.4106 -0.0912  0.2313
    2TMC3    O214418   1.396   0.076  14.355  0.3129  0.4482 -0.2744
    3TCq1    O114419   2.497   1.095  15.082 -0.7562 -0.5921 -0.0296
    3TCq1    C114420   2.416   1.105  15.189 -0.0046  0.0346 -0.2039
    3TCq1    O214421   2.411   1.211  15.251 -0.4031 -0.0605  0.2477
    3TCq1    C214422   2.295   1.034  15.157  0.1050 -1.0961 -0.1735
    3TCq1    C314423   2.226   0.982  15.269  0.0098 -0.0960 -0.4559
    3TCq1    C414424   2.105   0.925  15.243 -0.1205  1.1964  0.9211
    3TCq1    C514425   2.056   0.911  15.113  0.3336 -1.0661  1.6390
    3TCq1    C614426   2.128   0.969  15.010  0.3133 -0.7966 -0.5425
    3TCq1    C714427   2.241   1.052  15.035  0.1746  0.6787  0.4163
    3TCq1    C814428   2.079   0.971  14.876 -0.0119 -0.0308 -0.0560
    3TCq1    O414429   2.133   1.043  14.796 -0.1458  0.5238  0.4814
    3TCq1    C914430   2.021   0.875  15.346  0.3632  0.4025 -0.2488
    3TCq1    O514431   2.084   0.855  15.455 -0.1566 -0.0019 -0.7101
    3TCq1    O614432   1.898   0.864  15.327  0.4888 -0.0991  0.1447
    3TCq1    H114433   2.486   1.011  15.034 -3.2196 -0.9566  1.1956
    3TCq1    H214434   2.253   1.003  15.371  0.1513 -3.6184  0.2156
    3TCq1    H314435   1.965   0.851  15.107 -1.4046  1.8981 -1.2707
    3TCq1    H414436   2.290   1.107  14.956 -0.8920  0.9271 -0.0700
    4MPD2     C14437   1.922   0.902  14.622 -0.4147  0.4163 -0.2101
    4MPD2    C114438   1.910   0.850  14.746 -0.0260  0.0507  0.0106
    4MPD2    C214439   1.829   0.735  14.752  0.3944 -0.0143  0.4470
    4MPD2    C314440   1.770   0.673  14.635  0.8805  0.3349 -0.0221
    4MPD2    C414441   1.793   0.744  14.515  0.0381  0.3079 -0.9189
    4MPD2    C514442   1.856   0.867  14.510  0.1627  0.0854 -0.2310
    4MPD2     H14443   1.812   0.683  14.845  0.2525  0.9757  0.9714
    4MPD2    H114444   1.743   0.716  14.423 -1.2500  2.1117 -0.7709
    4MPD2    H214445   1.975   0.996  14.616  0.7244 -0.2941 -1.1675
    4MPD2    H314446   1.869   0.924  14.419 -0.2435  0.1789 -0.2334
    4MPD2     N14447   1.697   0.556  14.648 -0.1515 -0.1859 -0.0522
    4MPD2    H514448   1.705   0.507  14.737 -2.4587 -3.2224 -1.5299
    4MPD2    N114449   1.970   0.893  14.867 -0.1903  0.2608 -0.5825
    4MPD2    H714450   1.936   0.855  14.955 -3.0936  2.0014 -0.9538
    5TMC2    C114451   1.430   4.307  15.054 -0.1196 -0.0108 -0.2775
    5TMC2    C214452   1.507   4.199  15.011 -0.2535 -0.0567  0.4578
    5TMC2    C314453   1.606   4.158  15.090 -0.5094  0.6026  0.1071
    5TMC2    C414454   1.463   4.380  15.166 -0.3459  0.0482  0.3077
    5TMC2    C514455   1.574   4.343  15.242  0.4423  0.6636 -0.3299
    5TMC2    C614456   1.645   4.231  15.202  0.8754  0.1444 -0.4341
    5TMC2     C14457   1.409   4.404  14.946 -0.0173  0.0264 -0.4498
    5TMC2     O14458   1.425   4.523  14.965 -1.1208 -0.0568  0.4308
    5TMC2     H14459   1.473   4.133  14.932  2.9258 -1.3334  0.1470
    5TMC2    H114460   1.402   4.464  15.198 -1.1634 -0.3248 -0.2986
    5TMC2    H214461   1.733   4.192  15.250 -0.2897 -2.0666 -0.1093
    5TMC2    C714462   1.665   4.454  15.262 -0.2836 -0.3182 -0.1243
    5TMC2    C814463   1.616   4.010  15.105 -0.5834 -0.6728 -0.2060
    5TMC2    O114464   1.763   4.437  15.330  0.4853  0.3228  0.3361
    5TMC2    O214465   1.518   3.935  15.091 -0.3215  0.9361  0.5003
    5TMC2    O514466   1.746   3.975  15.102 -0.0498  0.3259 -0.8382
    5TMC2    H514467   1.815   4.044  15.100  0.9367 -0.6463 -0.4327
    6MPD2     C14468   1.344   4.531  14.467 -0.1785  0.2644 -0.6439
    6MPD2    C114469   1.420   4.589  14.555 -0.0136 -0.3119 -0.2393
    6MPD2    C214470   1.433   4.528  14.676 -0.5222 -0.2596  0.3539
    6MPD2    C314471   1.369   4.409  14.708  0.1774 -0.0117  0.0200
    6MPD2    C414472   1.283   4.360  14.616  0.0574 -0.3624 -0.7183
    6MPD2    C514473   1.268   4.423  14.495 -0.2289 -0.5981 -0.1833
    6MPD2     H14474   1.478   4.581  14.759 -4.2822  2.9091  0.3303
    6MPD2    H114475   1.227   4.268  14.633  0.4598 -0.1028  1.9484
    6MPD2    H214476   1.351   4.554  14.361 -1.3314  1.1143 -0.5441
    6MPD2    H314477   1.215   4.366  14.420 -0.8496 -2.4402  1.6436
    6MPD2     N14478   1.364   4.343  14.829 -0.1880  0.3967  0.4297
    6MPD2    H514479   1.331   4.248  14.839 -0.2433  0.4063  0.3381
    6MPD2    N114480   1.500   4.706  14.530  0.4643  0.2778 -0.1661
    6MPD2    H714481   1.565   4.729  14.605 -0.5490  0.1892  0.7440
  945NH4     N114482   3.552   2.972  16.570  0.0632  0.6842 -0.2045
  945NH4     H214483   3.592   3.044  16.634 -0.5073 -0.1761  1.1269
  945NH4     H314484   3.573   2.877  16.607 -1.6842  0.2989 -0.1775
  945NH4     H414485   3.602   2.983  16.480 -1.1418 -0.8741 -1.0761
  945NH4     H514486   3.449   2.983  16.557  0.1116  0.4502 -0.7868
  946SOD     NA14487   0.436   1.186  11.151 -0.6912  0.3543 -0.4616
  947SOD     NA14488   2.255   4.411  15.198 -0.0808 -0.2269 -0.2745
  948SOD     NA14489   4.301   3.278  13.220 -0.1876  0.0019 -0.1980
  949SOD     NA14490   2.735   1.217  16.537 -0.0152 -0.3464 -0.3594
  950SOD     NA14491   1.333   0.358   1.736  0.0398 -0.2702 -0.5623
  951SOD     NA14492   2.983   4.602   5.656 -0.2749  0.3424 -0.4159
  952SOD     NA14493   3.006   0.088  11.892 -0.3169 -0.2012  0.0210
  953SOL     OW14494   2.568   2.385   1.743  0.0384  0.0710  0.3326
  953SOL    HW114495   2.629   2.438   1.794  0.3660 -0.0926  0.1109
  953SOL    HW214496   2.622   2.381   1.664 -0.0789 -1.4521  0.3348
  954SOL     OW14497   4.681   2.022   1.775  0.1447 -0.1867 -0.5354
  954SOL    HW114498   4.613   1.956   1.763 -0.0418  0.0646 -0.8680
  954SOL    HW214499   4.687   2.069   1.692 -1.2441 -2.7750 -2.1019
  955SOL     OW14500   4.117   1.065  13.541  0.2085 -0.5343  0.6161
  955SOL    HW114501   4.153   1.098  13.459 -0.4813  1.6632  1.2014
  955SOL    HW214502   4.112   1.145  13.594  0.9742  0.1838 -0.4158
  956SOL     OW14503   4.135   0.949  11.987  0.2347  0.0194  0.1253
  956SOL    HW114504   4.043   0.938  11.962  0.0687  1.0530  0.2709
  956SOL    HW214505   4.138   0.895  12.065  1.2050  1.5076  1.1124
  957SOL     OW14506   0.643   3.710   9.937  0.6077  0.1431  0.1690
  957SOL    HW114507   0.606   3.737   9.853  0.8113  0.5284  0.2041
  957SOL    HW214508   0.701   3.785   9.952  0.2702  0.1648  1.3986
  958SOL     OW14509   1.833   2.311   8.959 -0.0532 -0.3542  0.1313
  958SOL    HW114510   1.885   2.367   8.902  0.1332 -0.1785  0.4689
  958SOL    HW214511   1.808   2.249   8.891  2.0047  0.6084 -1.5055
  959SOL     OW14512   1.153   2.771  10.095  0.3407 -0.3565  0.1814
  959SOL    HW114513   1.240   2.807  10.107  0.1020 -0.7270  2.8221
  959SOL    HW214514   1.131   2.846  10.039  0.8886 -1.6661 -1.7933
  960SOL     OW14515   3.528   1.052   2.986  0.5943  0.5341 -0.3142
  960SOL    HW114516   3.596   1.120   2.978  0.9644  0.3059  0.8169
  960SOL    HW214517   3.483   1.080   3.065  0.9611 -1.1527  0.4779
  961SOL     OW14518   3.489   1.536   7.592  0.2006 -0.5972  0.1853
  961SOL    HW114519   3.486   1.536   7.496 -1.0650  1.2665  0.2211
  961SOL    HW214520   3.513   1.627   7.609 -0.7887 -0.1889 -0.5419
  962SOL     OW14521   0.436   2.163   0.710  0.0627  0.2328 -0.3168
  962SOL    HW114522   0.389   2.120   0.781 -0.0262  1.5779  0.4257
  962SOL    HW214523   0.486   2.087   0.681 -1.0122  0.5745 -3.0276
  963SOL     OW14524   1.195   4.738  14.216 -0.0791 -0.5131 -0.2737
  963SOL    HW114525   1.269   0.029  14.268 -2.1086  0.4439  2.0892
  963SOL    HW214526   1.163   4.681  14.287 -0.1174 -1.1949 -0.8407
  964SOL     OW14527   4.697   2.217   7.989  0.1876 -0.5905  0.6723
  964SOL    HW114528   4.645   2.149   7.945  2.8558 -1.6477 -0.8720
  964SOL    HW214529   4.717   2.175   8.073  1.5209 -0.8837  0.2129
  965SOL     OW14530   1.766   2.187   0.972  0.3093 -0.1452  0.0195
  965SOL    HW114531   1.719   2.243   1.033  2.6438  1.8624 -0.0316
  965SOL    HW214532   1.727   2.105   1.003 -0.7741 -0.2059 -1.5147
  966SOL     OW14533   0.715   4.043   2.668 -0.1797  0.1702  0.0623
  966SOL    HW114534   0.682   4.014   2.753 -1.1027  1.6572  0.2195
  966SOL    HW214535   0.773   4.115   2.694 -1.6974  0.6436  2.0780
  967SOL     OW14536   0.899   0.794   4.869 -0.9873 -0.0865 -0.4115
  967SOL    HW114537   0.857   0.777   4.953 -1.6585  0.9835 -0.5277
  967SOL    HW214538   0.842   0.745   4.810 -0.1913 -1.6142  0.0904
  968SOL     OW14539   0.437   1.407   4.412  0.4333  0.6384  0.7282
  968SOL    HW114540   0.391   1.390   4.329 -2.9033 -0.8220  2.8761
  968SOL    HW214541   0.498   1.475   4.384  0.2536  0.5965  0.2299
  969SOL     OW14542   1.449   2.692   2.598  0.2916  0.3688  0.1986
  969SOL    HW114543   1.426   2.760   2.662  0.3587 -0.8873  1.5454
  969SOL    HW214544   1.377   2.632   2.618  1.1572  0.8340  4.9330
  970SOL     OW14545   1.001   3.686  10.737  0.0897 -0.1801  0.0787
  970SOL    HW114546   1.032   3.735  10.660 -0.1133  0.7841  0.6059
  970SOL    HW214547   1.049   3.736  10.803  0.8583  2.1240 -2.2034
  971SOL     OW14548   1.535   1.717   1.595 -0.4035  0.0792 -0.2334
  971SOL    HW114549   1.628   1.738   1.581 -0.3076  0.5449  1.0979
  971SOL    HW214550   1.542   1.622   1.599 -0.5820  0.1284  1.5346
  972SOL     OW14551   1.081   2.745  12.487  0.4447  0.1518 -0.3523
  972SOL    HW114552   1.034   2.662  12.501  1.8088  0.0663  3.8286
  972SOL    HW214553   1.093   2.741  12.392  1.5343  0.3386 -0.2194
  973SOL     OW14554   3.805   2.143  14.232  0.0087  0.2924  0.3752
  973SOL    HW114555   3.731   2.102  14.187  1.0046 -1.5991  0.4378
  973SOL    HW214556   3.859   2.065  14.244  0.8565  0.8587  0.2352
  974SOL     OW14557   1.402   4.034   7.664 -0.7181  0.4146  0.2124
  974SOL    HW114558   1.452   4.113   7.682  1.4038 -0.6047 -1.1636
  974SOL    HW214559   1.430   3.987   7.743 -2.2729 -1.2051 -0.1914
  975SOL     OW14560   3.860   1.937  14.487  0.2147 -0.1150  0.2570
  975SOL    HW114561   3.848   1.917  14.395  0.9389  0.6382  0.0015
  975SOL    HW214562   3.892   1.856  14.527  2.3850  0.6752  0.1361
  976SOL     OW14563   3.297   3.950   3.348 -0.1035 -0.4513 -0.1645
  976SOL    HW114564   3.340   3.879   3.299  1.3128  0.5369 -0.3622
  976SOL    HW214565   3.258   3.909   3.425  1.1216  0.2843  0.8623
  977SOL     OW14566   0.135   2.190   0.232  0.8646  0.3352  0.2772
  977SOL    HW114567   0.120   2.256   0.301  1.2848 -0.1464  0.8257
  977SOL    HW214568   0.198   2.137   0.281  0.8763  0.0345 -0.0690
  978SOL     OW14569   1.832   2.611   6.871 -0.3437 -0.1603  0.1025
  978SOL    HW114570   1.889   2.656   6.809 -0.0300 -1.8781 -0.8376
  978SOL    HW214571   1.773   2.555   6.821 -1.6046  0.7826  0.5335
  979SOL     OW14572   1.983   2.853  11.019  0.2901 -0.3637 -0.8371
  979SOL    HW114573   2.012   2.929  11.070  0.3827 -0.5505 -0.6098
  979SOL    HW214574   1.913   2.815  11.071  0.4636  1.8371  1.0195
  980SOL     OW14575   1.886   0.262  13.104  0.4245  0.6428 -1.3580
  980SOL    HW114576   1.823   0.247  13.033  1.4009  1.0024 -2.2956
  980SOL    HW214577   1.853   0.322  13.171  0.8985 -0.1510 -0.4180
  981SOL     OW14578   3.177   4.445   0.497  0.1649  0.4460  0.5416
  981SOL    HW114579   3.220   4.463   0.580 -0.6401  2.6544  0.4896
  981SOL    HW214580   3.246   4.457   0.432  2.1812  1.6984  2.9403
  982SOL     OW14581   1.379   2.338   1.218  0.1132  0.4205  0.2176
  982SOL    HW114582   1.374   2.421   1.171  4.8840  1.3774  1.3933
  982SOL    HW214583   1.326   2.360   1.294 -1.1085 -1.4109 -0.1116
  983SOL     OW14584   1.540   4.515   7.552 -0.7082 -0.5987 -0.3402
  983SOL    HW114585   1.490   4.572   7.493 -2.4272  0.5339  2.2349
  983SOL    HW214586   1.527   4.563   7.634  2.2020 -0.3693 -0.0223
  984SOL     OW14587   2.738   2.220   3.565 -0.3626 -0.0933 -0.2069
  984SOL    HW114588   2.759   2.144   3.620 -1.0128  1.6023  2.4240
  984SOL    HW214589   2.664   2.261   3.610  0.2403  0.6620  0.0980
  985SOL     OW14590   3.613   1.362   5.747  0.4425  0.2461 -0.0670
  985SOL    HW114591   3.652   1.289   5.699  0.6402  0.1862  0.1836
  985SOL    HW214592   3.688   1.421   5.756  1.6004 -0.6818 -3.6160
  986SOL     OW14593   0.584   0.641   3.155 -0.3137  1.0571 -0.5664
  986SOL    HW114594   0.552   0.725   3.123  1.1289  1.1732 -1.6660
  986SOL    HW214595   0.505   0.591   3.176 -0.1186 -0.2884 -2.9974
  987SOL     OW14596   0.952   4.217   6.201  0.3043 -0.0696 -0.3595
  987SOL    HW114597   1.018   4.157   6.237  0.5139 -0.1179 -0.8275
  987SOL    HW214598   1.002   4.296   6.221  0.8173 -0.7760  1.1509
  988SOL     OW14599   2.523   1.119   4.370 -0.2681  0.3113 -0.5561
  988SOL    HW114600   2.558   1.075   4.448  0.0442 -0.3165 -1.0446
  988SOL    HW214601   2.429   1.107   4.378 -0.2121  0.4310  0.3551
  989SOL     OW14602   2.424   2.255  16.470 -0.0826  0.3751  0.2189
  989SOL    HW114603   2.479   2.206  16.530 -1.1546 -0.7732  0.2736
  989SOL    HW214604   2.489   2.262  16.401  1.1437  0.8861  1.4271
  990SOL     OW14605   0.751   4.092   0.654  0.3107 -0.0296 -0.3224
  990SOL    HW114606   0.843   4.100   0.680 -0.1380 -0.8511  1.5613
  990SOL    HW214607   0.722   4.040   0.729  0.7986  2.3990  1.5931
  991SOL     OW14608   2.674   3.976  12.561 -0.3424  0.0124 -0.1741
  991SOL    HW114609   2.748   3.917  12.550  0.1275  0.3887  0.9311
  991SOL    HW214610   2.607   3.926  12.608 -0.3057  0.0045 -0.1299
  992SOL     OW14611   2.333   0.143   7.472  0.1080 -0.0112 -0.3207
  992SOL    HW114612   2.359   0.054   7.450  2.3025  1.0639 -2.1064
  992SOL    HW214613   2.419   0.170   7.505 -0.5963  1.3114  0.4568
  993SOL     OW14614   3.901   4.340  12.003 -0.2084  0.5240 -0.5475
  993SOL    HW114615   3.830   4.308  12.057  0.0752 -1.0229 -1.0795
  993SOL    HW214616   3.974   4.289  12.038 -0.3034 -0.5760 -1.9503
  994SOL     OW14617   2.295   3.192   2.105  0.3476  0.2330  0.4982
  994SOL    HW114618   2.335   3.250   2.171 -0.6601  0.0299  1.3049
  994SOL    HW214619   2.369   3.181   2.047  2.2647 -1.0105  3.1703
  995SOL     OW14620   4.046   4.529   8.134  0.0908  0.7562 -0.3045
  995SOL    HW114621   4.094   4.525   8.217  0.2766 -0.4853 -0.4748
  995SOL    HW214622   4.113   4.532   8.066 -1.7788 -1.1895 -2.2629
  996SOL     OW14623   0.176   1.439  13.430  0.3130 -0.1325 -0.3141
  996SOL    HW114624   0.122   1.365  13.454 -0.2099  0.7412  1.1897
  996SOL    HW214625   0.129   1.481  13.357 -2.9807 -2.2398  0.6085
  997SOL     OW14626   0.087   0.146  13.153  0.3276 -0.0855  0.0884
  997SOL    HW114627   0.012   0.148  13.093 -0.3792 -0.5940  0.9477
  997SOL    HW214628   0.076   0.229  13.199  0.8926  0.6483 -1.0938
  998SOL     OW14629   4.098   3.937  11.929 -0.5539  0.2327  0.4940
  998SOL    HW114630   4.064   3.847  11.933  1.9231 -0.7771 -0.8514
  998SOL    HW214631   4.135   3.944  11.841 -1.1547 -0.2349  0.2022
  999SOL     OW14632   0.303   1.475   3.043 -0.1144  0.2112  0.2902
  999SOL    HW114633   0.287   1.386   3.072  1.3210  0.1772  0.9798
  999SOL    HW214634   0.221   1.520   3.064 -1.3317 -0.5089 -2.8553
 1000SOL     OW14635   3.279   2.166   5.413 -0.0228 -0.8122  0.5611
 1000SOL    HW114636   3.262   2.089   5.359 -0.9520  0.3044 -0.7545
 1000SOL    HW214637   3.317   2.129   5.493 -1.7177 -2.2882  0.6741
 1001SOL     OW14638   2.606   4.332   4.794 -0.7538 -0.2144  0.4890
 1001SOL    HW114639   2.665   4.257   4.802 -1.9164 -1.1093  0.6121
 1001SOL    HW214640   2.663   4.387   4.740  1.0212 -1.7932  0.7343
 1002SOL     OW14641   2.790   4.367   3.068 -0.3853 -0.0813 -0.4205
 1002SOL    HW114642   2.714   4.325   3.028 -1.4302 -0.5466  2.0497
 1002SOL    HW214643   2.860   4.360   3.004  0.3009  2.2097  0.0758
 1003SOL     OW14644   2.875   1.310  13.081  0.0381 -0.1017 -0.7646
 1003SOL    HW114645   2.837   1.349  13.003  0.2512  1.8984  0.1351
 1003SOL    HW214646   2.894   1.220  13.054 -0.7931 -0.3767 -0.4353
 1004SOL     OW14647   3.041   0.946   2.982  0.3032  0.1243  0.1021
 1004SOL    HW114648   3.070   1.037   2.975 -1.1121  0.6012  0.4093
 1004SOL    HW214649   3.026   0.945   3.077  1.1850  1.3444  0.2549
 1005SOL     OW14650   0.964   4.534  15.706  0.1683  0.0768 -0.0807
 1005SOL    HW114651   0.913   4.509  15.783 -1.4682  0.9871 -0.8618
 1005SOL    HW214652   1.004   4.615  15.737 -0.9060 -0.5038  2.8044
 1006SOL     OW14653   4.452   0.441   7.170  0.7809  0.0572  0.2250
 1006SOL    HW114654   4.378   0.406   7.120  0.8071  1.3503 -0.7189
 1006SOL    HW214655   4.517   0.371   7.170  0.7422  0.0245 -1.3947
 1007SOL     OW14656   2.729   3.577   6.683  0.1235 -0.3890  0.0394
 1007SOL    HW114657   2.666   3.506   6.697 -0.0456 -0.3249 -0.4062
 1007SOL    HW214658   2.693   3.647   6.737  2.4303  1.2218 -0.5040
 1008SOL     OW14659   1.063   0.553   6.217 -0.1008 -0.0432  0.1445
 1008SOL    HW114660   1.042   0.646   6.220 -0.8228 -0.2424  1.1848
 1008SOL    HW214661   1.128   0.538   6.286  1.0594 -0.9747 -1.1504
 1009SOL     OW14662   4.306   2.385   7.364 -0.5304  0.2856  0.4471
 1009SOL    HW114663   4.277   2.476   7.370  0.2186  0.5499  0.0865
 1009SOL    HW214664   4.364   2.403   7.290  0.8413 -2.1665  0.9079
 1010SOL     OW14665   2.015   2.256   8.643  0.2337 -0.0500 -0.4927
 1010SOL    HW114666   2.088   2.196   8.654  0.4293  0.0433 -1.2845
 1010SOL    HW214667   2.053   2.325   8.697  0.3873  1.1172 -2.0789
 1011SOL     OW14668   3.219   1.963   2.393 -0.0785 -0.1346 -0.2485
 1011SOL    HW114669   3.277   2.011   2.452 -0.3998 -0.4075  0.3015
 1011SOL    HW214670   3.171   2.027   2.341  0.7876  0.0406 -0.8232
 1012SOL     OW14671   4.391   3.318   2.857  0.1767  0.2579 -0.0159
 1012SOL    HW114672   4.369   3.250   2.793  0.9180  0.6876 -0.7351
 1012SOL    HW214673   4.306   3.359   2.874 -0.4098 -0.2510 -1.6887
 1013SOL     OW14674   4.390   1.652   3.325  0.1916 -0.3148 -0.5211
 1013SOL    HW114675   4.305   1.694   3.313 -0.4291 -1.6670 -0.8751
 1013SOL    HW214676   4.349   1.569   3.349  2.6592 -1.7225 -1.2322
 1014SOL     OW14677   4.325   2.513   1.795  0.1407 -0.6034  0.3024
 1014SOL    HW114678   4.267   2.465   1.855  0.5782 -0.2696  1.0047
 1014SOL    HW214679   4.272   2.586   1.764 -0.3475 -0.4094  1.5954
 1015SOL     OW14680   2.095   3.874  17.583  0.2384 -0.0944 -0.0268
 1015SOL    HW114681   2.030   3.871  17.653  0.0750  0.0156 -0.1749
 1015SOL    HW214682   2.142   3.793  17.601  0.4714  0.3531  1.3770
 1016SOL     OW14683   1.647   1.735   2.279  0.1914 -0.1165  0.5571
 1016SOL    HW114684   1.720   1.675   2.263  1.0824  0.9191  0.7114
 1016SOL    HW214685   1.631   1.705   2.368 -3.4724 -1.9077 -0.7141
 1017SOL     OW14686   0.373   1.367   6.932 -0.3830 -0.7761  0.1187
 1017SOL    HW114687   0.417   1.358   7.016 -0.7968 -0.9682  0.3146
 1017SOL    HW214688   0.282   1.344   6.950  0.2909 -2.5221  1.3345
 1018SOL     OW14689   1.494   3.040  10.749  0.0544  0.3901 -0.2296
 1018SOL    HW114690   1.516   2.990  10.827  1.1882  0.6016 -0.4109
 1018SOL    HW214691   1.570   3.013  10.698  0.0822  1.1668 -0.6027
 1019SOL     OW14692   1.957   0.832   5.167 -0.2454  0.2376 -0.3881
 1019SOL    HW114693   2.013   0.848   5.244  0.2801  1.3168 -0.9967
 1019SOL    HW214694   1.933   0.741   5.183  1.6892 -0.1434  0.4211
 1020SOL     OW14695   0.249   3.630   3.809  0.3646  0.1969 -0.1000
 1020SOL    HW114696   0.326   3.629   3.866 -1.2432  1.8201  2.1290
 1020SOL    HW214697   0.252   3.555   3.750 -1.6332 -0.4593  0.6354
 1021SOL     OW14698   4.153   3.806   1.514  0.6529 -0.2757 -0.4568
 1021SOL    HW114699   4.102   3.747   1.457 -1.3136  1.0080 -0.0328
 1021SOL    HW214700   4.099   3.885   1.507 -0.3588 -1.1172 -2.1508
 1022SOL     OW14701   2.099   2.174  11.678 -0.1831 -0.1803  0.5715
 1022SOL    HW114702   2.106   2.259  11.722 -1.2256 -0.0189  0.4201
 1022SOL    HW214703   2.014   2.196  11.639 -0.3800  1.0852  1.6873
 1023SOL     OW14704   3.474   2.943  16.164  0.1635  0.4332 -0.3092
 1023SOL    HW114705   3.424   2.865  16.138 -1.5807  1.2138  0.7285
 1023SOL    HW214706   3.509   2.975  16.081 -1.9512 -0.0569 -1.4069
 1024SOL     OW14707   0.959   4.338   6.562  0.3154  0.9126  0.1750
 1024SOL    HW114708   0.965   4.245   6.582  3.1498  0.8743 -0.8413
 1024SOL    HW214709   0.901   4.363   6.634 -1.5900 -1.7563 -0.4673
 1025SOL     OW14710   1.709   1.821  16.417 -1.0034  0.0380  0.3884
 1025SOL    HW114711   1.782   1.764  16.393  0.3701  1.9788 -0.0037
 1025SOL    HW214712   1.652   1.837  16.342 -0.4785 -0.9864 -0.2265
 1026SOL     OW14713   3.959   0.278   3.235 -0.3348 -0.3741  0.3865
 1026SOL    HW114714   3.896   0.302   3.168 -1.3261  1.3111  1.9208
 1026SOL    HW214715   4.012   0.358   3.235 -0.9397  0.0269  1.2281
 1027SOL     OW14716   2.410   4.381   8.660  0.1334  0.4872 -0.5640
 1027SOL    HW114717   2.328   4.334   8.677  1.6737 -2.4665 -1.2155
 1027SOL    HW214718   2.467   4.308   8.636 -1.6738 -1.0216 -0.3209
 1028SOL     OW14719   2.917   4.624   1.693  0.1139 -0.1436  0.3717
 1028SOL    HW114720   2.950   4.535   1.690  2.2249  0.6780 -0.8504
 1028SOL    HW214721   2.874   4.622   1.779 -0.1068  2.0162  0.3186
 1029SOL     OW14722   4.539   4.431   5.789 -0.7254 -0.6664 -0.3054
 1029SOL    HW114723   4.469   4.459   5.730  0.6835 -1.0931 -2.1427
 1029SOL    HW214724   4.610   4.405   5.731 -2.1885 -0.5828 -2.1123
 1030SOL     OW14725   1.140   1.815   0.893  0.0006 -0.2328  0.5887
 1030SOL    HW114726   1.152   1.721   0.903  0.8304 -0.2041 -0.2692
 1030SOL    HW214727   1.048   1.816   0.866  0.5874  0.3805 -1.3378
 1031SOL     OW14728   3.442   3.248   9.256  0.3000 -0.0054 -0.0760
 1031SOL    HW114729   3.440   3.341   9.277  2.2130  0.1642 -0.6397
 1031SOL    HW214730   3.536   3.232   9.259  0.3460  0.4031  0.7636
 1032SOL     OW14731   3.853   0.874  11.560 -0.0408  0.0655  0.0325
 1032SOL    HW114732   3.882   0.872  11.469  0.8588 -1.8766  0.3666
 1032SOL    HW214733   3.764   0.897  11.533  0.8693  0.2558 -2.7965
 1033SOL     OW14734   2.237   1.545   6.455  0.2076  0.3063 -0.0580
 1033SOL    HW114735   2.200   1.461   6.426  2.5966 -0.1371 -1.8280
 1033SOL    HW214736   2.247   1.532   6.549  1.3607  0.5285 -0.1528
 1034SOL     OW14737   4.725   2.071   9.062  0.0064  0.0773  0.0899
 1034SOL    HW114738   4.649   2.053   9.117 -0.1888  0.4892 -0.0433
 1034SOL    HW214739   4.730   2.166   9.072  1.2218  0.1637 -1.2627
 1035SOL     OW14740   0.058   1.511  14.937  0.5463 -0.2228  0.4078
 1035SOL    HW114741   0.093   1.548  14.855 -2.0849 -0.5637 -0.8703
 1035SOL    HW214742   0.021   1.591  14.975 -2.0525 -1.7130  0.9405
 1036SOL     OW14743   0.650   1.095   7.170 -0.1376 -0.2613  1.0422
 1036SOL    HW114744   0.578   1.145   7.132  1.9797  0.8487 -1.5834
 1036SOL    HW214745   0.613   1.007   7.166 -2.1623  0.7149 -1.4304
 1037SOL     OW14746   1.266   0.222   8.134 -0.5492 -0.1375 -0.1571
 1037SOL    HW114747   1.325   0.190   8.202  2.0480 -0.0799 -2.3930
 1037SOL    HW214748   1.199   0.256   8.195  2.1254  0.3898  2.4746
 1038SOL     OW14749   0.296   2.609   7.540  0.3055 -0.6722  0.0656
 1038SOL    HW114750   0.309   2.636   7.631  0.9743 -0.4045 -0.1037
 1038SOL    HW214751   0.329   2.520   7.546  1.8553 -0.0789  0.4254
 1039SOL     OW14752   3.189   1.490   3.772 -0.4942  0.3825  0.0033
 1039SOL    HW114753   3.093   1.485   3.769 -0.4073 -1.6425  0.7041
 1039SOL    HW214754   3.187   1.582   3.796  1.4900 -0.0510  1.8824
 1040SOL     OW14755   1.155   0.889   7.678  0.0730 -1.1529 -0.4426
 1040SOL    HW114756   1.168   0.819   7.743 -1.1812 -0.8808  0.1019
 1040SOL    HW214757   1.118   0.964   7.725 -0.0928 -1.7172  0.3280
 1041SOL     OW14758   1.394   0.844   3.459  1.0678 -0.5345  0.2559
 1041SOL    HW114759   1.300   0.848   3.440  0.8576 -0.4452  1.3574
 1041SOL    HW214760   1.430   0.822   3.373 -1.0875  3.9598 -1.7841
 1042SOL     OW14761   3.540   2.168   7.589  0.3238 -0.2759  0.9092
 1042SOL    HW114762   3.522   2.091   7.534  1.6853 -1.1399  1.6624
 1042SOL    HW214763   3.513   2.241   7.534 -1.7745 -0.2358  1.9889
 1043SOL     OW14764   2.061   1.825   4.053  0.3462  0.3903  0.0012
 1043SOL    HW114765   1.980   1.780   4.030 -0.4243  2.1366 -0.7135
 1043SOL    HW214766   2.042   1.918   4.035 -1.2115  0.7756  3.7249
 1044SOL     OW14767   3.015   4.324   4.661 -0.1284  0.0123 -0.5059
 1044SOL    HW114768   3.082   4.321   4.729  0.0550  1.2317 -0.6353
 1044SOL    HW214769   2.951   4.259   4.687 -2.1836  1.8461 -0.9336
 1045SOL     OW14770   1.484   3.657   9.886 -0.4147 -0.4359  0.4601
 1045SOL    HW114771   1.531   3.580   9.856 -0.1219  0.4343 -1.3041
 1045SOL    HW214772   1.560   3.716   9.886 -0.6991 -0.0670  2.6018
 1046SOL     OW14773   0.681   0.686   6.270 -0.2223 -0.6813 -0.3679
 1046SOL    HW114774   0.752   0.663   6.211  1.1918  1.8595  0.3793
 1046SOL    HW214775   0.609   0.643   6.223 -0.8917 -1.4561  1.3869
 1047SOL     OW14776   4.088   3.288   7.116  0.9708  0.1687  0.3102
 1047SOL    HW114777   3.999   3.298   7.150  0.2597 -0.6386 -1.3125
 1047SOL    HW214778   4.085   3.194   7.099 -2.0127  0.1113  1.2654
 1048SOL     OW14779   2.703   1.840   4.356 -0.3537  0.2125  0.3191
 1048SOL    HW114780   2.758   1.902   4.308 -0.1313 -0.0138  0.2868
 1048SOL    HW214781   2.758   1.769   4.388 -0.2305 -0.5586 -1.6667
 1049SOL     OW14782   3.570   4.479   5.275 -0.4910 -0.5724  0.3806
 1049SOL    HW114783   3.588   4.521   5.191 -0.9404 -1.2823 -0.0816
 1049SOL    HW214784   3.638   4.415   5.294 -0.4497  0.1030  2.5071
 1050SOL     OW14785   3.528   2.596   3.028  0.3366  0.2486 -0.8090
 1050SOL    HW114786   3.523   2.613   2.934  0.1588 -1.2319 -1.0664
 1050SOL    HW214787   3.550   2.503   3.028 -0.7726 -0.0179  1.5593
 1051SOL     OW14788   2.292   2.851   2.446  0.0619 -0.0945  0.0724
 1051SOL    HW114789   2.285   2.832   2.352 -0.5872 -2.9197  0.6931
 1051SOL    HW214790   2.245   2.934   2.442 -0.9779 -0.6976  0.0153
 1052SOL     OW14791   4.166   0.748  13.364  0.4965 -0.0502 -0.4432
 1052SOL    HW114792   4.138   0.831  13.326 -1.6477 -0.7173 -0.3551
 1052SOL    HW214793   4.205   0.711  13.285 -0.0063 -0.7153 -0.3795
 1053SOL     OW14794   0.604   0.312  15.747 -0.3196  0.2190 -0.9630
 1053SOL    HW114795   0.541   0.297  15.817  0.6017  1.0951  0.0472
 1053SOL    HW214796   0.616   0.221  15.722  2.0841  0.6334 -1.3113
 1054SOL     OW14797   1.664   2.764   6.111  0.0883  0.3453 -0.0497
 1054SOL    HW114798   1.657   2.674   6.079  0.9136  0.2941 -0.0936
 1054SOL    HW214799   1.578   2.804   6.105 -0.0933  0.2097  1.7105
 1055SOL     OW14800   4.625   2.747  16.231  0.5010  0.0104  0.5136
 1055SOL    HW114801   4.712   2.710  16.218  0.4807  0.3081 -0.4720
 1055SOL    HW214802   4.635   2.822  16.289  0.8748 -0.2778  0.8186
 1056SOL     OW14803   3.422   0.896   3.656  0.4245 -0.4246 -0.2003
 1056SOL    HW114804   3.422   0.955   3.581 -0.2282 -0.2248 -0.0431
 1056SOL    HW214805   3.451   0.950   3.729 -1.6798  0.1245  0.2393
 1057SOL     OW14806   0.323   3.231   5.219 -0.2919 -0.0753  0.4143
 1057SOL    HW114807   0.343   3.207   5.309 -1.3889  0.9844  0.9420
 1057SOL    HW214808   0.408   3.209   5.180 -1.0659 -0.4524 -1.0680
 1058SOL     OW14809   4.313   3.875   7.037 -0.1236  0.2708  0.6264
 1058SOL    HW114810   4.313   3.784   7.067 -0.2197 -0.5222 -1.8042
 1058SOL    HW214811   4.330   3.925   7.117 -0.1736  2.7563 -0.9372
 1059SOL     OW14812   1.221   0.776   1.392 -0.0284 -0.5014  0.7285
 1059SOL    HW114813   1.145   0.766   1.450 -1.3969  2.4509 -0.5410
 1059SOL    HW214814   1.249   0.687   1.373 -2.0395 -0.4881 -2.1401
 1060SOL     OW14815   0.738   1.018  13.477 -0.2337 -0.5269  0.5382
 1060SOL    HW114816   0.732   1.112  13.493  1.2660 -0.3428  0.0248
 1060SOL    HW214817   0.664   0.996  13.421 -1.0264  0.5637  1.1522
 1061SOL     OW14818   4.393   0.661   7.806 -0.2620 -0.3854  0.0371
 1061SOL    HW114819   4.387   0.639   7.899 -0.9123 -0.1500  0.0485
 1061SOL    HW214820   4.303   0.695   7.801 -0.4860 -0.8536  0.9996
 1062SOL     OW14821   3.622   3.505   3.096 -0.1455  0.1648 -0.1402
 1062SOL    HW114822   3.641   3.599   3.096 -4.3014  1.0338 -0.9013
 1062SOL    HW214823   3.644   3.472   3.182 -1.4556  0.9703  0.5075
 1063SOL     OW14824   2.417   2.227  15.855  0.5015 -0.4563 -0.0046
 1063SOL    HW114825   2.471   2.300  15.825  0.4138 -1.0703 -1.6229
 1063SOL    HW214826   2.399   2.252  15.946  1.3118  1.3851 -0.3567
 1064SOL     OW14827   0.134   0.098   8.146  0.0738 -0.3968 -0.1599
 1064SOL    HW114828   0.167   0.109   8.057  2.3039 -0.8064  0.6329
 1064SOL    HW214829   0.041   0.112   8.129  0.5426  0.6825 -1.8422
 1065SOL     OW14830   2.448   2.428   8.562 -0.5950 -0.3932  0.1271
 1065SOL    HW114831   2.466   2.504   8.617  2.1901 -0.1872 -1.0531
 1065SOL    HW214832   2.405   2.467   8.486 -0.3888 -0.7530 -0.1724
 1066SOL     OW14833   2.749   3.669   5.741 -0.0211 -0.1288  0.0744
 1066SOL    HW114834   2.708   3.743   5.695 -1.2793 -0.5109  0.5799
 1066SOL    HW214835   2.704   3.599   5.696  0.2460 -0.5600  0.4811
 1067SOL     OW14836   0.073   2.918   4.369  0.5185 -0.3706  0.4613
 1067SOL    HW114837   0.054   3.001   4.325  1.9688  0.5149  1.4614
 1067SOL    HW214838   0.082   2.944   4.461  1.8314 -1.6083  0.6837
 1068SOL     OW14839   1.903   3.886   7.503  0.1114  0.1037  0.2235
 1068SOL    HW114840   1.808   3.874   7.503  0.1344 -0.1003  1.6908
 1068SOL    HW214841   1.925   3.978   7.519  2.1613 -0.0324 -1.8802
 1069SOL     OW14842   2.235   4.212  15.023 -0.5112  0.6515  0.0923
 1069SOL    HW114843   2.315   4.161  15.021 -1.7794 -1.4085  1.9654
 1069SOL    HW214844   2.213   4.215  14.929  1.6194  4.0564 -0.2908
 1070SOL     OW14845   2.222   3.798   1.707  0.1569 -0.2320 -0.4559
 1070SOL    HW114846   2.307   3.817   1.746 -0.6336  1.4177  0.4682
 1070SOL    HW214847   2.182   3.884   1.721  0.6164 -0.4888  2.4399
 1071SOL     OW14848   1.766   2.210   7.053  0.5018 -0.0267 -0.2228
 1071SOL    HW114849   1.714   2.246   6.982  1.2651 -1.8726 -1.7160
 1071SOL    HW214850   1.841   2.170   7.010  0.9631 -0.4572  0.9684
 1072SOL     OW14851   4.483   4.227   6.911 -0.8024 -0.3046  0.8642
 1072SOL    HW114852   4.391   4.202   6.913 -1.7763  3.2898  0.8758
 1072SOL    HW214853   4.524   4.143   6.893  1.2080  0.9769 -0.5354
 1073SOL     OW14854   2.851   4.633  13.568 -0.0232  0.1221  0.3125
 1073SOL    HW114855   2.933   4.640  13.616  0.2109  0.4176 -0.1197
 1073SOL    HW214856   2.798   4.581  13.628 -1.2871 -0.3900 -1.2555
 1074SOL     OW14857   0.206   0.157   6.789  0.3570 -0.2431 -0.6516
 1074SOL    HW114858   0.116   0.152   6.822  0.8439  0.9520  0.8627
 1074SOL    HW214859   0.257   0.116   6.858 -0.6473  0.2415  0.3893
 1075SOL     OW14860   4.032   4.197  15.691  0.1971  0.0449  0.2193
 1075SOL    HW114861   4.001   4.250  15.764 -0.0717 -1.9290  1.5448
 1075SOL    HW214862   3.949   4.158  15.662 -0.3606  1.0992  0.4227
 1076SOL     OW14863   3.122   0.414   8.905 -0.4430 -0.2706 -0.7619
 1076SOL    HW114864   3.159   0.403   8.993 -2.0131 -0.0517 -0.0758
 1076SOL    HW214865   3.113   0.510   8.904  1.8493 -0.0293  1.0674
 1077SOL     OW14866   3.410   4.017   1.093  0.2071 -0.1335 -0.1901
 1077SOL    HW114867   3.490   4.020   1.145  0.1059  1.2993 -0.1255
 1077SOL    HW214868   3.352   3.992   1.166 -0.4843 -1.9995 -1.3540
 1078SOL     OW14869   2.180   3.090   9.466  0.0020  0.3231  0.4058
 1078SOL    HW114870   2.232   3.017   9.500 -0.6578 -0.4789 -0.3129
 1078SOL    HW214871   2.167   3.142   9.545  0.9730  2.2533 -0.7130
 1079SOL     OW14872   2.868   3.178   6.474  0.3459  0.4684 -0.2815
 1079SOL    HW114873   2.945   3.149   6.522 -0.2287  1.0089  0.9486
 1079SOL    HW214874   2.891   3.161   6.382 -3.7062  0.5976 -1.3208
 1080SOL     OW14875   2.485   0.116   4.406  0.4662  0.4575 -0.0583
 1080SOL    HW114876   2.492   0.162   4.323 -0.2219  0.2991 -0.1995
 1080SOL    HW214877   2.518   0.036   4.365 -2.6740 -0.2430 -1.1804
 1081SOL     OW14878   2.102   2.885  10.172  0.0248  0.2099 -0.1594
 1081SOL    HW114879   2.147   2.914  10.093  0.4066 -0.7664 -0.3061
 1081SOL    HW214880   2.045   2.958  10.196  1.1290  0.2474  2.3496
 1082SOL     OW14881   3.756   2.548   3.649 -0.4333 -0.4365 -0.4977
 1082SOL    HW114882   3.699   2.557   3.725 -0.7628  0.6607 -0.8774
 1082SOL    HW214883   3.714   2.476   3.602 -1.4623 -0.2352  0.1137
 1083SOL     OW14884   2.394   2.747   7.713  0.5165 -0.4728 -0.3972
 1083SOL    HW114885   2.310   2.722   7.676  0.6279  0.3968 -1.2341
 1083SOL    HW214886   2.421   2.663   7.750  0.7702  0.4099  1.4117
 1084SOL     OW14887   0.722   3.781   3.639 -0.0117  0.3640 -0.3249
 1084SOL    HW114888   0.695   3.718   3.572 -1.4490  0.0075  0.5820
 1084SOL    HW214889   0.689   3.735   3.716  0.9671 -1.0389 -0.7506
 1085SOL     OW14890   0.612   0.574  11.053 -0.2389 -0.5279 -0.4040
 1085SOL    HW114891   0.571   0.537  11.131  1.1172  1.2007  1.1419
 1085SOL    HW214892   0.703   0.547  11.065 -0.7279 -1.5952  0.9133
 1086SOL     OW14893   0.215   2.487   3.845 -0.1115  0.1641 -0.1017
 1086SOL    HW114894   0.164   2.557   3.804  1.9134  1.5310 -0.2689
 1086SOL    HW214895   0.163   2.410   3.823  1.7147 -1.8425  2.6221
 1087SOL     OW14896   4.713   0.704   5.368  0.3363 -0.3542 -0.6135
 1087SOL    HW114897   4.729   0.752   5.449 -0.6916 -1.1876  0.0801
 1087SOL    HW214898   4.649   0.638   5.394 -0.5015  1.5210  2.0659
 1088SOL     OW14899   2.635   3.742  12.332  0.0208 -0.2846 -0.4725
 1088SOL    HW114900   2.682   3.740  12.248 -1.3526  0.3135 -1.2628
 1088SOL    HW214901   2.703   3.751  12.399 -1.2528  0.4253  0.7043
 1089SOL     OW14902   2.722   4.081   3.497  0.1990 -0.3938 -0.5519
 1089SOL    HW114903   2.700   4.029   3.574  0.5627  0.1340 -0.0848
 1089SOL    HW214904   2.644   4.097   3.443 -1.3842 -0.0540  1.8136
 1090SOL     OW14905   3.118   3.792  13.700 -0.4697 -0.2505  0.2577
 1090SOL    HW114906   3.196   3.749  13.665  0.5730  1.9707 -0.1702
 1090SOL    HW214907   3.111   3.863  13.636 -4.8549  0.8464  1.9414
 1091SOL     OW14908   3.732   2.232   3.889  0.5768 -0.2003  0.0141
 1091SOL    HW114909   3.801   2.293   3.917  0.9224 -1.0896  1.0783
 1091SOL    HW214910   3.667   2.255   3.955  0.5114 -0.1362 -0.0719
 1092SOL     OW14911   0.595   2.173   1.683 -0.5013 -0.2557  0.4994
 1092SOL    HW114912   0.593   2.077   1.691 -1.2053 -0.2887 -0.0954
 1092SOL    HW214913   0.608   2.191   1.590  1.0755 -0.6628  0.6418
 1093SOL     OW14914   3.251   3.313  10.211  0.5749 -0.6208  0.7600
 1093SOL    HW114915   3.198   3.293  10.287  0.9295  0.4906  1.3006
 1093SOL    HW214916   3.318   3.374  10.242 -0.3223  1.0905 -0.6801
 1094SOL     OW14917   1.741   0.849   4.249  0.5142  0.4509 -0.0426
 1094SOL    HW114918   1.663   0.834   4.196  0.5190 -3.1826  0.9540
 1094SOL    HW214919   1.705   0.878   4.333  0.8204  1.8344 -0.3919
 1095SOL     OW14920   1.352   2.180  10.159 -0.1218  0.6368  0.6389
 1095SOL    HW114921   1.282   2.245  10.166 -0.9791 -0.0955 -1.2342
 1095SOL    HW214922   1.412   2.222  10.220  2.4023 -0.1792 -1.3009
 1096SOL     OW14923   2.645   4.073  14.830  0.1631  0.0804  0.3363
 1096SOL    HW114924   2.708   4.020  14.781  0.5669 -1.2529  2.2826
 1096SOL    HW214925   2.653   4.162  14.798 -0.9951  0.3011  0.6367
 1097SOL     OW14926   2.543   2.519   4.964 -0.2042 -0.1889 -0.1676
 1097SOL    HW114927   2.625   2.521   5.013  0.3153  1.9670 -1.1331
 1097SOL    HW214928   2.552   2.441   4.910  1.8491 -0.1209  0.1083
 1098SOL     OW14929   3.274   2.692  12.962  0.1590  0.1853 -0.3980
 1098SOL    HW114930   3.312   2.765  12.914 -0.0922  1.2112  0.9516
 1098SOL    HW214931   3.189   2.671  12.924 -0.1096  0.9464 -0.2059
 1099SOL     OW14932   2.093   4.015   9.247 -0.0367  0.5823 -0.3564
 1099SOL    HW114933   2.143   4.057   9.178 -0.1970  1.3881  0.0100
 1099SOL    HW214934   2.145   3.936   9.263  2.3633  1.9020 -1.7313
 1100SOL     OW14935   4.245   3.665  10.962 -0.0939 -0.0634 -0.2865
 1100SOL    HW114936   4.293   3.680  11.044 -0.9731 -1.7615  0.5317
 1100SOL    HW214937   4.319   3.649  10.903  0.7697  1.8418  0.2690
 1101SOL     OW14938   1.862   1.361   4.078 -0.3674 -0.2180  0.1194
 1101SOL    HW114939   1.943   1.341   4.126 -1.2300  0.9251  2.0699
 1101SOL    HW214940   1.817   1.279   4.100 -0.8119 -0.4508 -1.6260
 1102SOL     OW14941   4.701   1.103   6.111  0.2551  0.5978 -0.1631
 1102SOL    HW114942   0.046   1.135   6.141 -0.3684  1.2115  0.9229
 1102SOL    HW214943   4.723   1.013   6.086 -1.8235 -0.0556  0.3336
 1103SOL     OW14944   0.164   0.028   5.782  0.4486  0.5156 -0.5773
 1103SOL    HW114945   0.160   4.674   5.801  0.2125  0.3885 -1.2739
 1103SOL    HW214946   0.100   0.038   5.712  0.5715  0.3074 -0.7200
 1104SOL     OW14947   3.934   0.859   1.615  0.3836 -0.0246 -0.2332
 1104SOL    HW114948   3.879   0.931   1.584  0.2098  0.7708  1.8745
 1104SOL    HW214949   3.938   0.810   1.534  1.0619  0.3778 -0.4446
 1105SOL     OW14950   3.307   4.360   5.688 -0.1683  0.6880  0.0215
 1105SOL    HW114951   3.268   4.332   5.604 -1.6375  0.5221  0.7554
 1105SOL    HW214952   3.400   4.370   5.672  0.1630  0.1340  1.6594
 1106SOL     OW14953   2.760   4.544   5.423 -0.0222  0.0825  0.2098
 1106SOL    HW114954   2.808   4.603   5.365 -1.2398  0.7595 -0.1081
 1106SOL    HW214955   2.776   4.583   5.509  1.5148  0.9965 -0.4946
 1107SOL     OW14956   2.004   0.660   7.000 -0.2664 -0.2184  0.0220
 1107SOL    HW114957   1.914   0.671   6.968 -0.3049  0.9774  0.5498
 1107SOL    HW214958   2.052   0.621   6.927  0.8793  0.2382  0.5385
 1108SOL     OW14959   4.145   3.536   7.014  0.9176 -0.3941 -0.3243
 1108SOL    HW114960   4.231   3.551   7.053  1.1136 -0.1180 -0.8572
 1108SOL    HW214961   4.136   3.453   7.061 -1.3880  1.1165  1.8531
 1109SOL     OW14962   1.232   4.491   1.729  0.0009 -0.2564  1.1190
 1109SOL    HW114963   1.254   4.447   1.811 -1.0116 -0.2098  1.4239
 1109SOL    HW214964   1.137   4.486   1.741 -0.0747 -0.1724  0.5708
 1110SOL     OW14965   3.924   3.674   1.941 -1.0131  0.3274  0.7238
 1110SOL    HW114966   4.013   3.706   1.927 -0.7515 -0.8116 -0.2186
 1110SOL    HW214967   3.884   3.755   1.973 -2.8200  0.1674 -1.1139
 1111SOL     OW14968   1.378   2.732   6.311 -0.0674 -0.5186 -0.2573
 1111SOL    HW114969   1.337   2.807   6.354 -0.0910  0.2722 -1.6579
 1111SOL    HW214970   1.311   2.665   6.320 -0.4846 -0.1375 -0.4954
 1112SOL     OW14971   2.090   2.675   5.187  0.2434  0.3223  0.4386
 1112SOL    HW114972   2.002   2.654   5.157  0.3724  0.9662 -0.3935
 1112SOL    HW214973   2.085   2.648   5.278 -1.2738  0.7442  0.4760
 1113SOL     OW14974   3.556   4.553   5.889 -0.1639  0.5699  0.0702
 1113SOL    HW114975   3.566   4.466   5.851 -0.6212  1.1532 -1.3978
 1113SOL    HW214976   3.461   4.552   5.898 -0.1608  0.2640  0.0490
 1114SOL     OW14977   0.442   1.642  16.515 -0.1630  0.0551  0.3613
 1114SOL    HW114978   0.425   1.654  16.608  0.4702 -0.2509  0.5165
 1114SOL    HW214979   0.432   1.546  16.512 -1.3138  0.1522  1.1848
 1115SOL     OW14980   4.257   0.798   9.346  0.1263 -0.5611  0.2840
 1115SOL    HW114981   4.227   0.876   9.299  0.0098 -0.4163  0.5963
 1115SOL    HW214982   4.351   0.810   9.356  0.4653 -2.1415 -1.0017
 1116SOL     OW14983   4.249   2.075   9.345 -0.3602 -0.2253 -0.1910
 1116SOL    HW114984   4.307   2.147   9.367 -1.0552  0.8841 -2.0496
 1116SOL    HW214985   4.189   2.090   9.418 -0.0880  1.4723 -0.3210
 1117SOL     OW14986   1.531   1.432   1.558  0.0802 -0.3362  0.1692
 1117SOL    HW114987   1.511   1.375   1.484 -0.0126 -0.1902  0.0828
 1117SOL    HW214988   1.463   1.409   1.621  0.0275  0.1453  0.2939
 1118SOL     OW14989   4.176   4.500   8.363 -0.3385 -0.3849  0.0480
 1118SOL    HW114990   4.256   4.478   8.314 -0.6652 -0.2114 -0.5624
 1118SOL    HW214991   4.163   4.420   8.414  0.4990  0.1700  1.1229
 1119SOL     OW14992   4.248   1.678  11.187  0.1395 -0.1372  0.1887
 1119SOL    HW114993   4.270   1.736  11.260  0.0016  0.2875 -0.1092
 1119SOL    HW214994   4.170   1.631  11.218 -0.7731  0.5872 -0.9870
 1120SOL     OW14995   3.127   2.023  12.300 -0.0378  0.0683 -0.1098
 1120SOL    HW114996   3.069   1.968  12.247  1.2862  1.0246 -2.6065
 1120SOL    HW214997   3.201   2.046  12.244  1.2806 -1.5873  0.9384
 1121SOL     OW14998   4.264   3.494   6.066  0.1712 -0.2660  0.1880
 1121SOL    HW114999   4.309   3.557   6.009 -1.3898  0.7343  0.0419
 1121SOL    HW215000   4.253   3.417   6.011  0.2583  0.2423 -0.5441
 1122SOL     OW15001   3.864   1.526   1.524  0.1734  0.1293  0.5850
 1122SOL    HW115002   3.816   1.577   1.589 -0.7693  1.0426 -0.8087
 1122SOL    HW215003   3.946   1.502   1.566  0.3437  0.0482  0.2120
 1123SOL     OW15004   3.298   3.713  14.981  0.0551  0.4199 -0.4257
 1123SOL    HW115005   3.358   3.677  14.916  1.3117  0.0111  0.9543
 1123SOL    HW215006   3.238   3.765  14.928 -2.2864 -0.9681  0.8650
 1124SOL     OW15007   4.024   3.678  13.176 -0.2683 -0.4223  0.2490
 1124SOL    HW115008   3.950   3.691  13.116  0.2423  1.4618  0.0340
 1124SOL    HW215009   4.096   3.729  13.139 -1.1466 -0.1157 -1.0204
 1125SOL     OW15010   3.672   1.331  12.104 -0.1344  0.0844  0.0102
 1125SOL    HW115011   3.766   1.347  12.092  0.0266  0.3695  1.6089
 1125SOL    HW215012   3.670   1.236  12.118 -0.7631  0.4502  2.4945
 1126SOL     OW15013   2.969   3.777  12.012  0.0788 -0.5947 -0.4058
 1126SOL    HW115014   2.885   3.732  12.017  0.9102 -2.0390  0.4165
 1126SOL    HW215015   2.997   3.758  11.923 -0.3678  3.2558 -1.3801
 1127SOL     OW15016   2.988   2.928   5.160 -0.4758 -0.1989  0.8791
 1127SOL    HW115017   3.059   2.954   5.101 -1.3190 -2.1779 -1.0089
 1127SOL    HW215018   2.970   3.010   5.205 -2.4399 -0.2412  0.1828
 1128SOL     OW15019   2.591   3.024   9.461 -0.2500 -0.2975 -0.1339
 1128SOL    HW115020   2.677   2.985   9.475 -0.4680 -0.7769 -0.1036
 1128SOL    HW215021   2.552   3.011   9.548  2.0212  1.3283  1.1294
 1129SOL     OW15022   2.648   0.645  17.233  0.8556  0.5900  0.8146
 1129SOL    HW115023   2.625   0.581  17.165 -1.3224 -0.4426  2.5164
 1129SOL    HW215024   2.576   0.619  17.290 -0.8919  0.8048 -1.3067
 1130SOL     OW15025   2.604   3.132   9.196  0.7748 -0.0376 -0.2627
 1130SOL    HW115026   2.693   3.164   9.204  1.2301 -0.6959 -2.7060
 1130SOL    HW215027   2.587   3.107   9.287 -0.4059 -2.1883 -1.0594
 1131SOL     OW15028   0.305   3.143   0.848 -0.0309  0.3653  0.1553
 1131SOL    HW115029   0.354   3.125   0.768  3.2045 -0.3618  2.3125
 1131SOL    HW215030   0.349   3.084   0.910  0.4330 -0.6855 -1.1869
 1132SOL     OW15031   1.512   1.207   4.067  0.3714  0.4675  0.1677
 1132SOL    HW115032   1.584   1.225   4.127  1.2605  0.7094 -0.9819
 1132SOL    HW215033   1.561   1.151   4.006 -1.0370 -1.9087  1.2157
 1133SOL     OW15034   4.688   4.497  16.300  0.3540  0.3340  0.0368
 1133SOL    HW115035   4.649   4.547  16.227 -0.4152 -0.5015 -0.1264
 1133SOL    HW215036   0.034   4.539  16.293  0.2385  0.4252 -0.9307
 1134SOL     OW15037   2.292   2.689  12.237  0.1522  0.0856  0.2333
 1134SOL    HW115038   2.326   2.773  12.208  0.3810 -0.7366 -1.8506
 1134SOL    HW215039   2.273   2.698  12.331  2.3563  0.4240  0.6467
 1135SOL     OW15040   4.347   3.788   8.939 -0.0287  0.2685 -0.2726
 1135SOL    HW115041   4.424   3.736   8.918  1.4034  1.7711  1.2354
 1135SOL    HW215042   4.280   3.730   8.904 -0.2645  0.4445 -0.1109
 1136SOL     OW15043   2.180   2.669   4.424 -0.0219  0.4898 -0.3467
 1136SOL    HW115044   2.200   2.761   4.443 -1.3792  0.9474 -1.1595
 1136SOL    HW215045   2.242   2.629   4.485 -2.1368 -0.0397  1.4453
 1137SOL     OW15046   4.260   2.311  15.726  0.0568 -0.4354  0.3254
 1137SOL    HW115047   4.186   2.370  15.744  1.4978  1.0404  1.4147
 1137SOL    HW215048   4.226   2.238  15.777 -1.3372 -0.4858 -0.6602
 1138SOL     OW15049   1.751   3.290   2.446 -0.3172 -0.0042 -0.1447
 1138SOL    HW115050   1.793   3.232   2.383  0.0021  0.7967 -0.6710
 1138SOL    HW215051   1.745   3.375   2.403 -3.5626 -0.3187 -0.3488
 1139SOL     OW15052   4.498   3.762   8.604 -0.4002 -0.2778  0.2249
 1139SOL    HW115053   4.568   3.735   8.664 -0.3958 -1.3520 -0.2774
 1139SOL    HW215054   4.522   3.854   8.591  0.1423 -0.3040  1.0738
 1140SOL     OW15055   2.317   2.199   4.333  0.6810  0.3734 -0.6776
 1140SOL    HW115056   2.399   2.168   4.371 -0.2003 -2.2133 -0.8594
 1140SOL    HW215057   2.278   2.243   4.408 -0.0586 -0.4376 -0.5907
 1141SOL     OW15058   2.735   0.617  14.242 -0.4089  0.2247  0.5243
 1141SOL    HW115059   2.803   0.556  14.212 -0.0764 -0.2870  2.3514
 1141SOL    HW215060   2.648   0.575  14.238 -0.5078  0.2240  2.6897
 1142SOL     OW15061   1.233   0.319  13.810  0.0569 -0.0480  0.6157
 1142SOL    HW115062   1.226   0.399  13.862  1.2029  1.9525 -2.2863
 1142SOL    HW215063   1.196   0.251  13.866  0.3872 -1.4108 -0.8297
 1143SOL     OW15064   4.586   2.406   6.473 -0.4882 -0.3087  0.1517
 1143SOL    HW115065   4.672   2.432   6.441  0.1762 -0.7909  1.5340
 1143SOL    HW215066   4.531   2.470   6.428  1.6695  2.3835  1.3384
 1144SOL     OW15067   2.620   2.525   7.093 -0.7306  0.0812 -0.1487
 1144SOL    HW115068   2.615   2.619   7.111  0.0960 -0.1528  1.3472
 1144SOL    HW215069   2.546   2.489   7.141 -0.3403 -0.1866  0.2569
 1145SOL     OW15070   4.445   1.736  17.402 -0.0167  0.4591 -0.5007
 1145SOL    HW115071   4.477   1.813  17.356  1.6163 -0.0355 -0.2243
 1145SOL    HW215072   4.358   1.718  17.366 -0.0284 -0.2567 -0.1271
 1146SOL     OW15073   1.141   2.058   4.100  0.0504  0.2227 -0.0461
 1146SOL    HW115074   1.058   2.087   4.061 -0.2516 -0.0395  0.4087
 1146SOL    HW215075   1.152   1.975   4.054  3.0788 -0.0422  1.1361
 1147SOL     OW15076   2.439   1.434  11.205  0.3031  0.4651 -0.1315
 1147SOL    HW115077   2.494   1.395  11.138 -2.9910  2.0292 -3.7555
 1147SOL    HW215078   2.476   1.405  11.289 -0.5639 -1.4104 -0.3850
 1148SOL     OW15079   2.243   2.934   9.968  0.5381 -0.0361  0.3723
 1148SOL    HW115080   2.188   2.903   9.896  0.4842  0.2594  0.2845
 1148SOL    HW215081   2.274   3.013   9.923  0.7096  0.0444  0.6284
 1149SOL     OW15082   3.625   0.561   2.950 -0.8913 -0.0172  0.1198
 1149SOL    HW115083   3.623   0.554   2.854 -1.7558 -2.4877  0.3218
 1149SOL    HW215084   3.585   0.648   2.956  2.4396  1.6094 -1.2683
 1150SOL     OW15085   2.170   3.698   0.584  0.0475  0.1418  0.0676
 1150SOL    HW115086   2.218   3.650   0.652 -2.4854 -0.9741  1.0787
 1150SOL    HW215087   2.191   3.648   0.505  0.2052 -0.5669  0.5549
 1151SOL     OW15088   4.627   1.316   9.848 -0.1439  0.1766  0.0454
 1151SOL    HW115089   4.680   1.301   9.926  1.0970 -0.3450 -0.8986
 1151SOL    HW215090   4.663   1.239   9.804 -0.9376  0.1212 -0.5091
 1152SOL     OW15091   2.962   0.741  10.598 -0.4537  0.0848 -0.1668
 1152SOL    HW115092   3.006   0.678  10.656  0.4956 -0.5426 -1.5740
 1152SOL    HW215093   2.875   0.744  10.637  0.0315 -0.5620  0.9799
 1153SOL     OW15094   1.069   0.529   4.994  0.1895  0.5004  0.1319
 1153SOL    HW115095   1.076   0.478   5.075 -0.1153 -0.5724 -0.5088
 1153SOL    HW215096   1.125   0.605   5.009  1.5684 -0.7308  1.2084
 1154SOL     OW15097   3.887   0.648  12.220 -0.0766  0.2128 -0.3129
 1154SOL    HW115098   3.907   0.561  12.252  3.7511  0.8512 -1.0229
 1154SOL    HW215099   3.834   0.677  12.295  0.2392 -2.6201  0.9821
 1155SOL     OW15100   3.108   3.392   4.439  0.3115  0.0939  0.3835
 1155SOL    HW115101   3.129   3.476   4.399  1.1460 -0.2871  0.0220
 1155SOL    HW215102   3.014   3.390   4.417  0.7690 -1.6556 -1.4636
 1156SOL     OW15103   1.764   0.709   2.730  0.2012  0.5367  0.4593
 1156SOL    HW115104   1.743   0.648   2.801  0.5158 -0.4235 -0.2643
 1156SOL    HW215105   1.811   0.771   2.785 -0.3938  0.0505  1.5282
 1157SOL     OW15106   4.113   0.513   4.386  0.0822 -0.1806  0.1609
 1157SOL    HW115107   4.207   0.529   4.390 -0.2004  1.1982  1.5123
 1157SOL    HW215108   4.082   0.582   4.445  0.1650  1.5100 -1.7665
 1158SOL     OW15109   2.271   1.449  15.208 -0.0678  0.6136  0.3102
 1158SOL    HW115110   2.288   1.362  15.244 -0.2436 -0.6792 -2.8043
 1158SOL    HW215111   2.335   1.509  15.246  0.3857  0.1697  0.2408
 1159SOL     OW15112   1.995   3.452  11.898 -0.3230 -0.3837  0.1411
 1159SOL    HW115113   1.948   3.493  11.971 -0.4258 -1.2632  0.5610
 1159SOL    HW215114   1.933   3.467  11.826 -1.1509 -0.2137  0.8854
 1160SOL     OW15115   2.922   0.727   8.055 -0.2936  0.1483 -0.4783
 1160SOL    HW115116   2.879   0.807   8.083 -0.3327 -0.1413  0.2819
 1160SOL    HW215117   2.853   0.661   8.065 -1.0682  0.8925 -0.8743
 1161SOL     OW15118   2.027   0.070  10.663  0.6523 -0.5051 -0.2630
 1161SOL    HW115119   2.104   0.126  10.650  0.4463 -0.1773 -0.0599
 1161SOL    HW215120   2.030   0.021  10.581 -1.7645  0.5095 -0.9406
 1162SOL     OW15121   3.388   0.478   6.671  0.1333  0.2670  0.3208
 1162SOL    HW115122   3.413   0.491   6.580 -1.8584 -0.7291 -0.3730
 1162SOL    HW215123   3.308   0.530   6.671 -0.2646 -0.3470 -0.1740
 1163SOL     OW15124   1.111   0.551   3.422  0.7740 -0.0335  0.7852
 1163SOL    HW115125   1.093   0.492   3.496  1.0877  1.6490  2.2000
 1163SOL    HW215126   1.198   0.514   3.410  0.2804 -0.7603 -0.5121
 1164SOL     OW15127   3.796   2.531  17.286 -0.2725 -0.2646  0.1402
 1164SOL    HW115128   3.823   2.439  17.292  2.1372  0.3998 -0.8830
 1164SOL    HW215129   3.855   2.582  17.342 -2.1417  1.1785  0.7836
 1165SOL     OW15130   0.078   3.324   3.419  0.4510 -0.1475  0.2089
 1165SOL    HW115131   0.141   3.311   3.348  0.4433  2.4227 -0.2601
 1165SOL    HW215132   4.739   3.346   3.370  0.0121 -0.9967  0.5228
 1166SOL     OW15133   1.281   2.408   0.637  0.2270  0.3624 -0.3382
 1166SOL    HW115134   1.290   2.319   0.605  1.4867  0.0494  0.8942
 1166SOL    HW215135   1.220   2.450   0.576  0.5591 -1.2029 -1.7344
 1167SOL     OW15136   0.522   1.338  12.764 -0.7577  0.1480 -0.3425
 1167SOL    HW115137   0.571   1.402  12.713 -0.8827  1.5578  1.2801
 1167SOL    HW215138   0.460   1.401  12.801 -0.1104 -0.4178  1.7413
 1168SOL     OW15139   3.245   3.391   7.268 -0.1481  0.3445 -0.4750
 1168SOL    HW115140   3.234   3.298   7.287 -0.1718  0.6560  1.0221
 1168SOL    HW215141   3.169   3.385   7.209 -1.2857  3.1248  0.6977
 1169SOL     OW15142   3.261   2.434   5.489 -0.4153  0.8921 -0.1935
 1169SOL    HW115143   3.304   2.357   5.451 -0.1802  0.4329  1.0031
 1169SOL    HW215144   3.239   2.405   5.578 -0.5579 -0.0032 -0.5198
 1170SOL     OW15145   4.339   1.612   2.891 -0.1558  0.2326  0.1006
 1170SOL    HW115146   4.284   1.616   2.813  2.3287  2.4734 -1.5511
 1170SOL    HW215147   4.387   1.693   2.872 -0.0865  1.0708  3.8010
 1171SOL     OW15148   3.317   4.061   1.573  0.5163 -0.1331 -0.0529
 1171SOL    HW115149   3.400   4.056   1.525  0.1456 -0.7551 -0.6279
 1171SOL    HW215150   3.326   4.152   1.601  1.5593  0.3529 -1.9603
 1172SOL     OW15151   0.545   1.572   9.094 -0.1513  0.1430  0.1504
 1172SOL    HW115152   0.501   1.585   9.178  0.1787  3.9196 -0.2847
 1172SOL    HW215153   0.493   1.638   9.048  1.4937  1.4878  0.2374
 1173SOL     OW15154   0.869   3.932  14.780 -0.4977  0.6781  0.4292
 1173SOL    HW115155   0.873   3.845  14.741  1.7936 -0.9333  4.1857
 1173SOL    HW215156   0.941   3.920  14.843 -0.6690 -1.8215  0.1632
 1174SOL     OW15157   2.018   0.962  10.826  0.1134 -0.5460  0.0021
 1174SOL    HW115158   1.943   1.006  10.785  0.0658 -0.8314 -0.2108
 1174SOL    HW215159   2.042   1.039  10.879  0.5679  0.1295 -1.1868
 1175SOL     OW15160   2.183   1.829   5.869  0.2868 -0.1704 -0.2212
 1175SOL    HW115161   2.200   1.899   5.933 -0.7300 -1.4952  1.4841
 1175SOL    HW215162   2.093   1.808   5.892  0.4135 -1.9123 -1.3984
 1176SOL     OW15163   0.261   2.002   6.081 -0.6249 -0.3857  0.4237
 1176SOL    HW115164   0.272   2.011   6.176  0.5380 -0.9707  0.3474
 1176SOL    HW215165   0.190   2.062   6.056  0.4696  0.2111 -1.1896
 1177SOL     OW15166   4.367   0.910   0.805  0.2100 -0.3701  0.0352
 1177SOL    HW115167   4.313   0.988   0.801 -0.0613 -0.4014  3.2533
 1177SOL    HW215168   4.373   0.887   0.712  0.1078  1.1194 -0.3325
 1178SOL     OW15169   3.990   2.824   6.086 -0.0324  0.3271  0.5199
 1178SOL    HW115170   4.005   2.786   6.173  0.7477 -0.2095  0.1561
 1178SOL    HW215171   3.895   2.810   6.078 -0.2158  1.2651  0.9975
 1179SOL     OW15172   0.327   3.235   3.204  0.3113  0.3404  0.1335
 1179SOL    HW115173   0.280   3.161   3.242  2.2628 -1.5157 -1.0691
 1179SOL    HW215174   0.312   3.219   3.110  2.9554  1.4048 -0.4770
 1180SOL     OW15175   2.461   0.406   6.400 -0.6446 -0.0485 -0.5518
 1180SOL    HW115176   2.441   0.375   6.312 -0.5214  0.6060 -0.8137
 1180SOL    HW215177   2.411   0.488   6.401 -2.3271 -1.0780  0.0298
 1181SOL     OW15178   4.633   3.811  14.351 -0.5718  0.3590 -0.0074
 1181SOL    HW115179   4.683   3.886  14.382 -0.1645 -0.9512  2.4337
 1181SOL    HW215180   4.557   3.801  14.408 -2.1356 -0.2654 -2.1999
 1182SOL     OW15181   3.212   2.680  10.118 -0.1159  0.3071  0.1438
 1182SOL    HW115182   3.222   2.594  10.159  0.8761  0.2768 -0.1660
 1182SOL    HW215183   3.141   2.713  10.174 -0.9373 -0.2818 -0.5361
 1183SOL     OW15184   3.691   0.813   3.373  0.1270  0.3247 -0.5772
 1183SOL    HW115185   3.599   0.834   3.359  0.6735  2.8707 -0.4670
 1183SOL    HW215186   3.722   0.817   3.283  0.3024 -1.7895 -0.6133
 1184SOL     OW15187   2.621   4.079   1.854 -0.4404  0.1258  0.0851
 1184SOL    HW115188   2.525   4.085   1.852 -0.6370 -2.9871  0.3473
 1184SOL    HW215189   2.626   3.990   1.818 -0.1330  1.2031 -2.5447
 1185SOL     OW15190   4.009   3.534  11.061 -0.0561  0.2959 -0.2201
 1185SOL    HW115191   4.057   3.613  11.037  0.6046  0.3221  1.1671
 1185SOL    HW215192   4.042   3.481  10.989 -1.0778  0.0469 -0.4996
 1186SOL     OW15193   0.159   3.853   1.821 -0.0252 -0.0864  0.3751
 1186SOL    HW115194   0.196   3.867   1.908 -0.3020 -1.7286  0.7740
 1186SOL    HW215195   0.117   3.936   1.802  0.3543  0.1484  0.5597
 1187SOL     OW15196   2.652   3.541   3.395  0.3296 -0.1242 -0.5389
 1187SOL    HW115197   2.574   3.582   3.435  0.8443  2.1959 -1.8983
 1187SOL    HW215198   2.657   3.461   3.447 -0.6161  0.0331 -0.2064
 1188SOL     OW15199   3.353   3.380   3.300 -0.2017  0.4028  0.1205
 1188SOL    HW115200   3.297   3.371   3.223 -0.1231  3.9423 -0.3675
 1188SOL    HW215201   3.399   3.458   3.270 -3.1290  2.1023 -0.0272
 1189SOL     OW15202   0.761   4.739   9.871 -1.2517 -0.1689  0.8184
 1189SOL    HW115203   0.841   0.038   9.835 -0.9762 -2.6941 -1.3090
 1189SOL    HW215204   0.780   4.645   9.872 -1.8027 -0.2369  3.2053
 1190SOL     OW15205   2.056   1.170   0.634 -0.2506  0.7142 -0.0478
 1190SOL    HW115206   1.962   1.186   0.624 -0.4139 -0.0131  0.3124
 1190SOL    HW215207   2.090   1.227   0.703  0.4701  1.7135 -1.2252
 1191SOL     OW15208   2.326   4.583  14.135 -0.1349 -0.0776 -0.6843
 1191SOL    HW115209   2.419   4.591  14.156 -0.0929  3.1542 -2.1994
 1191SOL    HW215210   2.338   4.553  14.045  0.5487  0.2585 -0.7015
 1192SOL     OW15211   1.244   0.673   5.116  0.0730 -0.4245 -0.1042
 1192SOL    HW115212   1.340   0.667   5.112  0.0438 -0.6060 -0.5742
 1192SOL    HW215213   1.232   0.622   5.196 -0.5268 -3.3102 -2.0093
 1193SOL     OW15214   4.463   4.429  15.094 -0.5225 -0.3052  0.1961
 1193SOL    HW115215   4.501   4.475  15.020 -0.7364 -2.3993 -1.2164
 1193SOL    HW215216   4.436   4.346  15.055  1.0087 -0.4097 -0.6196
 1194SOL     OW15217   0.352   0.453   4.501  0.6579 -0.1163  0.2017
 1194SOL    HW115218   0.403   0.376   4.476 -0.8134 -0.5337 -1.5256
 1194SOL    HW215219   0.273   0.415   4.540 -1.0238  1.3404 -1.7795
 1195SOL     OW15220   0.244   2.274   2.267  0.2505 -0.7285  0.2650
 1195SOL    HW115221   0.247   2.308   2.357 -0.0645  1.3157 -0.5090
 1195SOL    HW215222   0.336   2.270   2.242  0.1984 -2.5227  0.3121
 1196SOL     OW15223   3.016   0.243   8.750 -0.7201 -0.2349 -0.2571
 1196SOL    HW115224   3.072   0.180   8.796 -0.7854  0.4558  0.7519
 1196SOL    HW215225   3.055   0.316   8.798 -1.0149 -0.4493  0.3045
 1197SOL     OW15226   3.056   4.571   2.065  0.1024  0.6968 -0.5980
 1197SOL    HW115227   3.078   4.552   1.974  1.9540 -1.7515  0.3564
 1197SOL    HW215228   2.961   4.578   2.056  0.2371  1.0496 -1.6374
 1198SOL     OW15229   3.735   0.837  14.143  0.1717 -0.3476 -0.5340
 1198SOL    HW115230   3.783   0.837  14.061  2.2316 -0.8991  0.6807
 1198SOL    HW215231   3.650   0.812  14.106 -0.2237 -2.4056  1.8080
 1199SOL     OW15232   2.365   0.588   9.082 -0.3370  0.0833 -0.0117
 1199SOL    HW115233   2.437   0.590   9.145 -0.4746 -1.5832  0.1972
 1199SOL    HW215234   2.349   0.501   9.046 -0.4261  0.2698 -0.4243
 1200SOL     OW15235   1.339   3.063  14.697  0.0861 -0.3393  0.7334
 1200SOL    HW115236   1.288   3.107  14.629 -0.7194 -0.0771  1.5153
 1200SOL    HW215237   1.420   3.112  14.713 -0.0108  0.1160 -0.1495
 1201SOL     OW15238   1.735   1.831   7.608 -0.3347  0.8170  0.1509
 1201SOL    HW115239   1.742   1.743   7.570 -2.2100  1.0038 -0.6267
 1201SOL    HW215240   1.753   1.893   7.537 -2.1543 -0.6654 -1.5951
 1202SOL     OW15241   1.021   3.418   4.579 -0.5925  0.4576 -0.1175
 1202SOL    HW115242   1.017   3.440   4.673  1.2732 -0.3640  0.1705
 1202SOL    HW215243   1.071   3.493   4.546 -0.1946  0.3801  0.3031
 1203SOL     OW15244   2.730   0.294  14.461 -0.2451 -0.5553  0.2811
 1203SOL    HW115245   2.677   0.352  14.405  1.2001 -0.5249 -1.0852
 1203SOL    HW215246   2.721   0.334  14.547  2.8124  0.3219  0.2005
 1204SOL     OW15247   3.593   3.716   3.812  0.6182 -0.2181 -0.1422
 1204SOL    HW115248   3.582   3.806   3.844  0.5758 -1.0518  2.1260
 1204SOL    HW215249   3.654   3.736   3.741 -0.0698  0.5010 -0.5298
 1205SOL     OW15250   2.088   4.376   2.077 -0.2435  0.0762 -0.4665
 1205SOL    HW115251   2.135   4.456   2.052  1.0074  0.0642  1.8550
 1205SOL    HW215252   2.095   4.387   2.172 -1.7642 -1.2480 -0.2087
 1206SOL     OW15253   2.348   1.703   7.086  0.5213 -0.5796  0.2893
 1206SOL    HW115254   2.442   1.713   7.071 -0.2796  2.6531 -2.7296
 1206SOL    HW215255   2.352   1.657   7.169 -1.4465  0.9480  1.2292
 1207SOL     OW15256   2.729   4.561  17.209 -0.2118  0.1261  0.0743
 1207SOL    HW115257   2.646   4.584  17.166  1.4505  1.5970 -2.4004
 1207SOL    HW215258   2.700   4.473  17.231  3.2006 -1.0633 -0.0803
 1208SOL     OW15259   0.893   1.852   2.763  0.0696 -0.5041  0.0914
 1208SOL    HW115260   0.821   1.875   2.704  0.7875 -2.1194 -1.4467
 1208SOL    HW215261   0.841   1.850   2.843  1.8546  0.9429  1.2728
 1209SOL     OW15262   2.892   1.520   6.130 -0.5167  0.0704 -0.5092
 1209SOL    HW115263   2.859   1.584   6.068 -0.0587 -0.9954 -1.8624
 1209SOL    HW215264   2.946   1.462   6.076  1.1559  1.9089 -0.8311
 1210SOL     OW15265   2.244   0.475   1.674 -0.2328 -0.2243 -0.0323
 1210SOL    HW115266   2.314   0.538   1.656 -0.0891 -0.3688  0.0199
 1210SOL    HW215267   2.162   0.521   1.658 -0.6054 -0.8634  0.0757
 1211SOL     OW15268   2.532   3.428   7.378  0.1088 -0.3902  0.1219
 1211SOL    HW115269   2.522   3.489   7.305  0.0452  0.4673  0.8475
 1211SOL    HW215270   2.456   3.446   7.433  0.8929  0.1658  1.0311
 1212SOL     OW15271   1.389   1.952  10.039  0.3045 -0.2082  0.1053
 1212SOL    HW115272   1.351   1.967   9.952 -2.3217  0.8345  1.4244
 1212SOL    HW215273   1.379   2.038  10.081 -1.0926 -0.3628  0.0952
 1213SOL     OW15274   3.244   0.292   4.755 -0.2344  0.3798 -0.1679
 1213SOL    HW115275   3.257   0.361   4.689 -0.3196  1.3189  0.7896
 1213SOL    HW215276   3.234   0.212   4.705 -0.8146  0.2447  0.1707
 1214SOL     OW15277   2.717   4.374   6.642  0.4617  0.6495 -0.3894
 1214SOL    HW115278   2.795   4.328   6.673  1.3314  2.0557 -0.4652
 1214SOL    HW215279   2.745   4.403   6.555 -1.8346  0.6544 -1.1225
 1215SOL     OW15280   3.909   3.904   4.677 -0.3074 -0.1624 -0.1646
 1215SOL    HW115281   3.845   3.947   4.619  0.4033  1.8058  0.5074
 1215SOL    HW215282   3.907   3.947   4.762  0.2210 -0.6480  0.0912
 1216SOL     OW15283   4.679   0.290   4.063 -0.1417  0.3329  0.0910
 1216SOL    HW115284   4.651   0.262   4.151 -0.4230  1.5991  0.4056
 1216SOL    HW215285   4.604   0.347   4.045  1.2758  2.1522 -0.0396
 1217SOL     OW15286   4.238   3.261   3.680  0.2305  0.5579  0.0185
 1217SOL    HW115287   4.183   3.274   3.603 -0.3639  0.3415  0.4131
 1217SOL    HW215288   4.196   3.189   3.725  1.5113  0.0328  0.3757
 1218SOL     OW15289   0.735   4.614   4.786  0.3346 -0.3270  0.1725
 1218SOL    HW115290   0.674   4.655   4.848  0.8118  0.7311 -0.0563
 1218SOL    HW215291   0.689   4.621   4.703 -1.6348  0.2224  1.3058
 1219SOL     OW15292   4.173   2.462   2.947 -0.6568  0.6757  0.3311
 1219SOL    HW115293   4.146   2.553   2.929  1.3219  1.0536 -0.7688
 1219SOL    HW215294   4.133   2.413   2.875  0.6735  2.0355 -1.3272
 1220SOL     OW15295   2.556   4.613   8.648  0.3624 -0.7383  0.0996
 1220SOL    HW115296   2.532   4.626   8.556 -0.8408 -0.2961  0.4745
 1220SOL    HW215297   2.520   4.527   8.671 -1.0135 -0.4898 -1.1300
 1221SOL     OW15298   2.072   1.144  11.284  0.5175 -0.4964 -0.1049
 1221SOL    HW115299   2.157   1.111  11.312 -0.2180 -1.4089  1.0479
 1221SOL    HW215300   2.098   1.227  11.244  1.4686 -0.6493  0.1933
 1222SOL     OW15301   2.697   0.992  16.486 -0.2576  0.3813  0.5084
 1222SOL    HW115302   2.606   0.985  16.515 -0.5420  2.0592  0.0295
 1222SOL    HW215303   2.736   0.921  16.538  2.4630  0.2507 -1.7380
 1223SOL     OW15304   2.636   3.212   6.272 -0.0562 -0.2025 -0.6686
 1223SOL    HW115305   2.550   3.243   6.242  0.0596 -0.6440 -1.4603
 1223SOL    HW215306   2.667   3.283   6.329  0.1753 -0.6783 -0.2045
 1224SOL     OW15307   0.616   0.529  16.913  0.4208 -0.1938 -0.0211
 1224SOL    HW115308   0.633   0.520  17.007  2.9788 -0.1209 -0.4831
 1224SOL    HW215309   0.566   0.609  16.898  1.1190  0.4230  0.9789
 1225SOL     OW15310   1.682   1.181   6.634  0.3855  0.1587  0.8277
 1225SOL    HW115311   1.671   1.239   6.710 -0.5307  1.1962 -0.1008
 1225SOL    HW215312   1.688   1.244   6.563  3.9866 -1.7282 -0.5082
 1226SOL     OW15313   0.245   2.450   4.993  0.2499 -0.5585  0.2859
 1226SOL    HW115314   0.209   2.426   5.078 -0.2275  2.4123  0.9073
 1226SOL    HW215315   0.318   2.388   4.992 -0.0368 -0.8595 -2.9428
 1227SOL     OW15316   0.355   3.851   6.516 -0.1472 -0.1585  0.0113
 1227SOL    HW115317   0.355   3.800   6.597 -0.0314 -0.7517 -0.3650
 1227SOL    HW215318   0.291   3.802   6.465  1.2815 -0.5134 -1.4712
 1228SOL     OW15319   2.629   2.644   4.651  0.2658 -0.7670 -0.6496
 1228SOL    HW115320   2.676   2.632   4.734  1.7467  1.0857 -1.1873
 1228SOL    HW215321   2.701   2.666   4.591 -0.2893  0.2933 -0.9204
 1229SOL     OW15322   3.094   3.222   8.505 -0.6769  0.0415 -0.3538
 1229SOL    HW115323   3.181   3.189   8.525 -1.3581 -2.0745 -0.9763
 1229SOL    HW215324   3.106   3.310   8.542 -0.9653 -0.1232  0.1279
 1230SOL     OW15325   1.186   2.776   0.141 -0.0954 -0.1220 -0.5247
 1230SOL    HW115326   1.114   2.770   0.078  0.2139  1.6284 -1.0536
 1230SOL    HW215327   1.234   2.858   0.128  1.4214 -1.1591 -1.4670
 1231SOL     OW15328   0.378   3.283  17.090  0.2509 -0.5246 -0.0161
 1231SOL    HW115329   0.431   3.280  17.010 -1.0117 -0.7327 -0.8343
 1231SOL    HW215330   0.425   3.215  17.139  1.0196 -1.0417 -1.4622
 1232SOL     OW15331   3.438   4.669   2.826 -0.0207 -0.1598 -0.0864
 1232SOL    HW115332   3.440   0.016   2.866 -2.1675  0.0165 -0.3557
 1232SOL    HW215333   3.345   4.655   2.841 -0.0116  0.6928  0.7618
 1233SOL     OW15334   4.325   0.022   7.771  0.2017  0.0129 -0.3109
 1233SOL    HW115335   4.277   0.085   7.825 -1.6475 -0.1392 -1.7674
 1233SOL    HW215336   4.309   0.040   7.679  1.6884 -0.1084 -0.5875
 1234SOL     OW15337   1.105   0.369   5.215  0.2059 -0.3500  0.1904
 1234SOL    HW115338   1.053   0.393   5.291 -1.5010 -0.8599 -0.8115
 1234SOL    HW215339   1.134   0.280   5.237  1.1837  0.4682  2.1613
 1235SOL     OW15340   0.490   0.013   5.759 -0.5802 -0.0928 -0.1495
 1235SOL    HW115341   0.585   0.024   5.766 -0.5946  0.4850 -0.7940
 1235SOL    HW215342   0.459   0.033   5.848 -1.1997  1.3246 -0.6768
 1236SOL     OW15343   4.066   2.598   7.067 -0.1178  0.2354  0.0875
 1236SOL    HW115344   3.991   2.585   7.125 -1.0961  3.0796 -0.5419
 1236SOL    HW215345   4.100   2.508   7.064 -2.3406 -0.6029 -0.5897
 1237SOL     OW15346   3.315   1.506   1.027 -0.5695  0.4052 -0.2001
 1237SOL    HW115347   3.409   1.521   1.027 -0.4206 -0.6087 -3.9911
 1237SOL    HW215348   3.310   1.444   1.100 -0.7376  0.2341 -0.3580
 1238SOL     OW15349   0.151   0.652   6.055 -0.6189  0.4396 -0.1083
 1238SOL    HW115350   0.188   0.669   5.968  0.6362 -1.8074 -0.0317
 1238SOL    HW215351   0.151   0.743   6.085  4.3649  0.7153 -0.9887
 1239SOL     OW15352   2.381   1.990   7.658 -0.1305  0.5942 -0.0879
 1239SOL    HW115353   2.455   2.051   7.666  1.2787 -0.8362 -2.1006
 1239SOL    HW215354   2.433   1.914   7.630  1.1453  0.9698  1.2864
 1240SOL     OW15355   0.460   1.999   6.512  0.1082 -0.2170 -0.0783
 1240SOL    HW115356   0.465   1.903   6.515 -3.0269 -0.4263 -0.8745
 1240SOL    HW215357   0.452   2.028   6.603 -0.1150 -0.7637  0.0768
 1241SOL     OW15358   2.681   0.923   5.616  0.8685  0.1633  0.5396
 1241SOL    HW115359   2.755   0.930   5.556  0.1040  0.3888 -0.3744
 1241SOL    HW215360   2.633   0.843   5.594  3.4745 -0.9390 -1.1446
 1242SOL     OW15361   4.585   1.192   1.718 -0.3074 -0.4589  0.2587
 1242SOL    HW115362   4.680   1.181   1.722 -0.1498  1.3774  1.2180
 1242SOL    HW215363   4.558   1.164   1.805 -1.3349  3.4389  1.1513
 1243SOL     OW15364   3.554   3.952  15.772 -0.2924  0.0558  0.7332
 1243SOL    HW115365   3.466   3.947  15.811 -1.0159 -1.2739 -1.0504
 1243SOL    HW215366   3.549   4.042  15.741 -1.1187 -1.2127 -2.7916
 1244SOL     OW15367   2.188   4.708   1.810  0.1670 -0.4986  0.0931
 1244SOL    HW115368   2.111   4.688   1.755  1.1900  0.0233 -1.5412
 1244SOL    HW215369   2.195   0.061   1.788 -1.6713  0.3530  3.0606
 1245SOL     OW15370   4.025   0.427   1.663 -0.2966 -0.2888  0.1159
 1245SOL    HW115371   3.995   0.513   1.689 -0.6022  0.4284 -2.6087
 1245SOL    HW215372   3.940   0.385   1.650  0.4768 -1.3075 -1.6697
 1246SOL     OW15373   3.124   3.102  17.270  0.4070 -0.3026  0.6110
 1246SOL    HW115374   3.107   3.038  17.201 -0.8021  0.9845 -0.2854
 1246SOL    HW215375   3.038   3.143  17.270 -0.1616 -1.4732 -0.0635
 1247SOL     OW15376   3.897   0.739  14.499  0.1754 -0.6389  0.1055
 1247SOL    HW115377   3.938   0.825  14.495 -0.0266 -0.5526 -0.0528
 1247SOL    HW215378   3.912   0.702  14.412  0.0016 -0.5421  0.0358
 1248SOL     OW15379   1.971   4.579   3.887  0.3266  0.4419 -0.1611
 1248SOL    HW115380   2.040   4.645   3.877  0.2280  0.4154 -1.0355
 1248SOL    HW215381   2.016   4.500   3.917  1.6638  2.6009  3.4788
 1249SOL     OW15382   1.181   1.631   0.370 -0.0287  0.4274 -0.0891
 1249SOL    HW115383   1.088   1.647   0.353 -0.1218  2.1132  2.0337
 1249SOL    HW215384   1.182   1.535   0.368 -0.4433  0.4588 -2.2452
 1250SOL     OW15385   3.489   1.812   7.618 -0.1607  0.2108  0.9091
 1250SOL    HW115386   3.521   1.844   7.533  1.4559  0.6833  1.7025
 1250SOL    HW215387   3.410   1.866   7.616 -0.8121 -0.7323  1.0357
 1251SOL     OW15388   2.345   0.919  10.654  0.4208  0.3779 -0.7058
 1251SOL    HW115389   2.317   0.996  10.603  0.0907 -0.0444 -1.1578
 1251SOL    HW215390   2.279   0.851  10.637 -1.0724  1.0046  2.6057
 1252SOL     OW15391   1.070   0.794   6.539  0.0712 -0.1622  0.7969
 1252SOL    HW115392   1.149   0.820   6.586  0.1808  0.5096  0.2339
 1252SOL    HW215393   1.007   0.855   6.579  0.6867  1.0089 -0.0398
 1253SOL     OW15394   3.870   1.775   5.242 -0.3530  0.6958  0.1084
 1253SOL    HW115395   3.950   1.729   5.263 -0.9019 -0.0473  0.5602
 1253SOL    HW215396   3.866   1.777   5.146  0.0582  0.3420  0.0866
 1254SOL     OW15397   1.965   4.398  14.964  0.5176  0.4154 -0.1378
 1254SOL    HW115398   1.975   4.309  14.930  1.2016  0.1745  0.6967
 1254SOL    HW215399   1.940   4.437  14.881  0.0987  0.0952 -0.1598
 1255SOL     OW15400   2.518   2.032   8.924 -0.4838 -0.2588 -0.4561
 1255SOL    HW115401   2.525   2.047   9.019 -2.6303 -0.8111 -0.2064
 1255SOL    HW215402   2.497   2.120   8.895 -1.2537 -0.1113  0.5449
 1256SOL     OW15403   0.674   0.162   2.984 -0.0481 -0.4091  0.0026
 1256SOL    HW115404   0.682   0.067   2.978 -1.3286 -0.4416 -1.1171
 1256SOL    HW215405   0.741   0.183   2.919 -1.3048  1.3040 -0.7187
 1257SOL     OW15406   1.161   3.757   5.394  0.4442 -0.0570  0.1816
 1257SOL    HW115407   1.148   3.830   5.333 -2.0792 -1.5772 -1.1129
 1257SOL    HW215408   1.075   3.714   5.397 -0.5700  1.9561  0.1012
 1258SOL     OW15409   2.198   1.423  13.356 -0.0583 -0.6915  0.4614
 1258SOL    HW115410   2.262   1.493  13.347 -0.2348 -0.9575 -2.7693
 1258SOL    HW215411   2.251   1.347  13.330 -0.1636 -0.5393 -0.1952
 1259SOL     OW15412   0.760   0.046   5.748  0.4817 -0.1075  0.2612
 1259SOL    HW115413   0.780   0.114   5.683 -1.0856  2.1835  2.1767
 1259SOL    HW215414   0.845   0.032   5.790  0.0662 -0.0072  1.1205
 1260SOL     OW15415   2.023   4.191  14.804 -0.2045 -0.6203  0.2161
 1260SOL    HW115416   2.003   4.255  14.735 -1.7872 -1.0852  0.2416
 1260SOL    HW215417   2.088   4.135  14.761 -1.8101 -1.5490 -0.9865
 1261SOL     OW15418   3.816   2.541   2.331 -0.6356  0.2627  0.5136
 1261SOL    HW115419   3.897   2.503   2.298  0.2417  1.3446  1.4157
 1261SOL    HW215420   3.797   2.608   2.264  0.5389  2.2276  2.1578
 1262SOL     OW15421   4.510   3.012   7.989 -0.1571  0.0577  0.6560
 1262SOL    HW115422   4.589   3.001   8.042  1.4479  0.7457 -1.5607
 1262SOL    HW215423   4.517   2.933   7.936  2.0312  1.0235 -0.4908
 1263SOL     OW15424   4.435   1.979   3.466  0.8134  0.3871 -0.0487
 1263SOL    HW115425   4.484   1.954   3.544  0.5729  0.9025  0.2652
 1263SOL    HW215426   4.494   2.022   3.404  2.4561 -2.3818 -0.4262
 1264SOL     OW15427   0.051   4.149  13.841  0.5041 -0.3493  0.3165
 1264SOL    HW115428   0.065   4.239  13.871 -1.4894  0.7011 -1.9361
 1264SOL    HW215429   4.709   4.122  13.883 -0.0193 -2.6101 -2.1671
 1265SOL     OW15430   1.707   1.796   6.221  0.3205  0.6329 -0.2164
 1265SOL    HW115431   1.652   1.735   6.171  1.2848 -0.7698  0.4456
 1265SOL    HW215432   1.792   1.770   6.187 -0.0478  0.2755 -0.8588
 1266SOL     OW15433   1.433   4.450   6.982 -0.4738 -0.2262  0.4358
 1266SOL    HW115434   1.364   4.492   7.032 -0.1421  0.6204  0.1832
 1266SOL    HW215435   1.418   4.487   6.895 -0.7930 -0.3870  0.4250
 1267SOL     OW15436   2.788   2.482   2.473  0.0449  0.0785 -0.2390
 1267SOL    HW115437   2.731   2.418   2.517 -1.5114  1.7386  0.1759
 1267SOL    HW215438   2.754   2.561   2.516 -2.7138 -1.9266  1.2599
 1268SOL     OW15439   3.939   0.292   7.062 -0.7873 -0.1778  0.0826
 1268SOL    HW115440   3.922   0.385   7.080  0.3610  0.0305  0.1372
 1268SOL    HW215441   3.899   0.279   6.976 -1.9934  0.1223  0.6001
 1269SOL     OW15442   3.737   1.782   2.935  0.5504  0.5372  0.7482
 1269SOL    HW115443   3.774   1.782   3.023  3.1759  0.0467 -0.3505
 1269SOL    HW215444   3.813   1.747   2.890 -1.5112  0.6109 -2.7953
 1270SOL     OW15445   2.066   1.149   0.933  0.4991 -0.6450  0.4676
 1270SOL    HW115446   2.117   1.230   0.933  0.4287 -0.6009  0.5135
 1270SOL    HW215447   2.071   1.117   1.023  1.0352 -0.5350  0.4766
 1271SOL     OW15448   2.600   1.027   5.857  0.2725 -0.1329 -0.2365
 1271SOL    HW115449   2.563   1.106   5.816 -0.9067  0.1105  1.3111
 1271SOL    HW215450   2.649   0.979   5.790  0.5421 -0.9689  0.5588
 1272SOL     OW15451   0.820   2.666  10.140  0.1524  0.0071  0.6532
 1272SOL    HW115452   0.766   2.671  10.219  0.9128  1.0450  1.1128
 1272SOL    HW215453   0.836   2.759  10.122  0.3274  0.3476  2.5515
 1273SOL     OW15454   4.524   4.179   7.936  0.3629 -0.3140 -0.3185
 1273SOL    HW115455   4.609   4.210   7.905 -0.5468 -0.9594 -3.5748
 1273SOL    HW215456   4.519   4.090   7.899  1.4165 -0.5304  0.0883
 1274SOL     OW15457   2.099   4.286   8.479 -0.0464 -0.2671 -0.1572
 1274SOL    HW115458   2.140   4.203   8.454  0.6803  0.5413 -1.6533
 1274SOL    HW215459   2.127   4.282   8.570 -1.1437  1.0566  0.2244
 1275SOL     OW15460   4.014   1.598   7.752  0.0818  0.4526 -0.1192
 1275SOL    HW115461   4.037   1.665   7.816 -0.9576  0.1002  0.6299
 1275SOL    HW215462   3.974   1.537   7.815  0.5987  0.1602 -0.0735
 1276SOL     OW15463   0.468   0.328   6.941 -0.5554  0.3606 -0.4082
 1276SOL    HW115464   0.537   0.381   6.901  0.0166  1.4312  2.0195
 1276SOL    HW215465   0.387   0.374   6.921 -0.2340  1.0771 -0.0623
 1277SOL     OW15466   3.232   3.957   9.145  0.0533 -0.4174  0.3656
 1277SOL    HW115467   3.217   3.865   9.122 -0.0400 -0.3625  0.2010
 1277SOL    HW215468   3.224   3.953   9.240 -0.5376 -1.3261  0.2844
 1278SOL     OW15469   0.283   1.921   5.172  0.0405  0.2105  0.4015
 1278SOL    HW115470   0.379   1.927   5.164  0.1649  1.1112  2.5162
 1278SOL    HW215471   0.265   1.984   5.241 -1.7369 -3.3523  3.2006
 1279SOL     OW15472   3.190   3.534   2.833  0.5556  0.1921 -0.3855
 1279SOL    HW115473   3.259   3.566   2.892  0.7344 -0.5825 -0.1831
 1279SOL    HW215474   3.120   3.513   2.894 -0.3782  1.2939 -1.0823
 1280SOL     OW15475   3.586   1.920  11.585 -0.6311 -0.2172 -0.3795
 1280SOL    HW115476   3.554   1.831  11.572  1.8212 -0.8458 -2.1254
 1280SOL    HW215477   3.660   1.907  11.644  0.6949 -1.5819 -2.3460
 1281SOL     OW15478   1.869   0.662   6.501 -1.1591  0.0406 -0.3441
 1281SOL    HW115479   1.880   0.711   6.582  1.2428 -0.5597 -0.3030
 1281SOL    HW215480   1.941   0.699   6.450 -0.9139  0.3920  0.2575
 1282SOL     OW15481   2.835   3.908   0.520 -0.0331  0.3522 -0.1186
 1282SOL    HW115482   2.888   3.835   0.550  2.6294  0.5898 -4.2321
 1282SOL    HW215483   2.901   3.937   0.457  1.3626  0.8261  1.5852
 1283SOL     OW15484   1.138   2.435   6.726 -0.0242  0.1625  0.1772
 1283SOL    HW115485   1.220   2.394   6.754  0.9411  1.3423 -0.9398
 1283SOL    HW215486   1.167   2.500   6.662  2.7138 -1.7864 -0.5587
 1284SOL     OW15487   0.147   4.215   5.961 -0.3996 -0.0875  0.3090
 1284SOL    HW115488   0.191   4.153   5.903 -1.0501  0.4038 -0.7115
 1284SOL    HW215489   0.167   4.179   6.047  0.3198 -1.4192 -0.4118
 1285SOL     OW15490   1.567   3.427   5.991  0.1288 -0.2023 -0.4702
 1285SOL    HW115491   1.590   3.467   6.075  1.9900 -0.3131 -0.9200
 1285SOL    HW215492   1.475   3.400   5.997  0.1084  0.0327  0.4094
 1286SOL     OW15493   3.528   1.864   5.806  0.5885  0.4051  0.0226
 1286SOL    HW115494   3.618   1.876   5.778  0.5110 -0.1104 -0.4491
 1286SOL    HW215495   3.517   1.770   5.789  3.3567  0.1888 -0.4782
 1287SOL     OW15496   2.755   0.382   2.128 -0.0519  0.5676 -0.2227
 1287SOL    HW115497   2.684   0.358   2.070  2.0470 -3.0834 -1.2790
 1287SOL    HW215498   2.817   0.415   2.063 -0.6642  0.2421 -0.9642
 1288SOL     OW15499   3.791   0.483   8.709 -0.1589 -0.1175 -0.0859
 1288SOL    HW115500   3.805   0.575   8.687  0.1661 -0.0560  0.3833
 1288SOL    HW215501   3.770   0.447   8.623  0.5526 -0.9509  0.0942
 1289SOL     OW15502   2.130   0.487  11.393 -0.3733 -0.3944  0.1335
 1289SOL    HW115503   2.074   0.553  11.350  0.2971  1.0471  1.4514
 1289SOL    HW215504   2.075   0.459  11.466 -0.8100  1.8150  0.6796
 1290SOL     OW15505   1.931   0.541   2.489  0.1333  0.5290 -0.3441
 1290SOL    HW115506   1.850   0.561   2.537 -0.4157  0.2164 -1.1532
 1290SOL    HW215507   1.916   0.586   2.406 -2.0285  0.6617  0.0981
 1291SOL     OW15508   2.286   2.038   4.621 -0.1420 -0.2651  0.7289
 1291SOL    HW115509   2.368   2.045   4.572 -1.0911 -0.7276 -0.9443
 1291SOL    HW215510   2.252   2.127   4.608 -0.3947 -0.5919 -0.8895
 1292SOL     OW15511   1.589   3.827  13.100  0.1588  0.1126 -0.3746
 1292SOL    HW115512   1.571   3.811  13.193  1.4141 -0.2960 -0.1941
 1292SOL    HW215513   1.677   3.866  13.105 -0.2803  0.7392  2.5930
 1293SOL     OW15514   1.893   1.392  17.471  0.2588  0.6214 -0.0952
 1293SOL    HW115515   1.901   1.488  17.467 -0.8749  0.7109 -0.3318
 1293SOL    HW215516   1.804   1.385  17.436  0.2351  1.6489 -0.2363
 1294SOL     OW15517   0.540   4.334   4.681 -0.3494  0.3393 -0.0090
 1294SOL    HW115518   0.454   4.376   4.674 -0.4281 -0.1051 -1.7710
 1294SOL    HW215519   0.581   4.381   4.608 -1.0330 -1.8131 -1.7439
 1295SOL     OW15520   1.798   1.411   1.598  0.0361  0.1155 -0.1478
 1295SOL    HW115521   1.834   1.479   1.542  1.1702 -0.0888  0.3251
 1295SOL    HW215522   1.703   1.422   1.593  0.0952  0.7848  0.1965
 1296SOL     OW15523   0.479   3.373  16.459 -0.6940  0.6031 -0.5145
 1296SOL    HW115524   0.398   3.339  16.421  1.0170 -2.0185 -1.8079
 1296SOL    HW215525   0.453   3.454  16.504  0.4106  1.2991 -1.1295
 1297SOL     OW15526   3.852   2.820   9.912  0.0620  0.2612 -0.3817
 1297SOL    HW115527   3.794   2.744   9.918  0.7814 -0.4052 -1.9581
 1297SOL    HW215528   3.926   2.788   9.861  1.5435 -1.9642  3.1201
 1298SOL     OW15529   2.838   1.391  13.923 -0.5456 -0.0221 -0.4221
 1298SOL    HW115530   2.758   1.443  13.934 -1.3191 -0.9876 -1.4261
 1298SOL    HW215531   2.803   1.318  13.973 -1.3907  0.1760 -0.7054
 1299SOL     OW15532   4.404   2.424  10.122 -0.9122 -0.7273 -0.3068
 1299SOL    HW115533   4.391   2.343  10.169 -1.1503 -0.3647  0.2474
 1299SOL    HW215534   4.482   2.463  10.163 -0.9005 -0.4671 -0.5712
 1300SOL     OW15535   0.143   3.519   4.678  0.4638  0.3648  0.2041
 1300SOL    HW115536   0.186   3.494   4.596  0.6219  0.2224  0.3299
 1300SOL    HW215537   0.057   3.557   4.662  0.2985 -0.0387  0.1380
 1301SOL     OW15538   2.078   1.295   4.939  0.1255  0.4173 -0.1461
 1301SOL    HW115539   2.023   1.217   4.934  0.6199  0.0091  0.7598
 1301SOL    HW215540   2.062   1.320   5.030  0.3387  0.2495 -0.0623
 1302SOL     OW15541   3.000   2.248   9.103  0.0100  0.5488 -0.4052
 1302SOL    HW115542   3.085   2.205   9.104 -1.4508 -2.2300  3.3141
 1302SOL    HW215543   2.937   2.185   9.068 -1.6934  2.3181 -0.5374
 1303SOL     OW15544   3.565   3.810   5.553  0.5942  0.2982  0.8097
 1303SOL    HW115545   3.479   3.792   5.591  0.6141  0.8517  1.1175
 1303SOL    HW215546   3.553   3.775   5.465 -1.7025  1.8403  0.5153
 1304SOL     OW15547   3.891   1.606   7.521  0.7016 -0.0533  0.1543
 1304SOL    HW115548   3.845   1.688   7.507  0.1585 -0.5895 -1.2121
 1304SOL    HW215549   3.940   1.625   7.601 -0.0107  1.1766  0.2977
 1305SOL     OW15550   3.486   1.610   6.533  0.3125 -0.0193 -0.2842
 1305SOL    HW115551   3.424   1.682   6.544 -0.1818 -0.6454  0.9803
 1305SOL    HW215552   3.444   1.566   6.459  0.0813 -0.1061 -0.0992
 1306SOL     OW15553   0.454   0.041  12.492  0.3324  0.2848  0.0040
 1306SOL    HW115554   0.429   4.693  12.466  0.6976  0.2189 -0.1254
 1306SOL    HW215555   0.392   0.054  12.564  2.7705  1.8260  1.8558
 1307SOL     OW15556   4.440   2.272   4.304 -0.1786  0.1690 -0.2351
 1307SOL    HW115557   4.465   2.317   4.384 -0.3504  0.5030 -0.3687
 1307SOL    HW215558   4.525   2.252   4.264  1.9506  0.0994  4.4034
 1308SOL     OW15559   3.219   2.266   1.891 -1.0380  0.4413 -0.6225
 1308SOL    HW115560   3.127   2.267   1.864 -0.4048 -0.4513 -2.8120
 1308SOL    HW215561   3.218   2.271   1.986  1.9185 -0.1452 -0.5624
 1309SOL     OW15562   2.622   3.795   6.872  0.0820  0.3828 -0.3514
 1309SOL    HW115563   2.641   3.884   6.842 -0.4198  1.0635  1.3620
 1309SOL    HW215564   2.645   3.813   6.963 -0.9160 -0.4456  0.0574
 1310SOL     OW15565   2.118   2.265   5.058 -0.2955 -0.2341  0.0005
 1310SOL    HW115566   2.038   2.237   5.012 -1.9074 -0.0684  2.7455
 1310SOL    HW215567   2.139   2.191   5.115 -1.2718  0.2918  1.0250
 1311SOL     OW15568   3.136   3.000   5.715  0.0686 -0.3261 -0.2985
 1311SOL    HW115569   3.205   3.045   5.665  0.8664 -0.6714  0.4894
 1311SOL    HW215570   3.064   2.985   5.654  0.8565 -2.2063 -0.7735
 1312SOL     OW15571   2.436   3.556   7.623  0.4323  0.1709 -0.1142
 1312SOL    HW115572   2.530   3.562   7.642 -0.1193 -0.3248  2.7864
 1312SOL    HW215573   2.416   3.484   7.682 -0.8916  0.2506 -0.4743
 1313SOL     OW15574   4.738   2.354   8.382 -0.2532 -0.4811 -0.1454
 1313SOL    HW115575   0.051   2.396   8.315 -0.9875  0.7740  0.0506
 1313SOL    HW215576   4.731   2.271   8.336 -0.7099 -0.2261 -0.5422
 1314SOL     OW15577   3.921   1.625  11.054 -0.0388 -0.7108 -1.2586
 1314SOL    HW115578   3.831   1.622  11.088 -0.0443 -0.9441 -1.2947
 1314SOL    HW215579   3.906   1.580  10.971 -2.3846 -2.1608 -0.0595
 1315SOL     OW15580   0.480   1.229   2.587 -0.9329  0.0286 -0.6961
 1315SOL    HW115581   0.404   1.269   2.629 -0.5643  1.0262 -0.9897
 1315SOL    HW215582   0.529   1.189   2.659 -0.4347  0.7849 -0.6238
 1316SOL     OW15583   0.899   0.960   6.662 -0.2944  0.9904  0.2401
 1316SOL    HW115584   0.901   0.916   6.747 -1.9629 -1.7621 -1.1345
 1316SOL    HW215585   0.867   1.050   6.668 -2.1180  0.2325  1.6254
 1317SOL     OW15586   0.725   2.425   1.599  0.2862 -0.3574 -0.1926
 1317SOL    HW115587   0.790   2.370   1.556  0.4728 -1.7157  1.8609
 1317SOL    HW215588   0.680   2.357   1.648 -1.9840 -0.6255 -2.6855
 1318SOL     OW15589   3.021   1.838   2.558  0.1027 -0.0182 -0.3935
 1318SOL    HW115590   3.081   1.866   2.490  1.1901 -0.3903  0.4143
 1318SOL    HW215591   2.968   1.917   2.547 -1.2535 -1.1741 -2.1070
 1319SOL     OW15592   1.546   2.106   3.310 -0.0701  0.1074 -0.5712
 1319SOL    HW115593   1.607   2.061   3.368  0.8674  3.3893  0.9341
 1319SOL    HW215594   1.581   2.073   3.227  1.3616 -0.8907  0.4206
 1320SOL     OW15595   2.286   2.021   6.779  0.7606 -0.0806  0.1901
 1320SOL    HW115596   2.256   2.082   6.847 -1.8245 -1.6990  0.4837
 1320SOL    HW215597   2.243   2.052   6.699 -1.1745 -2.0088  0.5070
 1321SOL     OW15598   4.514   2.316   7.526 -0.2585  0.1879 -0.1451
 1321SOL    HW115599   4.434   2.323   7.473 -0.5544  0.2725  0.3110
 1321SOL    HW215600   4.573   2.265   7.470 -0.4837 -1.1724  0.8477
 1322SOL     OW15601   0.884   0.145   9.559  0.4741 -0.3153  0.0301
 1322SOL    HW115602   0.868   0.054   9.585 -2.4148 -0.1338 -1.0066
 1322SOL    HW215603   0.849   0.143   9.470  3.0441  2.2412 -1.0419
 1323SOL     OW15604   1.629   3.935   8.435  0.5981  0.3075 -0.1084
 1323SOL    HW115605   1.571   3.864   8.407  1.9124 -0.6271 -0.5149
 1323SOL    HW215606   1.566   4.004   8.456 -1.5643 -1.5232 -0.5460
 1324SOL     OW15607   2.293   4.032   6.563  0.0717  0.2056  0.2407
 1324SOL    HW115608   2.212   3.983   6.550  0.7639 -0.9414  0.2652
 1324SOL    HW215609   2.332   4.029   6.476  0.1216 -1.4758  0.3180
 1325SOL     OW15610   4.244   4.737   3.744  0.5050 -0.1358  0.1590
 1325SOL    HW115611   4.153   0.014   3.769  0.2962 -0.9624 -0.0650
 1325SOL    HW215612   4.263   4.669   3.809 -0.9868  1.1981  2.0019
 1326SOL     OW15613   3.688   0.373   0.740  0.1540 -0.0722 -0.5469
 1326SOL    HW115614   3.642   0.399   0.660  2.0513  0.7773 -1.3457
 1326SOL    HW215615   3.622   0.330   0.795  0.0022  1.5258  0.5151
 1327SOL     OW15616   0.083   0.524  13.570 -0.8843  0.3790  0.5802
 1327SOL    HW115617   0.175   0.527  13.596 -0.5565  0.3045 -0.5934
 1327SOL    HW215618   0.059   0.488  13.656  0.0845 -0.7231  0.3897
 1328SOL     OW15619   2.130   3.460  14.849 -0.1837  0.0890 -0.0826
 1328SOL    HW115620   2.117   3.529  14.784 -1.8687  0.0607  0.2392
 1328SOL    HW215621   2.074   3.390  14.817  0.3781 -0.5671  0.3540
 1329SOL     OW15622   1.696   0.476   6.662 -0.7061 -0.5014 -0.3326
 1329SOL    HW115623   1.631   0.544   6.642 -1.2484 -1.1638 -0.8626
 1329SOL    HW215624   1.670   0.414   6.593  0.3845 -0.2498 -0.9774
 1330SOL     OW15625   4.237   3.549  12.219  0.1145  0.2542  0.0205
 1330SOL    HW115626   4.234   3.578  12.128  2.0957 -2.5175 -0.9615
 1330SOL    HW215627   4.319   3.589  12.247 -0.5896  1.3389  0.4985
 1331SOL     OW15628   3.217   0.947  11.407 -0.6825 -0.2717  0.4504
 1331SOL    HW115629   3.264   0.894  11.343 -0.7914  2.3452 -1.8103
 1331SOL    HW215630   3.135   0.898  11.411  0.7180 -2.5429  1.3641
 1332SOL     OW15631   3.825   0.716   5.939  0.3729 -0.4769  0.4132
 1332SOL    HW115632   3.813   0.622   5.924 -1.2028 -0.1190 -0.6351
 1332SOL    HW215633   3.852   0.747   5.852  0.6497  0.5834  0.8822
 1333SOL     OW15634   3.994   0.373   8.039 -0.2535 -0.5745 -0.2987
 1333SOL    HW115635   4.028   0.368   7.950  0.2667 -0.5930 -0.0994
 1333SOL    HW215636   3.953   0.289   8.060  0.5490 -1.6737 -3.1652
 1334SOL     OW15637   3.732   3.384   3.758  0.1744  0.3327  0.2731
 1334SOL    HW115638   3.810   3.438   3.743  1.3025 -0.5931  2.6585
 1334SOL    HW215639   3.744   3.309   3.700 -1.4556 -0.7932  1.3938
 1335SOL     OW15640   2.512   4.285   5.967  0.0481  0.3022  0.9405
 1335SOL    HW115641   2.531   4.379   5.960 -0.2184  0.3138  0.3390
 1335SOL    HW215642   2.579   4.257   6.030 -0.1043  2.2186  1.9735
 1336SOL     OW15643   0.595   3.257  16.916  0.0371 -0.3835  0.0847
 1336SOL    HW115644   0.641   3.297  16.842  1.0065 -0.8472  0.4408
 1336SOL    HW215645   0.675   3.264  16.969  0.8417 -1.6593 -0.9521
 1337SOL     OW15646   4.327   3.069  13.990  0.2286 -0.9931  0.0248
 1337SOL    HW115647   4.253   3.031  14.037 -0.5119  1.8601  1.1784
 1337SOL    HW215648   4.349   3.152  14.032  3.4762 -1.9033  0.1347
 1338SOL     OW15649   4.155   1.542   6.989  0.1979 -0.2121 -0.0208
 1338SOL    HW115650   4.061   1.548   6.971  0.2203 -0.1277 -0.1135
 1338SOL    HW215651   4.176   1.449   6.999  2.2718  0.2621  0.0998
 1339SOL     OW15652   3.445   3.479   0.816  0.7699  0.4998 -0.1940
 1339SOL    HW115653   3.475   3.414   0.879  0.6946  1.4288  0.7995
 1339SOL    HW215654   3.524   3.532   0.813  1.7694 -1.0070 -0.0644
 1340SOL     OW15655   4.716   3.358   1.771  0.5285  0.5388 -0.4670
 1340SOL    HW115656   0.003   3.286   1.714  0.8924  0.3940 -0.1112
 1340SOL    HW215657   4.664   3.409   1.709 -0.5457 -1.9358 -1.5646
 1341SOL     OW15658   2.539   2.752   8.213  0.7030  0.2255  0.1746
 1341SOL    HW115659   2.461   2.785   8.257  0.3177  0.9148 -1.0174
 1341SOL    HW215660   2.513   2.775   8.124 -0.4564 -1.5954  0.0566
 1342SOL     OW15661   2.518   2.771  10.348 -0.0714 -0.4392  0.1674
 1342SOL    HW115662   2.614   2.763  10.352 -0.0472  0.2806  0.9559
 1342SOL    HW215663   2.515   2.865  10.362 -0.5388 -0.3460 -0.5928
 1343SOL     OW15664   1.237   1.520   7.747 -0.1181  0.0639  0.5365
 1343SOL    HW115665   1.235   1.585   7.677 -3.4272 -0.7332 -0.1123
 1343SOL    HW215666   1.300   1.459   7.709  0.3061  0.3420  0.7913
 1344SOL     OW15667   1.868   2.935  13.459 -0.4892  0.0840 -0.5592
 1344SOL    HW115668   1.782   2.895  13.475 -0.3237 -0.2624 -0.5319
 1344SOL    HW215669   1.883   2.916  13.367  1.6596 -1.1100  0.0396
 1345SOL     OW15670   2.365   2.737   8.991  0.4622 -0.0293 -0.2070
 1345SOL    HW115671   2.459   2.756   8.986  0.7212 -0.7614  1.7497
 1345SOL    HW215672   2.345   2.785   9.072 -0.8155  0.0721 -0.5882
 1346SOL     OW15673   2.347   1.907   3.439 -0.2381 -0.0728  0.3923
 1346SOL    HW115674   2.410   1.882   3.507  0.3941 -0.8312 -0.4796
 1346SOL    HW215675   2.284   1.950   3.498 -0.0239 -1.0536  1.3336
 1347SOL     OW15676   4.193   1.595   2.654  0.0704  0.0520  0.2214
 1347SOL    HW115677   4.154   1.657   2.594 -1.3564  0.2937  1.3891
 1347SOL    HW215678   4.283   1.615   2.628  0.6589 -3.4275 -0.5062
 1348SOL     OW15679   1.339   0.770   6.658  0.0298  0.1972 -0.1533
 1348SOL    HW115680   1.392   0.813   6.592  0.0047 -0.1818 -0.4154
 1348SOL    HW215681   1.344   0.845   6.718  1.3175  0.6439 -0.8264
 1349SOL     OW15682   2.516   1.171   5.474 -0.1621 -0.1427  0.1555
 1349SOL    HW115683   2.599   1.201   5.511  0.9394 -1.3490 -1.3469
 1349SOL    HW215684   2.459   1.159   5.550  2.3804  0.1627  2.1045
 1350SOL     OW15685   0.759   0.012   2.351 -0.3792  0.2847  0.0539
 1350SOL    HW115686   0.686   0.062   2.314 -2.0111 -0.0260  2.8819
 1350SOL    HW215687   0.737   4.661   2.327 -0.9684  0.5297 -0.3366
 1351SOL     OW15688   2.301   2.427   7.705 -0.1554  0.6424 -0.0357
 1351SOL    HW115689   2.258   2.396   7.785  2.3963  0.6386  1.3253
 1351SOL    HW215690   2.385   2.382   7.701  0.3243  1.4215  1.3186
 1352SOL     OW15691   0.425   0.699   4.772 -0.3690 -0.4598 -0.0048
 1352SOL    HW115692   0.452   0.791   4.777 -0.1115 -0.4251 -2.1917
 1352SOL    HW215693   0.331   0.718   4.771 -0.8846 -3.0667 -1.8132
 1353SOL     OW15694   2.913   0.276  15.687  0.5671  0.3646 -0.1021
 1353SOL    HW115695   2.953   0.212  15.745 -1.4691 -0.5182  0.3150
 1353SOL    HW215696   2.824   0.293  15.718 -0.7761 -3.0827 -2.1258
 1354SOL     OW15697   3.295   4.525   5.915 -0.3835 -0.2145  0.0246
 1354SOL    HW115698   3.227   4.514   5.982  1.2217 -1.0197  1.5096
 1354SOL    HW215699   3.250   4.489   5.839  0.2972  0.3867 -0.6591
 1355SOL     OW15700   0.640   1.570  13.085  0.3085 -0.1726 -0.1045
 1355SOL    HW115701   0.680   1.526  13.010  0.9198 -0.5652  0.4649
 1355SOL    HW215702   0.612   1.491  13.131  2.2749 -1.0622 -0.4351
 1356SOL     OW15703   0.222   4.316   6.514  0.4335 -0.9015 -0.2049
 1356SOL    HW115704   0.256   4.378   6.450 -0.1293  0.9093  1.2659
 1356SOL    HW215705   0.248   4.354   6.598 -0.9453  1.1807 -0.7188
 1357SOL     OW15706   4.233   0.347  16.152 -0.0595  0.0345  0.1267
 1357SOL    HW115707   4.310   0.301  16.116  1.4791  1.9267  1.0296
 1357SOL    HW215708   4.221   0.424  16.097 -0.1848  0.0746  0.2115
 1358SOL     OW15709   4.244   3.616  11.948 -0.7257 -0.0164  0.1411
 1358SOL    HW115710   4.291   3.543  11.908 -1.4936 -1.4366  1.8500
 1358SOL    HW215711   4.250   3.674  11.872 -0.3221 -0.6760 -0.3308
 1359SOL     OW15712   0.841   3.941   5.424 -0.0535 -0.2379  0.9121
 1359SOL    HW115713   0.835   4.008   5.492  0.0284  1.1627 -0.4350
 1359SOL    HW215714   0.837   3.994   5.344  0.1248 -1.0137  0.3955
 1360SOL     OW15715   4.384   1.244   7.439  0.6976  0.5593  0.2735
 1360SOL    HW115716   4.336   1.177   7.391  1.1581  1.3041 -1.2129
 1360SOL    HW215717   4.465   1.205   7.471 -0.9961 -3.4170 -0.2516
 1361SOL     OW15718   1.013   0.042   8.018 -0.5306 -0.4986  0.2665
 1361SOL    HW115719   0.963   0.122   8.000 -0.3404 -0.2192  0.9675
 1361SOL    HW215720   0.962   4.714   7.975 -0.0829 -1.3125  1.0208
 1362SOL     OW15721   1.540   2.301   2.973  0.3047  0.5214 -0.3945
 1362SOL    HW115722   1.472   2.255   3.022 -0.1313  2.9317  1.2577
 1362SOL    HW215723   1.614   2.288   3.032 -0.1372 -0.4102 -0.0391
 1363SOL     OW15724   0.759   4.387  17.274 -0.0183 -0.9820  0.4481
 1363SOL    HW115725   0.851   4.365  17.293  0.1959 -0.6517 -0.1914
 1363SOL    HW215726   0.759   4.367  17.180 -1.3808 -0.5219  0.3573
 1364SOL     OW15727   1.335   1.390   0.775  0.4245  0.1981 -0.0775
 1364SOL    HW115728   1.405   1.371   0.713 -0.8515 -0.5998 -1.2728
 1364SOL    HW215729   1.352   1.322   0.841 -2.5665 -2.2958 -1.8546
 1365SOL     OW15730   1.336   2.703  15.734  0.2280 -0.3148 -0.1074
 1365SOL    HW115731   1.258   2.734  15.688  1.9939  1.7134 -1.6613
 1365SOL    HW215732   1.356   2.617  15.698 -2.1255 -1.8989  2.3357
 1366SOL     OW15733   3.248   3.579   1.686 -0.3406  0.3179  0.5626
 1366SOL    HW115734   3.268   3.486   1.682  2.3880  1.0037 -1.3611
 1366SOL    HW215735   3.189   3.576   1.762 -1.3711 -1.5416 -0.3045
 1367SOL     OW15736   0.165   3.064  17.017 -0.0149  1.0846 -0.0703
 1367SOL    HW115737   0.168   3.158  16.998  2.0591  0.9215 -0.5510
 1367SOL    HW215738   0.258   3.045  17.022 -0.6674 -2.5056 -1.2308
 1368SOL     OW15739   2.479   4.486  10.364  0.3764  0.7835 -0.1680
 1368SOL    HW115740   2.430   4.555  10.410 -0.4268 -0.0292  0.1964
 1368SOL    HW215741   2.570   4.507  10.385  0.3191  0.7057  0.1603
 1369SOL     OW15742   0.230   2.206  14.846  0.3438 -0.1751  0.0364
 1369SOL    HW115743   0.158   2.206  14.909 -0.9052  3.4155 -1.4252
 1369SOL    HW215744   0.192   2.262  14.778 -1.9898  0.1190  1.5664
 1370SOL     OW15745   3.157   2.630   4.593 -0.3884  0.1087 -0.7072
 1370SOL    HW115746   3.118   2.706   4.636  1.7926  0.3741  0.8467
 1370SOL    HW215747   3.199   2.684   4.526 -1.4290  0.9124 -0.7125
 1371SOL     OW15748   4.359   4.272   2.330  0.0035  0.0535 -0.4279
 1371SOL    HW115749   4.413   4.343   2.366  3.0998 -2.4368 -0.2125
 1371SOL    HW215750   4.377   4.208   2.398  0.4536  1.0177  0.3731
 1372SOL     OW15751   4.124   1.975   6.662 -0.1558  0.1495 -0.1183
 1372SOL    HW115752   4.062   1.975   6.589  0.6210 -1.5297 -0.7738
 1372SOL    HW215753   4.194   2.025   6.619  0.6841  0.6541  1.8756
 1373SOL     OW15754   1.518   1.832   5.163 -0.8173 -0.0171 -0.2312
 1373SOL    HW115755   1.572   1.787   5.229  2.0049  0.3012 -2.3189
 1373SOL    HW215756   1.587   1.873   5.111  1.0559 -1.6315  0.9775
 1374SOL     OW15757   4.695   3.054   3.788  0.1335  0.2564  0.0357
 1374SOL    HW115758   4.623   3.115   3.799 -0.8995 -1.2490  1.6265
 1374SOL    HW215759   4.657   3.005   3.716 -0.1921  1.1596 -0.3991
 1375SOL     OW15760   0.908   3.565   2.275  0.1477  0.0337  0.1085
 1375SOL    HW115761   0.984   3.552   2.218  0.9783  0.0165  1.2242
 1375SOL    HW215762   0.839   3.520   2.225 -1.1428 -0.0492  1.9669
 1376SOL     OW15763   4.275   2.492   3.566  0.8266  0.0450  0.0489
 1376SOL    HW115764   4.319   2.413   3.597  0.1377 -0.4864 -0.3492
 1376SOL    HW215765   4.193   2.453   3.538 -0.0023  1.4161  0.5566
 1377SOL     OW15766   1.200   0.331   9.499 -0.0887  0.3106  0.0448
 1377SOL    HW115767   1.123   0.388   9.497 -0.1562  0.2820  2.1536
 1377SOL    HW215768   1.181   0.246   9.538  2.1770 -0.4398 -0.4559
 1378SOL     OW15769   3.323   3.760   3.617 -0.3368 -0.0568  0.6263
 1378SOL    HW115770   3.405   3.772   3.569 -1.5078  3.1790 -0.5381
 1378SOL    HW215771   3.312   3.665   3.613  2.6647 -0.3217 -0.9366
 1379SOL     OW15772   2.387   3.651   5.925 -0.0012 -0.3402 -0.2213
 1379SOL    HW115773   2.458   3.642   5.989 -0.9621 -0.9369  0.7489
 1379SOL    HW215774   2.403   3.744   5.909  0.6588 -0.2216  1.1223
 1380SOL     OW15775   3.394   2.723  12.405 -0.4074  0.6252  0.1349
 1380SOL    HW115776   3.426   2.632  12.407 -0.7159  0.5167  0.2162
 1380SOL    HW215777   3.413   2.756  12.493 -1.4486 -1.6312  1.2063
 1381SOL     OW15778   3.653   2.009  13.382  0.5798 -0.2382  0.2067
 1381SOL    HW115779   3.598   1.954  13.326  0.9075  0.0889 -0.4347
 1381SOL    HW215780   3.622   1.979  13.468 -0.4100  2.0913  0.6533
 1382SOL     OW15781   4.428   3.919   0.003 -0.0571  0.0801 -0.3010
 1382SOL    HW115782   4.512   3.873   0.001  0.7052  1.4850 -0.7111
 1382SOL    HW215783   4.391   3.865  17.690 -3.1290  0.5111  0.9690
 1383SOL     OW15784   3.771   1.097  15.359  0.1592 -0.0904 -0.1747
 1383SOL    HW115785   3.764   1.113  15.453  0.8734  2.7606 -0.6120
 1383SOL    HW215786   3.706   1.161  15.330 -0.7708 -0.0777  1.9470
 1384SOL     OW15787   2.066   0.682   4.276  0.1276  0.3473 -0.0227
 1384SOL    HW115788   2.138   0.666   4.337  0.4349  3.2312  0.3472
 1384SOL    HW215789   2.111   0.710   4.196  0.6556  2.6112  1.0708
 1385SOL     OW15790   4.046   0.097   2.194 -0.5352  0.8205  0.1099
 1385SOL    HW115791   4.098   0.141   2.127  0.0298 -2.0404 -1.3436
 1385SOL    HW215792   4.092   0.125   2.274 -0.2535 -3.3442  1.4648
 1386SOL     OW15793   3.804   3.518   5.347  0.1437  0.0537 -0.8791
 1386SOL    HW115794   3.837   3.502   5.435  1.5065 -0.5725 -1.4982
 1386SOL    HW215795   3.750   3.439   5.338 -0.4246  0.4489 -0.9325
 1387SOL     OW15796   0.959   0.364  13.967 -0.7247  0.5803 -0.0632
 1387SOL    HW115797   1.016   0.433  13.935 -0.0694 -0.1035 -0.3809
 1387SOL    HW215798   0.964   0.363  14.062  0.2117 -2.1382 -0.1149
 1388SOL     OW15799   2.990   3.423   5.022 -0.2774 -0.2024 -0.0170
 1388SOL    HW115800   2.903   3.460   5.009  0.3008  1.0582 -0.2919
 1388SOL    HW215801   2.983   3.392   5.112  2.5637  0.6384  0.4982
 1389SOL     OW15802   0.796   2.431   6.208  0.0350 -0.4097  0.1076
 1389SOL    HW115803   0.826   2.466   6.124 -1.2754  0.3988 -0.0213
 1389SOL    HW215804   0.861   2.361   6.217  1.5826  1.1998  1.6019
 1390SOL     OW15805   4.537   3.879   1.612 -0.3976 -0.3722  0.2752
 1390SOL    HW115806   4.612   3.926   1.575 -0.9422  0.3707  0.1168
 1390SOL    HW215807   4.497   3.938   1.675  1.9675  1.5175 -0.0194
 1391SOL     OW15808   2.049   0.108  17.315  0.4935  0.3080 -0.2863
 1391SOL    HW115809   2.011   0.156  17.388 -1.6877  0.0207 -1.2151
 1391SOL    HW215810   1.989   0.137  17.246  1.5620  1.4990 -0.7010
 1392SOL     OW15811   0.567   1.657   8.166  0.4218  0.5737 -0.3380
 1392SOL    HW115812   0.651   1.637   8.124  0.1665  1.1734 -1.1304
 1392SOL    HW215813   0.541   1.569   8.193 -1.3784  0.7039 -1.5821
 1393SOL     OW15814   3.984   3.389  13.658  0.2467 -0.6006 -0.1637
 1393SOL    HW115815   3.920   3.437  13.606  0.0668  0.3714  0.9695
 1393SOL    HW215816   3.965   3.425  13.744  0.3043  0.9525 -0.8002
 1394SOL     OW15817   1.805   0.895   0.535  0.7462  0.0598 -0.3208
 1394SOL    HW115818   1.877   0.851   0.491 -0.0913 -2.2468  0.5934
 1394SOL    HW215819   1.774   0.818   0.583 -1.0130 -0.8127 -2.8521
 1395SOL     OW15820   1.088   0.758  16.885 -0.0259  0.7033 -0.5325
 1395SOL    HW115821   1.037   0.785  16.961 -0.4097  0.4705 -0.7075
 1395SOL    HW215822   1.049   0.804  16.811  0.3125 -1.0132 -1.7733
 1396SOL     OW15823   1.907   1.999   3.706 -0.4334  0.2465  0.0300
 1396SOL    HW115824   1.873   1.910   3.714  1.1226 -0.4500 -1.0038
 1396SOL    HW215825   1.906   2.019   3.799  1.4878 -0.1563  0.1552
 1397SOL     OW15826   4.575   2.123   8.647 -0.1591 -0.1953  0.2939
 1397SOL    HW115827   4.513   2.077   8.590 -1.7300 -0.3530  2.1371
 1397SOL    HW215828   4.545   2.214   8.635 -0.4497 -0.2696  0.4708
 1398SOL     OW15829   0.313   0.306  16.765  0.6406  0.0368  0.6911
 1398SOL    HW115830   0.261   0.260  16.699  1.3893  0.9314 -0.5226
 1398SOL    HW215831   0.394   0.256  16.751  1.4380  1.0527  1.7728
 1399SOL     OW15832   1.669   0.048   4.642 -0.0731  0.0493 -0.2510
 1399SOL    HW115833   1.762   0.031   4.652 -0.1371 -1.2618 -1.9744
 1399SOL    HW215834   1.638   4.704   4.675  0.5032 -0.2809 -0.5632
 1400SOL     OW15835   3.909   2.178  10.899  0.1315  0.4746  0.1119
 1400SOL    HW115836   3.865   2.093  10.908  0.7449  0.1947  0.4421
 1400SOL    HW215837   3.999   2.146  10.906 -0.1125  0.0264  1.1041
 1401SOL     OW15838   0.733   4.298  11.983  0.1721 -0.0877  0.2601
 1401SOL    HW115839   0.793   4.359  11.939 -0.7260  1.9731  1.8929
 1401SOL    HW215840   0.767   4.299  12.072  0.4543 -0.7761  0.1630
 1402SOL     OW15841   0.688   1.315   7.351  0.1506  0.0314 -0.1668
 1402SOL    HW115842   0.691   1.224   7.323  1.0504  0.6134 -1.9265
 1402SOL    HW215843   0.730   1.359   7.278  0.6934 -0.4208 -0.1294
 1403SOL     OW15844   0.987   2.048   7.128  0.1423 -0.2279 -0.3692
 1403SOL    HW115845   0.969   2.142   7.123 -0.7875 -0.3745  0.3868
 1403SOL    HW215846   1.066   2.051   7.182 -0.5277 -2.5992  0.7589
 1404SOL     OW15847   2.345   0.011  14.764 -0.2772 -0.4339 -0.2141
 1404SOL    HW115848   2.279   4.690  14.797 -0.5137  1.1203  2.1961
 1404SOL    HW215849   2.386   0.049  14.842  1.5056  0.3374 -1.5262
 1405SOL     OW15850   0.013   0.227   1.461  0.6090  0.6043 -0.7565
 1405SOL    HW115851   4.729   0.310   1.501  0.2072 -0.7681  1.8136
 1405SOL    HW215852   0.079   0.195   1.522 -0.4190 -1.6924 -0.8674
 1406SOL     OW15853   3.458   2.441  13.684 -0.4296  0.0270  0.0714
 1406SOL    HW115854   3.403   2.410  13.756  0.0345 -0.8412  0.0567
 1406SOL    HW215855   3.513   2.507  13.727  0.6676  0.6585 -2.2774
 1407SOL     OW15856   0.718   0.250   5.397  0.2145 -0.2102  0.0100
 1407SOL    HW115857   0.715   0.169   5.346 -3.6451 -0.2542  0.3005
 1407SOL    HW215858   0.721   0.322   5.335  0.1054  0.2357  0.5296
 1408SOL     OW15859   4.318   1.924   1.179  0.4592 -0.0569 -0.4749
 1408SOL    HW115860   4.263   1.902   1.104 -0.1177  1.7795 -0.5982
 1408SOL    HW215861   4.279   1.867   1.244 -0.9079  0.3433 -0.9470
 1409SOL     OW15862   0.439   4.497   5.189  0.5282 -0.2716  0.3648
 1409SOL    HW115863   0.437   4.411   5.148  0.7830 -1.0791  2.0368
 1409SOL    HW215864   0.392   4.465   5.266  0.5557 -1.6198 -0.1802
 1410SOL     OW15865   2.636   1.163  13.182 -0.2365 -0.4659 -0.6770
 1410SOL    HW115866   2.724   1.126  13.188  0.5785  1.6307  0.6298
 1410SOL    HW215867   2.656   1.255  13.165  1.9240 -1.0231 -1.2547
 1411SOL     OW15868   3.560   3.869   8.644 -0.8035 -0.0096  0.6852
 1411SOL    HW115869   3.467   3.844   8.645 -0.4286 -1.3879 -0.1181
 1411SOL    HW215870   3.554   3.930   8.718 -0.0077  1.6103 -0.6107
 1412SOL     OW15871   1.702   2.396   5.711  0.0942  0.1735  0.0981
 1412SOL    HW115872   1.766   2.458   5.745  2.2303 -1.6058 -0.6888
 1412SOL    HW215873   1.748   2.375   5.630  0.9761  2.3995  0.0153
 1413SOL     OW15874   3.359   2.217   6.434 -0.0422  0.5742 -0.7209
 1413SOL    HW115875   3.413   2.166   6.494 -0.4724  0.0363 -0.7964
 1413SOL    HW215876   3.273   2.182   6.457  0.1695 -0.9437 -2.2153
 1414SOL     OW15877   1.326   2.759   8.401  0.7169  0.5958 -0.1435
 1414SOL    HW115878   1.315   2.824   8.471 -0.4260  0.6358 -0.3587
 1414SOL    HW215879   1.300   2.800   8.319  0.6725 -0.6515 -0.7559
 1415SOL     OW15880   4.495   0.679   9.782 -0.3600  0.4742 -0.4658
 1415SOL    HW115881   4.482   0.636   9.866 -2.2843  0.9927 -0.5032
 1415SOL    HW215882   4.494   0.606   9.720 -0.5883 -0.3118  0.4757
 1416SOL     OW15883   3.882   2.471   6.482 -0.1597 -0.0168  0.6661
 1416SOL    HW115884   3.809   2.525   6.513 -0.4550 -0.4420  0.7272
 1416SOL    HW215885   3.835   2.418   6.417 -1.7246 -0.3146  2.0422
 1417SOL     OW15886   1.531   3.981   3.380 -0.7479 -0.6562  0.2126
 1417SOL    HW115887   1.571   3.901   3.414 -0.1529  0.1891  1.5007
 1417SOL    HW215888   1.482   4.000   3.460  0.0327  0.8018  0.3533
 1418SOL     OW15889   0.890   1.225   7.139 -0.2825  0.7219  0.1466
 1418SOL    HW115890   0.966   1.196   7.189 -0.1010  1.9432  0.6017
 1418SOL    HW215891   0.830   1.155   7.165  0.1634 -0.3618 -1.7487
 1419SOL     OW15892   1.818   4.634   4.235 -0.3836 -0.1349 -0.0628
 1419SOL    HW115893   1.826   4.541   4.217 -0.5110 -0.3488  0.9852
 1419SOL    HW215894   1.725   4.649   4.218 -0.5155 -0.4587  0.3732
 1420SOL     OW15895   3.628   2.805   3.185 -0.3295  0.2066  0.5730
 1420SOL    HW115896   3.636   2.709   3.182 -0.2030  0.2101  0.8478
 1420SOL    HW215897   3.584   2.805   3.100 -0.8550  0.6256  0.8450
 1421SOL     OW15898   1.475   3.791   8.267 -0.1144 -0.1497 -0.5264
 1421SOL    HW115899   1.401   3.731   8.254 -0.5081 -0.7845  4.4966
 1421SOL    HW215900   1.437   3.872   8.231  0.9950  0.2903 -0.6856
 1422SOL     OW15901   0.293   1.726   9.994  0.4779 -0.0154 -0.1088
 1422SOL    HW115902   0.258   1.703   9.908 -1.9222  0.3574  0.7989
 1422SOL    HW215903   0.385   1.728   9.965  0.7247  1.3539  0.7729
 1423SOL     OW15904   3.908   1.074  14.219  0.6909  0.2211 -0.0555
 1423SOL    HW115905   3.862   0.990  14.213  2.2312 -0.6333 -0.1511
 1423SOL    HW215906   3.941   1.092  14.131 -0.3582 -2.6004 -1.0338
 1424SOL     OW15907   0.700   0.738   3.776  0.1694  0.6136  0.5044
 1424SOL    HW115908   0.754   0.807   3.737 -1.0433  0.7412 -0.9378
 1424SOL    HW215909   0.730   0.667   3.719 -0.2603  3.1543 -2.8546
 1425SOL     OW15910   0.040   1.652   2.145 -0.2291  0.9251  0.4812
 1425SOL    HW115911   0.072   1.672   2.058 -3.1493 -0.5823 -0.9484
 1425SOL    HW215912   0.100   1.589   2.184 -0.7047 -1.4990 -2.6999
 1426SOL     OW15913   1.296   2.105  10.598  0.3252  0.1688 -0.1293
 1426SOL    HW115914   1.330   2.158  10.671  0.5761 -0.0854 -0.0650
 1426SOL    HW215915   1.326   2.015  10.610  2.3457  0.9559  0.7504
 1427SOL     OW15916   1.459   3.778   4.412  0.5198 -0.0623  0.4547
 1427SOL    HW115917   1.458   3.833   4.490  0.1609 -1.2594  1.3077
 1427SOL    HW215918   1.444   3.844   4.345 -3.8846  1.9199  3.4098
 1428SOL     OW15919   1.132   0.567   8.628 -0.3971  0.4682 -1.0546
 1428SOL    HW115920   1.227   0.571   8.614 -0.2571  2.2560  0.4160
 1428SOL    HW215921   1.093   0.592   8.545  0.7078  3.7626 -0.5759
 1429SOL     OW15922   0.818   1.055  11.586 -0.0322 -0.0836  0.2376
 1429SOL    HW115923   0.798   0.992  11.517 -0.3337  0.7760 -0.4712
 1429SOL    HW215924   0.913   1.044  11.581  0.0997  2.6621 -3.7119
 1430SOL     OW15925   3.210   4.151  16.624  1.0935  0.2329  0.1918
 1430SOL    HW115926   3.278   4.090  16.594 -0.3523 -1.6461  0.7656
 1430SOL    HW215927   3.179   4.102  16.700 -1.3370 -0.1601 -1.0697
 1431SOL     OW15928   2.262   2.539   8.335 -0.0301  0.3165  0.0591
 1431SOL    HW115929   2.231   2.450   8.324  0.1528  0.2428  0.1434
 1431SOL    HW215930   2.199   2.576   8.398 -1.0399 -0.5971 -0.4099
 1432SOL     OW15931   4.362   1.407   9.931 -0.1158  0.7870 -0.1852
 1432SOL    HW115932   4.441   1.378   9.884 -0.1460 -1.0075  0.8742
 1432SOL    HW215933   4.395   1.474   9.991 -0.0108 -1.1645  1.9307
 1433SOL     OW15934   3.273   4.737   7.771 -0.0890  0.0006  0.1571
 1433SOL    HW115935   3.224   4.682   7.832  0.8510  0.1479  1.0390
 1433SOL    HW215936   3.200   0.055   7.748 -2.0107 -1.7105  1.9230
 1434SOL     OW15937   4.682   4.709   3.923  0.3085 -0.3918  0.0157
 1434SOL    HW115938   0.034   4.730   3.905  0.4124  0.1436  1.1547
 1434SOL    HW215939   4.660   0.043   3.980 -1.7204 -0.8424 -0.1944
 1435SOL     OW15940   1.476   4.305   3.929 -0.5376  0.0862  0.1886
 1435SOL    HW115941   1.535   4.318   4.003 -0.5376 -1.5309  0.4664
 1435SOL    HW215942   1.545   4.298   3.864  0.4433 -0.2472  1.2740
 1436SOL     OW15943   0.456   4.334  16.627 -0.5579 -0.4376  0.3279
 1436SOL    HW115944   0.503   4.271  16.572  1.1096  1.1081 -0.0136
 1436SOL    HW215945   0.394   4.285  16.680 -0.7999  1.5534  1.8987
 1437SOL     OW15946   1.784   2.576  17.285  0.5390 -0.0469  0.9622
 1437SOL    HW115947   1.838   2.498  17.300  0.1694 -0.4925 -0.0503
 1437SOL    HW215948   1.754   2.596  17.374 -0.9207  1.5871  0.0904
 1438SOL     OW15949   1.460   1.691   9.292 -0.1315 -0.1803 -0.0448
 1438SOL    HW115950   1.501   1.696   9.379  2.7179  0.8536 -1.4673
 1438SOL    HW215951   1.372   1.725   9.308 -0.2988  0.0993 -1.5859
 1439SOL     OW15952   0.690   4.007   6.648  0.1056 -0.2800 -0.3666
 1439SOL    HW115953   0.657   3.923   6.681  0.1242  1.2280  3.3874
 1439SOL    HW215954   0.721   3.970   6.565  0.3041  0.0051 -0.4168
 1440SOL     OW15955   1.259   1.997  11.570  0.0477  0.2367  0.0580
 1440SOL    HW115956   1.280   1.918  11.621 -1.1138 -2.2052 -3.2891
 1440SOL    HW215957   1.166   1.992  11.593  0.1263  0.3691  0.4121
 1441SOL     OW15958   2.068   4.265   1.778 -0.0330  0.0253  0.0743
 1441SOL    HW115959   2.131   4.336   1.766  1.2714 -1.5480 -2.1754
 1441SOL    HW215960   2.001   4.331   1.792 -0.0709 -0.2992  1.4780
 1442SOL     OW15961   1.401   2.168   0.992  0.1113 -0.3236  0.2778
 1442SOL    HW115962   1.386   2.086   1.039  0.8143 -1.1673 -0.9687
 1442SOL    HW215963   1.410   2.230   1.065  0.6076 -1.5334  1.2339
 1443SOL     OW15964   3.298   2.876   2.115 -0.2212  0.5202 -0.5955
 1443SOL    HW115965   3.326   2.945   2.054  1.0378 -1.0977 -1.8677
 1443SOL    HW215966   3.341   2.897   2.198  0.1391 -0.8583 -0.4285
 1444SOL     OW15967   2.597   4.585   5.957 -0.1149 -0.1677 -0.2613
 1444SOL    HW115968   2.558   4.617   6.038  0.7568  0.3382 -0.0416
 1444SOL    HW215969   2.542   4.628   5.892  2.1494  1.9392 -0.7936
 1445SOL     OW15970   0.189   2.029   2.200  0.4350  0.7331 -0.0829
 1445SOL    HW115971   0.188   2.030   2.104  1.6312  0.8816 -0.0900
 1445SOL    HW215972   0.207   2.122   2.215  0.3873  0.8785 -0.9527
 1446SOL     OW15973   1.095   3.189   3.899 -0.0495  0.0369  0.0799
 1446SOL    HW115974   1.130   3.217   3.984  0.8167  2.2683 -1.0034
 1446SOL    HW215975   1.138   3.105   3.887  2.6866  1.3203  0.8802
 1447SOL     OW15976   0.386   4.453  16.153  0.1552 -0.1693  0.8011
 1447SOL    HW115977   0.321   4.411  16.097  1.6569 -0.0153 -1.0473
 1447SOL    HW215978   0.330   4.519  16.193 -2.2112 -0.9346 -1.2122
 1448SOL     OW15979   3.718   4.400  14.742  0.1018  1.1842  0.3356
 1448SOL    HW115980   3.745   4.414  14.651  0.0685 -0.7541  0.0227
 1448SOL    HW215981   3.678   4.313  14.735  2.5548  0.1208 -0.2772
 1449SOL     OW15982   0.597   1.965   8.920  0.2874  0.4258  0.0779
 1449SOL    HW115983   0.569   1.895   8.979  1.3239 -0.4850 -0.4988
 1449SOL    HW215984   0.627   1.914   8.845  0.5500 -0.2513  0.6395
 1450SOL     OW15985   1.471   3.733   6.960 -0.1361  0.7324 -0.0041
 1450SOL    HW115986   1.564   3.716   6.973 -0.1227  0.9481  0.1682
 1450SOL    HW215987   1.464   3.812   7.014 -2.9530  1.2392 -1.0799
 1451SOL     OW15988   4.172   3.621  14.518 -0.1269  0.1342 -0.5803
 1451SOL    HW115989   4.130   3.595  14.600 -0.6742  1.0509 -0.5674
 1451SOL    HW215990   4.220   3.540  14.502 -0.8953 -0.4850  0.2189
 1452SOL     OW15991   2.502   4.682   5.448 -0.0202  0.7269  0.5138
 1452SOL    HW115992   2.487   4.592   5.422  0.4142  1.2833 -1.6274
 1452SOL    HW215993   2.566   4.711   5.383 -0.3405  0.7176  0.1986
 1453SOL     OW15994   0.587   1.155   8.512 -0.0263  0.6611 -0.1996
 1453SOL    HW115995   0.569   1.249   8.513 -0.9784  0.4852 -0.5909
 1453SOL    HW215996   0.608   1.148   8.605  1.5699 -2.4201 -0.8043
 1454SOL     OW15997   1.502   2.467   9.955 -0.0145  0.0631  0.2209
 1454SOL    HW115998   1.548   2.551   9.962  1.8232 -0.9417  0.2657
 1454SOL    HW215999   1.458   2.477   9.871  0.8696  1.4603 -0.0750
 1455SOL     OW16000   1.467   1.169   7.256 -0.4617 -0.3459 -0.2022
 1455SOL    HW116001   1.459   1.188   7.349  0.3011  1.0664 -0.4242
 1455SOL    HW216002   1.471   1.253   7.210 -1.4152  0.5577  1.3713
 1456SOL     OW16003   4.393   3.448   4.602  0.3923  0.1024  0.6403
 1456SOL    HW116004   4.327   3.516   4.617  0.2927  0.1321  0.0822
 1456SOL    HW216005   4.395   3.400   4.684 -0.2526  0.6613  0.9791
 1457SOL     OW16006   1.110   0.163  10.676 -0.3208  0.1050 -0.2509
 1457SOL    HW116007   1.183   0.114  10.714 -1.1770  0.8060  2.2956
 1457SOL    HW216008   1.039   0.143  10.737 -0.9114  2.6956 -0.0977
 1458SOL     OW16009   2.151   1.164   4.007 -0.6692  0.9036 -0.2551
 1458SOL    HW116010   2.165   1.226   4.079 -0.6397 -0.1303  0.6205
 1458SOL    HW216011   2.067   1.126   4.032  0.9314 -1.9656  0.7152
 1459SOL     OW16012   3.019   4.165   5.331  0.2115  0.4153  0.2712
 1459SOL    HW116013   2.965   4.145   5.255  1.8379 -0.1747 -0.7257
 1459SOL    HW216014   3.102   4.132   5.296  2.2902  2.8063  2.8977
 1460SOL     OW16015   3.191   3.904   1.978  0.1291  0.3755 -0.2492
 1460SOL    HW116016   3.234   3.967   1.920  0.0564  0.1404 -0.5547
 1460SOL    HW216017   3.260   3.887   2.041  0.2869  1.6082 -0.0790
 1461SOL     OW16018   0.828   2.505   0.359  0.8080  0.4718  0.3751
 1461SOL    HW116019   0.848   2.448   0.433  0.9840 -2.1288 -1.6527
 1461SOL    HW216020   0.919   2.511   0.327  0.8047 -1.2570  0.0149
 1462SOL     OW16021   4.732   3.535   6.647 -0.3275  0.2086  0.2185
 1462SOL    HW116022   4.705   3.491   6.727 -1.3221  2.3910  1.0942
 1462SOL    HW216023   0.031   3.618   6.676 -0.5068 -0.6581  2.8621
 1463SOL     OW16024   1.255   0.941   5.170  0.2449  0.0839 -0.0460
 1463SOL    HW116025   1.162   0.944   5.195 -0.2674 -1.5529 -1.7481
 1463SOL    HW216026   1.266   0.846   5.171  2.0384  0.2839 -2.6791
 1464SOL     OW16027   0.945   1.271  10.477 -0.1685 -0.1644 -0.5776
 1464SOL    HW116028   0.931   1.340  10.412 -0.4685  1.8697  1.6558
 1464SOL    HW216029   0.965   1.318  10.558  0.4113 -0.6029 -0.4678
 1465SOL     OW16030   3.516   2.678   4.170  0.4456  0.0530  0.2417
 1465SOL    HW116031   3.441   2.626   4.141  0.1591 -0.0287  1.1233
 1465SOL    HW216032   3.563   2.616   4.226 -1.1694  0.0894  1.6273
 1466SOL     OW16033   3.884   1.010   5.099 -0.3192  0.0514 -0.0564
 1466SOL    HW116034   3.893   0.991   5.193  1.2553 -0.7958 -0.3804
 1466SOL    HW216035   3.938   0.940   5.063  1.5235  0.9777  0.8926
 1467SOL     OW16036   0.825   2.431   7.749 -0.9101 -0.9163  1.1372
 1467SOL    HW116037   0.802   2.373   7.821 -3.0511  2.5072  3.2031
 1467SOL    HW216038   0.807   2.514   7.794 -2.2032 -0.9112  0.6221
 1468SOL     OW16039   4.719   1.717  11.564 -0.0355  0.4075  0.5878
 1468SOL    HW116040   4.658   1.662  11.516 -0.7455  0.7447  1.1124
 1468SOL    HW216041   4.666   1.737  11.641 -1.0283 -0.6497  0.1678
 1469SOL     OW16042   4.584   1.956   7.357 -0.3311  0.1846 -0.1886
 1469SOL    HW116043   4.489   1.953   7.371 -0.1737  1.3075  1.0276
 1469SOL    HW216044   4.613   1.956   7.448 -1.7413  1.3118  0.2466
 1470SOL     OW16045   1.765   3.904   3.588  0.1191  0.8771  0.0882
 1470SOL    HW116046   1.682   3.947   3.606  0.5300  1.5338  0.4225
 1470SOL    HW216047   1.741   3.829   3.534  2.0064  0.1609  0.2214
 1471SOL     OW16048   4.432   3.368  13.805 -0.0726 -0.3505  0.6154
 1471SOL    HW116049   4.387   3.388  13.887 -1.2869 -1.5044  0.2338
 1471SOL    HW216050   4.371   3.399  13.738  1.1299 -0.0837 -0.3509
 1472SOL     OW16051   2.429   2.279  16.122 -0.2255 -0.2673  0.4773
 1472SOL    HW116052   2.382   2.307  16.200  0.4504  1.5714  0.2306
 1472SOL    HW216053   2.446   2.191  16.155 -2.6380 -1.5075 -1.5257
 1473SOL     OW16054   1.568   3.859   2.374 -0.1236 -0.6770  0.3495
 1473SOL    HW116055   1.627   3.874   2.448 -0.7918  0.4347  0.6608
 1473SOL    HW216056   1.621   3.876   2.296 -0.7507  0.9290  0.2767
 1474SOL     OW16057   2.454   0.284  11.002 -0.1907 -0.3734 -0.0470
 1474SOL    HW116058   2.447   0.380  11.006 -0.4051 -0.2742 -2.9347
 1474SOL    HW216059   2.362   0.257  11.003 -0.3694  0.3505  2.2198
 1475SOL     OW16060   2.602   0.141   6.355 -0.1099  0.3451 -0.1888
 1475SOL    HW116061   2.629   0.073   6.416  0.8665  0.3581 -0.5909
 1475SOL    HW216062   2.567   0.212   6.409  1.3772  0.0923  1.1095
 1476SOL     OW16063   0.200   2.701   8.030  0.0449 -0.6208 -0.0449
 1476SOL    HW116064   0.226   2.675   8.119  2.3092 -4.2189 -1.7770
 1476SOL    HW216065   0.127   2.642   8.014  0.1874 -0.5527 -0.8989
 1477SOL     OW16066   4.010   3.136  10.992 -0.1764  0.8045  0.2493
 1477SOL    HW116067   3.971   3.100  10.913 -0.0567  2.1948 -0.4490
 1477SOL    HW216068   3.935   3.191  11.013 -1.3607 -1.2652  1.4526
 1478SOL     OW16069   4.552   0.463   5.400 -0.4110  0.1923  0.0594
 1478SOL    HW116070   4.456   0.462   5.399 -0.4160 -0.4097  0.9512
 1478SOL    HW216071   4.575   0.376   5.367  0.9318  0.0762  1.3124
 1479SOL     OW16072   2.243   2.504  15.845 -0.0395  0.4067 -0.2518
 1479SOL    HW116073   2.208   2.416  15.860 -1.2313  0.7780 -0.8955
 1479SOL    HW216074   2.333   2.475  15.829  0.4025  1.1217  0.9274
 1480SOL     OW16075   0.931   1.690   2.252  0.1216  0.0531  0.1676
 1480SOL    HW116076   0.997   1.715   2.317 -0.0747  0.0838  0.3551
 1480SOL    HW216077   0.919   1.771   2.202  1.0398  2.4823  3.8932
 1481SOL     OW16078   1.140   2.353  10.211  0.6222 -0.2494  0.3207
 1481SOL    HW116079   1.111   2.422  10.270  0.1234 -0.0786 -0.1212
 1481SOL    HW216080   1.056   2.312  10.192  2.0494 -3.1726  0.3808
 1482SOL     OW16081   1.539   1.317   9.467  0.6733 -0.0719  0.1713
 1482SOL    HW116082   1.527   1.256   9.540 -0.1928 -0.1741 -0.0649
 1482SOL    HW216083   1.453   1.321   9.426  0.7444 -1.3573 -0.1079
 1483SOL     OW16084   1.357   4.557   0.426  0.3310  0.3930  0.0827
 1483SOL    HW116085   1.365   4.474   0.379  2.3790  0.2370  0.7026
 1483SOL    HW216086   1.430   4.545   0.486 -1.1919 -3.1428  1.2194
 1484SOL     OW16087   3.937   3.505  11.326 -0.2890  0.6302  0.5307
 1484SOL    HW116088   4.002   3.518  11.257 -1.9964 -0.2455 -1.2593
 1484SOL    HW216089   3.939   3.410  11.336  0.0993  0.5842  0.0274
 1485SOL     OW16090   2.876   1.129  11.509 -0.1792 -0.7459 -0.4026
 1485SOL    HW116091   2.948   1.085  11.554 -1.3236 -2.7232 -0.4846
 1485SOL    HW216092   2.846   1.048  11.467 -0.3881  0.2183 -2.0871
 1486SOL     OW16093   0.761   0.658   7.888  0.6119 -0.2071  0.2302
 1486SOL    HW116094   0.785   0.568   7.866 -1.4301 -0.5743 -0.5086
 1486SOL    HW216095   0.714   0.686   7.810  0.2734 -0.2777  0.4057
 1487SOL     OW16096   0.536   4.241  12.544 -0.0351  0.0483 -0.1395
 1487SOL    HW116097   0.539   4.289  12.462 -3.4630  1.6141  0.6441
 1487SOL    HW216098   0.510   4.306  12.609 -0.8337 -0.8852  0.4781
 1488SOL     OW16099   1.256   4.309   6.706 -0.0994 -0.3045  0.2468
 1488SOL    HW116100   1.230   4.386   6.756 -3.2157 -0.9038 -0.4682
 1488SOL    HW216101   1.185   4.246   6.719 -0.7569  0.3426 -0.2035
 1489SOL     OW16102   3.522   1.723   0.821 -0.5706  0.0092 -0.2006
 1489SOL    HW116103   3.499   1.723   0.728 -0.1890  0.9606 -0.2918
 1489SOL    HW216104   3.606   1.677   0.822 -0.8945 -0.5307  1.6879
 1490SOL     OW16105   1.934   0.172   2.017  0.4118 -0.3923  0.4714
 1490SOL    HW116106   1.960   0.229   1.944 -1.7138 -1.4488 -1.0740
 1490SOL    HW216107   1.862   0.223   2.054  0.0409  1.8231 -3.2377
 1491SOL     OW16108   0.973   1.728   7.548 -0.8580 -0.4505  0.0779
 1491SOL    HW116109   0.989   1.634   7.540 -0.3599 -0.2926 -0.8436
 1491SOL    HW216110   0.898   1.718   7.606 -1.5390  0.6929 -0.6261
 1492SOL     OW16111   1.629   2.885   4.284  0.2711 -0.3344  0.0107
 1492SOL    HW116112   1.713   2.845   4.308  0.6762  0.2971 -0.3438
 1492SOL    HW216113   1.643   2.907   4.192 -1.0492 -2.0948 -0.6103
 1493SOL     OW16114   2.876   1.561   7.506 -0.1564 -0.1737  0.2013
 1493SOL    HW116115   2.804   1.499   7.494 -0.3263  0.1695 -0.5323
 1493SOL    HW216116   2.832   1.628   7.558 -0.7734  1.2353 -2.1447
 1494SOL     OW16117   0.298   0.609   0.625  0.6749 -0.3079 -0.1707
 1494SOL    HW116118   0.266   0.682   0.571  0.8115  0.4672  0.7900
 1494SOL    HW216119   0.240   0.536   0.606 -1.9222  1.9897 -1.1161
 1495SOL     OW16120   3.572   1.646  14.802  0.1632 -0.3700  0.9161
 1495SOL    HW116121   3.620   1.606  14.729  0.6168  1.8544  0.0029
 1495SOL    HW216122   3.528   1.715  14.754  1.0604 -1.8316 -1.9808
 1496SOL     OW16123   0.035   1.809   9.205  0.0659  0.5763  0.4646
 1496SOL    HW116124   0.040   1.784   9.112  0.8141  1.6788  0.2074
 1496SOL    HW216125   4.706   1.875   9.206  0.0805  0.6485 -1.6976
 1497SOL     OW16126   3.626   1.368  17.737  0.6153 -0.0422 -0.0279
 1497SOL    HW116127   3.634   1.414   0.064  1.5106 -0.6929  0.2455
 1497SOL    HW216128   3.634   1.275   0.002 -1.7859  0.0135  1.1546
 1498SOL     OW16129   0.932   1.933   8.385 -0.7049  0.0474 -0.8323
 1498SOL    HW116130   0.856   1.875   8.389  0.0474 -0.8614  0.0726
 1498SOL    HW216131   0.928   1.967   8.296  2.0254 -2.0440 -1.7361
 1499SOL     OW16132   2.057   1.486   8.762  0.0218  0.0565 -0.0201
 1499SOL    HW116133   2.062   1.392   8.745 -2.0109  0.0145 -0.3367
 1499SOL    HW216134   2.048   1.477   8.857  2.3009  0.9260  0.2903
 1500SOL     OW16135   2.787   0.719  14.601 -0.7469 -0.4555  0.2382
 1500SOL    HW116136   2.844   0.713  14.524 -0.8752 -2.6119  0.2981
 1500SOL    HW216137   2.700   0.725  14.562 -0.9164 -1.9944  0.3604
 1501SOL     OW16138   3.023   0.038   4.883  0.2264 -0.4174  0.4194
 1501SOL    HW116139   2.981   0.101   4.942  2.3743 -1.5632  3.1655
 1501SOL    HW216140   3.108   0.027   4.926  1.4938 -0.0313 -2.0045
 1502SOL     OW16141   4.276   3.107   2.670 -0.0186 -0.2607  0.4128
 1502SOL    HW116142   4.299   3.033   2.727  2.3665  1.1758  1.2765
 1502SOL    HW216143   4.189   3.079   2.640  0.1646 -1.7832  1.2961
 1503SOL     OW16144   1.508   0.231   5.019  0.1566  0.0133 -0.0510
 1503SOL    HW116145   1.436   0.280   4.979 -1.2589 -0.2250  2.1839
 1503SOL    HW216146   1.572   0.234   4.948  2.5071 -1.5651  1.9756
 1504SOL     OW16147   1.239   4.034   4.620 -0.2259  0.3253 -0.5576
 1504SOL    HW116148   1.160   4.009   4.668  0.0285 -1.4709 -1.0688
 1504SOL    HW216149   1.195   4.108   4.578 -0.2562  1.1704  0.9480
 1505SOL     OW16150   3.341   4.627   5.301  0.2655  0.4013  0.3020
 1505SOL    HW116151   3.418   4.570   5.303 -1.0078 -1.3914 -3.1364
 1505SOL    HW216152   3.371   4.680   5.375  2.9749 -0.5247 -0.1455
 1506SOL     OW16153   0.040   3.816   6.738  0.4737  0.1024 -0.2211
 1506SOL    HW116154   0.080   3.900   6.718 -0.8392  1.3111  2.2914
 1506SOL    HW216155   4.692   3.852   6.752 -0.0224 -0.4641 -1.7922
 1507SOL     OW16156   0.159   3.074  13.812  0.9089  0.3417 -0.5534
 1507SOL    HW116157   0.076   3.122  13.809  0.0973 -0.9955  0.0854
 1507SOL    HW216158   0.121   3.000  13.765 -2.9261  1.3289  0.9515
 1508SOL     OW16159   1.978   1.041   8.340  0.0079  0.1641  0.0921
 1508SOL    HW116160   2.014   1.057   8.253 -0.6198 -1.5971 -0.4896
 1508SOL    HW216161   1.968   0.946   8.334 -2.3741  0.4211 -0.1072
 1509SOL     OW16162   2.121   0.949   7.449  0.0777 -0.1898  0.2687
 1509SOL    HW116163   2.037   0.904   7.459  0.3656 -1.2164 -1.9590
 1509SOL    HW216164   2.112   0.971   7.356 -0.1179  0.0176  0.3359
 1510SOL     OW16165   2.033   1.047   8.077  0.5183 -0.4962 -0.4227
 1510SOL    HW116166   1.989   1.095   8.007 -1.4154  1.1861  1.9787
 1510SOL    HW216167   2.079   0.979   8.027  0.5728 -1.7457  1.3252
 1511SOL     OW16168   2.883   0.157  10.868  0.5829  0.0559 -0.2658
 1511SOL    HW116169   2.896   0.084  10.928  1.2711 -0.2178 -0.7376
 1511SOL    HW216170   2.788   0.161  10.857  0.7683  2.1625 -1.0628
 1512SOL     OW16171   4.614   4.650   3.265  0.0910 -0.0518 -0.2527
 1512SOL    HW116172   4.592   4.598   3.343 -2.0741  0.6841 -0.3980
 1512SOL    HW216173   4.543   4.629   3.205 -0.9457  0.1007  0.9383
 1513SOL     OW16174   3.211   3.160   0.308 -0.0399  0.0067  0.1459
 1513SOL    HW116175   3.169   3.076   0.286 -0.1794  0.7403 -2.3308
 1513SOL    HW216176   3.275   3.130   0.373  0.7268  0.7669 -0.2567
 1514SOL     OW16177   4.030   0.979  14.470 -0.4505  0.0515 -0.5959
 1514SOL    HW116178   4.102   1.042  14.479 -0.0836 -0.3627 -0.6186
 1514SOL    HW216179   4.001   0.999  14.381  0.6811  1.0543 -0.7441
 1515SOL     OW16180   1.375   1.787  11.932 -0.1236  0.4122  0.4155
 1515SOL    HW116181   1.371   1.763  11.839 -3.4853  1.8530  0.1960
 1515SOL    HW216182   1.287   1.820  11.953 -1.1860 -2.1045 -0.1125
 1516SOL     OW16183   3.905   3.516  16.677 -0.0669 -0.4272  0.4806
 1516SOL    HW116184   3.915   3.538  16.769 -0.1027  0.1555  0.3460
 1516SOL    HW216185   3.947   3.593  16.638  1.7776 -2.2453 -1.1213
 1517SOL     OW16186   2.530   4.499   0.465 -0.3401 -0.0634 -0.1929
 1517SOL    HW116187   2.588   4.425   0.484  1.7517  1.8619  0.9276
 1517SOL    HW216188   2.554   4.511   0.373 -0.0509  0.3677 -0.0606
 1518SOL     OW16189   2.929   3.558   3.624  0.1489  0.1994 -0.2986
 1518SOL    HW116190   2.912   3.490   3.689 -3.3491  2.0243  0.6914
 1518SOL    HW216191   2.972   3.627   3.675  1.5534 -0.6927 -0.2774
 1519SOL     OW16192   3.607   0.148   8.495 -0.7446  0.4191  0.0671
 1519SOL    HW116193   3.566   0.067   8.526  3.3189 -2.3402 -1.7862
 1519SOL    HW216194   3.591   0.208   8.568 -1.4976  0.2814  0.0187
 1520SOL     OW16195   1.399   0.596  10.638  0.0768  0.2645 -0.0019
 1520SOL    HW116196   1.491   0.607  10.662  0.3393  1.0363 -1.3651
 1520SOL    HW216197   1.354   0.562  10.716  0.8369  0.4481  0.5110
 1521SOL     OW16198   0.686   2.231   8.030  0.5045 -0.1785 -0.7721
 1521SOL    HW116199   0.743   2.303   8.057 -0.0313 -0.0621  0.0505
 1521SOL    HW216200   0.639   2.229   8.113 -1.1434 -1.2629 -1.7420
 1522SOL     OW16201   2.659   3.188   4.214  0.2339  0.1485 -0.0868
 1522SOL    HW116202   2.646   3.093   4.211  1.5918 -0.0668  0.6433
 1522SOL    HW216203   2.646   3.201   4.120 -0.2261  0.1918 -0.0180
 1523SOL     OW16204   4.426   2.990  15.612 -0.5149 -0.2952  0.3279
 1523SOL    HW116205   4.501   2.940  15.579 -0.0745  0.4532  0.1711
 1523SOL    HW216206   4.443   2.985  15.706  1.6206  1.5567  0.0432
 1524SOL     OW16207   2.393   3.901  13.425 -0.1695 -0.4985  0.5291
 1524SOL    HW116208   2.312   3.881  13.378 -0.1411 -0.0288  0.2778
 1524SOL    HW216209   2.358   3.904  13.514 -2.6590 -0.9122 -0.4507
 1525SOL     OW16210   4.222   2.876   3.055 -0.1903  0.0480 -0.8365
 1525SOL    HW116211   4.265   2.801   3.096 -1.7194 -1.0957 -1.3135
 1525SOL    HW216212   4.277   2.877   2.976  0.7984  1.1555 -0.1186
 1526SOL     OW16213   0.946   1.391   9.246  0.3342  0.0194 -0.1782
 1526SOL    HW116214   0.925   1.484   9.250  0.0476  0.0019 -1.3031
 1526SOL    HW216215   0.939   1.362   9.337  1.6176  2.2427  0.6404
 1527SOL     OW16216   1.499   1.892   0.758 -0.8263 -0.3673  0.1292
 1527SOL    HW116217   1.450   1.879   0.839 -1.3836  0.9616  0.0089
 1527SOL    HW216218   1.508   1.802   0.726 -0.0738 -0.8494  1.7191
 1528SOL     OW16219   1.198   2.517   9.982 -0.0388  0.0734 -0.0341
 1528SOL    HW116220   1.205   2.459  10.058  2.4435 -1.5738 -1.5340
 1528SOL    HW216221   1.160   2.589  10.033 -0.2392  0.0180 -0.1091
 1529SOL     OW16222   4.614   1.619   4.088 -0.1829 -0.7514  0.0477
 1529SOL    HW116223   4.586   1.624   3.997 -0.9536  0.8172  0.3817
 1529SOL    HW216224   4.543   1.564   4.123 -1.6800  0.7264 -0.6960
 1530SOL     OW16225   1.865   2.675   2.811 -0.3249 -0.0871 -0.2997
 1530SOL    HW116226   1.946   2.713   2.777 -1.7953  2.3951 -1.0622
 1530SOL    HW216227   1.843   2.630   2.729  1.4536  0.3249 -0.9944
 1531SOL     OW16228   2.116   2.978   2.649 -0.5130  0.4086  0.4280
 1531SOL    HW116229   2.140   2.897   2.604 -1.2428  0.4916 -0.1138
 1531SOL    HW216230   2.078   3.026   2.577  0.8965  0.4873 -0.2563
 1532SOL     OW16231   1.890   0.759   8.002  0.1573 -0.0134  0.2874
 1532SOL    HW116232   1.874   0.768   8.096  1.3183 -1.7700  0.6329
 1532SOL    HW216233   1.977   0.796   7.989  0.9584 -1.4075  1.7686
 1533SOL     OW16234   1.315   3.113   8.225 -0.3746  0.0018  0.1642
 1533SOL    HW116235   1.240   3.080   8.274 -0.4809 -0.6461 -0.4443
 1533SOL    HW216236   1.345   3.176   8.291 -2.0922  1.9731 -0.9312
 1534SOL     OW16237   0.624   1.115   4.763 -0.3688 -1.0727  0.2160
 1534SOL    HW116238   0.551   1.162   4.722  1.9871  1.4866 -1.0871
 1534SOL    HW216239   0.676   1.190   4.792 -0.6270 -0.1911 -1.6076
 1535SOL     OW16240   0.855   3.979   6.867  0.2493  0.4014  0.4097
 1535SOL    HW116241   0.789   3.945   6.927  1.0032 -0.3144  0.8370
 1535SOL    HW216242   0.799   3.991   6.791 -1.3059  0.9233  1.6503
 1536SOL     OW16243   0.812   3.826   4.101  0.2130  0.1113  0.2773
 1536SOL    HW116244   0.787   3.845   4.191 -1.3041  0.5675 -0.2442
 1536SOL    HW216245   0.792   3.732   4.093  0.0513  0.1545  0.1603
 1537SOL     OW16246   1.928   3.814   3.312 -0.2095  0.2385 -0.1134
 1537SOL    HW116247   1.875   3.879   3.358 -0.0720 -0.0778  0.4838
 1537SOL    HW216248   1.957   3.869   3.239 -1.0392 -0.1811 -0.7587
 1538SOL     OW16249   2.905   0.034  17.177  0.4299  0.8347 -0.0955
 1538SOL    HW116250   2.838   0.100  17.190 -0.9835 -1.1943  2.9240
 1538SOL    HW216251   2.853   4.695  17.192 -0.7821  1.9701  1.5805
 1539SOL     OW16252   2.882   4.299   2.587  0.6803 -0.0890 -0.3634
 1539SOL    HW116253   2.830   4.234   2.539  1.2032 -0.9038  0.1628
 1539SOL    HW216254   2.962   4.249   2.605  1.0613  1.4118  2.0866
 1540SOL     OW16255   2.759   0.096   6.582  0.1248 -0.1755  0.5316
 1540SOL    HW116256   2.686   0.145   6.620 -0.1155  0.8133 -1.2204
 1540SOL    HW216257   2.790   0.034   6.648  2.0552 -0.3708 -0.5523
 1541SOL     OW16258   0.269   4.720  12.024 -0.1569 -0.0693 -0.2502
 1541SOL    HW116259   0.184   4.688  11.993  0.7163 -1.7517 -0.9365
 1541SOL    HW216260   0.262   4.695  12.116  4.1343  0.4376  0.1921
 1542SOL     OW16261   0.275   0.589   6.314 -0.2404 -0.0951 -0.3186
 1542SOL    HW116262   0.341   0.521   6.300  0.0423  0.6167 -2.4485
 1542SOL    HW216263   0.244   0.609   6.226  0.6207  2.8915  0.0620
 1543SOL     OW16264   1.114   3.897  13.679 -0.0763  0.1406 -0.2509
 1543SOL    HW116265   1.126   3.816  13.629  0.6737 -1.2140  2.0835
 1543SOL    HW216266   1.021   3.914  13.663  0.4783  0.8934 -2.6484
 1544SOL     OW16267   2.928   1.061  10.590 -0.4056  0.4037 -0.6301
 1544SOL    HW116268   2.906   0.969  10.606 -3.2583  1.1230 -0.3259
 1544SOL    HW216269   2.893   1.069  10.501  0.3125 -1.2789 -1.0717
 1545SOL     OW16270   3.142   3.793   5.509 -0.0022 -0.1939 -0.3294
 1545SOL    HW116271   3.136   3.698   5.521  1.4910 -0.1245  0.9181
 1545SOL    HW216272   3.082   3.805   5.435 -0.5385 -2.3173 -0.2456
 1546SOL     OW16273   1.922   2.087   7.831 -0.1945 -0.4714 -0.1431
 1546SOL    HW116274   1.889   1.997   7.837  1.1940 -1.0476 -1.0656
 1546SOL    HW216275   1.963   2.094   7.917 -0.5341 -3.9320  0.3042
 1547SOL     OW16276   1.713   3.138  10.444 -0.2910  0.6525 -0.1371
 1547SOL    HW116277   1.703   3.068  10.508  1.6533 -0.1135 -0.6692
 1547SOL    HW216278   1.733   3.087  10.365 -0.4391 -1.2800  1.0777
 1548SOL     OW16279   2.882   2.611   8.074  0.3941 -0.4872  0.4855
 1548SOL    HW116280   2.934   2.531   8.076 -0.3972 -1.0280 -0.7322
 1548SOL    HW216281   2.925   2.677   8.128  0.6588 -0.6206  0.4367
 1549SOL     OW16282   3.545   2.633   4.653 -0.3562  0.2276 -0.6971
 1549SOL    HW116283   3.570   2.714   4.608  0.2790 -0.4559 -1.5441
 1549SOL    HW216284   3.615   2.632   4.718 -1.6483 -0.0819  0.7100
 1550SOL     OW16285   3.567   3.361  15.189  0.5367  0.1658  0.6527
 1550SOL    HW116286   3.555   3.297  15.119  0.6825  2.0468 -1.0808
 1550SOL    HW216287   3.478   3.395  15.197  0.8654  1.3522 -0.6760
 1551SOL     OW16288   4.270   0.601   1.901 -0.6526 -0.2103 -0.0135
 1551SOL    HW116289   4.176   0.605   1.884 -0.5115  0.0837 -0.7664
 1551SOL    HW216290   4.297   0.534   1.838  1.0541 -0.3010  0.8250
 1552SOL     OW16291   1.730   4.064   5.433 -0.6257  0.1033  0.4977
 1552SOL    HW116292   1.648   4.017   5.448 -1.1697  0.5671 -0.9672
 1552SOL    HW216293   1.718   4.138   5.493 -0.5869 -0.6744  1.4554
 1553SOL     OW16294   0.490   3.750   3.314  0.3336 -0.3327 -0.2528
 1553SOL    HW116295   0.409   3.706   3.290  0.9758 -2.7541  1.9863
 1553SOL    HW216296   0.507   3.707   3.398  0.0965  1.5311  0.7577
 1554SOL     OW16297   4.417   0.387  10.844 -0.3410 -0.2609 -0.5602
 1554SOL    HW116298   4.390   0.295  10.838 -2.9659  0.5548 -1.3959
 1554SOL    HW216299   4.453   0.400  10.757  2.1907  3.5284  1.0252
 1555SOL     OW16300   0.751   1.494   8.719 -0.1858  0.2444  0.5212
 1555SOL    HW116301   0.770   1.444   8.798 -1.3708 -0.5178  0.3222
 1555SOL    HW216302   0.692   1.434   8.675  0.0491  0.3954  0.0050
 1556SOL     OW16303   0.609   0.451  17.729  0.1517  0.0259  0.1266
 1556SOL    HW116304   0.661   0.471   0.049 -1.5301 -1.1646  1.5788
 1556SOL    HW216305   0.556   0.373  17.746  0.6666 -0.0549  1.3590
 1557SOL     OW16306   4.451   2.256   8.891 -0.2426  0.1610 -0.3044
 1557SOL    HW116307   4.513   2.244   8.819  0.4481  1.5931  0.0582
 1557SOL    HW216308   4.370   2.240   8.842  0.7735 -1.8656 -1.3208
 1558SOL     OW16309   0.568   1.319   7.672  0.3744  0.0719  0.2854
 1558SOL    HW116310   0.519   1.362   7.742  0.4868 -0.7512  0.8632
 1558SOL    HW216311   0.579   1.399   7.620  2.3514 -1.5570 -1.8145
 1559SOL     OW16312   0.149   3.067   9.740 -0.2288  0.7304 -0.1732
 1559SOL    HW116313   0.133   3.032   9.828  2.4269  3.7444  1.5625
 1559SOL    HW216314   0.191   3.147   9.773  1.1405 -1.0286  2.4272
 1560SOL     OW16315   3.190   1.842   4.798 -0.2795  0.1497  0.6694
 1560SOL    HW116316   3.170   1.918   4.853 -1.4576  0.3165  0.0191
 1560SOL    HW216317   3.236   1.789   4.863 -0.9191 -0.1000  0.9258
 1561SOL     OW16318   4.657   4.393   2.138  0.2943 -0.4210  0.1655
 1561SOL    HW116319   4.590   4.378   2.071 -0.4628 -0.8130  1.0255
 1561SOL    HW216320   4.707   4.451   2.080  0.9433 -4.2920 -3.1688
 1562SOL     OW16321   0.066   4.155  12.932  0.6036  0.4125 -0.4312
 1562SOL    HW116322   0.095   4.087  12.871 -1.3838  0.1320 -1.0585
 1562SOL    HW216323   4.714   4.128  12.941  0.9549 -1.5348 -2.6850
 1563SOL     OW16324   0.833   3.961   6.379 -0.0536 -0.4150 -0.0785
 1563SOL    HW116325   0.915   3.916   6.400  0.5391  1.2541  1.1697
 1563SOL    HW216326   0.867   4.035   6.328  0.8444  0.4682  1.8074
 1564SOL     OW16327   4.424   3.689   9.198 -0.0682  0.1611 -0.3515
 1564SOL    HW116328   4.404   3.734   9.116  0.8176  2.8449  0.9040
 1564SOL    HW216329   4.418   3.599   9.167 -1.4788  0.3412 -0.5948
 1565SOL     OW16330   2.107   1.087   9.287 -0.0112 -0.3192 -0.2138
 1565SOL    HW116331   2.057   1.008   9.263 -1.7618  0.2914  1.4332
 1565SOL    HW216332   2.189   1.037   9.295  1.1568  1.4187 -1.4049
 1566SOL     OW16333   0.313   3.930   8.298 -0.2979  0.1108  0.1831
 1566SOL    HW116334   0.285   4.017   8.327  1.5745  1.2087 -1.3213
 1566SOL    HW216335   0.349   3.892   8.378  3.1763 -0.3040 -1.5948
 1567SOL     OW16336   2.478   3.023   7.449  0.2514  0.1906 -0.0373
 1567SOL    HW116337   2.531   2.953   7.486 -0.1899 -0.6063 -0.8976
 1567SOL    HW216338   2.531   3.102   7.459  0.9113  0.0876 -2.6413
 1568SOL     OW16339   4.379   2.288   9.702  0.4843 -0.9224  0.4031
 1568SOL    HW116340   4.356   2.197   9.719 -0.1437 -0.6828  0.8471
 1568SOL    HW216341   4.459   2.271   9.653  0.1583  1.1308 -0.8403
 1569SOL     OW16342   2.996   4.733   2.550 -0.1357  0.3960  0.2634
 1569SOL    HW116343   2.975   4.723   2.457 -0.3584 -2.1772  0.5985
 1569SOL    HW216344   2.916   0.017   2.596 -0.4004  0.9062 -0.4706
 1570SOL     OW16345   4.483   2.611   2.474 -0.1080  0.2031 -0.1248
 1570SOL    HW116346   4.522   2.583   2.391 -0.6574 -0.0918 -0.2835
 1570SOL    HW216347   4.422   2.676   2.440  2.1541  1.9358 -0.8740
 1571SOL     OW16348   4.720   1.939   5.924  0.5187 -0.0638 -0.0614
 1571SOL    HW116349   0.040   1.867   5.944 -3.7631 -3.1804  1.5753
 1571SOL    HW216350   4.726   1.931   5.829  0.9196 -1.0064  0.0463
 1572SOL     OW16351   4.157   1.595   7.435  0.5755 -0.0530 -0.3056
 1572SOL    HW116352   4.063   1.613   7.439  0.8209  1.0331  0.5529
 1572SOL    HW216353   4.172   1.628   7.346  2.2118  2.6300  0.9499
 1573SOL     OW16354   2.977   3.721   6.675  0.0831  0.2224  0.1258
 1573SOL    HW116355   2.889   3.689   6.695 -1.2542  3.1828 -1.0617
 1573SOL    HW216356   3.003   3.747   6.764 -0.0048 -0.0815  0.2377
 1574SOL     OW16357   2.159   3.196   8.068 -0.1311  0.0486 -0.7180
 1574SOL    HW116358   2.116   3.117   8.037 -1.3275 -0.8701  3.3387
 1574SOL    HW216359   2.250   3.191   8.036  0.1300  1.1783 -0.1643
 1575SOL     OW16360   1.333   4.192   7.225  0.8033  0.1782 -0.6628
 1575SOL    HW116361   1.326   4.276   7.270 -1.0783 -0.2837 -0.1129
 1575SOL    HW216362   1.251   4.179   7.177  0.3438  1.8422 -0.3404
 1576SOL     OW16363   0.280   3.830   3.604 -0.1039 -0.2875  0.1148
 1576SOL    HW116364   0.274   3.794   3.692  1.6848 -0.3461  0.2097
 1576SOL    HW216365   0.268   3.762   3.537 -1.0309  1.2329 -1.2772
 1577SOL     OW16366   2.089   1.756   6.294  0.0304  0.3716 -0.0013
 1577SOL    HW116367   2.072   1.799   6.379  0.3461 -0.8532  0.6802
 1577SOL    HW216368   2.157   1.693   6.318 -0.4903 -0.0654  0.3318
 1578SOL     OW16369   1.000   0.464   5.476 -0.0103  0.1524 -0.1932
 1578SOL    HW116370   1.084   0.495   5.509  1.7822 -0.7409 -3.9233
 1578SOL    HW216371   0.931   0.529   5.491 -1.7797 -2.2149  1.9110
 1579SOL     OW16372   0.345   3.117   5.461  0.3655  0.4421 -0.0451
 1579SOL    HW116373   0.264   3.100   5.509  2.0995 -0.1773  2.6289
 1579SOL    HW216374   0.365   3.025   5.444  0.9415  0.5432  0.1102
 1580SOL     OW16375   2.666   0.280   8.109 -0.6986  0.5494  0.4602
 1580SOL    HW116376   2.581   0.248   8.078 -0.4509  1.2501 -0.9652
 1580SOL    HW216377   2.661   0.376   8.100 -1.8275  0.3335 -1.3288
 1581SOL     OW16378   3.416   0.774   2.280  0.3820 -0.0620  0.3201
 1581SOL    HW116379   3.330   0.815   2.288 -0.0246  0.0394 -4.3977
 1581SOL    HW216380   3.454   0.803   2.363  0.6082  0.9831 -0.1477
 1582SOL     OW16381   0.633   3.162   1.534  0.3207 -0.3778 -0.3267
 1582SOL    HW116382   0.636   3.105   1.612 -0.3596 -1.1200 -0.8462
 1582SOL    HW216383   0.707   3.129   1.483  0.1520  0.2599 -0.9627
 1583SOL     OW16384   2.470   1.414  10.332  0.4981 -0.4179 -0.1975
 1583SOL    HW116385   2.469   1.380  10.242  3.4328  1.8009 -1.0587
 1583SOL    HW216386   2.546   1.374  10.375 -0.1711 -0.8974  0.5406
 1584SOL     OW16387   2.051   1.450   5.826  0.2755  0.1397 -1.2285
 1584SOL    HW116388   1.992   1.375   5.814  0.0085  0.2637 -0.6888
 1584SOL    HW216389   1.984   1.517   5.843 -0.1760 -0.7532  0.5123
 1585SOL     OW16390   1.548   2.798   7.591 -0.5063 -0.1014  0.1526
 1585SOL    HW116391   1.546   2.798   7.686  0.0611 -0.8749  0.1658
 1585SOL    HW216392   1.620   2.736   7.577 -0.5146  0.1765 -1.1159
 1586SOL     OW16393   4.148   0.948   2.463 -0.8661  0.0566  0.0601
 1586SOL    HW116394   4.114   1.028   2.504  1.1429 -0.6639  3.1415
 1586SOL    HW216395   4.072   0.918   2.414  0.8137 -1.1886 -1.7504
 1587SOL     OW16396   2.749   0.393   6.436  0.1848  0.4114  0.1662
 1587SOL    HW116397   2.728   0.454   6.507  0.3568  0.1094  0.4773
 1587SOL    HW216398   2.668   0.393   6.385 -0.5583  0.4706  1.3412
 1588SOL     OW16399   4.141   3.306   2.348 -0.2525  0.2002 -0.0426
 1588SOL    HW116400   4.191   3.357   2.284  0.5093 -0.8459 -0.2819
 1588SOL    HW216401   4.160   3.356   2.427  2.6828  0.2767 -0.7930
 1589SOL     OW16402   4.236   4.066   8.370 -0.0437 -1.1021 -0.0278
 1589SOL    HW116403   4.324   4.082   8.336 -0.3714  1.2343  0.2303
 1589SOL    HW216404   4.260   4.083   8.460  2.2706 -1.1335 -0.6488
 1590SOL     OW16405   1.303   3.284   5.516  0.0417 -0.0968 -0.2470
 1590SOL    HW116406   1.339   3.333   5.589 -0.9656 -0.6769  0.6437
 1590SOL    HW216407   1.274   3.359   5.464  0.5134 -0.0169 -0.3896
 1591SOL     OW16408   1.613   1.816  12.042  0.2525  0.0772  0.0759
 1591SOL    HW116409   1.643   1.772  11.963  3.4662  2.0040  0.2373
 1591SOL    HW216410   1.518   1.810  12.030  0.3823  0.3624 -1.1231
 1592SOL     OW16411   2.768   3.512   4.146 -0.0695 -0.3488 -0.0507
 1592SOL    HW116412   2.722   3.540   4.067 -0.0618  2.6742  0.9897
 1592SOL    HW216413   2.793   3.594   4.190 -0.9569 -0.4425  0.6242
 1593SOL     OW16414   3.897   1.000   5.365 -0.4869 -0.0590 -0.0697
 1593SOL    HW116415   3.867   1.087   5.391 -0.8865 -0.5559  1.1301
 1593SOL    HW216416   3.987   1.007   5.398  0.2119 -1.8257 -1.6371
 1594SOL     OW16417   1.383   4.236   3.316  0.6453  0.2604  0.3695
 1594SOL    HW116418   1.431   4.250   3.234  0.2702 -0.0855  0.0871
 1594SOL    HW216419   1.357   4.144   3.305  1.1804 -0.0578  1.7719
 1595SOL     OW16420   0.236   0.470   6.864  0.7021 -0.2385  0.3052
 1595SOL    HW116421   0.258   0.499   6.775 -0.5814 -3.2471 -0.9892
 1595SOL    HW216422   0.154   0.420   6.857  0.2128  1.0146 -3.1966
 1596SOL     OW16423   2.253   3.524   0.383 -0.1956 -0.0602 -0.2721
 1596SOL    HW116424   2.236   3.570   0.301  1.5400  0.2662 -0.4588
 1596SOL    HW216425   2.253   3.434   0.351  2.6085 -0.7891  1.7753
 1597SOL     OW16426   2.602   4.184   8.655  0.1082  0.3011  0.0126
 1597SOL    HW116427   2.588   4.091   8.674  2.1100 -0.4762 -2.3565
 1597SOL    HW216428   2.698   4.190   8.659  0.1235 -0.4677  1.0417
 1598SOL     OW16429   3.929   1.931   4.552 -0.1662 -0.4617 -0.3592
 1598SOL    HW116430   3.998   1.913   4.617 -0.8007 -2.6812 -0.2851
 1598SOL    HW216431   3.960   1.899   4.468  1.6304 -0.8823  0.4432
 1599SOL     OW16432   1.100   0.445   1.749 -0.2955  0.1008  0.0954
 1599SOL    HW116433   1.066   0.463   1.837 -0.7363 -2.3954  0.4455
 1599SOL    HW216434   1.018   0.436   1.702  0.9372 -0.0599 -2.0210
 1600SOL     OW16435   3.007   2.672   5.071  0.2727 -0.1050 -0.2055
 1600SOL    HW116436   2.963   2.746   5.113 -1.3173 -1.8405  1.2088
 1600SOL    HW216437   3.084   2.720   5.040  0.1559  0.3150  0.1696
 1601SOL     OW16438   2.401   3.090   3.724 -0.3768 -0.3177 -0.2211
 1601SOL    HW116439   2.402   2.994   3.725  1.1557 -0.3041  0.2078
 1601SOL    HW216440   2.411   3.102   3.630  1.5294  0.7903  0.1269
 1602SOL     OW16441   4.413   1.394   7.717 -0.2740  0.1055 -0.2977
 1602SOL    HW116442   4.318   1.406   7.721 -0.4740 -1.5641  0.2714
 1602SOL    HW216443   4.445   1.476   7.680 -1.4536  0.6329 -0.1534
 1603SOL     OW16444   3.515   4.616   7.710 -0.1392 -0.1296  0.0321
 1603SOL    HW116445   3.533   4.676   7.638  0.1104 -0.6891 -0.3738
 1603SOL    HW216446   3.423   4.636   7.729 -0.2361  0.1745 -0.7383
 1604SOL     OW16447   2.535   2.339  16.822 -0.0804 -0.3479 -0.8729
 1604SOL    HW116448   2.562   2.265  16.768  0.2149  0.0486 -1.2631
 1604SOL    HW216449   2.606   2.403  16.828 -1.4656  1.3664 -2.4045
 1605SOL     OW16450   0.295   4.071   3.207  0.2531  0.4067 -0.3618
 1605SOL    HW116451   0.346   4.029   3.276 -1.7542 -0.2187  0.7259
 1605SOL    HW216452   0.310   4.165   3.215  1.3445  0.3833 -2.1140
 1606SOL     OW16453   0.202   2.644   8.337  0.5122  0.0363 -0.1580
 1606SOL    HW116454   0.151   2.580   8.287  0.4924  0.3723 -0.5649
 1606SOL    HW216455   0.228   2.592   8.413  1.4382 -0.0563 -0.5332
 1607SOL     OW16456   4.338   1.128   6.841  0.2096  0.1311 -0.0212
 1607SOL    HW116457   4.322   1.124   6.746  3.0537  0.3741 -0.5333
 1607SOL    HW216458   4.425   1.169   6.839 -0.5634  1.7948 -0.0629
 1608SOL     OW16459   3.023   3.148   1.753 -0.3048  0.4033 -0.3399
 1608SOL    HW116460   3.040   3.062   1.791 -0.4501  0.5743  0.1130
 1608SOL    HW216461   2.965   3.129   1.680  1.0907  1.3988 -1.7038
 1609SOL     OW16462   0.942   4.629  16.084  0.0873  0.1007 -0.3057
 1609SOL    HW116463   0.971   4.696  16.022  1.0240 -0.2968 -0.2965
 1609SOL    HW216464   0.875   4.587  16.028 -0.0118 -0.2754  0.0984
 1610SOL     OW16465   0.751   1.163   4.248  1.1229  0.6311  0.2440
 1610SOL    HW116466   0.828   1.220   4.254  1.6667  0.0714 -1.4217
 1610SOL    HW216467   0.779   1.084   4.295  2.0305  2.7750  3.3524
 1611SOL     OW16468   2.299   0.580   4.449  0.3771  0.0677 -0.2851
 1611SOL    HW116469   2.336   0.653   4.400  1.4153 -0.5702 -0.4357
 1611SOL    HW216470   2.258   0.629   4.520 -0.2960  2.5051 -2.3571
 1612SOL     OW16471   1.175   0.105   5.712 -0.4511  0.0972  0.0694
 1612SOL    HW116472   1.194   0.179   5.655  1.2577  0.2400  0.8164
 1612SOL    HW216473   1.184   0.030   5.653 -0.9430  0.7370 -0.8186
 1613SOL     OW16474   0.470   3.010   9.392  0.1541 -0.5846  0.0852
 1613SOL    HW116475   0.382   3.042   9.412 -0.0322 -0.6057 -0.6886
 1613SOL    HW216476   0.448   2.985   9.302 -1.7857  0.0979  0.3827
 1614SOL     OW16477   1.126   4.279   5.558  0.4718 -0.0054 -0.2625
 1614SOL    HW116478   1.130   4.206   5.496 -0.0790  0.8266 -1.2645
 1614SOL    HW216479   1.147   4.235   5.641  1.0714  1.0388  0.1361
 1615SOL     OW16480   2.568   1.704   3.271 -0.2192 -0.3641 -0.8325
 1615SOL    HW116481   2.485   1.665   3.245  0.0088 -2.3794  1.5505
 1615SOL    HW216482   2.599   1.698   3.180  2.9120 -1.0348  0.2864
 1616SOL     OW16483   4.114   4.384  15.037  0.4096  0.6217 -0.2939
 1616SOL    HW116484   4.133   4.291  15.044  2.8264  0.9983 -1.5243
 1616SOL    HW216485   4.151   4.389  14.948  1.4678 -1.1248  0.0583
 1617SOL     OW16486   1.503   4.267  14.314 -0.0656 -0.1512 -0.2208
 1617SOL    HW116487   1.456   4.292  14.394 -0.3892  1.6357 -0.9871
 1617SOL    HW216488   1.471   4.177  14.302  0.7388 -0.3261 -1.0101
 1618SOL     OW16489   4.482   2.465  15.277 -0.1731  0.2107  0.4140
 1618SOL    HW116490   4.483   2.369  15.288 -1.2578  0.2237  0.6481
 1618SOL    HW216491   4.506   2.476  15.185  0.7072 -4.1510  0.0827
 1619SOL     OW16492   2.696   3.058   3.198 -0.2598  0.2048 -0.4871
 1619SOL    HW116493   2.693   2.972   3.240 -0.6525  0.6152  0.3383
 1619SOL    HW216494   2.684   3.017   3.113 -2.5817  0.5047 -0.3096
 1620SOL     OW16495   3.600   2.891   6.542 -0.2756 -0.6713  0.1021
 1620SOL    HW116496   3.534   2.842   6.492  0.9341  0.5967 -2.7736
 1620SOL    HW216497   3.541   2.940   6.600 -2.6607 -1.4956 -1.6073
 1621SOL     OW16498   3.686   3.261   5.328  0.0755  1.1559  0.1627
 1621SOL    HW116499   3.684   3.292   5.238 -1.2167 -0.5586 -0.3819
 1621SOL    HW216500   3.618   3.194   5.326 -1.5301  2.7656  0.6133
 1622SOL     OW16501   0.925   2.381   5.359  0.4654 -0.3577 -0.5045
 1622SOL    HW116502   0.957   2.416   5.442  1.7763 -0.6058 -0.9154
 1622SOL    HW216503   0.905   2.289   5.378  0.6379 -0.2604  0.1304
 1623SOL     OW16504   1.946   3.293   8.900 -0.1850  0.0341 -0.3276
 1623SOL    HW116505   1.880   3.306   8.832 -1.3769 -1.8839  0.4680
 1623SOL    HW216506   1.978   3.204   8.884 -0.8095 -0.1332 -0.6378
 1624SOL     OW16507   4.074   3.865  15.953  0.1381  0.5196  0.0713
 1624SOL    HW116508   4.121   3.825  15.880  0.3359 -0.8921  0.9685
 1624SOL    HW216509   4.019   3.789  15.976 -0.1933  0.6791 -0.1925
 1625SOL     OW16510   2.378   1.795   2.238  0.1441 -0.0158 -0.4200
 1625SOL    HW116511   2.474   1.797   2.234  0.2010 -0.2389  0.7774
 1625SOL    HW216512   2.367   1.796   2.143 -2.4073 -0.4884 -0.1373
 1626SOL     OW16513   1.433   4.409  13.468 -0.5606  0.9473  0.3537
 1626SOL    HW116514   1.407   4.483  13.522 -2.5465  0.0849  0.5962
 1626SOL    HW216515   1.365   4.410  13.401  1.9899  0.5956 -2.2349
 1627SOL     OW16516   1.733   1.919   5.022 -0.3380 -0.1483  0.5103
 1627SOL    HW116517   1.780   1.885   4.946 -1.8970 -0.6220 -0.2409
 1627SOL    HW216518   1.796   1.979   5.063  1.2037 -1.5811  0.2440
 1628SOL     OW16519   2.545   2.986  15.900  0.5621 -0.5207 -0.2688
 1628SOL    HW116520   2.472   2.926  15.885  0.7728 -1.2410  1.6316
 1628SOL    HW216521   2.592   2.987  15.817 -0.2694 -1.8870 -0.7519
 1629SOL     OW16522   3.841   1.317   7.335  0.1230  0.1788 -0.1085
 1629SOL    HW116523   3.888   1.298   7.417  0.1978 -0.3352 -0.2674
 1629SOL    HW216524   3.903   1.280   7.272  1.1093  1.4569  0.1095
 1630SOL     OW16525   2.589   2.183   7.706 -0.1818  0.0915 -0.3566
 1630SOL    HW116526   2.635   2.267   7.699 -1.9171  0.9163 -1.8321
 1630SOL    HW216527   2.633   2.147   7.782 -2.5495  1.5732  1.7256
 1631SOL     OW16528   2.095   4.628  14.756 -0.0779 -0.4173 -0.0967
 1631SOL    HW116529   2.008   4.588  14.758  0.3506 -1.2961  0.7486
 1631SOL    HW216530   2.083   4.711  14.709 -1.1242 -1.4080 -1.5945
 1632SOL     OW16531   3.890   0.240   5.238  0.6320 -0.2462 -0.2183
 1632SOL    HW116532   3.834   0.313   5.267  0.9134  0.2787 -1.0195
 1632SOL    HW216533   3.908   0.216   5.329  1.8850 -0.0535 -0.4273
 1633SOL     OW16534   3.827   3.809   3.634  0.0418  0.0845  0.2336
 1633SOL    HW116535   3.855   3.879   3.693 -1.8695  0.9560  0.1319
 1633SOL    HW216536   3.912   3.782   3.600  0.2441  1.9661 -0.7545
 1634SOL     OW16537   2.344   0.309  12.856  0.3611 -0.3379 -0.2852
 1634SOL    HW116538   2.299   0.326  12.939  3.4032 -2.7119  1.8493
 1634SOL    HW216539   2.361   0.215  12.856  0.6124 -0.2881  0.3504
 1635SOL     OW16540   2.231   1.287   6.355 -0.2343 -0.2314  0.9096
 1635SOL    HW116541   2.188   1.202   6.369 -0.5751 -0.2181 -0.0843
 1635SOL    HW216542   2.305   1.256   6.302  0.5767  1.1909  1.2192
 1636SOL     OW16543   1.501   4.134  14.598  0.4322  0.0647 -0.0174
 1636SOL    HW116544   1.540   4.053  14.630  2.6137  0.2721 -2.1334
 1636SOL    HW216545   1.434   4.105  14.536  0.6536 -2.3421  0.8694
 1637SOL     OW16546   0.646   0.938  12.962 -0.6627  0.2627  0.0089
 1637SOL    HW116547   0.610   0.850  12.955 -0.8399  0.3722 -0.4723
 1637SOL    HW216548   0.705   0.922  13.035  0.0213 -0.4479 -0.6890
 1638SOL     OW16549   3.728   2.217   1.883 -0.0341 -0.1552  0.5459
 1638SOL    HW116550   3.794   2.227   1.951 -0.7239 -1.5732  1.4104
 1638SOL    HW216551   3.700   2.127   1.896 -0.5457  0.4345  3.5273
 1639SOL     OW16552   2.219   3.260   9.222  0.2749  0.0625  0.2827
 1639SOL    HW116553   2.219   3.254   9.318 -2.5421 -0.1282  0.2840
 1639SOL    HW216554   2.283   3.200   9.184  0.1349 -1.5290  2.5666
 1640SOL     OW16555   3.278   4.091   8.912 -0.5073 -0.2571  0.1891
 1640SOL    HW116556   3.263   4.008   8.867  5.1015 -0.8328 -0.5720
 1640SOL    HW216557   3.251   4.070   9.002 -0.7005 -0.2427  0.1353
 1641SOL     OW16558   3.925   2.191   6.941 -0.0384 -0.0977  0.5745
 1641SOL    HW116559   3.904   2.243   7.018  0.0117 -1.4047  1.4646
 1641SOL    HW216560   3.969   2.260   6.890 -1.4304 -0.2889 -0.8748
 1642SOL     OW16561   2.132   1.427  12.695 -0.0146 -0.0385  0.4080
 1642SOL    HW116562   2.046   1.385  12.691  0.1100 -0.0915 -1.6739
 1642SOL    HW216563   2.119   1.484  12.771  2.4779  0.8615  0.1663
 1643SOL     OW16564   0.089   3.778  14.773  0.1434 -0.3235  0.1777
 1643SOL    HW116565   0.025   3.800  14.705  1.6610  2.7484 -0.2772
 1643SOL    HW216566   0.049   3.832  14.841 -1.1918 -0.6445 -0.3595
 1644SOL     OW16567   3.353   2.419   3.529 -0.1373  0.0542 -0.5291
 1644SOL    HW116568   3.294   2.344   3.543  2.8168 -1.8689  1.5750
 1644SOL    HW216569   3.343   2.428   3.434 -0.1309 -0.9984 -0.6371
 1645SOL     OW16570   3.471   2.911  13.136 -0.3390 -0.2467 -0.8035
 1645SOL    HW116571   3.420   2.853  13.080  1.3627 -0.1811 -2.3876
 1645SOL    HW216572   3.462   2.994  13.090  0.2793 -1.0681 -2.3794
 1646SOL     OW16573   2.218   0.324   4.353 -0.0585 -0.0397 -0.3045
 1646SOL    HW116574   2.311   0.302   4.356 -0.4900 -1.8480 -0.6320
 1646SOL    HW216575   2.211   0.417   4.376 -0.9563 -0.6581  1.8482
 1647SOL     OW16576   1.985   2.516   4.278  0.1543  0.1027  0.1393
 1647SOL    HW116577   1.912   2.575   4.258 -0.1388 -0.8545 -1.5497
 1647SOL    HW216578   2.031   2.575   4.338  0.2240  0.8953 -0.6971
 1648SOL     OW16579   2.767   2.102  12.838  0.2037 -0.4991 -0.2142
 1648SOL    HW116580   2.737   2.062  12.919 -1.2813  0.0673 -0.4870
 1648SOL    HW216581   2.851   2.058  12.825  0.6854  0.0279  1.1421
 1649SOL     OW16582   1.796   0.339   9.527  0.3513  0.3742 -0.2076
 1649SOL    HW116583   1.703   0.355   9.517  0.5695  1.8918  0.1964
 1649SOL    HW216584   1.835   0.425   9.543 -0.5819  0.8207 -0.3489
 1650SOL     OW16585   1.951   4.073   5.873 -0.1311  0.3937 -0.1691
 1650SOL    HW116586   1.910   4.012   5.812  1.0395 -0.7552  0.1804
 1650SOL    HW216587   1.929   4.026   5.954  3.8144 -0.1789  0.5616
 1651SOL     OW16588   3.630   1.066  16.566 -0.0362  0.4060  0.0881
 1651SOL    HW116589   3.696   1.123  16.606  0.4108  0.8387 -1.2451
 1651SOL    HW216590   3.694   1.012  16.518 -1.8976 -0.3194 -1.5644
 1652SOL     OW16591   1.267   3.250   9.673  0.1624 -0.1383 -0.0308
 1652SOL    HW116592   1.176   3.251   9.702  0.3240  2.0053  0.3922
 1652SOL    HW216593   1.264   3.313   9.602 -0.0291 -0.5754 -0.4132
 1653SOL     OW16594   2.743   1.408  12.849  0.2560  0.0578 -0.6331
 1653SOL    HW116595   2.655   1.397  12.885  0.7088 -2.0082 -0.1163
 1653SOL    HW216596   2.723   1.445  12.763  1.7070 -1.2243 -1.5207
 1654SOL     OW16597   2.397   1.048  13.123  0.6519 -0.2600 -0.0286
 1654SOL    HW116598   2.491   1.052  13.140  0.7098  0.5386 -0.5411
 1654SOL    HW216599   2.404   1.022  13.031  1.3018  0.0832 -0.0790
 1655SOL     OW16600   2.432   0.414   5.392 -0.0191 -0.1395  0.1821
 1655SOL    HW116601   2.521   0.393   5.421  0.0052  0.5994  0.6405
 1655SOL    HW216602   2.386   0.338   5.426  0.2540  1.4065  3.9188
 1656SOL     OW16603   4.105   4.313   8.565  0.2470  0.1302 -0.1466
 1656SOL    HW116604   4.178   4.253   8.579  0.1155 -0.0389 -0.1907
 1656SOL    HW216605   4.110   4.357   8.650  0.9087  0.2411 -0.2450
 1657SOL     OW16606   0.160   2.892  14.383  0.3941  0.1005  0.2333
 1657SOL    HW116607   0.169   2.812  14.331 -0.9307 -0.3434  0.6752
 1657SOL    HW216608   0.142   2.954  14.313  0.1512 -0.4443 -0.1912
 1658SOL     OW16609   4.590   2.778   2.671  0.2003 -0.1397  0.2339
 1658SOL    HW116610   4.504   2.738   2.655  0.0566 -0.6383  2.3302
 1658SOL    HW216611   4.640   2.747   2.595  1.4136  1.3853  0.4161
 1659SOL     OW16612   3.665   3.268   5.746  0.2363 -0.0052 -0.2353
 1659SOL    HW116613   3.738   3.253   5.686  0.7164 -0.0376  0.3608
 1659SOL    HW216614   3.635   3.356   5.721  1.2580  0.3822 -0.0913
 1660SOL     OW16615   2.893   3.995   4.122  0.5133  0.2715  0.0943
 1660SOL    HW116616   2.890   4.074   4.068 -1.8960  0.3937  0.3787
 1660SOL    HW216617   2.857   4.034   4.201  0.2302 -1.0534  0.6207
 1661SOL     OW16618   1.423   0.455   2.682  0.2084  0.5149  0.3257
 1661SOL    HW116619   1.353   0.506   2.641 -0.6853 -0.9111  0.0676
 1661SOL    HW216620   1.493   0.463   2.617 -0.3902 -2.8863 -0.7238
 1662SOL     OW16621   4.443   1.769   9.777 -0.0173  0.2403  0.7402
 1662SOL    HW116622   4.528   1.725   9.779 -0.7566 -1.1817  0.6450
 1662SOL    HW216623   4.434   1.774   9.872  1.3036  1.5704  0.7915
 1663SOL     OW16624   2.319   3.451   8.244 -0.0155  0.5344 -0.0640
 1663SOL    HW116625   2.392   3.494   8.200  1.6120  0.1259  2.2992
 1663SOL    HW216626   2.363   3.419   8.322 -0.5963  0.7242  0.3372
 1664SOL     OW16627   1.827   2.562   5.858 -0.2570  0.3211  0.8952
 1664SOL    HW116628   1.904   2.563   5.915  0.9725 -1.9177 -0.7409
 1664SOL    HW216629   1.758   2.544   5.922 -0.7055 -1.6742 -0.1561
 1665SOL     OW16630   0.021   4.300   7.828  0.8446  0.7014  0.1668
 1665SOL    HW116631   4.727   4.389   7.839 -3.6360 -0.6552 -2.3442
 1665SOL    HW216632   0.113   4.316   7.809  1.2076  0.1591  1.4778
 1666SOL     OW16633   3.399   0.449   3.135 -0.3647 -0.0205  0.4420
 1666SOL    HW116634   3.471   0.501   3.100 -2.2829  2.0023 -0.4583
 1666SOL    HW216635   3.374   0.493   3.216 -3.1223  0.2919 -0.5957
 1667SOL     OW16636   0.529   1.040   8.261  0.7607 -0.4818 -0.0600
 1667SOL    HW116637   0.489   1.105   8.203 -0.8008 -1.2629  0.1389
 1667SOL    HW216638   0.556   1.089   8.338  0.4208  0.1340 -0.3319
 1668SOL     OW16639   2.676   0.503   1.652 -0.2505  0.1021 -0.4079
 1668SOL    HW116640   2.593   0.550   1.647 -0.5866 -0.7475 -3.0348
 1668SOL    HW216641   2.642   0.413   1.662 -0.2018  0.4130  2.6054
 1669SOL     OW16642   0.226   1.693   3.648 -0.4608 -0.2824  0.4827
 1669SOL    HW116643   0.159   1.748   3.607  0.6650  2.1729  1.8981
 1669SOL    HW216644   0.181   1.610   3.640  1.3337 -1.2245  0.1112
 1670SOL     OW16645   1.203   2.842   7.834 -0.2787  0.2751 -0.2831
 1670SOL    HW116646   1.206   2.913   7.770  0.8965  0.7794  0.3339
 1670SOL    HW216647   1.115   2.808   7.820 -0.1553 -0.3613  0.4677
 1671SOL     OW16648   2.628   3.803  14.453  0.3418  0.3181  0.5141
 1671SOL    HW116649   2.558   3.762  14.402  1.7415 -2.2465  0.6760
 1671SOL    HW216650   2.673   3.861  14.393  1.5570  0.4293  1.5307
 1672SOL     OW16651   1.813   0.732   0.848 -0.5103 -0.3529 -0.4422
 1672SOL    HW116652   1.828   0.826   0.840  0.2726 -0.3862  0.6750
 1672SOL    HW216653   1.733   0.718   0.897 -0.9015  1.8115 -0.4781
 1673SOL     OW16654   2.267   2.375   4.830  0.5397  0.2884  0.0188
 1673SOL    HW116655   2.230   2.359   4.916 -0.4193  1.3371 -0.1971
 1673SOL    HW216656   2.359   2.352   4.845  0.6111 -1.6361 -3.3701
 1674SOL     OW16657   3.248   3.066   2.578  0.0820 -0.0425 -0.4402
 1674SOL    HW116658   3.340   3.045   2.594 -0.2697 -1.5391 -0.3955
 1674SOL    HW216659   3.219   3.108   2.659 -0.4396 -0.1305 -0.5825
 1675SOL     OW16660   2.790   2.311   4.475  0.5618 -0.0143 -0.2169
 1675SOL    HW116661   2.789   2.321   4.571 -1.4220  0.7098 -0.2953
 1675SOL    HW216662   2.882   2.317   4.453  1.3218 -1.7127  2.4967
 1676SOL     OW16663   0.461   1.942   7.452  0.5113 -0.0714  0.2460
 1676SOL    HW116664   0.514   1.896   7.387 -0.3650  1.4246 -1.5378
 1676SOL    HW216665   0.412   1.872   7.493 -1.3456  1.4506  0.6284
 1677SOL     OW16666   4.230   3.659   8.578 -0.0225  0.1684  0.5862
 1677SOL    HW116667   4.172   3.677   8.652  0.4921  1.7264  0.6135
 1677SOL    HW216668   4.308   3.709   8.603 -0.1965  0.2923  0.8856
 1678SOL     OW16669   4.467   1.948   2.405 -0.0936 -0.2667  0.0044
 1678SOL    HW116670   4.491   2.039   2.425  0.8349 -0.8337  1.3752
 1678SOL    HW216671   4.547   1.924   2.358  2.0738  1.9383  2.5841
 1679SOL     OW16672   3.478   3.628   8.924 -0.0670 -0.4273  0.0378
 1679SOL    HW116673   3.570   3.633   8.899  0.7902 -0.3437  3.1434
 1679SOL    HW216674   3.443   3.570   8.857 -0.0314 -0.0814 -0.2787
 1680SOL     OW16675   2.368   1.357   3.020 -0.0131 -0.3076  0.6895
 1680SOL    HW116676   2.371   1.267   2.987 -1.0195  0.4388 -1.4069
 1680SOL    HW216677   2.278   1.379   2.995  0.2000 -1.4485 -1.0530
 1681SOL     OW16678   1.261   2.220   6.928 -0.6535 -0.0883  0.2013
 1681SOL    HW116679   1.168   2.235   6.914 -1.2680 -1.6883  2.4799
 1681SOL    HW216680   1.277   2.278   7.003  0.3206  1.3905 -1.1411
 1682SOL     OW16681   3.300   2.486   1.697 -0.2312  0.1875  0.1714
 1682SOL    HW116682   3.225   2.545   1.707 -0.3579  0.1822 -0.7410
 1682SOL    HW216683   3.289   2.417   1.763  2.0343  0.1457  0.5004
 1683SOL     OW16684   3.782   2.020   6.775  0.1051 -0.0838  0.4477
 1683SOL    HW116685   3.831   2.076   6.835 -2.0258  0.2842  1.8771
 1683SOL    HW216686   3.697   2.018   6.819 -0.6221 -2.5375 -1.0614
 1684SOL     OW16687   3.508   0.172   4.414  0.3360 -0.1589  0.2850
 1684SOL    HW116688   3.493   0.116   4.490 -0.7968 -0.1585  0.0627
 1684SOL    HW216689   3.578   0.125   4.369 -0.7023  0.9424 -2.4467
 1685SOL     OW16690   1.339   4.024  14.416  0.1420  0.1974 -0.3626
 1685SOL    HW116691   1.357   4.005  14.324  1.4218 -1.5524  0.2315
 1685SOL    HW216692   1.293   3.948  14.451  0.5121 -0.4057 -1.1896
 1686SOL     OW16693   3.600   2.715   1.762 -0.4586  0.8660  0.6037
 1686SOL    HW116694   3.519   2.742   1.805 -1.5649 -1.2870 -0.1727
 1686SOL    HW216695   3.563   2.679   1.681 -2.2902  0.2211  1.7551
 1687SOL     OW16696   3.843   1.362   6.545  0.6741  0.3165  0.5585
 1687SOL    HW116697   3.859   1.276   6.585  0.0214 -0.0329  0.0629
 1687SOL    HW216698   3.790   1.410   6.609 -1.9098 -1.4325 -0.2933
 1688SOL     OW16699   2.181   3.470   4.733  0.2083 -0.0208  0.3254
 1688SOL    HW116700   2.269   3.433   4.740  0.2258  0.0411  0.4251
 1688SOL    HW216701   2.183   3.529   4.808  1.6991  0.5406 -0.1464
 1689SOL     OW16702   4.595   4.261  14.427 -0.2747 -0.2000  0.0420
 1689SOL    HW116703   4.659   4.192  14.445 -0.7829 -0.5837  0.3893
 1689SOL    HW216704   4.522   4.203  14.402  0.6191 -0.6641 -1.5339
 1690SOL     OW16705   4.592   0.037  10.750 -0.3198  0.1834  0.4054
 1690SOL    HW116706   4.517   4.732  10.788  0.4748 -1.7755 -0.3032
 1690SOL    HW216707   4.543   0.110  10.714 -0.7767  0.8007  2.2988
 1691SOL     OW16708   2.765   0.420  17.736  0.3819  0.1516 -0.4608
 1691SOL    HW116709   2.816   0.447  17.659 -1.8862  0.8604 -1.6981
 1691SOL    HW216710   2.767   0.326  17.717 -0.5450 -0.1941  1.2163
 1692SOL     OW16711   3.424   3.957  14.656 -0.4182 -0.1962 -0.1489
 1692SOL    HW116712   3.346   3.999  14.621  0.2834 -0.6185 -2.2338
 1692SOL    HW216713   3.420   3.865  14.632 -1.0115 -0.4305  0.9009
 1693SOL     OW16714   0.501   0.316   7.651  0.3500  0.6126 -0.1727
 1693SOL    HW116715   0.487   0.299   7.744 -0.6065 -0.5953 -0.5412
 1693SOL    HW216716   0.466   0.403   7.632  0.8532  0.5408 -1.4333
 1694SOL     OW16717   0.284   0.465  16.507  0.1665 -0.1157 -0.3419
 1694SOL    HW116718   0.276   0.413  16.586 -0.5055 -0.4905 -0.6489
 1694SOL    HW216719   0.268   0.549  16.551 -3.8090 -1.1913  0.2969
 1695SOL     OW16720   3.385   3.409   8.767  0.9166  0.1689 -0.1872
 1695SOL    HW116721   3.439   3.350   8.713 -1.9112 -1.5601 -1.1097
 1695SOL    HW216722   3.372   3.358   8.847 -1.6164  0.2453 -0.5460
 1696SOL     OW16723   3.076   3.744   3.094 -0.0571 -0.2851  0.1193
 1696SOL    HW116724   2.992   3.715   3.128  0.0397  0.7824  1.2700
 1696SOL    HW216725   3.086   3.838   3.109 -0.6475 -0.2223  0.1062
 1697SOL     OW16726   3.867   0.078   5.900 -0.2556  0.3691 -0.1365
 1697SOL    HW116727   3.928   0.107   5.968 -0.5853  0.4724  0.1153
 1697SOL    HW216728   3.790   0.080   5.956  0.1985  0.3651  0.4833
 1698SOL     OW16729   1.013   3.664   1.882 -0.2153 -0.0368 -0.7081
 1698SOL    HW116730   0.951   3.591   1.888  0.8894 -0.9278  0.0934
 1698SOL    HW216731   1.094   3.612   1.877 -0.4422 -0.5271  0.5389
 1699SOL     OW16732   3.864   4.550  11.824  0.4190 -0.5266 -0.6290
 1699SOL    HW116733   3.871   4.472  11.879 -0.4496  0.4401  0.8570
 1699SOL    HW216734   3.770   4.546  11.807  0.1228 -0.2525  0.8894
 1700SOL     OW16735   0.421   3.034   4.162  0.4224  0.1608  0.1120
 1700SOL    HW116736   0.485   3.038   4.234  0.0960  1.8281  0.2992
 1700SOL    HW216737   0.386   2.947   4.182  0.5811  0.4615  1.6915
 1701SOL     OW16738   1.701   4.233   3.745  0.6602  0.1431 -0.1539
 1701SOL    HW116739   1.789   4.202   3.725  0.4439  0.7712 -2.0973
 1701SOL    HW216740   1.655   4.151   3.761 -0.0072  0.4378 -0.5215
 1702SOL     OW16741   1.046   1.022   4.929  0.1792  0.4118 -0.2327
 1702SOL    HW116742   0.994   0.944   4.907  0.0824  0.1892  0.7935
 1702SOL    HW216743   1.125   1.001   4.879 -0.1287  1.9851 -1.3833
 1703SOL     OW16744   0.824   3.535   6.924 -0.2719  0.0949  0.2666
 1703SOL    HW116745   0.849   3.606   6.865  1.2773 -1.3793 -0.8640
 1703SOL    HW216746   0.908   3.492   6.944  0.5100  1.9216  0.8964
 1704SOL     OW16747   3.760   0.579   3.524 -0.5645 -0.0596  0.0916
 1704SOL    HW116748   3.712   0.653   3.488  1.4272  0.4675 -1.4717
 1704SOL    HW216749   3.684   0.522   3.520 -1.0781  0.6791 -0.6451
 1705SOL     OW16750   2.707   2.369   3.940 -0.3850  0.0999 -0.0917
 1705SOL    HW116751   2.623   2.327   3.926 -0.7700  0.9746 -0.4386
 1705SOL    HW216752   2.740   2.309   4.007 -0.7728 -0.5893 -0.5307
 1706SOL     OW16753   4.622   1.089  11.595 -0.2712 -0.2962  0.1571
 1706SOL    HW116754   4.546   1.033  11.580  0.7118 -1.4758 -0.3281
 1706SOL    HW216755   4.622   1.139  11.513  0.0042 -1.8256 -0.7570
 1707SOL     OW16756   2.765   1.535  12.582 -0.2548  0.7228 -0.7981
 1707SOL    HW116757   2.835   1.558  12.643 -1.0104  1.1864 -0.1029
 1707SOL    HW216758   2.815   1.489  12.515 -1.7885  0.0730 -1.4988
 1708SOL     OW16759   0.368   3.177   7.024  0.3454 -0.2533  0.1523
 1708SOL    HW116760   0.426   3.101   7.022  1.3383  0.4843  0.8424
 1708SOL    HW216761   0.338   3.163   7.114  0.6281 -0.7901  0.1618
 1709SOL     OW16762   1.424   0.617  12.044  0.0917  0.3581  0.3010
 1709SOL    HW116763   1.433   0.692  11.985  0.9751  0.5874  0.7416
 1709SOL    HW216764   1.508   0.618  12.089 -0.3848  0.5135  1.1824
 1710SOL     OW16765   2.976   4.265   3.678 -0.2807  0.1568  0.2742
 1710SOL    HW116766   2.960   4.359   3.674 -0.0623  0.1832  0.0342
 1710SOL    HW216767   2.913   4.238   3.745  0.4456  1.5950  1.5044
 1711SOL     OW16768   2.914   0.642  12.629 -0.2565 -0.2550  0.1901
 1711SOL    HW116769   2.940   0.599  12.711 -0.2878 -0.3394  0.1567
 1711SOL    HW216770   2.943   0.572  12.570 -1.5735  0.6409 -1.5240
 1712SOL     OW16771   4.450   4.649  15.840  0.6031 -0.1674 -0.2145
 1712SOL    HW116772   4.410   4.731  15.809 -0.0730 -0.0184  1.0330
 1712SOL    HW216773   4.404   4.592  15.779 -0.8253  1.7404 -0.9286
 1713SOL     OW16774   2.395   1.614   6.265  0.2028 -0.2421 -0.1881
 1713SOL    HW116775   2.360   1.572   6.186 -1.2389 -2.5273  1.6232
 1713SOL    HW216776   2.324   1.593   6.326 -1.6315  0.6793 -1.9797
 1714SOL     OW16777   0.842   2.558   9.020  0.0799 -0.5869  0.0631
 1714SOL    HW116778   0.779   2.502   8.975 -0.6085  2.3995 -2.6601
 1714SOL    HW216779   0.908   2.493   9.043  0.9787  0.4135  0.3137
 1715SOL     OW16780   1.368   4.484   9.051 -0.8884 -0.0154  0.6473
 1715SOL    HW116781   1.298   4.484   9.116 -2.8697  3.5316 -1.4865
 1715SOL    HW216782   1.371   4.575   9.021 -0.9885 -0.1389  0.2645
 1716SOL     OW16783   4.381   2.606   6.644 -0.6350  0.0154  0.2033
 1716SOL    HW116784   4.429   2.547   6.586 -3.2412 -1.0525 -0.8435
 1716SOL    HW216785   4.383   2.682   6.585 -2.6412  0.4305  0.6850
 1717SOL     OW16786   2.413   0.413   5.107  0.6939 -0.5620  0.1966
 1717SOL    HW116787   2.390   0.443   5.195 -3.1944  0.2296 -1.1124
 1717SOL    HW216788   2.483   0.473   5.080  2.2825 -2.0476  0.9933
 1718SOL     OW16789   0.335   1.743   7.582  0.2591  0.1480  0.0211
 1718SOL    HW116790   0.243   1.720   7.568  0.5272  0.4487 -2.1645
 1718SOL    HW216791   0.338   1.776   7.672 -0.5722  0.3041 -0.0009
 1719SOL     OW16792   3.191   3.415   2.423  0.0363 -0.3832  0.3137
 1719SOL    HW116793   3.243   3.382   2.496 -0.9570  2.0841  2.1625
 1719SOL    HW216794   3.149   3.335   2.391  2.7715 -1.3268 -0.8697
 1720SOL     OW16795   2.082   0.579   1.921 -0.1826  0.7001 -0.3824
 1720SOL    HW116796   2.117   0.664   1.949 -0.5153  1.0593 -1.0443
 1720SOL    HW216797   2.002   0.610   1.878 -0.1586  1.9322  0.4485
 1721SOL     OW16798   2.877   3.557   8.309  0.5374 -0.3045 -0.7406
 1721SOL    HW116799   2.791   3.517   8.309  1.0801 -1.4353  0.5416
 1721SOL    HW216800   2.859   3.633   8.364 -1.6087 -2.5775  1.6061
 1722SOL     OW16801   1.056   2.965   8.436  0.2694 -0.0994  0.3299
 1722SOL    HW116802   1.075   2.873   8.418  2.0276 -0.0293  1.7882
 1722SOL    HW216803   1.127   2.989   8.495  0.7165  0.6604 -0.5275
 1723SOL     OW16804   2.335   0.506  11.049 -0.0335  0.1762 -0.5915
 1723SOL    HW116805   2.275   0.482  10.978 -0.3634  0.7974 -0.5269
 1723SOL    HW216806   2.366   0.594  11.029  2.3327 -0.4716  0.2727
 1724SOL     OW16807   3.940   1.867   4.300  0.1148 -0.4941  0.0691
 1724SOL    HW116808   3.891   1.880   4.218  0.4455  1.8280  0.2368
 1724SOL    HW216809   4.024   1.842   4.263  0.4995  1.6698 -0.5056
 1725SOL     OW16810   1.812   1.972   9.076 -0.2850 -0.3123 -0.2305
 1725SOL    HW116811   1.894   1.922   9.078 -0.0682  0.0487 -0.0339
 1725SOL    HW216812   1.830   2.044   9.137  1.4812 -2.2379  1.5597
 1726SOL     OW16813   0.357   2.224   1.064  1.0355 -0.0033  0.0923
 1726SOL    HW116814   0.445   2.242   1.097  0.9016  0.5402  0.1572
 1726SOL    HW216815   0.371   2.285   0.992 -1.0559 -0.9701 -1.1412
 1727SOL     OW16816   0.088   0.797  16.832 -0.6255  0.2930  0.3714
 1727SOL    HW116817   0.038   0.832  16.906  0.9630  2.6604  0.3050
 1727SOL    HW216818   0.017   0.764  16.776  1.0243 -0.6819 -1.1379
 1728SOL     OW16819   3.049   2.868   3.194  0.1846 -0.0204  0.1510
 1728SOL    HW116820   3.119   2.902   3.251 -2.2413 -0.1177  3.1755
 1728SOL    HW216821   2.989   2.837   3.261  0.0909 -0.8547 -0.3158
 1729SOL     OW16822   1.107   0.019   3.856  0.5276  0.5923  0.3037
 1729SOL    HW116823   1.140   0.109   3.852  1.9060  0.1561  1.6120
 1729SOL    HW216824   1.185   4.706   3.871  1.3039  2.0515  1.4382
 1730SOL     OW16825   2.425   0.733  10.244  0.1672 -0.2555 -0.4469
 1730SOL    HW116826   2.375   0.705  10.167 -1.7160  2.5778 -0.2754
 1730SOL    HW216827   2.497   0.777  10.199  0.5923  1.6594  2.0843
 1731SOL     OW16828   4.648   4.364  13.051  0.7649 -0.1962 -0.1743
 1731SOL    HW116829   4.669   4.285  13.002  3.4670  1.1396 -1.1743
 1731SOL    HW216830   4.690   4.433  12.999  1.1810 -0.9894 -0.8713
 1732SOL     OW16831   0.862   4.436   5.376  0.4768 -0.5135 -0.6380
 1732SOL    HW116832   0.878   4.471   5.464  1.8796 -3.7724  0.3922
 1732SOL    HW216833   0.946   4.424   5.331  2.3602  0.5026  2.6013
 1733SOL     OW16834   1.668   0.555   3.215 -0.6989 -0.6191 -0.4564
 1733SOL    HW116835   1.584   0.514   3.234 -0.2722 -0.0383  2.6904
 1733SOL    HW216836   1.708   0.558   3.302  0.4823  1.8036 -1.0742
 1734SOL     OW16837   2.221   1.238   2.387 -0.7571  0.1796 -0.0712
 1734SOL    HW116838   2.277   1.161   2.375 -0.7272  0.3445 -1.0051
 1734SOL    HW216839   2.145   1.191   2.351  0.1936 -1.0814 -0.4335
 1735SOL     OW16840   4.153   2.256   5.179  0.0142  0.1929 -0.1378
 1735SOL    HW116841   4.083   2.240   5.116  0.3524  0.8243 -0.6685
 1735SOL    HW216842   4.175   2.349   5.175  0.3268  0.0069 -2.4395
 1736SOL     OW16843   0.356   2.418   7.214 -0.2934  0.1393 -0.0748
 1736SOL    HW116844   0.395   2.505   7.215 -1.4135  0.6513  0.3813
 1736SOL    HW216845   0.422   2.370   7.264 -1.6324  1.2282  2.7756
 1737SOL     OW16846   1.988   0.585  14.378 -0.6875 -0.3137  0.6896
 1737SOL    HW116847   1.938   0.519  14.329  1.4576 -1.3638 -0.0698
 1737SOL    HW216848   1.918   0.650  14.386  0.4058  0.9145  0.1756
 1738SOL     OW16849   3.495   4.708   0.679  0.1784 -0.1262 -0.3756
 1738SOL    HW116850   3.550   4.728   0.604  0.3059 -0.9610 -0.5002
 1738SOL    HW216851   3.469   0.058   0.703 -2.1390 -0.9122  0.0395
 1739SOL     OW16852   1.780   4.513   5.830 -0.2432 -0.5187 -0.1847
 1739SOL    HW116853   1.691   4.546   5.836 -0.4601 -1.1473  0.1395
 1739SOL    HW216854   1.776   4.457   5.908 -0.5424 -0.0534  0.1258
 1740SOL     OW16855   1.196   1.509   4.044 -0.2251 -0.4559  0.7283
 1740SOL    HW116856   1.133   1.440   4.024 -0.2229 -0.7125  1.6183
 1740SOL    HW216857   1.223   1.513   3.952  0.0556 -0.9030  0.7923
 1741SOL     OW16858   3.459   3.481   1.345 -0.4942 -0.5356  0.4303
 1741SOL    HW116859   3.411   3.398   1.352  1.3749 -1.4649  2.1738
 1741SOL    HW216860   3.534   3.465   1.402 -0.0054 -0.1869 -0.1046
 1742SOL     OW16861   3.780   3.403  12.422 -0.3224 -0.3501 -0.6698
 1742SOL    HW116862   3.735   3.470  12.370  2.5603  2.5805  0.5945
 1742SOL    HW216863   3.712   3.342  12.452 -0.4847  0.0280 -0.2510
 1743SOL     OW16864   3.743   1.256   3.973  0.1295  0.7686  0.2655
 1743SOL    HW116865   3.818   1.315   3.982  0.3909  0.4015  0.5238
 1743SOL    HW216866   3.775   1.196   3.906 -0.0402  2.4964 -1.3401
 1744SOL     OW16867   2.881   2.625   4.818  0.5894 -0.4069 -0.0741
 1744SOL    HW116868   2.887   2.719   4.799  0.4521 -0.4716 -0.4264
 1744SOL    HW216869   2.943   2.615   4.890  0.7217  1.4392  0.0679
 1745SOL     OW16870   0.186   1.603  10.620 -0.4619  0.0253 -0.0741
 1745SOL    HW116871   0.105   1.653  10.607 -0.7594 -0.8587 -1.7405
 1745SOL    HW216872   0.181   1.540  10.547  2.0601 -1.7678  1.3145
 1746SOL     OW16873   4.623   3.149   8.258 -0.3216  0.1988 -0.2205
 1746SOL    HW116874   4.541   3.148   8.209 -1.8778  0.8338  2.3809
 1746SOL    HW216875   4.629   3.244   8.267 -0.2316  0.2446 -0.8038
 1747SOL     OW16876   4.337   1.411  11.262 -0.4966  0.3486 -0.2122
 1747SOL    HW116877   4.342   1.405  11.357 -1.8361 -0.2939 -0.1909
 1747SOL    HW216878   4.254   1.457  11.254 -1.6422 -1.7923 -0.4731
 1748SOL     OW16879   2.336   4.700   4.893 -0.1977 -0.1190  0.2936
 1748SOL    HW116880   2.400   4.639   4.928  0.8267 -0.2113 -1.7382
 1748SOL    HW216881   2.372   4.698   4.804 -0.7652  1.1039  0.0347
 1749SOL     OW16882   0.245   3.110   2.184  0.2018  0.6337 -0.3125
 1749SOL    HW116883   0.337   3.127   2.164  0.5878  0.7788  1.6132
 1749SOL    HW216884   0.196   3.125   2.103  2.0873  0.9021 -1.4052
 1750SOL     OW16885   2.087   1.473   2.919 -0.1558  0.2781  0.6746
 1750SOL    HW116886   2.104   1.523   2.839  0.7202  0.7768  1.1731
 1750SOL    HW216887   2.064   1.537   2.986  0.6441  0.3500  0.8806
 1751SOL     OW16888   1.805   2.553   9.711  0.1442  0.0187 -0.6453
 1751SOL    HW116889   1.722   2.542   9.664  0.2515 -0.0051 -0.8286
 1751SOL    HW216890   1.867   2.560   9.639  0.6743 -2.3934 -0.4168
 1752SOL     OW16891   2.329   0.344   8.929  0.0232  0.0853  0.0338
 1752SOL    HW116892   2.414   0.324   8.891 -0.9632  0.6979 -2.4789
 1752SOL    HW216893   2.335   0.292   9.010  4.3664  1.6343  0.7065
 1753SOL     OW16894   1.206   0.017   3.316 -0.0208  0.3593  0.0859
 1753SOL    HW116895   1.131   0.045   3.265  0.2677 -0.0370 -0.5651
 1753SOL    HW216896   1.195   0.036   3.409  1.1821 -1.0396  0.5247
 1754SOL     OW16897   1.620   0.101  13.197 -0.6023  0.0724  0.1349
 1754SOL    HW116898   1.662   0.142  13.121 -0.6980  1.1541  0.6571
 1754SOL    HW216899   1.697   0.072  13.245 -0.8501 -0.2791  0.3208
 1755SOL     OW16900   1.237   4.620   5.269 -0.0908 -0.3711  0.1849
 1755SOL    HW116901   1.287   4.624   5.188  0.8188 -1.0999  0.7046
 1755SOL    HW216902   1.214   4.712   5.280 -0.4279 -0.3942 -0.3258
 1756SOL     OW16903   3.950   4.283   6.277 -0.1047  0.1861  0.0366
 1756SOL    HW116904   4.034   4.329   6.273 -0.5067  0.7541 -2.0519
 1756SOL    HW216905   3.891   4.338   6.330 -0.3495 -0.0900  0.0480
 1757SOL     OW16906   2.760   3.873   3.077  0.3157 -0.2569 -0.7284
 1757SOL    HW116907   2.759   3.961   3.114  1.7007 -0.3001 -0.6062
 1757SOL    HW216908   2.786   3.828   3.157 -0.6750 -1.2499 -0.9613
 1758SOL     OW16909   3.109   3.708  14.508  0.9787  0.0014  0.1558
 1758SOL    HW116910   3.024   3.667  14.522  1.3070 -0.3727  1.0953
 1758SOL    HW216911   3.078   3.786  14.463  0.1207  0.3535  1.3469
 1759SOL     OW16912   1.946   2.964   0.153  0.0502  0.3603 -0.2605
 1759SOL    HW116913   2.005   2.931   0.221  0.3185 -1.4447 -1.3800
 1759SOL    HW216914   1.970   2.927   0.068 -0.1076 -1.4101  0.4636
 1760SOL     OW16915   1.731   2.069  12.112  0.1891  0.0913  0.0466
 1760SOL    HW116916   1.738   2.074  12.017  1.5098  0.8682  0.1794
 1760SOL    HW216917   1.762   1.979  12.124 -0.8618 -0.2832 -0.0644
 1761SOL     OW16918   2.241   3.194  11.872 -0.9813  0.2978 -0.1311
 1761SOL    HW116919   2.206   3.260  11.932 -1.4740  1.0550 -1.2459
 1761SOL    HW216920   2.328   3.185  11.911 -0.2458  1.8005 -1.4052
 1762SOL     OW16921   1.443   2.523  11.710 -0.1354 -0.5753  0.2694
 1762SOL    HW116922   1.404   2.442  11.676  0.7028 -1.3864  1.2207
 1762SOL    HW216923   1.535   2.500  11.721 -0.0339  0.1016  0.8451
 1763SOL     OW16924   0.372   0.276   6.586 -0.3082 -0.4887  0.7680
 1763SOL    HW116925   0.324   0.243   6.662 -0.8823 -0.4661  0.4197
 1763SOL    HW216926   0.316   0.354   6.580 -0.4007 -0.7725 -2.3164
 1764SOL     OW16927   0.431   2.413   7.679 -0.3386  0.2896  0.6012
 1764SOL    HW116928   0.387   2.419   7.763 -2.1092  0.4274 -0.3448
 1764SOL    HW216929   0.483   2.332   7.685 -1.2755 -0.3179  0.5810
 1765SOL     OW16930   0.613   4.433  16.322  0.5324  0.0014 -0.2083
 1765SOL    HW116931   0.625   4.338  16.333  0.2333  0.4385  3.8302
 1765SOL    HW216932   0.562   4.442  16.242  0.2979 -0.3320 -0.0967
 1766SOL     OW16933   2.192   4.045   1.231 -0.1133  0.0143 -0.9441
 1766SOL    HW116934   2.166   3.961   1.270 -0.4415  0.7915  0.5256
 1766SOL    HW216935   2.263   4.067   1.291 -2.1140  0.6304  1.1674
 1767SOL     OW16936   0.981   1.168   7.559  0.7135 -0.2480 -0.0873
 1767SOL    HW116937   0.950   1.224   7.630  0.9407  2.5229 -2.2039
 1767SOL    HW216938   0.899   1.123   7.535  0.1754  0.4524  0.4417
 1768SOL     OW16939   3.959   2.051   2.309 -0.6220  0.1216  0.0809
 1768SOL    HW116940   4.037   2.010   2.348  1.0114  3.0147 -0.0838
 1768SOL    HW216941   4.009   2.075   2.230 -0.0743 -0.9220  0.1048
 1769SOL     OW16942   3.670   2.756   7.599  0.1277  0.0763  0.3071
 1769SOL    HW116943   3.604   2.825   7.592  0.3448  0.0367 -2.3906
 1769SOL    HW216944   3.714   2.789   7.677 -0.2535 -1.4834  1.1937
 1770SOL     OW16945   3.956   1.742   9.345 -0.3128  0.5123  0.1666
 1770SOL    HW116946   3.986   1.803   9.278  1.6089  1.2712  1.7147
 1770SOL    HW216947   4.025   1.731   9.411  0.3154  2.3547 -0.1838
 1771SOL     OW16948   4.693   1.341   2.421  0.0532 -0.7087  0.1804
 1771SOL    HW116949   4.735   1.277   2.364 -0.8609  0.3719 -1.6879
 1771SOL    HW216950   4.606   1.341   2.381  0.4424  1.4270 -0.6693
 1772SOL     OW16951   4.258   2.934   4.474 -0.5038  0.4108 -0.2866
 1772SOL    HW116952   4.241   2.894   4.559 -1.6181 -1.1260 -1.2351
 1772SOL    HW216953   4.228   3.024   4.490  0.8083  0.5763  1.2356
 1773SOL     OW16954   1.099   0.964   4.510  0.0589  0.4732 -0.0536
 1773SOL    HW116955   1.009   0.990   4.531  0.6817  1.0291  1.9635
 1773SOL    HW216956   1.138   1.042   4.551 -0.0223  0.8710 -0.7465
 1774SOL     OW16957   2.583   0.261   8.887 -0.4397 -0.5014 -0.0921
 1774SOL    HW116958   2.659   0.293   8.935 -2.1749 -1.5533  3.3364
 1774SOL    HW216959   2.638   0.247   8.810  1.9497 -0.1289  1.5731
 1775SOL     OW16960   4.643   3.896   8.006  0.0406 -0.3653 -0.1943
 1775SOL    HW116961   4.676   3.919   7.919 -0.0433 -0.3666 -0.2263
 1775SOL    HW216962   4.691   3.964   8.053 -0.6414 -1.2642  1.8129
 1776SOL     OW16963   0.829   3.852   5.106 -0.3509 -0.3372 -0.0596
 1776SOL    HW116964   0.747   3.833   5.153  0.7149 -1.3804  1.3869
 1776SOL    HW216965   0.805   3.942   5.085  0.0539 -0.4538 -1.0199
 1777SOL     OW16966   0.900   3.953   1.894  0.5412 -0.2979  0.8340
 1777SOL    HW116967   0.825   3.939   1.952 -0.5819 -1.3861 -0.9035
 1777SOL    HW216968   0.955   3.880   1.920 -0.7183 -2.7223 -3.3102
 1778SOL     OW16969   3.047   3.702  11.229 -0.4846  0.0626 -0.1544
 1778SOL    HW116970   3.101   3.634  11.188 -1.9863 -0.6069 -1.0022
 1778SOL    HW216971   2.964   3.656  11.239 -1.2518  2.0984  2.8392
 1779SOL     OW16972   0.406   3.609   6.659 -0.4014  0.0291  0.3510
 1779SOL    HW116973   0.442   3.548   6.595  1.5831  1.5291  0.0222
 1779SOL    HW216974   0.473   3.663   6.702 -0.8839  0.3194  0.7353
 1780SOL     OW16975   4.635   2.770   9.851 -0.2114  0.2890 -0.3431
 1780SOL    HW116976   4.656   2.684   9.888  1.0540  0.8053  0.1399
 1780SOL    HW216977   4.669   2.828   9.920 -0.5528 -0.8590  0.8013
 1781SOL     OW16978   3.594   0.419   2.643  0.2436  0.2988 -0.8912
 1781SOL    HW116979   3.644   0.338   2.634 -1.6008 -0.8957 -0.2121
 1781SOL    HW216980   3.517   0.396   2.695  1.3525 -0.4984  0.3971
 1782SOL     OW16981   4.348   0.216   8.597  0.5019  0.5227  0.2244
 1782SOL    HW116982   4.383   0.131   8.573  0.2288  0.5534 -0.2856
 1782SOL    HW216983   4.279   0.236   8.534 -0.0875 -0.8859  0.4176
 1783SOL     OW16984   4.518   0.433  10.578 -0.3590 -0.1464 -0.8456
 1783SOL    HW116985   4.567   0.421  10.496 -1.8515 -0.7740 -1.6480
 1783SOL    HW216986   4.440   0.474  10.541  0.1324 -0.0069 -1.7353
 1784SOL     OW16987   2.869   0.619  10.028 -0.3648  0.8034  0.3077
 1784SOL    HW116988   2.881   0.557   9.957  0.6948  1.0477  0.2657
 1784SOL    HW216989   2.870   0.565  10.107  0.5664 -0.5905 -0.6782
 1785SOL     OW16990   2.590   2.974   5.074  0.6715  0.0131 -0.3039
 1785SOL    HW116991   2.625   2.896   5.117 -1.6051  0.1893  1.8547
 1785SOL    HW216992   2.561   3.017   5.155  3.2584  1.7148 -0.2949
 1786SOL     OW16993   2.738   2.864   0.351 -0.1382 -0.3432 -0.3734
 1786SOL    HW116994   2.685   2.883   0.274 -2.7105  1.8184  1.9302
 1786SOL    HW216995   2.823   2.897   0.321  0.0857  0.4239  1.0676
 1787SOL     OW16996   4.181   3.450   8.241 -0.5348  0.1447 -0.4805
 1787SOL    HW116997   4.239   3.467   8.167  0.2000 -1.2683 -0.2432
 1787SOL    HW216998   4.169   3.538   8.276  0.0859  0.0163  0.0580
 1788SOL     OW16999   0.584   4.243  15.165 -0.0836 -0.4939 -0.0725
 1788SOL    HW117000   0.611   4.155  15.189  0.8028 -0.2494 -0.1546
 1788SOL    HW217001   0.489   4.254  15.167 -0.1350 -0.6409 -1.2824
 1789SOL     OW17002   4.369   3.194   8.780 -0.1536  0.4037 -0.5787
 1789SOL    HW117003   4.437   3.130   8.759 -1.6920 -0.7483 -2.0384
 1789SOL    HW217004   4.292   3.138   8.775  0.1729 -0.1625  0.9068
 1790SOL     OW17005   0.774   2.452   8.680 -0.3187  0.4194  0.3620
 1790SOL    HW117006   0.731   2.473   8.597  1.7496 -0.0348 -0.8187
 1790SOL    HW217007   0.855   2.499   8.664  0.6711 -1.0369  1.1152
 1791SOL     OW17008   4.633   2.792   6.226 -0.4076 -0.0636  0.0470
 1791SOL    HW117009   4.543   2.797   6.193 -0.6767  0.9416  0.9333
 1791SOL    HW217010   4.634   2.878   6.267  2.0639  0.2971 -0.7718
 1792SOL     OW17011   0.927   1.363   6.426 -0.1905 -0.0920 -0.5631
 1792SOL    HW117012   0.845   1.349   6.379 -0.5078  1.0458 -0.3357
 1792SOL    HW217013   0.898   1.393   6.511 -2.2077 -1.3316 -0.8047
 1793SOL     OW17014   2.436   1.951   8.478 -0.0146 -0.2713 -0.4652
 1793SOL    HW117015   2.491   1.898   8.535  0.1655  0.5104  0.0888
 1793SOL    HW217016   2.473   2.039   8.484  0.3778 -0.6692  2.6321
 1794SOL     OW17017   3.417   1.034   1.250  0.6822 -0.0214  0.0881
 1794SOL    HW117018   3.458   1.025   1.164  0.5239 -0.4763  0.0613
 1794SOL    HW217019   3.481   1.086   1.298 -0.1031  0.7341  0.3053
 1795SOL     OW17020   1.386   3.842  15.312 -0.0609 -0.1896 -0.5162
 1795SOL    HW117021   1.375   3.747  15.308  0.8638 -0.3767  1.3916
 1795SOL    HW217022   1.408   3.875  15.226 -0.7877 -1.5980 -1.2534
 1796SOL     OW17023   0.076   2.673   6.811  0.0154 -0.2729 -0.0047
 1796SOL    HW117024   0.118   2.587   6.813 -1.9573 -1.2491 -0.9110
 1796SOL    HW217025   4.736   2.662   6.760  0.9300 -0.7476 -1.3362
 1797SOL     OW17026   1.323   4.482   8.452 -0.3617 -0.4035 -0.2985
 1797SOL    HW117027   1.394   4.453   8.510 -1.3063 -3.0637 -0.4878
 1797SOL    HW217028   1.378   4.520   8.384 -2.9465  0.4285 -1.9260
 1798SOL     OW17029   1.727   0.377   9.948 -0.0390 -0.6386  0.0756
 1798SOL    HW117030   1.760   0.443   9.886 -0.0748  0.2674  1.0186
 1798SOL    HW217031   1.731   0.296   9.898 -3.1311 -1.9666  2.0472
 1799SOL     OW17032   2.686   4.282   0.517 -0.4436 -0.3915 -0.1096
 1799SOL    HW117033   2.635   4.201   0.517 -0.9292 -0.0809  3.1576
 1799SOL    HW217034   2.757   4.266   0.579  1.2414 -0.0933 -1.9848
 1800SOL     OW17035   2.762   0.152   2.291 -0.1277  0.3869  0.3951
 1800SOL    HW117036   2.737   0.233   2.247  1.2453 -0.4315 -1.8846
 1800SOL    HW217037   2.856   0.149   2.275  0.2972 -1.2012  3.2467
 1801SOL     OW17038   0.523   3.933   6.292  0.0273 -0.2864 -0.2562
 1801SOL    HW117039   0.472   3.885   6.356  1.3060 -1.0059  0.2194
 1801SOL    HW217040   0.609   3.897   6.314 -0.1592 -0.9981 -0.6916
 1802SOL     OW17041   0.366   0.727   1.032  0.3547 -0.7190 -0.5253
 1802SOL    HW117042   0.429   0.676   1.082 -0.3657  0.1242  1.2478
 1802SOL    HW217043   0.398   0.817   1.044 -0.3958 -0.4598 -0.4625
 1803SOL     OW17044   1.016   2.632   1.332  0.4774  0.4787 -0.3687
 1803SOL    HW117045   1.059   2.717   1.323 -2.3675  2.0612  1.0336
 1803SOL    HW217046   0.924   2.655   1.347  0.2383 -1.3187  0.8319
 1804SOL     OW17047   2.879   2.627  14.059 -0.3165  0.2180  0.1633
 1804SOL    HW117048   2.836   2.658  13.979 -1.1155 -0.7460  0.2028
 1804SOL    HW217049   2.824   2.665  14.127 -2.8229  0.2766 -1.8946
 1805SOL     OW17050   4.250   4.115   0.557 -0.6356  0.2958  0.5738
 1805SOL    HW117051   4.257   4.080   0.646 -1.6154  1.1403  0.9811
 1805SOL    HW217052   4.314   4.185   0.568 -0.5348  0.3409 -0.3122
 1806SOL     OW17053   3.917   1.421   4.150 -0.2317 -0.0203  0.0508
 1806SOL    HW117054   3.898   1.335   4.186  1.4403 -0.9078 -1.1879
 1806SOL    HW217055   3.899   1.486   4.218 -1.1787 -0.8057  0.5561
 1807SOL     OW17056   1.765   2.736   7.153  0.5784  0.2044  0.0681
 1807SOL    HW117057   1.853   2.761   7.125  1.1258 -0.9577  0.7748
 1807SOL    HW217058   1.713   2.815   7.138  1.2684  0.9902  1.7701
 1808SOL     OW17059   0.732   0.862   9.162  0.3179  0.3386 -0.1721
 1808SOL    HW117060   0.765   0.952   9.169  2.8998 -0.7151  1.3977
 1808SOL    HW217061   0.725   0.838   9.255 -1.0754 -1.2539 -0.6975
 1809SOL     OW17062   4.370   1.005   6.185  0.0506  0.1949  0.5506
 1809SOL    HW117063   4.412   0.921   6.205 -0.6686 -0.0746  0.9469
 1809SOL    HW217064   4.445   1.064   6.185  0.1380  0.0845 -0.7261
 1810SOL     OW17065   4.440   3.552  14.706  0.4802  0.1373  0.5532
 1810SOL    HW117066   4.533   3.547  14.683  0.6252  1.5319  0.8274
 1810SOL    HW217067   4.394   3.489  14.650  1.2612 -0.0784  0.1518
 1811SOL     OW17068   4.107   0.495  13.465 -0.3654 -0.3538 -0.1702
 1811SOL    HW117069   4.024   0.484  13.418  1.9346 -0.8269 -4.0623
 1811SOL    HW217070   4.147   0.573  13.427 -0.4975 -0.4631 -0.5321
 1812SOL     OW17071   1.480   3.102  16.717  0.6317 -0.3799  0.4132
 1812SOL    HW117072   1.556   3.117  16.773 -0.1729 -0.7586  1.5956
 1812SOL    HW217073   1.481   3.008  16.701 -2.4196 -0.5718  1.3404
 1813SOL     OW17074   1.190   4.160   4.154 -0.4927 -0.7361  0.3970
 1813SOL    HW117075   1.099   4.188   4.151 -0.0555  0.8314  1.6048
 1813SOL    HW217076   1.192   4.108   4.234  1.1607 -1.6042 -0.2113
 1814SOL     OW17077   4.613   1.575   7.058  0.2051  0.1978 -0.5016
 1814SOL    HW117078   4.563   1.657   7.052 -1.0374 -0.6784 -1.9144
 1814SOL    HW217079   4.583   1.535   7.140  0.1073  1.4159  0.0627
 1815SOL     OW17080   0.719   4.489   5.764 -0.2471  0.7144 -0.5283
 1815SOL    HW117081   0.716   4.584   5.771  0.9259  0.8337 -1.5061
 1815SOL    HW217082   0.674   4.464   5.844  1.6944 -2.6833 -0.4985
 1816SOL     OW17083   3.203   2.128  13.424  0.1870 -0.2343  0.4360
 1816SOL    HW117084   3.273   2.182  13.388 -2.2487  1.6194 -1.5176
 1816SOL    HW217085   3.227   2.145  13.515  1.7423  0.7657 -0.1533
 1817SOL     OW17086   0.830   4.632   7.833 -0.1991 -0.7644  0.3636
 1817SOL    HW117087   0.834   4.540   7.858  1.8973  0.0106  2.8929
 1817SOL    HW217088   0.896   4.634   7.764 -1.2437  0.6951 -0.6153
 1818SOL     OW17089   0.342   1.043   9.020  0.1306  0.2241 -0.5142
 1818SOL    HW117090   0.270   1.049   8.957 -1.9289  1.3569  1.9126
 1818SOL    HW217091   0.400   0.986   8.970  0.7662  0.0593  0.4040
 1819SOL     OW17092   3.020   2.550   5.433 -0.0556 -0.2396 -0.1789
 1819SOL    HW117093   3.112   2.534   5.411 -0.2056 -1.5620  0.1984
 1819SOL    HW217094   2.995   2.459   5.450  2.1936 -0.3701  2.4165
 1820SOL     OW17095   1.429   4.121   8.429  0.5340  0.0498  0.6030
 1820SOL    HW117096   1.433   4.156   8.340  1.0948  1.1356  1.0583
 1820SOL    HW217097   1.336   4.101   8.440  0.4723 -0.4018 -0.7749
 1821SOL     OW17098   2.391   0.624   5.950  0.5121  0.2130 -0.6092
 1821SOL    HW117099   2.320   0.656   5.893 -2.2078 -1.5392  1.8029
 1821SOL    HW217100   2.449   0.598   5.879  2.4701 -1.2896  1.5713
 1822SOL     OW17101   1.155   2.488  14.143  0.8949 -0.9441  0.3164
 1822SOL    HW117102   1.226   2.495  14.079 -1.0608  0.2787 -1.7084
 1822SOL    HW217103   1.086   2.453  14.086 -0.2046  0.6345  0.6806
 1823SOL     OW17104   0.123   1.611   6.767  0.3492  0.6417 -0.2747
 1823SOL    HW117105   0.205   1.657   6.783 -0.8307  2.7885 -0.3650
 1823SOL    HW217106   0.137   1.528   6.811 -2.8601  0.6884  0.8393
 1824SOL     OW17107   2.521   3.869   6.412  0.0745  0.3167 -0.4514
 1824SOL    HW117108   2.489   3.788   6.453 -1.5661  1.7913  1.1968
 1824SOL    HW217109   2.613   3.861   6.437 -0.0180 -3.3155 -1.3164
 1825SOL     OW17110   0.789   1.089  16.482 -0.2429 -0.2670 -0.2737
 1825SOL    HW117111   0.842   1.014  16.453 -1.1041 -0.9811 -0.0107
 1825SOL    HW217112   0.760   1.129  16.400  1.2710 -0.2560 -0.7967
 1826SOL     OW17113   1.010   0.443   4.726  0.1979 -1.0325  0.0903
 1826SOL    HW117114   0.930   0.391   4.730  0.0893 -0.7117  1.9497
 1826SOL    HW217115   1.012   0.479   4.814 -0.0224 -1.3892  0.2428
 1827SOL     OW17116   1.371   2.323   6.398 -0.3367  0.1922  0.2037
 1827SOL    HW117117   1.396   2.287   6.483  2.7246 -0.3538 -0.9521
 1827SOL    HW217118   1.448   2.372   6.372  0.2746 -1.3945 -0.9913
 1828SOL     OW17119   3.502   3.730   1.636  0.1598 -0.3426 -0.0952
 1828SOL    HW117120   3.412   3.710   1.663 -0.4046 -0.6073 -2.1370
 1828SOL    HW217121   3.551   3.658   1.675 -0.7943 -1.1588 -0.4094
 1829SOL     OW17122   3.055   2.041   1.740 -0.1357  0.6945 -0.3118
 1829SOL    HW117123   3.137   2.050   1.789  1.0368  0.3716 -2.1906
 1829SOL    HW217124   3.016   2.129   1.746 -0.9971  0.2258  0.8402
 1830SOL     OW17125   4.519   0.114  11.720  0.3651  0.2194  0.0987
 1830SOL    HW117126   4.477   0.031  11.743  0.9251  0.2524  1.2349
 1830SOL    HW217127   4.475   0.141  11.639 -0.5819 -2.9670 -0.4833
 1831SOL     OW17128   3.327   0.940  11.687  0.3054  0.1348  0.3684
 1831SOL    HW117129   3.280   0.950  11.603  2.8304  1.6005 -0.8803
 1831SOL    HW217130   3.346   0.847  11.687  1.6699  0.4167  0.8014
 1832SOL     OW17131   0.301   2.835   3.149  0.1174  0.5231 -0.7642
 1832SOL    HW117132   0.288   2.757   3.095  0.9442  1.5850 -2.4994
 1832SOL    HW217133   0.320   2.805   3.238  2.4335  1.6258 -0.9015
 1833SOL     OW17134   3.795   1.474   7.928 -0.4666  0.0732 -0.2158
 1833SOL    HW117135   3.799   1.445   7.837 -0.0007 -1.5850  0.3275
 1833SOL    HW217136   3.729   1.420   7.971 -1.3510  2.7387  1.7338
 1834SOL     OW17137   2.169   0.172   8.215  0.1967 -0.3087 -0.1068
 1834SOL    HW117138   2.109   0.217   8.157 -1.8017 -1.9189  0.7292
 1834SOL    HW217139   2.145   0.080   8.203 -0.1270 -0.4627  1.6245
 1835SOL     OW17140   0.838   1.031   2.111 -0.1037 -0.0052  0.0867
 1835SOL    HW117141   0.817   1.096   2.179 -0.3066  0.7353 -0.6781
 1835SOL    HW217142   0.827   0.951   2.162 -0.1502  0.1521  0.3289
 1836SOL     OW17143   0.040   0.138  14.753 -0.1524  0.2976  0.6906
 1836SOL    HW117144   0.042   0.233  14.761 -1.0059  0.0908  3.3560
 1836SOL    HW217145   4.706   0.118  14.695 -0.2704 -0.1054  0.9793
 1837SOL     OW17146   0.588   2.519   2.171  0.1028 -0.1857  0.7485
 1837SOL    HW117147   0.617   2.547   2.084  0.2523  0.3931  0.9881
 1837SOL    HW217148   0.534   2.595   2.192  1.1068  0.2553  1.7527
 1838SOL     OW17149   4.296   1.434  11.530 -0.2258  0.4472  0.2726
 1838SOL    HW117150   4.335   1.367  11.587 -2.5853 -0.8672  0.3427
 1838SOL    HW217151   4.272   1.507  11.587 -2.3871 -0.2682  0.2610
 1839SOL     OW17152   4.429   3.184   1.447 -0.1458 -0.5571 -0.2888
 1839SOL    HW117153   4.400   3.214   1.360  1.9387 -1.3700 -1.2507
 1839SOL    HW217154   4.362   3.227   1.500  2.2787  1.3940  1.1916
 1840SOL     OW17155   1.193   0.517   1.316 -0.6300 -0.3252 -0.3314
 1840SOL    HW117156   1.118   0.473   1.356 -0.6401  0.2359  0.2652
 1840SOL    HW217157   1.175   0.526   1.223  1.2968 -1.2518 -0.8063
 1841SOL     OW17158   0.690   1.988   9.548 -0.1650  0.1461  0.8688
 1841SOL    HW117159   0.598   1.960   9.556  0.0116 -0.6182  0.1379
 1841SOL    HW217160   0.695   2.083   9.551  0.8508  0.1516 -1.4008
 1842SOL     OW17161   0.087   2.377   9.432 -0.0618  0.3639 -0.2690
 1842SOL    HW117162   0.084   2.337   9.519  2.3733  1.8776  0.5323
 1842SOL    HW217163   0.176   2.413   9.427  1.0318 -2.3787 -0.4476
 1843SOL     OW17164   1.826   0.296   6.939  0.8379  0.5432 -0.3017
 1843SOL    HW117165   1.795   0.372   6.889 -1.1175  0.0794  0.2232
 1843SOL    HW217166   1.745   0.255   6.967  0.9870  1.1579  1.0212
 1844SOL     OW17167   2.559   0.155   8.391  0.3665 -0.2761  0.0836
 1844SOL    HW117168   2.499   0.083   8.414  0.1452 -0.6024 -1.4980
 1844SOL    HW217169   2.632   0.103   8.356  1.2628 -0.8542  2.8424
 1845SOL     OW17170   0.945   4.076   2.853  0.3121 -0.7023  0.1890
 1845SOL    HW117171   0.990   4.153   2.888  1.4447 -1.1432 -0.2958
 1845SOL    HW217172   1.010   4.035   2.796  0.7815  1.6286 -0.9486
 1846SOL     OW17173   4.665   4.202   5.039 -0.1631  0.0011  0.1546
 1846SOL    HW117174   4.732   4.142   5.070 -0.0986  0.2966  0.5937
 1846SOL    HW217175   4.680   4.206   4.945 -2.3205 -3.5307 -0.3446
 1847SOL     OW17176   3.070   1.597   6.357 -0.1755 -0.4324 -0.0372
 1847SOL    HW117177   3.038   1.548   6.281  0.2940 -0.9358  0.0938
 1847SOL    HW217178   3.039   1.686   6.339 -0.3899  0.2175  3.5416
 1848SOL     OW17179   1.334   4.252  12.018  0.0905 -0.2652  0.1224
 1848SOL    HW117180   1.426   4.278  12.012 -0.4786  1.2482 -2.1333
 1848SOL    HW217181   1.305   4.338  12.049  2.8185  0.5849  0.3117
 1849SOL     OW17182   3.513   0.316   5.670  0.3732  0.5407  0.2709
 1849SOL    HW117183   3.593   0.360   5.642  1.3832 -1.0034  0.7487
 1849SOL    HW217184   3.540   0.265   5.747 -0.7335  0.2294  0.4558
 1850SOL     OW17185   0.039   1.736   7.590  0.0510 -0.7901 -0.2556
 1850SOL    HW117186   4.726   1.656   7.591 -2.8898  1.1438  2.2006
 1850SOL    HW217187   4.719   1.810   7.602 -1.4335 -1.8524 -1.0892
 1851SOL     OW17188   4.358   1.284  13.181  0.1816 -0.3483 -0.2711
 1851SOL    HW117189   4.376   1.232  13.103  0.2443 -1.8977  0.7631
 1851SOL    HW217190   4.358   1.367  13.134  2.4729 -0.0124  0.2857
 1852SOL     OW17191   2.676   0.183   5.727  0.2162 -0.2398  0.0486
 1852SOL    HW117192   2.729   0.259   5.702 -0.0162  0.3906  1.4403
 1852SOL    HW217193   2.669   0.192   5.822 -0.9327 -0.3924 -0.0217
 1853SOL     OW17194   3.919   3.364  13.918 -0.2706  0.3912 -0.6731
 1853SOL    HW117195   3.946   3.394  14.004  2.0940  0.8143 -1.5608
 1853SOL    HW217196   3.825   3.377  13.928  0.1337  0.7400  2.5633
 1854SOL     OW17197   1.231   1.861   5.514  0.0996 -0.0968 -0.3366
 1854SOL    HW117198   1.302   1.801   5.538  0.8004  0.8117 -0.1501
 1854SOL    HW217199   1.274   1.946   5.521  1.5248 -0.8928  0.5396
 1855SOL     OW17200   3.067   3.763   3.720  0.1439  0.0968 -0.3844
 1855SOL    HW117201   3.026   3.837   3.674 -0.0501  0.0970 -0.2082
 1855SOL    HW217202   3.161   3.771   3.700  0.2118  0.0273 -0.0903
 1856SOL     OW17203   4.527   0.847  16.088 -0.6279 -0.3366 -0.3923
 1856SOL    HW117204   4.481   0.884  16.012 -1.3979 -1.8983 -0.6948
 1856SOL    HW217205   4.571   0.921  16.129 -0.3492 -1.0514  0.5758
 1857SOL     OW17206   4.182   1.966   3.360  0.7483 -0.2877  0.3607
 1857SOL    HW117207   4.154   1.896   3.419 -3.8636  0.7546 -0.5967
 1857SOL    HW217208   4.272   1.980   3.390 -0.0347  1.0635  2.0585
 1858SOL     OW17209   0.107   0.780   4.224  0.5359  0.2755  0.0501
 1858SOL    HW117210   0.129   0.870   4.202 -0.2854  0.4275 -0.1663
 1858SOL    HW217211   0.120   0.721   4.150  1.2694  0.6632 -0.1313
 1859SOL     OW17212   4.630   1.296  10.444  0.1249 -0.0889  1.0211
 1859SOL    HW117213   4.661   1.230  10.382 -1.8260 -1.0714  1.1025
 1859SOL    HW217214   4.668   1.273  10.528 -2.4556  5.0192  3.5963
 1860SOL     OW17215   0.699   1.231   3.280 -0.1373  0.5199  0.3763
 1860SOL    HW117216   0.735   1.307   3.234  1.5713 -0.0402  0.7668
 1860SOL    HW217217   0.644   1.261   3.352  1.7582  2.5437  0.9892
 1861SOL     OW17218   0.880   2.908   5.761 -0.0119 -0.2970 -0.8902
 1861SOL    HW117219   0.902   3.001   5.755  1.8441 -0.7586 -1.1197
 1861SOL    HW217220   0.818   2.900   5.688 -1.5427  1.2467  0.2428
 1862SOL     OW17221   0.868   0.909   8.613  0.3704 -0.5404  0.0822
 1862SOL    HW117222   0.884   0.938   8.523 -0.0956 -0.8184 -0.0916
 1862SOL    HW217223   0.817   0.828   8.602 -0.2452 -0.1539  0.1286
 1863SOL     OW17224   1.640   3.730   3.427  0.4637 -0.1240 -0.0714
 1863SOL    HW117225   1.605   3.652   3.470  1.5437 -0.2317  0.6281
 1863SOL    HW217226   1.622   3.712   3.335 -0.2711  0.7238 -0.0863
 1864SOL     OW17227   0.822   2.529   5.949  0.3841  0.2220  0.6174
 1864SOL    HW117228   0.905   2.566   5.919  0.2104 -2.2583 -3.0591
 1864SOL    HW217229   0.834   2.439   5.918  1.7867 -0.3072  2.7051
 1865SOL     OW17230   4.491   0.313   6.210 -0.8745  0.1561  0.3155
 1865SOL    HW117231   4.543   0.240   6.243  0.3180  2.2655  3.0561
 1865SOL    HW217232   4.558   0.366   6.166 -0.5002  1.0364  1.9616
 1866SOL     OW17233   3.165   4.265   0.896 -0.2126 -0.3345  0.1054
 1866SOL    HW117234   3.243   4.276   0.841  0.5924 -0.8757  1.1231
 1866SOL    HW217235   3.118   4.341   0.863  0.7498 -0.0052 -0.5246
 1867SOL     OW17236   0.393   4.499   2.776  0.3947 -0.0614 -0.1973
 1867SOL    HW117237   0.471   4.450   2.751  0.0559 -1.2476  1.0399
 1867SOL    HW217238   0.355   4.516   2.690  1.4652  0.3749 -0.5830
 1868SOL     OW17239   0.921   0.292   6.267  0.8610  0.4569 -0.4383
 1868SOL    HW117240   0.914   0.388   6.268  0.8971  0.4688 -1.9197
 1868SOL    HW217241   0.903   0.267   6.177  1.6099 -0.4809 -0.3250
 1869SOL     OW17242   1.328   4.282   8.875  0.5907  0.3293 -0.6808
 1869SOL    HW117243   1.342   4.367   8.917 -1.8786 -0.7722  2.4122
 1869SOL    HW217244   1.405   4.275   8.820 -0.9131 -2.3187 -2.4367
 1870SOL     OW17245   4.556   0.898   9.654  0.2626  0.4739 -0.0631
 1870SOL    HW117246   4.646   0.914   9.682  0.6051 -2.9353  0.8151
 1870SOL    HW217247   4.540   0.817   9.703  0.1449 -0.8000 -2.2561
 1871SOL     OW17248   0.693   1.895   1.379  0.0487 -0.3592 -0.5197
 1871SOL    HW117249   0.756   1.940   1.323 -0.2025  1.6051  0.7904
 1871SOL    HW217250   0.735   1.810   1.368  1.5475  0.2383  0.6762
 1872SOL     OW17251   3.722   3.665   8.798 -0.2061 -0.0084 -0.6315
 1872SOL    HW117252   3.762   3.601   8.739 -0.7152 -0.0677 -0.9065
 1872SOL    HW217253   3.702   3.738   8.741  1.4047  1.2376  0.3961
 1873SOL     OW17254   0.120   2.077  10.100 -0.4265 -0.2399 -0.5543
 1873SOL    HW117255   0.057   2.045  10.035 -0.9181 -1.8254  0.6915
 1873SOL    HW217256   0.075   2.051  10.181 -1.1371  1.5850 -0.3748
 1874SOL     OW17257   1.910   4.116   3.640 -0.1207  0.1942 -0.3765
 1874SOL    HW117258   1.863   4.033   3.644  0.2338 -0.0433 -1.2805
 1874SOL    HW217259   1.928   4.112   3.546 -0.6532  0.9859 -0.5139
 1875SOL     OW17260   3.534   0.024   2.465  0.3213  0.4623 -0.0672
 1875SOL    HW117261   3.529   0.083   2.389  1.3914 -0.1255 -0.5983
 1875SOL    HW217262   3.626   0.006   2.447  0.3772  3.1655 -2.6087
 1876SOL     OW17263   0.748   4.731   1.833  0.1771  0.1207 -0.0576
 1876SOL    HW117264   0.700   0.005   1.915  0.0371 -1.5980  0.1430
 1876SOL    HW217265   0.834   0.032   1.845 -1.7102  2.7723  4.4870
 1877SOL     OW17266   3.973   3.489   3.165 -0.0232  0.3051 -0.1307
 1877SOL    HW117267   3.897   3.457   3.213 -0.8425  0.1869 -1.5036
 1877SOL    HW217268   3.979   3.580   3.194 -0.2840  0.6769 -1.2323
 1878SOL     OW17269   0.823   0.629   4.327 -0.5559 -0.4625 -0.3861
 1878SOL    HW117270   0.898   0.679   4.293 -0.6346 -0.0227  0.0862
 1878SOL    HW217271   0.859   0.542   4.313 -2.1303 -1.4179  1.5230
 1879SOL     OW17272   1.295   1.193  10.418  0.2000 -0.0822 -0.7960
 1879SOL    HW117273   1.234   1.126  10.387 -0.3491  0.6314 -1.2605
 1879SOL    HW217274   1.377   1.153  10.389  0.7483 -2.1884  3.7027
 1880SOL     OW17275   0.774   0.815   5.110  0.4272 -0.3603 -0.0442
 1880SOL    HW117276   0.701   0.865   5.146  1.1376  0.1407  0.6905
 1880SOL    HW217277   0.794   0.759   5.185 -1.5927 -2.7340 -1.2819
 1881SOL     OW17278   0.977   1.051   1.465 -0.3034  0.1909 -0.7065
 1881SOL    HW117279   0.977   0.957   1.481  1.4882  0.8094  2.8264
 1881SOL    HW217280   1.065   1.073   1.496  0.0772 -1.5644 -0.5465
 1882SOL     OW17281   1.710   4.733  11.167 -0.2805 -0.1618  0.0373
 1882SOL    HW117282   1.673   4.649  11.140  2.8264 -0.3937 -3.4517
 1882SOL    HW217283   1.637   0.056  11.165 -0.6787 -0.6714 -1.0985
 1883SOL     OW17284   4.229   0.888  10.917 -0.1376  0.3771  0.0763
 1883SOL    HW117285   4.247   0.857  11.005  1.6039 -0.9317 -0.7377
 1883SOL    HW217286   4.241   0.811  10.860 -3.1322  0.5900 -0.8228
 1884SOL     OW17287   4.310   2.621  16.650  0.4805 -0.1084 -0.0244
 1884SOL    HW117288   4.254   2.676  16.705  0.2737  0.8416 -1.1681
 1884SOL    HW217289   4.351   2.694  16.603  0.1230 -0.0235 -0.2063
 1885SOL     OW17290   1.137   3.546   2.135  0.4775  0.2246 -0.1896
 1885SOL    HW117291   1.164   3.522   2.047 -1.9256 -0.2384 -0.8002
 1885SOL    HW217292   1.201   3.615   2.151  0.2441  0.6408 -1.0737
 1886SOL     OW17293   3.373   3.003   6.230 -0.6962 -0.0119  0.0938
 1886SOL    HW117294   3.334   3.008   6.317  0.3616  0.0721  0.5716
 1886SOL    HW217295   3.433   3.077   6.219  1.3859 -1.3285  2.5882
 1887SOL     OW17296   4.658   4.497   5.071 -0.1191  0.3801  0.1493
 1887SOL    HW117297   4.707   4.507   5.153 -0.9634 -2.0194  0.9338
 1887SOL    HW217298   4.674   4.405   5.052  0.8383  0.3048  1.3119
 1888SOL     OW17299   2.059   2.586  12.570 -0.9112 -0.5661  0.7670
 1888SOL    HW117300   2.145   2.561  12.536 -0.2047  0.0804  2.0748
 1888SOL    HW217301   2.069   2.679  12.591 -0.8200  0.0789 -2.1589
 1889SOL     OW17302   0.575   3.852   5.196  0.1298  0.1320  0.4841
 1889SOL    HW117303   0.551   3.780   5.253 -2.8744  0.2475 -0.6335
 1889SOL    HW217304   0.494   3.836   5.148 -0.4583 -0.6119  1.7306
 1890SOL     OW17305   4.144   4.575   1.807 -0.1052 -0.0181 -0.0128
 1890SOL    HW117306   4.134   4.668   1.786  1.2411 -0.1729 -1.3848
 1890SOL    HW217307   4.235   4.581   1.836 -0.9077  1.1902  2.2609
 1891SOL     OW17308   3.164   4.329   3.380 -0.5596 -0.5253 -0.3879
 1891SOL    HW117309   3.098   4.316   3.448 -0.1663 -2.6892 -0.4372
 1891SOL    HW217310   3.135   4.412   3.341 -1.6551  0.5272  2.6771
 1892SOL     OW17311   4.734   3.847   8.324 -0.1841  0.5373  0.1589
 1892SOL    HW117312   0.008   3.797   8.405 -1.7790  1.4852  1.0123
 1892SOL    HW217313   0.076   3.898   8.329  0.6773 -0.8548  0.2414
 1893SOL     OW17314   1.624   3.473   5.476  0.0645 -0.5113  0.3663
 1893SOL    HW117315   1.599   3.418   5.550  0.3962 -1.4990 -0.2628
 1893SOL    HW217316   1.645   3.555   5.521  1.4674  0.4086 -1.9741
 1894SOL     OW17317   3.418   1.982   3.993  0.0211  0.0302  0.0692
 1894SOL    HW117318   3.351   1.944   3.936  1.4629 -1.8736 -0.3606
 1894SOL    HW217319   3.499   1.952   3.950  0.9215  0.7252  1.2856
 1895SOL     OW17320   4.583   0.222   8.039  0.7125 -0.5132  0.0370
 1895SOL    HW117321   4.560   0.274   7.963  1.5981  1.8851  1.4166
 1895SOL    HW217322   4.552   0.138   8.006  0.3515 -0.3994  0.0835
 1896SOL     OW17323   0.455   0.911   8.565  0.6603  0.4336  0.5342
 1896SOL    HW117324   0.443   0.929   8.658 -0.1434 -1.2261  0.7609
 1896SOL    HW217325   0.505   0.984   8.529 -1.0965  1.1992 -0.3470
 1897SOL     OW17326   1.857   0.795   7.416  0.0537 -0.2012  0.0984
 1897SOL    HW117327   1.804   0.765   7.342  0.3343 -0.6314  0.0760
 1897SOL    HW217328   1.880   0.708   7.448  1.0277  0.2678  0.6960
 1898SOL     OW17329   3.451   0.300   4.049  0.2434  0.1903 -0.1015
 1898SOL    HW117330   3.490   0.214   4.064  1.2653  0.3563 -1.8657
 1898SOL    HW217331   3.511   0.334   3.983 -0.1971 -0.8674 -1.0367
 1899SOL     OW17332   4.463   0.842   4.498  0.2683  0.2271  0.2233
 1899SOL    HW117333   4.463   0.793   4.416  1.7334 -0.8366  0.8737
 1899SOL    HW217334   4.372   0.818   4.516  1.1468 -2.1074  1.4525
 1900SOL     OW17335   0.499   3.283  11.249  0.0703 -0.4840 -0.1772
 1900SOL    HW117336   0.591   3.258  11.252 -0.0380 -0.9007 -0.2784
 1900SOL    HW217337   0.444   3.206  11.232  0.8806 -1.1103  0.0131
 1901SOL     OW17338   3.892   3.961   1.548  0.1076  0.1988  0.1760
 1901SOL    HW117339   3.957   4.004   1.493  0.5997  1.0937  1.4533
 1901SOL    HW217340   3.835   3.920   1.483  1.1237 -0.9080 -0.0132
 1902SOL     OW17341   0.832   3.848   1.654 -0.7842  0.2231  0.2149
 1902SOL    HW117342   0.844   3.892   1.738  0.8333  1.6400 -0.7612
 1902SOL    HW217343   0.768   3.782   1.680  0.6483 -0.3660  2.2777
 1903SOL     OW17344   2.981   1.791   4.546 -0.0639  0.2836  0.0444
 1903SOL    HW117345   3.074   1.782   4.568  0.3058  2.8771 -0.4904
 1903SOL    HW217346   2.981   1.827   4.457  1.5022 -0.5970 -0.3068
 1904SOL     OW17347   2.690   1.334   7.088 -0.1894  0.5379 -0.2440
 1904SOL    HW117348   2.769   1.300   7.129  0.7651  4.3413  1.0551
 1904SOL    HW217349   2.725   1.418   7.056 -2.0308  0.9820 -1.1020
 1905SOL     OW17350   1.311   0.322   5.578  0.5610  0.1616  0.0571
 1905SOL    HW117351   1.401   0.354   5.575  0.4373  0.4444 -0.6867
 1905SOL    HW217352   1.265   0.406   5.586 -0.7629 -0.1821 -3.5009
 1906SOL     OW17353   0.047   0.537   4.053 -0.5032 -0.3738 -0.0236
 1906SOL    HW117354   0.029   0.571   3.965 -0.5904  0.4508  0.3114
 1906SOL    HW217355   0.036   0.442   4.045 -1.0920 -0.2765 -0.3382
 1907SOL     OW17356   0.421   0.597   3.700  0.4516  0.6069 -0.2416
 1907SOL    HW117357   0.349   0.535   3.695 -1.0312  2.4933 -2.2091
 1907SOL    HW217358   0.492   0.535   3.712 -0.1414 -0.2512 -1.2152
 1908SOL     OW17359   4.607   0.306  12.762  0.3477 -0.2273  0.8013
 1908SOL    HW117360   4.549   0.272  12.694 -0.3202 -0.4876  1.5076
 1908SOL    HW217361   4.574   0.260  12.839 -2.2151  1.5794  0.7783
 1909SOL     OW17362   0.246   0.386   0.019 -0.9897  0.0135  0.1195
 1909SOL    HW117363   0.334   0.350   0.024 -1.1216 -0.6659 -3.0310
 1909SOL    HW217364   0.221   0.376  17.684 -4.8253  1.1333  1.0460
 1910SOL     OW17365   2.540   2.254   4.861  0.0973  0.3730 -0.0895
 1910SOL    HW117366   2.602   2.285   4.795 -0.4544  1.8366  0.0721
 1910SOL    HW217367   2.573   2.165   4.872 -0.6354  0.1665  0.4805
 1911SOL     OW17368   2.762   4.619   5.699 -0.1420 -0.6837 -0.5231
 1911SOL    HW117369   2.723   4.580   5.777  1.1132 -2.4911 -0.7914
 1911SOL    HW217370   2.696   4.685   5.679 -0.9240 -1.1191  0.6570
 1912SOL     OW17371   1.354   3.156   6.511  0.1276  0.2404  0.0074
 1912SOL    HW117372   1.265   3.127   6.493 -0.4886  0.9655  1.9119
 1912SOL    HW217373   1.329   3.226   6.571  2.4258  1.4525 -0.4819
 1913SOL     OW17374   0.101   2.771   2.792  0.0883  0.7773 -0.4038
 1913SOL    HW117375   0.100   2.867   2.782  1.7281  1.0972  2.5663
 1913SOL    HW217376   0.006   2.763   2.783  0.0593  0.0343  0.6149
 1914SOL     OW17377   1.714   1.025   8.277  0.8908 -0.2985 -0.1321
 1914SOL    HW117378   1.790   1.050   8.328  0.2570 -0.4773  0.8943
 1914SOL    HW217379   1.732   0.933   8.256  0.0966 -0.2479 -1.0718
 1915SOL     OW17380   3.844   3.763   7.813 -0.4676 -0.0196 -0.6589
 1915SOL    HW117381   3.871   3.796   7.899  2.4966  1.4478 -2.1685
 1915SOL    HW217382   3.893   3.816   7.751 -0.2543 -1.9749 -2.1674
 1916SOL     OW17383   2.599   1.700  16.594  0.2414  0.1134  0.1954
 1916SOL    HW117384   2.523   1.693  16.536  1.9691 -1.0912 -1.9042
 1916SOL    HW217385   2.669   1.717  16.532 -0.3984  0.7084 -0.3641
 1917SOL     OW17386   4.385   1.565   8.579  0.0872  0.5420  0.1362
 1917SOL    HW117387   4.421   1.648   8.609  2.3762  0.4146 -2.2954
 1917SOL    HW217388   4.315   1.593   8.520  2.0991 -1.0633 -2.9822
 1918SOL     OW17389   0.087   2.393   5.471 -0.2327 -0.3973  0.9989
 1918SOL    HW117390   0.151   2.396   5.400 -1.4546 -2.1813 -0.1729
 1918SOL    HW217391   0.044   2.478   5.464  0.8910  0.0664 -0.1214
 1919SOL     OW17392   3.321   3.897   3.943 -0.0502 -0.3446 -0.1228
 1919SOL    HW117393   3.263   3.972   3.927  0.4309 -0.1893 -1.1777
 1919SOL    HW217394   3.389   3.905   3.876  1.6147 -1.9224  1.4164
 1920SOL     OW17395   2.373   1.194  13.366  0.3668 -0.6091  0.5174
 1920SOL    HW117396   2.427   1.138  13.422 -0.3339  0.4345  2.2296
 1920SOL    HW217397   2.407   1.167  13.280  0.8023 -1.5926  0.9974
 1921SOL     OW17398   3.693   1.941   5.416 -0.0168 -0.5188 -0.8388
 1921SOL    HW117399   3.769   1.913   5.366  0.4129  0.3585 -0.6816
 1921SOL    HW217400   3.669   2.023   5.373  0.3889  0.0674  0.0475
 1922SOL     OW17401   0.043   4.335   8.592  0.2159  0.1443 -0.1742
 1922SOL    HW117402   0.125   4.314   8.636  1.3133  1.3523 -1.6866
 1922SOL    HW217403   4.738   4.404   8.641  2.3846  1.7424 -0.4411
 1923SOL     OW17404   0.632   3.663   1.782 -0.0880 -0.3583  0.6300
 1923SOL    HW117405   0.632   3.650   1.877 -0.5875 -1.7542  0.4401
 1923SOL    HW217406   0.635   3.571   1.754 -0.2900  0.0827 -0.8091
 1924SOL     OW17407   1.542   0.705   5.130  0.2512 -0.2164 -0.0500
 1924SOL    HW117408   1.586   0.721   5.213  0.7604  2.1866 -0.7694
 1924SOL    HW217409   1.607   0.736   5.067 -1.1370  0.2984 -1.2296
 1925SOL     OW17410   2.157   1.256   2.653  0.1390 -0.4005  0.1699
 1925SOL    HW117411   2.062   1.259   2.642  0.2107 -1.1367 -0.6500
 1925SOL    HW217412   2.191   1.245   2.565 -1.3733 -1.0308 -0.3362
 1926SOL     OW17413   1.804   1.241   8.574  0.1661  0.1527  0.1360
 1926SOL    HW117414   1.891   1.243   8.533  0.1675  0.6421  0.1548
 1926SOL    HW217415   1.834   1.238   8.665  0.7206 -1.1448 -0.0975
 1927SOL     OW17416   3.368   2.110   7.840  0.0654  0.1930 -0.4181
 1927SOL    HW117417   3.434   2.074   7.899  0.9314  1.3662 -0.6955
 1927SOL    HW217418   3.414   2.129   7.759  0.1209  1.6494 -0.0417
 1928SOL     OW17419   2.676   0.245   3.714  0.1463  0.6170  0.1293
 1928SOL    HW117420   2.695   0.332   3.680  3.0514  0.5400  1.5916
 1928SOL    HW217421   2.669   0.257   3.809 -1.1286 -0.0169  0.1187
 1929SOL     OW17422   1.684   2.318   6.232 -0.1180 -0.1255  0.2538
 1929SOL    HW117423   1.756   2.274   6.278 -0.6318  0.0263  1.2124
 1929SOL    HW217424   1.647   2.242   6.188  1.8294 -1.5368  1.0546
 1930SOL     OW17425   3.232   2.489   2.353  0.8161  0.4378  0.0020
 1930SOL    HW117426   3.303   2.448   2.403 -0.1837 -1.4305 -0.1101
 1930SOL    HW217427   3.233   2.579   2.385 -2.9600  0.2063  0.7380
 1931SOL     OW17428   0.567   1.689  16.915  0.2843 -0.0969  0.0274
 1931SOL    HW117429   0.618   1.659  16.990  0.2106  1.5838  0.7715
 1931SOL    HW217430   0.487   1.637  16.916  1.5330 -2.0169  0.9215
 1932SOL     OW17431   1.459   0.732   0.818 -0.0273  0.6078  0.6134
 1932SOL    HW117432   1.406   0.693   0.748  1.1858  0.3770 -0.1659
 1932SOL    HW217433   1.493   0.815   0.785  1.4456 -0.1229  0.2865
 1933SOL     OW17434   3.755   0.187   3.407  0.5005 -0.2003  0.2102
 1933SOL    HW117435   3.846   0.195   3.380  0.0980  0.1347 -1.0798
 1933SOL    HW217436   3.736   0.117   3.344  1.3563 -1.2132  1.0759
 1934SOL     OW17437   2.262   3.207  17.108  0.4730 -0.4005  0.3383
 1934SOL    HW117438   2.270   3.121  17.067  0.8249  0.5754 -1.6778
 1934SOL    HW217439   2.188   3.173  17.157 -1.4594  1.3892 -1.3376
 1935SOL     OW17440   1.447   2.128  12.006  0.6452  0.1051 -0.0056
 1935SOL    HW117441   1.469   2.128  11.913 -0.1214 -1.9092 -0.1882
 1935SOL    HW217442   1.536   2.108  12.038 -0.4823 -0.6800  2.6566
 1936SOL     OW17443   4.426   0.452  13.478  0.3635  0.0609  0.7101
 1936SOL    HW117444   4.381   0.426  13.558 -1.8006  0.2983 -0.4506
 1936SOL    HW217445   4.387   0.383  13.426  0.2884  0.8022 -0.2131
 1937SOL     OW17446   1.357   1.916   1.093 -0.2142 -0.3021 -0.8041
 1937SOL    HW117447   1.267   1.899   1.064 -1.6931 -0.0874  3.7141
 1937SOL    HW217448   1.367   1.849   1.160  3.4932  1.2019  0.1366
 1938SOL     OW17449   2.212   2.893   3.024 -0.2043 -0.2962 -0.0213
 1938SOL    HW117450   2.270   2.942   2.966 -0.3397 -0.8042 -0.5822
 1938SOL    HW217451   2.227   2.929   3.111 -3.5684 -0.9923  0.8512
 1939SOL     OW17452   2.648   2.243  17.442 -0.4042 -0.6408  0.8239
 1939SOL    HW117453   2.726   2.226  17.494 -0.3730 -2.4217  0.1939
 1939SOL    HW217454   2.612   2.318  17.490  1.5780 -1.5635  3.7957
 1940SOL     OW17455   1.304   3.555  11.213  0.2136 -0.3111 -0.5973
 1940SOL    HW117456   1.365   3.628  11.225 -0.1587  0.0508 -0.9289
 1940SOL    HW217457   1.239   3.590  11.152 -1.0622 -4.3162 -1.5409
 1941SOL     OW17458   4.452   1.594   5.929 -0.2263 -0.3298  0.1545
 1941SOL    HW117459   4.371   1.598   5.980 -0.3486  2.3983 -0.2837
 1941SOL    HW217460   4.438   1.661   5.862 -0.0371  0.2599  0.7038
 1942SOL     OW17461   3.030   2.721  14.909 -0.0840 -0.0088  0.2420
 1942SOL    HW117462   3.042   2.815  14.921  0.6715 -0.6602  4.5317
 1942SOL    HW217463   3.017   2.698  15.001 -1.9546  2.3723  0.5694
 1943SOL     OW17464   0.039   1.949   5.013  0.6890  0.1031 -0.3516
 1943SOL    HW117465   0.130   1.949   5.045  0.7995 -3.7337 -0.7241
 1943SOL    HW217466   0.046   2.025   4.956  0.1852  0.8123  0.5272
 1944SOL     OW17467   4.329   2.543   8.100 -0.0386  0.5765 -0.0656
 1944SOL    HW117468   4.300   2.629   8.131  1.3125  0.9123  0.2846
 1944SOL    HW217469   4.351   2.556   8.008 -1.0814 -0.4490 -0.4650
 1945SOL     OW17470   0.706   1.349   5.921 -0.1152 -0.7443 -0.0612
 1945SOL    HW117471   0.781   1.324   5.974 -1.2493 -2.1814  0.8615
 1945SOL    HW217472   0.741   1.355   5.832  1.5880 -1.1548  0.5811
 1946SOL     OW17473   3.290   0.160   3.619 -0.2464  0.0566  0.1620
 1946SOL    HW117474   3.261   0.251   3.627 -0.0493  0.2408 -1.2707
 1946SOL    HW217475   3.381   0.165   3.647 -0.0269  1.0068 -0.7028
 1947SOL     OW17476   1.158   1.382   6.730  0.1177  0.6181 -0.3963
 1947SOL    HW117477   1.116   1.312   6.779 -1.9397  1.2900 -1.2025
 1947SOL    HW217478   1.173   1.329   6.652  1.5890  2.2571 -1.2349
 1948SOL     OW17479   4.610   2.607   7.421  0.3672 -0.6036 -0.0056
 1948SOL    HW117480   4.547   2.677   7.400 -0.1160 -1.5777 -1.7883
 1948SOL    HW217481   4.586   2.542   7.355  2.3025 -0.4096 -0.8813
 1949SOL     OW17482   1.853   4.164   4.663  0.2144 -0.7338  0.4242
 1949SOL    HW117483   1.805   4.147   4.744 -1.8048 -1.2235 -0.8617
 1949SOL    HW217484   1.941   4.180   4.697 -0.4343  2.8094  0.4311
 1950SOL     OW17485   0.087   4.347   9.473  0.0336 -0.4985  0.2656
 1950SOL    HW117486   0.095   4.367   9.566  0.3943 -0.5669  0.2505
 1950SOL    HW217487   0.053   4.434   9.449  0.7311 -0.3175 -0.0952
 1951SOL     OW17488   2.376   3.399   5.785  0.1158 -0.1933  0.0757
 1951SOL    HW117489   2.397   3.321   5.836 -3.6100 -0.8017  0.6594
 1951SOL    HW217490   2.379   3.470   5.849  1.6046 -0.0033 -0.1907
 1952SOL     OW17491   2.170   1.396  11.147  1.2252 -0.4701  0.0232
 1952SOL    HW117492   2.262   1.394  11.172  1.1280 -1.1422  0.3371
 1952SOL    HW217493   2.157   1.490  11.136 -2.2734 -0.6410  2.4148
 1953SOL     OW17494   2.963   1.846   6.558  0.4375 -0.1986 -0.6282
 1953SOL    HW117495   2.940   1.757   6.580 -0.8384  0.4556  0.6440
 1953SOL    HW217496   2.888   1.892   6.596  0.7779 -1.1912  1.2396
 1954SOL     OW17497   0.004   2.643   8.811  0.3608  0.1263  0.1543
 1954SOL    HW117498   0.048   2.589   8.877 -0.4782 -0.8619 -0.0889
 1954SOL    HW217499   4.663   2.671   8.855  0.1707  0.1557 -0.2129
 1955SOL     OW17500   1.692   3.515   1.694  0.0498  0.0353 -0.8370
 1955SOL    HW117501   1.652   3.568   1.625 -2.4279 -1.9428 -0.9308
 1955SOL    HW217502   1.777   3.489   1.659  1.6002  0.9041  2.3389
 1956SOL     OW17503   4.484   1.934   5.136  0.4592  0.0546  0.0801
 1956SOL    HW117504   4.419   1.968   5.198 -0.4610  0.0631 -0.9019
 1956SOL    HW217505   4.438   1.933   5.053 -1.0850 -0.2750  0.9334
 1957SOL     OW17506   3.738   4.337   1.735 -0.1427  0.7114  0.2210
 1957SOL    HW117507   3.650   4.357   1.769 -0.4849 -2.4805  1.1860
 1957SOL    HW217508   3.786   4.399   1.790  3.1008 -1.1425 -0.5783
 1958SOL     OW17509   0.994   1.371   8.158  0.0829  0.1965 -0.1245
 1958SOL    HW117510   0.995   1.283   8.120 -0.6830 -0.4233  1.2704
 1958SOL    HW217511   1.022   1.426   8.085 -1.5954  2.1511  0.6954
 1959SOL     OW17512   1.464   1.019  15.298 -0.2998  0.8265 -0.2386
 1959SOL    HW117513   1.377   1.058  15.297 -1.3737 -1.5944 -0.8081
 1959SOL    HW217514   1.484   1.009  15.391  0.4207 -1.0980 -0.5997
 1960SOL     OW17515   3.689   3.636   6.938 -0.1775  0.5767 -0.4010
 1960SOL    HW117516   3.683   3.651   6.844  2.3636 -1.1205 -0.8263
 1960SOL    HW217517   3.781   3.657   6.952 -0.2423  0.9793 -0.5861
 1961SOL     OW17518   0.132   2.378  10.138  0.0001 -0.1990 -0.1943
 1961SOL    HW117519   0.184   2.377  10.219 -0.4736 -2.8501  0.0737
 1961SOL    HW217520   0.090   2.292  10.146  2.3368 -1.3727 -0.6153
 1962SOL     OW17521   3.044   1.921   3.905  0.1112  0.3617 -0.0664
 1962SOL    HW117522   3.045   1.995   3.844 -0.7988  1.3375  1.0861
 1962SOL    HW217523   2.960   1.939   3.948 -0.1680  1.9379 -1.2688
 1963SOL     OW17524   3.873   2.895   9.284 -0.9235 -0.1230  0.1091
 1963SOL    HW117525   3.857   2.841   9.207 -2.8741 -1.0708  1.1811
 1963SOL    HW217526   3.858   2.824   9.346  1.0605 -1.1767 -0.6149
 1964SOL     OW17527   3.220   4.736   8.420 -0.3975  0.0197 -0.7892
 1964SOL    HW117528   3.273   0.051   8.478  0.2944 -1.9307  0.4053
 1964SOL    HW217529   3.265   0.015   8.338 -0.0180 -1.0349 -0.8251
 1965SOL     OW17530   3.953   2.427   2.060 -0.2275 -0.1448 -0.4501
 1965SOL    HW117531   3.897   2.367   2.109 -1.4067 -0.7882 -2.6090
 1965SOL    HW217532   3.897   2.469   1.995  1.2192 -0.6932 -2.0834
 1966SOL     OW17533   4.009   0.684   1.811 -0.0872  0.0907  0.5808
 1966SOL    HW117534   3.926   0.691   1.858  0.6943  3.0076  1.5199
 1966SOL    HW217535   3.989   0.737   1.733 -1.0972 -1.5291 -0.2486
 1967SOL     OW17536   1.759   0.977  15.777  0.2388 -0.4852  0.2851
 1967SOL    HW117537   1.838   0.942  15.736 -0.9423 -0.8293 -1.6981
 1967SOL    HW217538   1.710   1.031  15.715  1.5257 -0.4229 -0.6895
 1968SOL     OW17539   0.515   3.038   5.740  0.2757  0.3835 -0.1673
 1968SOL    HW117540   0.523   3.030   5.835 -0.6487  1.1485 -0.0204
 1968SOL    HW217541   0.466   3.121   5.733  1.2878  0.8668 -1.4881
 1969SOL     OW17542   1.459   1.477   4.136  0.2796 -0.1946  0.3137
 1969SOL    HW117543   1.495   1.415   4.073 -0.3363  0.9578 -1.1608
 1969SOL    HW217544   1.368   1.491   4.110  0.2905 -1.0041 -0.1671
 1970SOL     OW17545   2.731   4.491   9.895  0.0169  0.4827 -0.0515
 1970SOL    HW117546   2.803   4.528   9.946  0.0565  0.0294  0.2237
 1970SOL    HW217547   2.779   4.425   9.846 -1.1335  0.8662 -1.6922
 1971SOL     OW17548   1.789   2.838  13.188  0.1878  0.0650  0.6392
 1971SOL    HW117549   1.844   2.765  13.214 -1.4679 -1.6183 -0.6082
 1971SOL    HW217550   1.697   2.814  13.198  1.1024 -2.3912  2.9916
 1972SOL     OW17551   4.034   3.965   4.057 -0.1201 -0.6408 -0.4679
 1972SOL    HW117552   4.095   3.945   3.986 -0.4627 -0.8680 -0.6990
 1972SOL    HW217553   4.085   3.963   4.138 -1.9596  1.7423  0.7290
 1973SOL     OW17554   0.028   3.842  10.012  0.0966 -0.0538 -0.3504
 1973SOL    HW117555   4.681   3.826   9.976 -0.6038 -0.7565  1.6162
 1973SOL    HW217556   0.084   3.791   9.953  0.3539 -1.6526  1.2550
 1974SOL     OW17557   4.014   0.982   7.778 -0.1279 -0.2042  0.1999
 1974SOL    HW117558   3.937   1.000   7.832 -1.2213 -2.2156 -0.6872
 1974SOL    HW217559   3.985   0.963   7.689 -0.8424  3.8291 -0.4256
 1975SOL     OW17560   4.205   1.187   4.735 -0.0405 -0.1164 -0.5312
 1975SOL    HW117561   4.221   1.193   4.641 -1.0080 -0.8219 -0.7497
 1975SOL    HW217562   4.176   1.098   4.754  1.2818 -0.5873 -0.7315
 1976SOL     OW17563   0.419   3.049  14.449 -0.4758  0.2090  0.6847
 1976SOL    HW117564   0.453   2.978  14.394  0.3560  0.3085  1.0658
 1976SOL    HW217565   0.335   3.007  14.471 -1.6991  2.4833  0.3627
 1977SOL     OW17566   1.289   3.648   7.903 -0.1641 -0.2926 -0.2366
 1977SOL    HW117567   1.332   3.691   7.830 -1.4778  2.5641  0.6708
 1977SOL    HW217568   1.339   3.678   7.979 -0.2725 -1.0605  0.1403
 1978SOL     OW17569   2.831   4.213   1.906  0.2781 -0.3209 -0.1248
 1978SOL    HW117570   2.884   4.136   1.889  1.9963  0.9562 -0.5094
 1978SOL    HW217571   2.746   4.174   1.885  0.2864 -1.1911  1.4277
 1979SOL     OW17572   4.697   1.412   7.769 -0.1057  0.1332 -0.1434
 1979SOL    HW117573   4.629   1.357   7.730 -1.7849  0.3283  2.4871
 1979SOL    HW217574   4.640   1.466   7.824  1.9254  2.1233  0.0053
 1980SOL     OW17575   4.382   2.342   6.086  0.7457 -0.5581  0.0176
 1980SOL    HW117576   4.374   2.350   5.991 -0.0616  0.7329  0.2009
 1980SOL    HW217577   4.469   2.302   6.085  0.5446 -0.9868 -0.2872
 1981SOL     OW17578   2.368   4.513  15.533 -0.4585 -0.0531 -0.2235
 1981SOL    HW117579   2.306   4.454  15.576 -1.6102  1.9910  0.8845
 1981SOL    HW217580   2.430   4.450  15.495 -0.3786  0.6803 -1.2998
 1982SOL     OW17581   0.222   3.409   5.542  0.5101  0.2046 -0.1568
 1982SOL    HW117582   0.274   3.329   5.545 -2.1465 -1.3854  2.7704
 1982SOL    HW217583   0.236   3.435   5.633 -0.1065 -0.5360  0.1448
 1983SOL     OW17584   0.406   3.617  12.062 -0.9843  0.5353  0.2770
 1983SOL    HW117585   0.373   3.579  11.980 -0.7987  0.2793  0.3227
 1983SOL    HW217586   0.501   3.609  12.058 -1.0323  0.4652 -0.7720
 1984SOL     OW17587   2.308   4.350   9.151  0.0713  0.1335  0.2943
 1984SOL    HW117588   2.304   4.294   9.229  1.9558  0.3909  0.5883
 1984SOL    HW217589   2.243   4.413   9.180 -0.9563 -0.8763  0.1873
 1985SOL     OW17590   0.717   3.346   7.836  0.0256 -0.3142  0.3420
 1985SOL    HW117591   0.811   3.338   7.820 -0.4205 -0.7692 -1.9823
 1985SOL    HW217592   0.713   3.388   7.922 -1.8045 -1.1949  0.6999
 1986SOL     OW17593   4.123   1.388   2.258  0.1454 -0.3538 -0.0620
 1986SOL    HW117594   4.111   1.402   2.352 -2.1103  1.1581 -0.5855
 1986SOL    HW217595   4.031   1.369   2.244 -0.3050  0.1079  2.2657
 1987SOL     OW17596   3.248   4.109   6.152 -0.3793 -0.1874  0.4356
 1987SOL    HW117597   3.212   4.020   6.153 -0.3733 -0.2205 -1.1509
 1987SOL    HW217598   3.235   4.128   6.059 -1.7956  1.3570  0.9515
 1988SOL     OW17599   0.427   1.454   6.568  0.5216  0.0170 -0.6031
 1988SOL    HW117600   0.517   1.422   6.567  0.1812 -0.9428  0.8247
 1988SOL    HW217601   0.375   1.387   6.611 -0.0827 -0.4175 -2.0119
 1989SOL     OW17602   1.384   1.641  12.247 -0.2333  0.5289 -0.1478
 1989SOL    HW117603   1.404   1.680  12.162  0.2296 -1.7556 -1.1009
 1989SOL    HW217604   1.294   1.616  12.228 -0.2393  0.9892 -0.7285
 1990SOL     OW17605   4.185   0.356  15.770  0.2933  0.2392 -0.4456
 1990SOL    HW117606   4.268   0.308  15.781  1.0206  1.6694  0.2983
 1990SOL    HW217607   4.160   0.337  15.680  3.9680  0.7713 -1.6063
 1991SOL     OW17608   2.335   0.697  14.128 -0.4204  0.0820  0.3438
 1991SOL    HW117609   2.390   0.688  14.049 -0.3526  0.7302  0.3129
 1991SOL    HW217610   2.362   0.634  14.195 -0.2895 -0.8500 -0.5814
 1992SOL     OW17611   3.418   0.943  12.208 -0.1627  0.2089  0.0792
 1992SOL    HW117612   3.384   0.884  12.140  0.6289  1.4744 -1.4298
 1992SOL    HW217613   3.363   0.917  12.282  0.9018  1.8853  1.4348
 1993SOL     OW17614   3.442   1.331   2.107 -0.7078  0.3952 -0.0673
 1993SOL    HW117615   3.422   1.398   2.172  2.3572  1.4222 -0.2037
 1993SOL    HW217616   3.356   1.292   2.092 -0.8682  0.5446  0.4961
 1994SOL     OW17617   4.654   3.283   3.025  0.3150  0.5815  0.1251
 1994SOL    HW117618   4.567   3.273   2.985  0.2326  0.2558  0.3860
 1994SOL    HW217619   4.666   3.197   3.066  2.2606  0.7231 -0.1491
 1995SOL     OW17620   4.113   2.384   8.567 -0.1449 -0.4629 -0.3170
 1995SOL    HW117621   4.177   2.455   8.576 -0.3864 -0.2032 -0.6522
 1995SOL    HW217622   4.034   2.431   8.540  0.8715  0.8004 -1.1204
 1996SOL     OW17623   3.923   3.257   8.687  0.3508  0.0471  0.0216
 1996SOL    HW117624   3.885   3.345   8.690  0.7834  0.2483 -0.3803
 1996SOL    HW217625   3.893   3.221   8.604 -0.3660 -0.5896  0.5624
 1997SOL     OW17626   4.149   0.851   0.060 -0.2256 -0.0033 -0.4728
 1997SOL    HW117627   4.145   0.775   0.002  0.7080 -1.3745  1.2506
 1997SOL    HW217628   4.242   0.852   0.080 -0.6251 -1.0365  1.4142
 1998SOL     OW17629   4.647   3.666   7.823 -0.0920 -0.2969  0.1661
 1998SOL    HW117630   4.624   3.590   7.876 -0.8295  2.1450  3.3385
 1998SOL    HW217631   4.661   3.738   7.883  0.1147 -1.5212  1.5837
 1999SOL     OW17632   2.935   3.927   7.779  0.1131 -0.2973  0.3119
 1999SOL    HW117633   2.948   3.978   7.859  3.1505  1.3444 -1.2526
 1999SOL    HW217634   3.017   3.945   7.735  0.2286  1.0863  1.1116
 2000SOL     OW17635   0.208   3.478  16.334  0.1807 -0.2621  0.2172
 2000SOL    HW117636   0.247   3.539  16.271  0.4178  1.6597  2.1860
 2000SOL    HW217637   0.139   3.533  16.371  0.2309 -1.4592  2.0588
 2001SOL     OW17638   0.963   1.557   2.907 -0.2051  0.1842  0.7251
 2001SOL    HW117639   0.953   1.500   2.831 -1.7703 -1.3704  2.0978
 2001SOL    HW217640   1.012   1.629   2.868  0.8434 -0.3257  1.1133
 2002SOL     OW17641   3.407   0.625   1.274  0.1216  0.0712  0.1854
 2002SOL    HW117642   3.436   0.654   1.188  3.8448 -1.9506  0.7343
 2002SOL    HW217643   3.345   0.691   1.304 -1.2526 -1.1137 -0.0751
 2003SOL     OW17644   3.481   0.789   3.005  0.1943 -0.1046 -0.1579
 2003SOL    HW117645   3.488   0.880   2.976  1.7900 -0.0714  0.3651
 2003SOL    HW217646   3.393   0.771   2.969  0.2301  1.7190 -1.1406
 2004SOL     OW17647   1.226   3.273  11.987 -0.2879 -0.7406 -0.4175
 2004SOL    HW117648   1.269   3.234  12.063 -1.0953 -0.0270  0.4037
 2004SOL    HW217649   1.294   3.331  11.952  0.0658 -1.2503 -0.5892
 2005SOL     OW17650   3.153   1.702   2.941 -0.9273  0.9925  0.1236
 2005SOL    HW117651   3.078   1.756   2.965 -1.0361  0.1788  1.6064
 2005SOL    HW217652   3.096   1.625   2.942  1.8059 -1.0183 -1.6874
 2006SOL     OW17653   3.628   3.877   3.078  0.0459  0.2286  0.2682
 2006SOL    HW117654   3.663   3.966   3.079  1.3754 -0.2795 -1.0961
 2006SOL    HW217655   3.616   3.849   2.988 -0.6671  1.5846 -0.0533
 2007SOL     OW17656   1.864   4.280   2.668  0.4115 -0.7059  0.2255
 2007SOL    HW117657   1.773   4.265   2.644  0.8051  0.2073 -1.8724
 2007SOL    HW217658   1.872   4.220   2.742 -0.6505  0.1535  1.0401
 2008SOL     OW17659   4.097   0.176  12.925 -0.9060  0.0943  0.4282
 2008SOL    HW117660   4.166   0.124  12.966 -0.6698 -0.0829 -0.1865
 2008SOL    HW217661   4.122   0.259  12.964  0.4072 -0.7412  1.3403
 2009SOL     OW17662   2.567   2.137  11.706 -0.0637  0.1505  0.1620
 2009SOL    HW117663   2.549   2.230  11.723 -0.7314  0.0335  0.0803
 2009SOL    HW217664   2.512   2.095  11.771 -1.0771 -0.7157 -1.2404
 2010SOL     OW17665   1.551   2.098   8.513 -0.0647 -0.3022 -0.0099
 2010SOL    HW117666   1.613   2.104   8.585 -1.8739 -0.7848  1.6032
 2010SOL    HW217667   1.517   2.010   8.530 -1.2431  0.4004  1.2785
 2011SOL     OW17668   2.998   1.913   4.267  0.0529  0.2044  0.4998
 2011SOL    HW117669   3.078   1.938   4.222  1.9516 -0.8135  3.2678
 2011SOL    HW217670   2.937   1.932   4.196  0.4628  0.5370  0.2389
 2012SOL     OW17671   2.710   4.607   8.279  0.3126 -1.1837  0.5221
 2012SOL    HW117672   2.722   4.542   8.349  2.6576 -0.1821  1.0560
 2012SOL    HW217673   2.763   4.682   8.307 -0.8714  0.4090 -1.5636
 2013SOL     OW17674   3.028   4.434   9.538 -0.7516  0.0769  0.3852
 2013SOL    HW117675   3.039   4.365   9.473 -3.4746 -1.6948  1.7845
 2013SOL    HW217676   2.983   4.387   9.609  1.8322 -1.4125  1.0046
 2014SOL     OW17677   1.428   2.131  13.750  0.1372  0.4575 -0.0439
 2014SOL    HW117678   1.353   2.188  13.767 -0.9948 -0.8896 -0.5601
 2014SOL    HW217679   1.469   2.119  13.835  0.4333  2.5228  0.1113
 2015SOL     OW17680   3.347   1.663   1.495 -0.3566 -0.3902 -0.1292
 2015SOL    HW117681   3.349   1.754   1.526 -2.0371  0.2327 -1.8475
 2015SOL    HW217682   3.352   1.679   1.401  0.7388  0.1927  0.0223
 2016SOL     OW17683   2.247   4.559  14.981 -0.3562 -0.1930 -0.3435
 2016SOL    HW117684   2.192   4.557  14.903 -1.7273  0.2573  0.6061
 2016SOL    HW217685   2.238   4.652  15.003  2.4557 -0.0201  0.0971
 2017SOL     OW17686   3.204   4.657   5.601  0.1150 -0.2684  0.1871
 2017SOL    HW117687   3.209   0.012   5.584 -0.7644 -0.2206  0.1989
 2017SOL    HW217688   3.293   4.629   5.579  0.1957 -0.7191  1.0672
 2018SOL     OW17689   1.705   3.416   7.218 -0.1558 -0.0762  0.0263
 2018SOL    HW117690   1.775   3.383   7.161 -1.3594 -0.6409 -1.1278
 2018SOL    HW217691   1.725   3.510   7.225  0.3917 -0.2775  1.1688
 2019SOL     OW17692   4.138   3.917  10.352  0.3208 -0.2328 -0.7311
 2019SOL    HW117693   4.115   3.832  10.314 -0.2463 -0.9346  1.2308
 2019SOL    HW217694   4.058   3.964  10.328 -0.8591  0.2902  4.4209
 2020SOL     OW17695   3.759   0.736   6.502 -0.4392  0.3742  0.4355
 2020SOL    HW117696   3.745   0.712   6.593  1.1614  1.6456  1.0191
 2020SOL    HW217697   3.703   0.813   6.490 -1.2031 -0.4295 -1.2698
 2021SOL     OW17698   3.524   3.248  14.923  0.0430  0.3256  0.4360
 2021SOL    HW117699   3.580   3.302  14.868 -1.1037 -1.0712 -2.1046
 2021SOL    HW217700   3.560   3.161  14.905  2.4333  1.1774  1.0508
 2022SOL     OW17701   4.214   3.858   4.855 -0.3143  0.4946 -0.6976
 2022SOL    HW117702   4.217   3.850   4.950 -2.3423 -1.7509 -0.8170
 2022SOL    HW217703   4.155   3.789   4.823  2.2016 -1.8516 -0.2632
 2023SOL     OW17704   4.064   1.514  11.302 -0.2420  0.4679 -0.5250
 2023SOL    HW117705   4.017   1.465  11.370  0.2664  0.0493 -0.4767
 2023SOL    HW217706   4.007   1.518  11.225 -0.9313 -0.0298 -0.0356
 2024SOL     OW17707   2.122   3.696  11.845 -0.2812  0.5774 -0.4075
 2024SOL    HW117708   2.130   3.744  11.928 -1.0521  1.8672 -1.0895
 2024SOL    HW217709   2.097   3.608  11.874 -0.6995  1.0231  0.5916
 2025SOL     OW17710   2.538   1.796   7.586  0.5195 -0.2541  0.2428
 2025SOL    HW117711   2.599   1.838   7.524 -1.4852  2.4864  0.1246
 2025SOL    HW217712   2.598   1.769   7.655  0.2164 -0.5978  0.3652
 2026SOL     OW17713   2.206   3.335   7.286  0.2027  0.1042  0.5583
 2026SOL    HW117714   2.190   3.257   7.339 -0.1559  1.3731  2.3226
 2026SOL    HW217715   2.180   3.403   7.348  0.3337  0.9243 -0.2662
 2027SOL     OW17716   2.357   2.055  15.119 -0.2369 -0.0376 -0.0177
 2027SOL    HW117717   2.286   2.010  15.073  0.4258 -1.9595  0.8238
 2027SOL    HW217718   2.424   2.041  15.051 -0.5940 -4.0328  0.4209
 2028SOL     OW17719   0.558   2.963   3.016 -0.0519  0.2836 -0.3748
 2028SOL    HW117720   0.572   2.976   3.110  2.6491 -0.8517 -0.6088
 2028SOL    HW217721   0.469   2.927   3.024  0.3011 -0.3942  0.5977
 2029SOL     OW17722   2.222   3.133   7.468 -0.2491 -0.4333  0.2605
 2029SOL    HW117723   2.300   3.110   7.416  0.5986 -0.5190  1.5738
 2029SOL    HW217724   2.255   3.112   7.556 -1.4563 -2.8344  0.1525
 2030SOL     OW17725   4.238   3.709  15.065  0.1745 -0.7602 -0.4836
 2030SOL    HW117726   4.183   3.655  15.121 -1.9087  1.8734 -0.0174
 2030SOL    HW217727   4.175   3.731  14.997 -1.3283  1.2634  1.5618
 2031SOL     OW17728   2.321   3.208   9.670  0.1247  0.1493  0.0623
 2031SOL    HW117729   2.380   3.187   9.598 -0.3626  2.3054 -0.9653
 2031SOL    HW217730   2.358   3.290   9.702 -2.7908  2.7372 -3.2733
 2032SOL     OW17731   2.648   3.685   5.992 -0.5329  0.3557 -0.5233
 2032SOL    HW117732   2.625   3.778   5.993 -2.5498 -0.1509  0.5601
 2032SOL    HW217733   2.678   3.682   5.901  0.0901  1.3968 -0.3567
 2033SOL     OW17734   3.302   2.002   9.608 -0.3897  0.2545  0.5169
 2033SOL    HW117735   3.368   1.934   9.613 -1.5812 -0.8377  1.2699
 2033SOL    HW217736   3.353   2.082   9.593 -1.4531  1.5159  3.5198
 2034SOL     OW17737   2.668   4.623  15.427  0.3806  0.1042  0.4865
 2034SOL    HW117738   2.605   4.609  15.357  1.9630 -1.7375 -0.5735
 2034SOL    HW217739   2.634   4.710  15.447  0.1822 -0.2885  1.8779
 2035SOL     OW17740   4.192   0.622  14.238 -0.7586 -0.3234  0.2593
 2035SOL    HW117741   4.102   0.652  14.249  0.3903  2.9082  0.8334
 2035SOL    HW217742   4.190   0.529  14.258 -0.0498  0.0169  1.8773
 2036SOL     OW17743   4.327   3.611   4.961 -0.6324 -0.3020 -0.6331
 2036SOL    HW117744   4.353   3.521   4.945 -0.8355 -0.6272  0.7938
 2036SOL    HW217745   4.273   3.587   5.037  1.2383 -4.7114 -0.7113
 2037SOL     OW17746   1.389   3.012   6.887  0.2056 -0.1023  0.1917
 2037SOL    HW117747   1.350   2.987   6.970 -0.8215  1.6203  0.2282
 2037SOL    HW217748   1.377   3.107   6.891  0.2634 -0.1087  0.5125
 2038SOL     OW17749   1.685   2.943   6.615 -0.5832 -0.4009  0.0741
 2038SOL    HW117750   1.620   2.920   6.682 -2.1958 -0.1716 -1.4266
 2038SOL    HW217751   1.752   2.986   6.669 -1.6671  1.0787  0.2358
 2039SOL     OW17752   0.892   2.301   7.036 -0.7623 -0.3681 -0.2039
 2039SOL    HW117753   0.854   2.362   7.099 -1.7075 -0.6108 -0.5363
 2039SOL    HW217754   0.941   2.368   6.988  1.3518 -0.8283  1.2914
 2040SOL     OW17755   3.380   1.516   2.324  0.4009  0.3353  0.6825
 2040SOL    HW117756   3.343   1.537   2.410 -1.4651  0.6449 -0.1814
 2040SOL    HW217757   3.452   1.578   2.314  2.8823 -2.3818  1.9103
 2041SOL     OW17758   1.267   0.315  10.547 -0.0816 -0.6262  0.2645
 2041SOL    HW117759   1.235   0.400  10.576  0.8599 -0.6714  1.4106
 2041SOL    HW217760   1.193   0.261  10.576 -0.7532 -0.3201 -0.8925
 2042SOL     OW17761   3.381   3.018  14.452  0.0559  0.2903 -0.0862
 2042SOL    HW117762   3.324   2.963  14.506 -0.8766  1.4998  0.1779
 2042SOL    HW217763   3.456   2.961  14.436 -0.0156  0.5969 -1.4690
 2043SOL     OW17764   1.032   1.249   9.019  0.3096  0.1397  0.2769
 2043SOL    HW117765   1.023   1.316   8.951  2.6450  2.2197  2.0261
 2043SOL    HW217766   1.013   1.297   9.099  1.4107  3.1108 -1.2444
 2044SOL     OW17767   4.532   0.169  12.994 -0.0528  0.1389  0.2176
 2044SOL    HW117768   4.452   0.171  13.047  0.4947 -2.0160  1.1314
 2044SOL    HW217769   4.548   0.074  12.990  1.2138  0.3986 -0.7094
 2045SOL     OW17770   2.843   2.014   6.954  0.7486  0.4547  0.0961
 2045SOL    HW117771   2.826   2.098   6.998  0.1753 -0.7775  2.2418
 2045SOL    HW217772   2.815   2.043   6.867  2.2705  1.1108 -0.1605
 2046SOL     OW17773   1.179   1.572  14.269  0.3624 -0.1254 -0.2448
 2046SOL    HW117774   1.184   1.630  14.193 -2.3897 -0.1734 -0.4655
 2046SOL    HW217775   1.119   1.511  14.226  1.7633 -0.8087 -1.2515
 2047SOL     OW17776   1.360   1.388   4.685 -0.0811 -0.1242 -0.4531
 2047SOL    HW117777   1.309   1.464   4.714 -1.6267 -1.2904 -0.1552
 2047SOL    HW217778   1.390   1.419   4.599 -1.5664 -0.3358 -1.0485
 2048SOL     OW17779   0.736   2.154   2.581 -0.2596 -0.1441  0.4625
 2048SOL    HW117780   0.672   2.101   2.532  0.4642 -0.0394 -0.5928
 2048SOL    HW217781   0.715   2.134   2.672  1.5825 -3.4077  0.1959
 2049SOL     OW17782   4.447   3.229   1.995 -0.4471  0.0420  0.2707
 2049SOL    HW117783   4.425   3.286   1.921 -0.1746  1.7035  1.4966
 2049SOL    HW217784   4.369   3.175   2.008 -1.5410  1.5780  0.0677
 2050SOL     OW17785   2.086   0.742   2.630  0.4884 -0.0393 -0.5686
 2050SOL    HW117786   2.040   0.665   2.596  0.0343 -0.0522  0.0902
 2050SOL    HW217787   2.125   0.788   2.555  0.3350 -1.0117 -1.2399
 2051SOL     OW17788   0.599   2.195   1.403  0.4533 -0.3885 -0.3030
 2051SOL    HW117789   0.603   2.228   1.314  0.3543  0.6977  0.0918
 2051SOL    HW217790   0.582   2.103   1.381 -0.4158  0.3677 -2.7290
 2052SOL     OW17791   3.628   2.658  14.651 -0.0894  0.1782  0.4945
 2052SOL    HW117792   3.667   2.570  14.653  0.1453  0.2142 -2.4360
 2052SOL    HW217793   3.565   2.640  14.721  2.5524 -0.5133  2.7377
 2053SOL     OW17794   0.306   1.756   8.248 -0.9496 -0.3766 -0.2729
 2053SOL    HW117795   0.261   1.809   8.181 -2.1313  0.7221  1.3937
 2053SOL    HW217796   0.381   1.725   8.198 -0.9994 -0.1992 -0.4604
 2054SOL     OW17797   4.639   1.765   4.855  0.1766  0.3054 -0.2055
 2054SOL    HW117798   4.676   1.830   4.914  2.1015 -0.4181 -0.6292
 2054SOL    HW217799   4.710   1.701   4.857 -1.0815 -1.0743 -0.0690
 2055SOL     OW17800   4.073   3.708  16.634  1.0109 -0.1442  0.0962
 2055SOL    HW117801   4.148   3.695  16.693 -1.0933  1.1527  3.0497
 2055SOL    HW217802   4.121   3.739  16.557 -0.5763  1.2465 -0.3361
 2056SOL     OW17803   4.208   0.788  12.686 -0.6702 -0.0652  0.1217
 2056SOL    HW117804   4.248   0.816  12.604 -0.9816 -1.3912 -0.4719
 2056SOL    HW217805   4.130   0.743  12.654  1.3315 -0.6107 -3.9121
 2057SOL     OW17806   2.297   3.068   8.401  0.6345 -0.1186 -0.2659
 2057SOL    HW117807   2.306   2.975   8.383 -0.0578 -0.1776 -0.2851
 2057SOL    HW217808   2.202   3.063   8.411  0.6360 -1.1560 -0.8348
 2058SOL     OW17809   3.062   3.848  11.749 -0.2356 -0.5744  0.4202
 2058SOL    HW117810   3.151   3.867  11.779 -0.6206 -0.4479  1.5057
 2058SOL    HW217811   3.082   3.880  11.661 -3.0155  3.2978  1.1973
 2059SOL     OW17812   0.568   1.953   5.127  0.4940 -0.2627  0.3217
 2059SOL    HW117813   0.584   2.044   5.151  0.0546 -0.0408 -0.2360
 2059SOL    HW217814   0.579   1.962   5.032  1.3375 -0.1598  0.4276
 2060SOL     OW17815   1.571   1.777  16.152  0.3147  0.3054  0.5305
 2060SOL    HW117816   1.499   1.827  16.115  0.0697 -1.4739 -1.4254
 2060SOL    HW217817   1.635   1.767  16.081  1.9319 -0.0357  2.0465
 2061SOL     OW17818   0.250   4.364   4.756  0.0948 -0.5187  0.4513
 2061SOL    HW117819   0.264   4.448   4.799  0.3736 -0.3024 -0.0597
 2061SOL    HW217820   0.273   4.298   4.822 -0.5082  1.0043  2.1728
 2062SOL     OW17821   3.461   2.073   2.497  0.5410 -0.0542  0.3352
 2062SOL    HW117822   3.529   2.133   2.528 -0.8374  0.4993  2.3123
 2062SOL    HW217823   3.502   1.993   2.531  2.6972 -0.7179 -3.8693
 2063SOL     OW17824   1.968   2.897   7.754  0.3363  0.8322  0.2262
 2063SOL    HW117825   2.052   2.865   7.723  0.0061  0.5500 -0.3903
 2063SOL    HW217826   1.932   2.814   7.787  1.7405 -0.1988 -0.8789
 2064SOL     OW17827   1.555   4.342   9.540  0.7129 -0.1353 -0.0196
 2064SOL    HW117828   1.620   4.271   9.541  2.7020  1.6526 -0.8058
 2064SOL    HW217829   1.478   4.286   9.532  0.1647  0.3845  1.7624
 2065SOL     OW17830   3.458   2.120   1.736 -0.2991 -0.1310  0.1041
 2065SOL    HW117831   3.389   2.175   1.775 -0.2574 -0.3531  0.4864
 2065SOL    HW217832   3.463   2.044   1.793  0.3336  1.2513  1.8954
 2066SOL     OW17833   1.450   2.301   7.763 -0.2065 -0.4397  0.4035
 2066SOL    HW117834   1.483   2.351   7.688 -0.6044 -0.9344 -0.1045
 2066SOL    HW217835   1.482   2.352   7.838  1.6644 -0.2155 -0.5596
 2067SOL     OW17836   1.329   4.442   6.452  0.4743 -0.0134 -0.4479
 2067SOL    HW117837   1.241   4.414   6.478  0.2576  1.8791  0.8888
 2067SOL    HW217838   1.388   4.412   6.521 -0.0157 -2.8095 -1.2389
 2068SOL     OW17839   0.565   3.827   7.252 -0.0930  0.5351 -0.1719
 2068SOL    HW117840   0.507   3.751   7.259 -1.4940  1.8261  2.5317
 2068SOL    HW217841   0.521   3.888   7.312  1.0104 -0.0260  1.2260
 2069SOL     OW17842   2.506   2.388   6.881  0.0160 -0.0622  0.6544
 2069SOL    HW117843   2.563   2.431   6.946 -1.4820  1.1141  1.1796
 2069SOL    HW217844   2.450   2.455   6.842  1.3102  2.2641  2.7844
 2070SOL     OW17845   4.526   3.716   4.090  0.1090 -0.3423 -1.0157
 2070SOL    HW117846   4.544   3.632   4.047  3.2174  0.1905 -0.7610
 2070SOL    HW217847   4.525   3.758   4.004 -2.0989 -2.1229 -1.8614
 2071SOL     OW17848   2.178   3.729  16.016  0.1562 -0.3261  0.3756
 2071SOL    HW117849   2.159   3.642  15.980  0.2750 -0.4995  0.7260
 2071SOL    HW217850   2.242   3.718  16.087  0.3606 -1.5248  0.0076
 2072SOL     OW17851   2.413   3.324   6.154 -0.2408  0.0770 -0.4676
 2072SOL    HW117852   2.343   3.319   6.089 -0.9294 -0.0196  0.3004
 2072SOL    HW217853   2.373   3.386   6.215 -1.6498  0.2607 -1.5749
 2073SOL     OW17854   4.653   3.944  17.043 -1.0565 -0.3895 -0.5975
 2073SOL    HW117855   4.650   4.010  16.974 -0.8192  1.7106  1.4210
 2073SOL    HW217856   4.594   3.980  17.109  1.1856 -0.7282  1.6050
 2074SOL     OW17857   2.204   0.347   4.969 -0.5840  0.2408 -0.3946
 2074SOL    HW117858   2.284   0.358   5.020  0.5390 -2.9177 -1.4446
 2074SOL    HW217859   2.147   0.386   5.035  1.2437 -0.2066  1.4349
 2075SOL     OW17860   1.350   4.175   3.600 -0.0170  0.4655 -0.1162
 2075SOL    HW117861   1.296   4.236   3.650 -0.7195 -0.5950  0.4073
 2075SOL    HW217862   1.369   4.224   3.519  1.3633  0.3028  0.1023
 2076SOL     OW17863   2.689   4.161   8.243 -0.5338  0.1978 -0.2571
 2076SOL    HW117864   2.762   4.108   8.275 -0.0518  0.9193 -0.1592
 2076SOL    HW217865   2.697   4.131   8.152 -1.2381  4.1827 -1.6384
 2077SOL     OW17866   4.228   0.845   5.546  0.1979 -0.1035 -0.5884
 2077SOL    HW117867   4.241   0.762   5.591  1.5142  0.3999 -0.0640
 2077SOL    HW217868   4.183   0.898   5.612 -0.8088 -2.6896  0.7856
 2078SOL     OW17869   3.324   4.135   3.122  0.2348 -0.5113 -0.1948
 2078SOL    HW117870   3.319   4.074   3.196  0.9467 -1.5695 -1.0127
 2078SOL    HW217871   3.233   4.164   3.118  0.5826  0.4167 -1.2326
 2079SOL     OW17872   0.343   4.544  16.495 -0.0035 -0.4013 -0.0553
 2079SOL    HW117873   0.426   4.541  16.448  0.3999  0.1242  0.6414
 2079SOL    HW217874   0.358   4.476  16.561 -1.9720  1.0038  1.8432
 2080SOL     OW17875   2.067   1.195  17.407  0.0760 -0.6013 -0.2780
 2080SOL    HW117876   2.096   1.216  17.318 -0.7052 -1.0843 -0.6445
 2080SOL    HW217877   1.995   1.256  17.426 -1.1368 -1.7167 -1.3332
 2081SOL     OW17878   1.261   1.469   2.664 -0.2186  0.7114  0.0691
 2081SOL    HW117879   1.302   1.510   2.740  1.0104 -0.6238  0.1279
 2081SOL    HW217880   1.171   1.501   2.672 -0.5969 -0.2582 -0.2725
 2082SOL     OW17881   3.668   4.457  17.005 -0.0589 -0.4902 -0.1833
 2082SOL    HW117882   3.646   4.531  17.061  2.5660  0.0213  0.2011
 2082SOL    HW217883   3.601   4.449  16.937 -0.6577  0.1124  0.3395
 2083SOL     OW17884   2.262   1.649   4.943  0.0597 -0.5205 -0.0597
 2083SOL    HW117885   2.299   1.669   4.857 -0.4068  1.3455  0.1803
 2083SOL    HW217886   2.167   1.637   4.939 -0.1334  0.8485  0.7316
 2084SOL     OW17887   0.613   2.250   8.299 -0.1251  0.4784  0.2456
 2084SOL    HW117888   0.675   2.223   8.366  0.0638 -1.4549 -0.6883
 2084SOL    HW217889   0.534   2.196   8.306 -1.5703  1.9720 -4.3143
 2085SOL     OW17890   1.515   0.386   9.521 -0.0660  0.2266  0.5486
 2085SOL    HW117891   1.450   0.439   9.475 -0.2834  0.3204  0.9709
 2085SOL    HW217892   1.527   0.307   9.468  1.2537  0.9169 -0.1932
 2086SOL     OW17893   0.001   0.534   7.071 -0.7230 -0.3050 -0.4323
 2086SOL    HW117894   0.008   0.613   7.124 -1.9205  0.4153 -1.3346
 2086SOL    HW217895   4.726   0.467   7.138  2.4220  0.9176  1.4860
 2087SOL     OW17896   3.815   0.058   8.120  0.3695  0.0145  0.4219
 2087SOL    HW117897   3.729   0.019   8.102 -0.0669  0.9208  0.5833
 2087SOL    HW217898   3.871   0.002   8.065  0.0230 -0.1857  0.2724
 2088SOL     OW17899   3.467   1.085   9.426  0.6179  0.2539 -0.1438
 2088SOL    HW117900   3.494   1.122   9.342  0.7573  1.1152  0.2814
 2088SOL    HW217901   3.544   1.070   9.481  1.8790  4.1314 -0.8500
 2089SOL     OW17902   3.131   3.682  11.485 -1.2607  0.2698  0.3959
 2089SOL    HW117903   3.155   3.590  11.495  1.4591  0.9136  0.0489
 2089SOL    HW217904   3.109   3.689  11.392  0.8999  0.0969 -0.1311
 2090SOL     OW17905   1.701   4.706   1.615  0.2594 -0.1621  0.4513
 2090SOL    HW117906   1.705   4.690   1.521  0.4717  1.5793  0.1666
 2090SOL    HW217907   1.639   4.636   1.637 -0.7005  1.2373  2.2117
 2091SOL     OW17908   4.094   3.222   7.769  0.3728 -0.1263 -0.4287
 2091SOL    HW117909   4.070   3.308   7.806 -0.6035 -1.1416  1.3129
 2091SOL    HW217910   4.144   3.187   7.843 -0.1056 -2.7543 -1.3648
 2092SOL     OW17911   1.267   0.317   5.971  0.3019 -0.3143  0.2225
 2092SOL    HW117912   1.333   0.304   5.903  1.4133  1.7360  0.9191
 2092SOL    HW217913   1.281   0.246   6.034 -0.6140  0.8741  1.7920
 2093SOL     OW17914   3.662   1.513  11.071 -0.2533  0.0006 -0.0574
 2093SOL    HW117915   3.575   1.499  11.034  0.4534 -0.5983 -1.4760
 2093SOL    HW217916   3.690   1.422  11.060  2.6174  0.8240  0.4139
 2094SOL     OW17917   4.737   3.598   7.566 -0.3819 -0.4419 -0.0233
 2094SOL    HW117918   0.066   3.561   7.622 -1.5917 -2.0684  0.4050
 2094SOL    HW217919   4.685   3.620   7.644 -0.2590  2.6786 -0.8279
 2095SOL     OW17920   1.150   2.384   1.387 -0.5191 -0.0051  0.4461
 2095SOL    HW117921   1.119   2.474   1.378  0.3533  0.4163  1.5981
 2095SOL    HW217922   1.081   2.336   1.432 -3.1473  2.7072 -0.7606
 2096SOL     OW17923   0.244   3.579   4.937  0.0338  0.4872  0.3110
 2096SOL    HW117924   0.213   3.571   4.847  1.0431 -0.0416  0.0180
 2096SOL    HW217925   0.185   3.518   4.982 -1.3057  0.1618 -1.8852
 2097SOL     OW17926   4.564   0.886  13.064 -0.3903  0.5729  0.3685
 2097SOL    HW117927   4.579   0.793  13.046 -1.5175  0.5529 -0.4633
 2097SOL    HW217928   4.652   0.913  13.090 -1.2730  0.1946  3.6669
 2098SOL     OW17929   2.301   3.367   3.598 -0.3118  0.1458 -0.5583
 2098SOL    HW117930   2.386   3.352   3.640 -0.8298  0.3865  0.5900
 2098SOL    HW217931   2.316   3.299   3.533  1.9399  0.2924 -0.2083
 2099SOL     OW17932   3.814   2.189   7.459 -0.3806 -0.6847 -1.0002
 2099SOL    HW117933   3.799   2.236   7.541 -1.1312 -1.7714 -0.5059
 2099SOL    HW217934   3.738   2.131   7.460  0.1024 -1.2911  0.3876
 2100SOL     OW17935   3.808   2.949   6.343  0.4439 -0.4299 -0.4772
 2100SOL    HW117936   3.724   2.937   6.386 -0.4870 -1.1860 -2.4828
 2100SOL    HW217937   3.864   2.882   6.384  0.9063  0.2528  0.0043
 2101SOL     OW17938   0.723   2.097  11.677  0.4351  0.1936 -0.1765
 2101SOL    HW117939   0.815   2.110  11.657  0.3777 -0.6550 -0.9920
 2101SOL    HW217940   0.732   2.024  11.738  0.9102  0.6200  0.2634
 2102SOL     OW17941   4.481   0.545   2.185  0.3640  0.3327 -0.3334
 2102SOL    HW117942   4.516   0.569   2.099 -1.5560 -1.3258 -1.5570
 2102SOL    HW217943   4.424   0.472   2.163 -0.1528  0.6618 -0.1077
 2103SOL     OW17944   2.153   4.513   6.149 -0.3306  0.2417  0.3927
 2103SOL    HW117945   2.108   4.489   6.068 -0.8613 -1.7572  1.2865
 2103SOL    HW217946   2.237   4.543   6.114 -0.1264  0.1662  0.8125
 2104SOL     OW17947   4.561   2.928   3.337  0.0203  0.0743 -0.8390
 2104SOL    HW117948   4.475   2.970   3.340 -0.9552 -2.0184  0.4756
 2104SOL    HW217949   4.536   2.840   3.365 -1.3415  1.0077  0.8957
 2105SOL     OW17950   3.127   0.230   2.219  0.0590 -0.2021  0.0526
 2105SOL    HW117951   3.090   0.306   2.264  0.0530  0.2916 -0.7880
 2105SOL    HW217952   3.199   0.264   2.167 -0.3711 -0.5735 -0.7712
 2106SOL     OW17953   4.605   3.238   6.804  1.0252  0.3700  0.1382
 2106SOL    HW117954   4.623   3.300   6.875  0.3515  1.6610 -0.8042
 2106SOL    HW217955   4.662   3.166   6.830  0.3791 -0.0180  0.4941
 2107SOL     OW17956   1.282   3.298  11.182  0.6855  0.3153  0.5835
 2107SOL    HW117957   1.318   3.383  11.207  0.5621  0.6580 -0.3980
 2107SOL    HW217958   1.355   3.250  11.143  1.6130 -0.5020  3.3861
 2108SOL     OW17959   0.007   1.535   3.093  0.3360 -1.0498  0.0131
 2108SOL    HW117960   4.670   1.496   3.050 -0.1139 -0.6670  0.4647
 2108SOL    HW217961   4.737   1.629   3.079  1.1060 -1.2890 -2.0479
 2109SOL     OW17962   1.046   2.131   5.653 -0.0812 -0.6291  0.3585
 2109SOL    HW117963   0.961   2.113   5.691 -1.6129  0.6178 -2.4837
 2109SOL    HW217964   1.033   2.081   5.572  0.8138  1.2263 -0.9456
 2110SOL     OW17965   0.756   2.687   8.225  0.2899  0.9055  0.3239
 2110SOL    HW117966   0.713   2.772   8.222 -0.8950  0.3403  1.2284
 2110SOL    HW217967   0.844   2.707   8.257 -0.0719  0.0021  1.8961
 2111SOL     OW17968   2.184   1.710   9.029 -0.1819 -0.3846 -0.3146
 2111SOL    HW117969   2.266   1.664   9.012 -0.1706 -0.3679 -0.3057
 2111SOL    HW217970   2.128   1.634   9.044 -0.0817 -0.4431 -0.2424
 2112SOL     OW17971   3.608   3.130  13.754 -0.3384  0.5280 -0.8248
 2112SOL    HW117972   3.668   3.154  13.824  1.0201  0.2853 -1.9107
 2112SOL    HW217973   3.590   3.214  13.711 -2.6118  1.6225  2.3056
 2113SOL     OW17974   2.204   2.642   6.150 -0.2705 -0.0975 -0.0291
 2113SOL    HW117975   2.207   2.683   6.063  3.6375  0.8652  0.5849
 2113SOL    HW217976   2.123   2.594   6.132 -1.4769  1.1808  1.9598
 2114SOL     OW17977   4.247   3.031   7.607 -0.2883 -0.1215  0.0783
 2114SOL    HW117978   4.191   3.105   7.631 -1.4968 -0.7793 -0.6978
 2114SOL    HW217979   4.232   2.977   7.686  1.0877 -0.5993  0.0197
 2115SOL     OW17980   2.016   4.691  10.398  0.2886  0.1639  0.1740
 2115SOL    HW117981   1.920   4.681  10.400  0.4104 -1.0850  0.3486
 2115SOL    HW217982   2.026   0.040  10.364  1.9094 -1.7102 -4.1703
 2116SOL     OW17983   3.974   1.200  15.799  0.4274 -0.4529  0.3671
 2116SOL    HW117984   4.034   1.270  15.773  0.4148 -0.2600  0.8606
 2116SOL    HW217985   3.937   1.224  15.884 -0.1401 -0.9815  0.2689
 2117SOL     OW17986   1.161   2.416   3.629 -0.3231  0.5449 -0.2939
 2117SOL    HW117987   1.136   2.336   3.675 -1.6496  1.3743  0.4138
 2117SOL    HW217988   1.114   2.478   3.686  1.1357  0.9808  0.4297
 2118SOL     OW17989   1.262   1.580   3.376  0.3843  0.0878 -0.0280
 2118SOL    HW117990   1.182   1.621   3.343 -0.2787  0.1358  1.6010
 2118SOL    HW217991   1.273   1.625   3.460 -0.1833 -0.9622  0.6225
 2119SOL     OW17992   3.924   3.550   2.232  0.3770  0.5021  0.1370
 2119SOL    HW117993   3.969   3.566   2.315 -0.8336  0.6866  0.7602
 2119SOL    HW217994   3.908   3.639   2.202 -1.6772 -0.0577 -0.3969
 2120SOL     OW17995   2.061   3.040  15.791  0.0837  0.0146  0.2318
 2120SOL    HW117996   2.104   3.092  15.723  0.6989 -1.9834 -0.8976
 2120SOL    HW217997   2.014   2.979  15.735  2.0396 -0.6059 -0.7299
 2121SOL     OW17998   1.289   2.380   2.587  0.3399  0.3689  0.5355
 2121SOL    HW117999   1.255   2.466   2.612 -2.0695 -0.6183  0.5643
 2121SOL    HW218000   1.264   2.326   2.661  1.6326 -0.8348  0.1086
 2122SOL     OW18001   1.782   2.218   9.468 -0.3311 -0.1702  0.0235
 2122SOL    HW118002   1.694   2.206   9.503  0.3063 -0.5505  1.4710
 2122SOL    HW218003   1.763   2.216   9.374  1.0363 -0.3962 -0.2483
 2123SOL     OW18004   3.720   2.206  10.237 -0.0690 -0.1058  0.5748
 2123SOL    HW118005   3.778   2.255  10.179 -1.3775  0.0482 -0.6129
 2123SOL    HW218006   3.694   2.133  10.181  0.6828 -1.3366  1.8653
 2124SOL     OW18007   0.707   1.615   1.792 -0.2227  0.2136 -0.0479
 2124SOL    HW118008   0.722   1.703   1.827  3.2054 -1.5038  2.8982
 2124SOL    HW218009   0.738   1.572   1.872  1.1693 -0.6063 -1.0111
 2125SOL     OW18010   2.596   1.487   2.918  0.4712 -0.2258 -0.0027
 2125SOL    HW118011   2.522   1.449   2.965 -1.4580  2.2756 -0.9849
 2125SOL    HW218012   2.605   1.420   2.850  0.9780  0.9500 -1.1144
 2126SOL     OW18013   2.231   1.172   3.750  0.9755  0.7868  0.2610
 2126SOL    HW118014   2.221   1.266   3.735  0.2644  0.5248 -0.9404
 2126SOL    HW218015   2.198   1.165   3.840  1.1394  0.6652  0.3107
 2127SOL     OW18016   3.960   1.339  13.543 -0.1936  0.3020  0.3794
 2127SOL    HW118017   4.047   1.339  13.502  0.0853 -2.3964  0.9692
 2127SOL    HW218018   3.913   1.294  13.473  2.5591 -1.2173 -0.5280
 2128SOL     OW18019   4.089   0.008  17.622  0.5025  0.0684 -0.3694
 2128SOL    HW118020   3.995   0.021  17.609  0.0489 -1.3204  1.4587
 2128SOL    HW218021   4.142   0.026  17.545 -0.7551 -1.4413 -1.5929
 2129SOL     OW18022   3.874   2.509   8.101  0.1244  0.3159 -0.3393
 2129SOL    HW118023   3.834   2.487   8.185  0.4576  2.8575  0.4889
 2129SOL    HW218024   3.798   2.547   8.057 -1.3344 -2.2011  0.0435
 2130SOL     OW18025   2.583   3.926   4.336  0.5578  0.3775  0.1024
 2130SOL    HW118026   2.522   3.989   4.297  0.1430 -0.2414 -0.2577
 2130SOL    HW218027   2.585   3.966   4.422  3.9008  0.9553 -0.2417
 2131SOL     OW18028   4.073   1.877  14.936 -0.2592  0.2537  0.1431
 2131SOL    HW118029   4.005   1.943  14.919 -0.9462 -0.3424  0.5500
 2131SOL    HW218030   4.024   1.808  14.980 -0.3978 -0.3957 -1.0426
 2132SOL     OW18031   2.609   3.190   3.898  0.6078  0.8884  0.1519
 2132SOL    HW118032   2.690   3.139   3.890  0.0186  0.3339 -2.2267
 2132SOL    HW218033   2.546   3.130   3.860  0.7285  2.8442 -3.0775
 2133SOL     OW18034   1.273   4.553   2.149  0.1524 -0.0422 -0.3413
 2133SOL    HW118035   1.251   4.478   2.094  0.6386  0.5636 -1.3653
 2133SOL    HW218036   1.301   4.615   2.082 -1.1742  0.6398 -0.2570
 2134SOL     OW18037   3.271   3.762   7.913 -0.5322  0.4537  0.0045
 2134SOL    HW118038   3.197   3.720   7.957 -1.4498  0.6681 -1.3411
 2134SOL    HW218039   3.325   3.685   7.895 -1.4904 -0.4365  0.9276
 2135SOL     OW18040   1.700   1.891  14.651  0.1127 -0.3360  0.5498
 2135SOL    HW118041   1.774   1.852  14.698  0.3360  0.0230  0.4926
 2135SOL    HW218042   1.634   1.823  14.637 -0.5152  0.3021  0.4193
 2136SOL     OW18043   4.530   1.440  16.292 -0.0676 -0.0260  0.3962
 2136SOL    HW118044   4.616   1.431  16.334 -0.6145 -1.1921  1.2593
 2136SOL    HW218045   4.513   1.347  16.276  0.3453 -0.4706  2.5334
 2137SOL     OW18046   4.190   3.217   0.708  0.0022  0.4745 -0.1828
 2137SOL    HW118047   4.221   3.241   0.620 -2.5137  1.0041 -0.9277
 2137SOL    HW218048   4.105   3.261   0.713 -0.9638 -1.5487  1.0093
 2138SOL     OW18049   2.945   3.048   6.244 -0.1797  0.1944  0.2006
 2138SOL    HW118050   2.915   2.970   6.290 -1.2214 -1.7492 -3.7114
 2138SOL    HW218051   2.937   3.014   6.154  2.2694  0.7198 -0.2208
 2139SOL     OW18052   3.090   0.448   5.928  0.1219  0.0264 -0.3076
 2139SOL    HW118053   3.180   0.424   5.904 -0.0660  0.7521 -1.6685
 2139SOL    HW218054   3.055   0.363   5.955  0.2707  0.3716  0.9667
 2140SOL     OW18055   3.161   4.385   6.566  0.1468  0.0369  0.1820
 2140SOL    HW118056   3.232   4.323   6.548  1.0689  1.2780 -0.4565
 2140SOL    HW218057   3.204   4.457   6.613  1.8660 -0.4294 -0.6409
 2141SOL     OW18058   0.007   0.588   5.804 -0.5617  0.1854 -0.2377
 2141SOL    HW118059   0.001   0.656   5.737  0.3002 -0.1474 -0.6444
 2141SOL    HW218060   0.094   0.550   5.800 -1.2536 -1.5518  0.8907
 2142SOL     OW18061   1.256   3.360   4.275 -0.3422  0.4439  0.2386
 2142SOL    HW118062   1.346   3.365   4.243 -1.0225 -0.1766 -1.8379
 2142SOL    HW218063   1.207   3.399   4.203 -0.1346  0.1804 -0.0508
 2143SOL     OW18064   2.809   2.285   7.034  0.5813 -0.0855  0.1478
 2143SOL    HW118065   2.717   2.290   7.059  0.4421 -4.7251  0.5640
 2143SOL    HW218066   2.817   2.374   7.000 -0.9789 -0.1829 -0.4526
 2144SOL     OW18067   0.860   3.322  17.026  0.2471  0.5319 -0.0686
 2144SOL    HW118068   0.827   3.404  17.064 -1.7811 -0.9355  1.3288
 2144SOL    HW218069   0.919   3.360  16.961  1.1047  0.4741  0.6762
 2145SOL     OW18070   3.467   1.796   5.471 -0.0467 -0.6421  0.1852
 2145SOL    HW118071   3.442   1.787   5.379  1.0273  2.2837 -0.4040
 2145SOL    HW218072   3.559   1.821   5.473  0.2501 -1.8740  1.9356
 2146SOL     OW18073   1.497   1.753   1.964  0.3297  0.1112 -0.0316
 2146SOL    HW118074   1.417   1.741   1.912 -0.7598  1.7265  1.2497
 2146SOL    HW218075   1.491   1.844   1.993 -2.0564 -0.1671  0.3441
 2147SOL     OW18076   3.529   4.283   3.206 -0.0714  0.1573 -0.4856
 2147SOL    HW118077   3.449   4.231   3.194  0.5720 -0.5288 -1.7926
 2147SOL    HW218078   3.520   4.298   3.300  1.7442 -0.8937 -0.1547
 2148SOL     OW18079   3.409   1.593   7.914  0.2445 -0.3546 -0.6362
 2148SOL    HW118080   3.461   1.591   7.834  2.1458 -1.2701  0.6230
 2148SOL    HW218081   3.393   1.686   7.934  1.3143 -0.2781 -0.1514
 2149SOL     OW18082   3.887   4.011   3.803  0.2716  0.0058  0.1216
 2149SOL    HW118083   3.970   4.045   3.770  0.0432 -0.4643 -0.9264
 2149SOL    HW218084   3.910   3.983   3.892 -1.1535  1.1805  0.8568
 2150SOL     OW18085   0.285   2.289   4.153  0.6002  0.1828  0.5684
 2150SOL    HW118086   0.199   2.331   4.157 -0.0345 -1.0401 -0.2972
 2150SOL    HW218087   0.317   2.279   4.243 -0.5760  0.4354  1.0188
 2151SOL     OW18088   3.374   3.208   7.828 -0.4488  0.5602 -0.2350
 2151SOL    HW118089   3.324   3.178   7.904  1.6382  0.6531  1.1772
 2151SOL    HW218090   3.306   3.244   7.771 -0.1487 -0.2691 -1.1174
 2152SOL     OW18091   2.170   1.383   9.920 -0.5425  0.0864 -0.0760
 2152SOL    HW118092   2.240   1.447   9.912 -1.5057  1.1937  0.3257
 2152SOL    HW218093   2.112   1.419   9.987  0.0211  1.3881 -0.2855
 2153SOL     OW18094   1.523   2.569   3.366 -0.8502 -0.1491  0.0384
 2153SOL    HW118095   1.494   2.617   3.444 -0.7937  0.9436 -0.6063
 2153SOL    HW218096   1.540   2.481   3.398 -0.6588 -0.2746 -0.4185
 2154SOL     OW18097   1.595   4.171   2.086 -0.2138  0.3301 -0.3604
 2154SOL    HW118098   1.681   4.212   2.096  0.8758 -1.9850 -0.1420
 2154SOL    HW218099   1.615   4.078   2.097 -0.2109  0.3582 -0.1333
 2155SOL     OW18100   3.528   1.809   2.491 -0.0509 -0.0898 -0.0631
 2155SOL    HW118101   3.593   1.742   2.514  0.2460  0.3339  0.3452
 2155SOL    HW218102   3.469   1.803   2.565  1.0191  0.9862  0.8737
 2156SOL     OW18103   0.974   1.666   4.047 -0.5541  0.9012  0.4507
 2156SOL    HW118104   1.054   1.617   4.032 -1.0132  0.3975 -0.3717
 2156SOL    HW218105   0.909   1.617   3.996  1.3914 -3.0281  1.8097
 2157SOL     OW18106   1.913   3.668   7.292 -0.4875  0.0259  0.5954
 2157SOL    HW118107   1.953   3.611   7.357  0.6685 -1.6074 -1.5213
 2157SOL    HW218108   1.962   3.747   7.315  1.5217 -0.8751 -0.5931
 2158SOL     OW18109   1.272   4.444   9.697  0.2215 -0.1122  0.0531
 2158SOL    HW118110   1.307   4.355   9.703  1.1474  0.3339  1.4396
 2158SOL    HW218111   1.296   4.467   9.607 -0.2334  0.8942  0.1881
 2159SOL     OW18112   2.126   2.672  15.666 -0.5115 -0.1478 -0.5056
 2159SOL    HW118113   2.161   2.615  15.734 -0.8168  0.6979  0.3581
 2159SOL    HW218114   2.204   2.716  15.630 -0.6413 -0.6233 -1.3590
 2160SOL     OW18115   4.166   4.696   5.795 -0.4638 -0.6409  0.0304
 2160SOL    HW118116   4.127   0.023   5.739  0.9620  0.5868  0.4787
 2160SOL    HW218117   4.107   4.672   5.866 -0.8245  3.3066  1.0862
 2161SOL     OW18118   2.066   4.631   6.398 -0.0711  0.6046 -0.1884
 2161SOL    HW118119   2.092   4.570   6.329  0.2469 -0.3399  0.7653
 2161SOL    HW218120   2.121   4.702   6.367  0.7342  0.6647  1.3807
 2162SOL     OW18121   0.501   0.809  10.994  0.1255 -0.6647 -0.1838
 2162SOL    HW118122   0.528   0.725  11.031 -0.3732 -0.5850  0.3594
 2162SOL    HW218123   0.458   0.778  10.915 -1.1424  0.2278  0.1649
 2163SOL     OW18124   4.385   4.298   3.417 -0.7201  0.4019 -0.0277
 2163SOL    HW118125   4.383   4.388   3.448  2.2168  0.1733  0.8052
 2163SOL    HW218126   4.473   4.277   3.449 -0.3228 -0.0646 -1.4339
 2164SOL     OW18127   0.537   0.824   7.193  0.0047 -0.2597  0.9471
 2164SOL    HW118128   0.601   0.753   7.199 -1.0064 -1.3128 -0.6854
 2164SOL    HW218129   0.469   0.789   7.135  0.9192  1.2495 -1.0634
 2165SOL     OW18130   0.733   1.182  14.329 -0.3897 -0.1256 -0.1298
 2165SOL    HW118131   0.710   1.092  14.305  6.1321 -1.5343 -1.1362
 2165SOL    HW218132   0.659   1.213  14.381 -0.3064 -0.6593  0.3173
 2166SOL     OW18133   1.495   1.099  11.774 -0.1435 -0.5171  0.0407
 2166SOL    HW118134   1.541   1.176  11.808 -0.1878 -0.2681 -0.4586
 2166SOL    HW218135   1.514   1.113  11.681 -0.1298 -0.2863  0.0783
 2167SOL     OW18136   3.179   3.967   7.665 -0.0312 -0.5112  0.1220
 2167SOL    HW118137   3.236   3.946   7.591  1.2690  0.4252  0.8495
 2167SOL    HW218138   3.241   3.999   7.731  1.9504 -1.9520 -1.0175
 2168SOL     OW18139   1.251   3.547   1.888  0.4975  0.2212  0.0298
 2168SOL    HW118140   1.288   3.632   1.865 -1.0965  0.7380 -0.7010
 2168SOL    HW218141   1.313   3.492   1.841  0.0161 -0.0727 -0.2595
 2169SOL     OW18142   1.535   3.992   3.715  0.6993 -0.3447 -0.0295
 2169SOL    HW118143   1.528   3.961   3.805  0.3367 -1.0319 -0.2963
 2169SOL    HW218144   1.467   4.060   3.717 -1.8239 -2.8915  0.5736
 2170SOL     OW18145   0.434   2.753   0.638 -0.3577 -0.4249  0.2715
 2170SOL    HW118146   0.417   2.832   0.690  0.0508 -0.4058  0.3741
 2170SOL    HW218147   0.353   2.709   0.661 -1.4763 -0.2335 -3.1857
 2171SOL     OW18148   2.185   2.493   6.511  0.1251 -0.1328 -0.3808
 2171SOL    HW118149   2.182   2.463   6.420 -2.0815  0.7222 -0.5847
 2171SOL    HW218150   2.234   2.575   6.506  3.2290 -1.7978  2.7790
 2172SOL     OW18151   0.593   0.107   7.297  0.1327 -0.1790 -0.3965
 2172SOL    HW118152   0.511   0.155   7.284 -0.1075 -0.5626 -0.3082
 2172SOL    HW218153   0.653   0.178   7.319 -0.3034 -0.9082  3.1151
 2173SOL     OW18154   2.942   0.226   5.971 -0.0250  0.1507 -0.3323
 2173SOL    HW118155   2.851   0.199   5.985 -0.0315  1.5796  2.2627
 2173SOL    HW218156   2.970   0.149   5.921 -0.3020  0.5054 -1.0339
 2174SOL     OW18157   0.676   2.690   0.256 -0.2397  0.6083  0.2539
 2174SOL    HW118158   0.604   2.681   0.319  0.7542 -0.2332  1.2860
 2174SOL    HW218159   0.729   2.624   0.301 -0.2734 -0.3237 -1.0923
 2175SOL     OW18160   1.808   2.530  11.086  0.6376 -0.5512  0.1234
 2175SOL    HW118161   1.900   2.553  11.103 -0.1073  1.5598  1.3580
 2175SOL    HW218162   1.765   2.567  11.163 -0.6271 -2.6354  0.3955
 2176SOL     OW18163   2.052   1.923   1.884  0.1071 -0.2418 -0.1345
 2176SOL    HW118164   1.992   1.850   1.868  0.4524 -0.2190 -1.5758
 2176SOL    HW218165   2.054   1.929   1.980  3.0373 -1.2617 -0.1173
 2177SOL     OW18166   3.893   1.557   7.157  0.2207 -0.0027 -0.0980
 2177SOL    HW118167   3.829   1.597   7.216 -0.8431  0.0344 -1.2686
 2177SOL    HW218168   3.853   1.470   7.154  0.2557  0.0475 -2.1003
 2178SOL     OW18169   1.890   1.191   7.258  0.2544 -0.3417  0.6227
 2178SOL    HW118170   1.796   1.196   7.242  0.3421 -2.6653 -0.5802
 2178SOL    HW218171   1.901   1.101   7.229 -0.5615 -0.5847  1.0728
 2179SOL     OW18172   2.307   2.539   3.421  0.4272 -0.3899 -0.4399
 2179SOL    HW118173   2.285   2.484   3.346 -0.8392 -1.4387  0.7029
 2179SOL    HW218174   2.229   2.593   3.432 -0.5729 -1.7654 -0.8979
 2180SOL     OW18175   1.392   0.333  13.599 -0.3918 -0.0748 -0.1906
 2180SOL    HW118176   1.330   0.281  13.651  0.6492  0.2335  1.3741
 2180SOL    HW218177   1.336   0.404  13.571 -3.3892 -1.2589  2.7886
 2181SOL     OW18178   1.914   3.918   4.512 -0.3678  0.3167 -0.7827
 2181SOL    HW118179   1.895   3.861   4.587  2.2823  0.4671  0.0309
 2181SOL    HW218180   1.864   3.998   4.527 -0.9486 -0.4345  1.3372
 2182SOL     OW18181   0.175   2.119   4.519 -0.1840  0.0775  0.0442
 2182SOL    HW118182   0.151   2.028   4.538  0.3350 -0.3801 -1.5722
 2182SOL    HW218183   0.211   2.098   4.434 -0.8642 -0.1235 -0.1958
 2183SOL     OW18184   3.567   3.136   5.967 -0.2572  0.1166  0.1657
 2183SOL    HW118185   3.590   3.194   5.894 -3.0522  1.7603  0.5989
 2183SOL    HW218186   3.636   3.153   6.030  0.2261 -0.9279 -0.0803
 2184SOL     OW18187   2.361   0.864   2.660  0.3331  0.1921  0.2784
 2184SOL    HW118188   2.349   0.879   2.567 -1.3853 -0.9575  0.3273
 2184SOL    HW218189   2.389   0.950   2.693  0.3773 -0.0450  0.8689
 2185SOL     OW18190   4.379   3.751   0.443 -0.1978  0.2502 -0.0720
 2185SOL    HW118191   4.449   3.816   0.439 -0.2162  0.4508  2.8096
 2185SOL    HW218192   4.428   3.690   0.497 -3.2786 -0.6931  1.6707
 2186SOL     OW18193   4.664   3.500   6.938 -0.2143  0.4735 -0.4670
 2186SOL    HW118194   0.010   3.529   6.970 -1.0763 -0.8107  2.9981
 2186SOL    HW218195   4.609   3.574   6.963 -1.8972 -0.6492 -0.8307
 2187SOL     OW18196   1.896   2.141   1.477 -0.0951  0.0630 -0.0893
 2187SOL    HW118197   1.887   2.232   1.505  0.1150  0.5076 -1.4811
 2187SOL    HW218198   1.838   2.103   1.543 -0.2766  0.6736  0.1000
 2188SOL     OW18199   2.691   3.206   7.408  0.2592 -0.5014  0.0828
 2188SOL    HW118200   2.642   3.275   7.363 -0.3456 -1.1185 -0.2209
 2188SOL    HW218201   2.765   3.258   7.437  0.2423 -1.6902  2.2375
 2189SOL     OW18202   4.731   4.173   6.409  0.6411  0.0145  0.5394
 2189SOL    HW118203   0.060   4.226   6.450  0.1420  1.8318 -0.9772
 2189SOL    HW218204   4.689   4.139   6.489 -2.1781 -1.1889 -1.4360
 2190SOL     OW18205   2.149   2.223   3.001 -0.0836 -0.2317  0.1714
 2190SOL    HW118206   2.092   2.151   3.029  1.4188 -1.3568  0.3489
 2190SOL    HW218207   2.222   2.166   2.977 -0.1266 -0.6989  1.1417
 2191SOL     OW18208   1.978   4.699  11.272  0.4115  0.4545 -0.5189
 2191SOL    HW118209   1.998   4.653  11.191 -1.7011 -1.4824  0.0895
 2191SOL    HW218210   1.893   4.736  11.248  0.5466  1.4501  0.5405
 2192SOL     OW18211   1.202   3.810   9.252  0.2149  0.1254 -0.7226
 2192SOL    HW118212   1.284   3.782   9.213  0.1902  0.0091 -0.6934
 2192SOL    HW218213   1.234   3.877   9.313 -0.5656 -0.7145  0.6157
 2193SOL     OW18214   2.610   4.007   9.177  0.4371 -0.1323  0.1758
 2193SOL    HW118215   2.706   4.009   9.174  0.3946 -0.1287 -1.1736
 2193SOL    HW218216   2.594   4.062   9.101 -0.7482 -0.9623 -0.1635
 2194SOL     OW18217   2.184   3.314   6.010 -0.3304 -0.3494  0.4160
 2194SOL    HW118218   2.141   3.253   6.068  2.1420 -1.0247  1.5587
 2194SOL    HW218219   2.109   3.344   5.959  1.3455 -0.0867 -1.8835
 2195SOL     OW18220   0.847   4.230   3.766 -0.1379 -0.3372  0.2060
 2195SOL    HW118221   0.804   4.241   3.851 -0.0439 -0.5751  0.2877
 2195SOL    HW218222   0.881   4.140   3.775  1.1924  0.2375  0.9506
 2196SOL     OW18223   2.418   1.533   7.328  1.2398  0.1909  0.2056
 2196SOL    HW118224   2.453   1.451   7.293 -0.3059 -1.0348  1.5316
 2196SOL    HW218225   2.437   1.525   7.422 -0.3363  0.7438  0.5826
 2197SOL     OW18226   0.418   4.499   8.335 -0.7028 -0.2844  0.8591
 2197SOL    HW118227   0.407   4.535   8.423  2.1564  2.0653  0.2533
 2197SOL    HW218228   0.340   4.534   8.291  0.0026  1.6013  1.1039
 2198SOL     OW18229   4.224   4.321   4.807 -1.0012 -0.1295  0.3148
 2198SOL    HW118230   4.235   4.415   4.798 -0.4151 -0.2630 -0.3979
 2198SOL    HW218231   4.271   4.309   4.890  0.2619  3.5681  0.1399
 2199SOL     OW18232   0.176   1.122  13.268 -0.1647 -0.5824 -0.2830
 2199SOL    HW118233   0.101   1.180  13.258  0.4958  0.4481  0.7048
 2199SOL    HW218234   0.133   1.037  13.278  0.1634 -0.6308  0.7827
 2200SOL     OW18235   1.869   3.885   1.571  0.1740 -0.2779  0.1324
 2200SOL    HW118236   1.791   3.939   1.583 -0.3184 -1.5477  2.8400
 2200SOL    HW218237   1.857   3.810   1.630 -0.8914 -0.1849  0.0273
 2201SOL     OW18238   4.396   1.932   4.425 -0.2569  0.1287 -0.3569
 2201SOL    HW118239   4.484   1.948   4.392 -0.2272 -0.2549 -0.4686
 2201SOL    HW218240   4.405   1.884   4.507  0.2272 -0.9367 -1.0375
 2202SOL     OW18241   4.194   1.344  14.811  0.1960  0.2735  0.2252
 2202SOL    HW118242   4.202   1.248  14.817 -2.7423  0.2036  3.0614
 2202SOL    HW218243   4.130   1.348  14.740  1.3009  0.3002 -0.7539
 2203SOL     OW18244   4.231   0.272  13.395  0.0269  0.4854  0.2073
 2203SOL    HW118245   4.169   0.201  13.413  1.1671 -0.5664 -0.0696
 2203SOL    HW218246   4.170   0.344  13.410 -1.8176 -1.4240  1.9020
 2204SOL     OW18247   4.159   1.816  14.689 -0.2687 -0.5187 -0.1225
 2204SOL    HW118248   4.132   1.830  14.780  0.7223 -0.3090  0.1398
 2204SOL    HW218249   4.217   1.739  14.691  1.0230  0.4570  0.0672
 2205SOL     OW18250   1.684   2.037  10.447  0.5288  0.0142  0.1971
 2205SOL    HW118251   1.750   2.096  10.408  0.2022 -0.6216 -1.3344
 2205SOL    HW218252   1.645   1.997  10.369  0.0225 -1.8073  1.4141
 2206SOL     OW18253   3.863   0.321   6.819  0.6845 -0.0217  0.9825
 2206SOL    HW118254   3.939   0.374   6.795  1.0791 -0.4409  1.3120
 2206SOL    HW218255   3.789   0.364   6.776 -0.3961 -3.8585 -0.9090
 2207SOL     OW18256   3.992   3.258  12.509 -0.0957  0.4814 -0.0565
 2207SOL    HW118257   3.927   3.260  12.579  0.8168  0.4452  0.7953
 2207SOL    HW218258   3.943   3.305  12.442 -0.1525  1.4672  0.6823
 2208SOL     OW18259   1.115   4.529   4.247  0.2574  0.2043  0.1933
 2208SOL    HW118260   1.192   4.538   4.190 -0.7055 -2.0816 -1.4922
 2208SOL    HW218261   1.145   4.565   4.330 -0.7458  0.0832  0.6093
 2209SOL     OW18262   3.499   3.203  10.412 -0.2216 -0.3833 -0.5274
 2209SOL    HW118263   3.433   3.153  10.459  1.2201 -2.5846 -0.8344
 2209SOL    HW218264   3.444   3.242  10.344  1.6069  2.5606 -0.3540
 2210SOL     OW18265   1.927   3.392   9.138  0.2231 -0.4721  0.0495
 2210SOL    HW118266   1.937   3.352   9.052  0.7736  0.8089 -0.4856
 2210SOL    HW218267   2.004   3.449   9.135 -0.5286  0.5910  0.7822
 2211SOL     OW18268   3.206   4.154  16.950 -0.0931 -0.3302  0.0806
 2211SOL    HW118269   3.288   4.187  16.912  0.1472 -0.2209  0.6975
 2211SOL    HW218270   3.198   4.072  16.901  0.0614  0.4561 -1.2671
 2212SOL     OW18271   3.187   2.679   2.730 -0.4270 -0.0139  0.4254
 2212SOL    HW118272   3.172   2.690   2.824 -2.9401 -0.2948  0.0354
 2212SOL    HW218273   3.104   2.637   2.709  0.9467 -2.0057 -0.9767
 2213SOL     OW18274   0.903   3.194  12.842 -0.4574 -0.4493  0.0056
 2213SOL    HW118275   0.987   3.195  12.888 -2.0603  0.0525  2.8942
 2213SOL    HW218276   0.929   3.141  12.766 -0.7696  0.0080 -0.4146
 2214SOL     OW18277   1.456   4.590   8.249 -0.7972 -0.4193  0.2059
 2214SOL    HW118278   1.548   4.600   8.226 -1.1203 -0.2386 -1.0137
 2214SOL    HW218279   1.414   4.579   8.164  0.2780  1.9906 -0.6243
 2215SOL     OW18280   1.584   0.626   6.388 -0.4529 -0.4634 -0.4818
 2215SOL    HW118281   1.668   0.650   6.427  0.4996 -0.1568 -2.7538
 2215SOL    HW218282   1.576   0.702   6.331 -0.0345 -0.6142 -0.7384
 2216SOL     OW18283   0.436   0.272   5.076  0.0837  0.7777 -0.1406
 2216SOL    HW118284   0.383   0.271   5.156 -0.7062 -3.4205 -0.7345
 2216SOL    HW218285   0.371   0.247   5.011  1.2768 -0.1135 -0.9994
 2217SOL     OW18286   1.099   2.055  13.670 -0.2107  0.0497  0.0563
 2217SOL    HW118287   1.044   1.977  13.675 -1.2516  0.7699 -0.0706
 2217SOL    HW218288   1.176   2.017  13.628  0.7177  0.6270  1.2410
 2218SOL     OW18289   0.565   3.141  16.566 -0.7780  0.4691 -0.2758
 2218SOL    HW118290   0.636   3.189  16.608 -1.2023 -1.3049  2.4527
 2218SOL    HW218291   0.543   3.211  16.504 -2.0479  2.3441  2.2872
 2219SOL     OW18292   3.398   2.876   3.659  0.2037 -0.3196 -0.2919
 2219SOL    HW118293   3.340   2.948   3.683 -1.7238 -1.1232 -2.5443
 2219SOL    HW218294   3.417   2.887   3.566  0.6097 -1.8663 -0.3988
 2220SOL     OW18295   2.215   0.074   9.729  0.6050 -0.2437  0.0890
 2220SOL    HW118296   2.245   0.045   9.644 -0.2016 -0.2916 -0.1813
 2220SOL    HW218297   2.241   0.166   9.717 -1.9036  0.5599  0.7575
 2221SOL     OW18298   3.085   2.889  17.091 -1.0606 -0.0187 -0.1985
 2221SOL    HW118299   3.052   2.853  17.009 -0.3249 -0.5079 -0.2731
 2221SOL    HW218300   3.119   2.809  17.130  0.2787  0.3233 -0.6555
 2222SOL     OW18301   0.600   4.042  14.895  0.3289  0.1036 -0.0953
 2222SOL    HW118302   0.650   3.966  14.926  0.2879  0.3774  0.6460
 2222SOL    HW218303   0.603   4.086  14.980  0.8607  1.8763 -1.0299
 2223SOL     OW18304   3.224   3.016   5.012  0.2302  0.1577 -0.1200
 2223SOL    HW118305   3.303   3.053   4.972  0.5449 -0.6597 -0.2695
 2223SOL    HW218306   3.249   2.923   5.006 -0.3366  0.0653 -0.9912
 2224SOL     OW18307   1.724   1.566   8.272 -0.4093 -0.1200  0.1766
 2224SOL    HW118308   1.776   1.605   8.342 -0.1549  2.8267 -1.6589
 2224SOL    HW218309   1.735   1.472   8.289  0.1656 -0.4142 -1.8556
 2225SOL     OW18310   4.481   4.682   5.496 -0.3581 -0.0412  0.2448
 2225SOL    HW118311   4.434   4.642   5.570 -0.6713  2.1390  1.2248
 2225SOL    HW218312   4.408   4.708   5.440  0.1990 -0.3472 -0.6171
 2226SOL     OW18313   3.524   2.562  11.952  0.5872  0.2939  0.2081
 2226SOL    HW118314   3.474   2.613  12.016  1.8342  2.0448 -0.2136
 2226SOL    HW218315   3.602   2.538  12.001 -0.2411 -1.3901  0.6962
 2227SOL     OW18316   0.356   2.061   4.013 -0.0014 -0.4081  0.0234
 2227SOL    HW118317   0.450   2.076   4.000  0.2105 -0.7317  1.1035
 2227SOL    HW218318   0.330   2.143   4.055  1.3338 -0.3157  0.6843
 2228SOL     OW18319   1.551   2.816  13.358 -0.5014  0.1486 -0.5620
 2228SOL    HW118320   1.459   2.836  13.376 -0.5345  0.3981 -1.0119
 2228SOL    HW218321   1.558   2.724  13.383 -0.0901  0.4128  0.2749
 2229SOL     OW18322   1.677   4.447  13.379  0.3574  0.2660 -0.0497
 2229SOL    HW118323   1.591   4.405  13.386  0.6202 -0.1845  0.4703
 2229SOL    HW218324   1.653   4.519  13.438  1.6745  0.8925 -0.2791
 2230SOL     OW18325   3.755   1.715   8.078  0.4167 -0.0649 -0.0029
 2230SOL    HW118326   3.772   1.631   8.034 -1.9189 -0.1740 -0.7274
 2230SOL    HW218327   3.746   1.781   8.010 -1.9453 -1.5787 -1.1802
 2231SOL     OW18328   3.250   3.503  16.969  0.2984 -0.4914 -0.0133
 2231SOL    HW118329   3.267   3.491  17.063  2.9344  0.1001 -0.4199
 2231SOL    HW218330   3.192   3.429  16.951  0.0942 -0.1907 -0.5670
 2232SOL     OW18331   3.034   2.381   8.107  0.0682 -0.5295  0.4853
 2232SOL    HW118332   3.128   2.398   8.109  0.0984 -0.3681 -1.9658
 2232SOL    HW218333   3.021   2.355   8.198 -1.1003  0.0588  0.4897
 2233SOL     OW18334   3.488   2.931   3.396  0.1320  0.0601 -0.1827
 2233SOL    HW118335   3.513   2.883   3.316  4.2978  1.4607  0.2602
 2233SOL    HW218336   3.451   3.008   3.352  1.7252  1.6441  1.2346
 2234SOL     OW18337   0.881   0.222  15.903 -0.0619 -0.1581  0.4567
 2234SOL    HW118338   0.813   0.238  15.969 -1.0911 -0.1394 -0.6156
 2234SOL    HW218339   0.879   0.295  15.842 -1.4777 -0.2417  0.3968
 2235SOL     OW18340   4.278   1.699  10.330  0.7205 -0.3101  0.3621
 2235SOL    HW118341   4.352   1.640  10.346 -0.3021 -1.3972  1.0978
 2235SOL    HW218342   4.325   1.781  10.345 -0.9671  0.4876  1.3274
 2236SOL     OW18343   3.779   0.972   7.888 -0.1796  0.5179  1.3267
 2236SOL    HW118344   3.732   1.023   7.822  1.5905 -1.6620 -1.6115
 2236SOL    HW218345   3.734   0.888   7.873 -0.7926  1.6117 -2.9034
 2237SOL     OW18346   1.535   2.004   9.396  0.2796  0.4043  0.4605
 2237SOL    HW118347   1.515   1.915   9.423 -0.6412 -0.5932 -3.4759
 2237SOL    HW218348   1.499   2.002   9.307 -0.7178  0.2078  0.8746
 2238SOL     OW18349   1.096   2.862   2.444  0.2378 -0.5428 -0.1664
 2238SOL    HW118350   1.083   2.813   2.525 -0.9261  1.1791  0.6918
 2238SOL    HW218351   1.084   2.952   2.474  0.7128 -0.2990 -0.7115
 2239SOL     OW18352   0.569   3.749   9.684  0.1954  0.3278 -0.4376
 2239SOL    HW118353   0.657   3.755   9.645  0.4209 -0.1245 -0.0056
 2239SOL    HW218354   0.511   3.778   9.614  0.3148  0.4568 -0.4832
 2240SOL     OW18355   4.215   0.545   3.128  0.5566 -0.0175 -0.1700
 2240SOL    HW118356   4.204   0.607   3.056 -1.6109 -0.3412 -0.1426
 2240SOL    HW218357   4.244   0.603   3.197 -0.9221  0.0579  0.3942
 2241SOL     OW18358   2.258   0.631  14.419 -0.1587 -0.6006 -0.2782
 2241SOL    HW118359   2.174   0.599  14.386 -1.3200  1.1039  0.9959
 2241SOL    HW218360   2.230   0.713  14.460 -1.6899  0.3916 -3.3082
 2242SOL     OW18361   2.810   4.435   3.980 -0.6363 -0.4962  0.0857
 2242SOL    HW118362   2.868   4.454   3.906 -0.3725 -2.6432 -0.2466
 2242SOL    HW218363   2.746   4.504   3.960  0.7931  0.3533 -1.6338
 2243SOL     OW18364   3.183   4.700   2.273  0.2272  0.3577  0.1631
 2243SOL    HW118365   3.130   4.658   2.206 -0.3100  0.7942  0.3165
 2243SOL    HW218366   3.170   0.053   2.251 -0.4803  0.2241  0.0456
 2244SOL     OW18367   3.365   4.379   4.421 -1.1014  0.2399 -0.1837
 2244SOL    HW118368   3.388   4.467   4.450 -1.3014 -0.4590  2.0494
 2244SOL    HW218369   3.274   4.398   4.396 -0.5783 -1.6794 -3.4604
 2245SOL     OW18370   1.825   4.671  13.306 -0.5366 -0.2303 -0.0081
 2245SOL    HW118371   1.909   4.630  13.325 -0.3005  0.5657  0.6707
 2245SOL    HW218372   1.781   4.591  13.278 -2.5053  1.0981 -0.7161
 2246SOL     OW18373   3.614   1.995  13.756 -0.0704 -0.3689  0.0074
 2246SOL    HW118374   3.563   2.063  13.711  1.0225  0.4877  0.0591
 2246SOL    HW218375   3.571   1.914  13.729  0.3215 -0.3172 -0.7774
 2247SOL     OW18376   1.215   1.045   5.761 -0.1833 -0.0179 -0.2272
 2247SOL    HW118377   1.146   1.028   5.696 -1.7874  0.0651  1.4317
 2247SOL    HW218378   1.249   0.957   5.751  0.8829  0.4583 -0.7383
 2248SOL     OW18379   3.052   4.502   8.393  0.5097  0.1267  0.8870
 2248SOL    HW118380   3.136   4.548   8.397 -0.9913  3.0066 -0.9988
 2248SOL    HW218381   3.078   4.415   8.424  1.7381  0.6892  1.4120
 2249SOL     OW18382   2.176   0.202  10.422 -0.2714  0.1655  0.3381
 2249SOL    HW118383   2.216   0.232  10.503 -0.5167 -1.6637  1.1407
 2249SOL    HW218384   2.233   0.237  10.354 -0.6526 -0.1917 -0.1666
 2250SOL     OW18385   2.951   0.516  12.877  0.5164  0.0100 -0.1459
 2250SOL    HW118386   2.862   0.482  12.884  0.4803 -0.0525 -0.9148
 2250SOL    HW218387   3.005   0.439  12.898 -0.0459 -0.8054 -1.7123
 2251SOL     OW18388   3.924   1.487  17.620 -0.5570  0.1754  0.0618
 2251SOL    HW118389   3.894   1.396  17.621 -2.6729  0.8653 -0.5240
 2251SOL    HW218390   3.849   1.531  17.660 -0.2227  0.1450  0.7259
 2252SOL     OW18391   1.733   3.109   2.031 -0.1998  0.1150 -0.2721
 2252SOL    HW118392   1.673   3.182   2.014 -0.4613 -0.1258 -0.3906
 2252SOL    HW218393   1.762   3.103   1.940  1.4174 -3.2442  0.4784
 2253SOL     OW18394   4.601   3.500   1.957  0.7279  0.3727 -0.1653
 2253SOL    HW118395   4.664   3.454   1.902  0.3935  0.3142 -0.4982
 2253SOL    HW218396   4.566   3.560   1.891  0.1721  0.4767  0.2216
 2254SOL     OW18397   2.027   2.049   0.879 -0.0031  0.0914  0.7309
 2254SOL    HW118398   2.066   2.119   0.826 -1.5365 -0.4368 -1.0797
 2254SOL    HW218399   1.955   2.091   0.927 -0.3666  0.6726 -0.3294
 2255SOL     OW18400   3.735   3.549   6.049  0.1439  0.0851  0.5128
 2255SOL    HW118401   3.703   3.622   6.102 -0.8348  1.1700 -1.5552
 2255SOL    HW218402   3.765   3.483   6.111  0.7010 -0.3478 -0.2182
 2256SOL     OW18403   4.185   1.119  10.779 -0.0616 -0.8913 -0.3615
 2256SOL    HW118404   4.278   1.136  10.767  0.0770 -1.1047  0.4571
 2256SOL    HW218405   4.191   1.028  10.808  1.5700 -0.6259  0.0757
 2257SOL     OW18406   1.897   3.978  12.318 -0.1674  0.3877  0.0615
 2257SOL    HW118407   1.957   3.912  12.283  1.2424  1.3715  0.6361
 2257SOL    HW218408   1.886   4.038  12.244  0.0366 -0.4996 -0.6907
 2258SOL     OW18409   3.374   1.045   1.761 -0.1534  0.1390 -0.5427
 2258SOL    HW118410   3.292   1.026   1.807 -0.6698  1.3333 -0.9732
 2258SOL    HW218411   3.374   0.979   1.691  2.7557 -2.1628  1.6341
 2259SOL     OW18412   2.593   3.421   1.976 -0.4557  0.6506  0.2107
 2259SOL    HW118413   2.581   3.364   2.052 -0.5869  0.8600  0.3464
 2259SOL    HW218414   2.646   3.368   1.916 -3.7688 -1.5318 -0.7973
 2260SOL     OW18415   4.458   2.117   8.230  0.0214  0.7978 -0.1132
 2260SOL    HW118416   4.447   2.039   8.175  0.0460  0.0109  0.9905
 2260SOL    HW218417   4.391   2.176   8.196 -0.1967 -0.2176 -1.4808
 2261SOL     OW18418   3.779   1.955   3.452  0.0820 -0.8046  0.2308
 2261SOL    HW118419   3.820   2.027   3.500  1.4576 -0.2815 -1.6881
 2261SOL    HW218420   3.738   1.910   3.525 -1.3097  0.7435  0.4099
 2262SOL     OW18421   1.896   2.434   5.119  0.0463  0.0293  0.1935
 2262SOL    HW118422   1.987   2.408   5.112 -0.2433 -0.6764 -0.9546
 2262SOL    HW218423   1.876   2.434   5.025  2.7510 -0.1655 -0.3858
 2263SOL     OW18424   0.275   0.049   3.228  1.3757  0.0889 -0.0218
 2263SOL    HW118425   0.284   0.009   3.142  2.1186 -0.4508  0.3084
 2263SOL    HW218426   0.268   4.714   3.286  2.1856  0.2988  0.3420
 2264SOL     OW18427   2.535   0.377   7.123 -0.1523  0.3122  0.2256
 2264SOL    HW118428   2.619   0.388   7.166  0.2549 -0.6034 -0.3108
 2264SOL    HW218429   2.487   0.455   7.149 -1.5089 -1.0099  1.7104
 2265SOL     OW18430   1.995   2.055   4.440 -0.0200  0.2949  0.7502
 2265SOL    HW118431   2.060   1.993   4.407  0.2711  0.4727  0.9956
 2265SOL    HW218432   1.999   2.118   4.368  1.5923  0.7782  1.2795
 2266SOL     OW18433   2.709   0.548   7.839 -0.0892  0.4774  0.6994
 2266SOL    HW118434   2.614   0.555   7.834 -0.1957  0.1029  2.2827
 2266SOL    HW218435   2.730   0.625   7.892 -1.5098  0.6629  0.9963
 2267SOL     OW18436   3.305   2.007  13.143 -0.8983  0.0616 -0.0251
 2267SOL    HW118437   3.214   2.036  13.134 -0.7577  0.2812 -0.7712
 2267SOL    HW218438   3.338   2.088  13.182 -0.0958 -0.3307  0.1128
 2268SOL     OW18439   1.783   4.509   0.311  0.1085 -0.3619  0.5065
 2268SOL    HW118440   1.804   4.433   0.366 -0.8493 -0.4895  0.6837
 2268SOL    HW218441   1.725   4.467   0.247 -0.7478 -2.4606  2.6618
 2269SOL     OW18442   3.524   4.085  17.686  0.2231 -0.1458  0.1525
 2269SOL    HW118443   3.531   4.105  17.592  0.3812  1.1230  0.4335
 2269SOL    HW218444   3.557   3.997  17.701  0.0774 -0.6521 -2.4377
 2270SOL     OW18445   4.097   4.121   7.882  0.1670  0.0565  0.0430
 2270SOL    HW118446   4.054   4.045   7.843  0.1575 -0.1886  0.5288
 2270SOL    HW218447   4.020   4.175   7.898  1.0409  0.7948  1.7989
 2271SOL     OW18448   0.934   3.815   2.353 -0.3048  0.3500  0.0475
 2271SOL    HW118449   0.935   3.779   2.442  0.6244 -1.6785 -0.7777
 2271SOL    HW218450   0.952   3.734   2.305 -1.7949 -0.4125  0.7834
 2272SOL     OW18451   2.950   2.666   4.087  0.6908 -0.0654  0.5040
 2272SOL    HW118452   2.901   2.657   4.169 -1.4545 -0.6335 -0.8288
 2272SOL    HW218453   2.971   2.759   4.088  0.1817  0.0505 -0.4109
 2273SOL     OW18454   0.641   4.612   3.488 -0.2185 -0.3690  0.1341
 2273SOL    HW118455   0.693   4.661   3.552 -0.9574 -1.5632  1.6656
 2273SOL    HW218456   0.702   4.549   3.452  2.0373  1.6634  0.3990
 2274SOL     OW18457   3.559   2.638   5.782  0.5419 -0.4877 -0.7944
 2274SOL    HW118458   3.601   2.694   5.848 -0.7900 -1.1524  0.6128
 2274SOL    HW218459   3.471   2.676   5.777  0.3143 -0.9508 -0.3460
 2275SOL     OW18460   1.872   0.545   3.417 -0.0826 -0.1220  0.8096
 2275SOL    HW118461   1.924   0.497   3.481  1.4710  0.8698  0.2821
 2275SOL    HW218462   1.890   0.638   3.434 -0.0942  0.3574 -1.7874
 2276SOL     OW18463   1.313   2.109  15.105  0.2029 -0.0958 -0.1072
 2276SOL    HW118464   1.386   2.162  15.137  1.7189 -2.2496 -0.0685
 2276SOL    HW218465   1.357   2.078  15.026  0.0090 -2.2332  0.6401
 2277SOL     OW18466   3.242   1.429   4.109  0.5418  0.2620 -0.0268
 2277SOL    HW118467   3.295   1.374   4.051  0.2057 -1.2372  1.1056
 2277SOL    HW218468   3.279   1.514   4.083 -0.4226  0.8525  0.5016
 2278SOL     OW18469   1.069   3.024  17.446 -0.3962  0.2430 -0.0225
 2278SOL    HW118470   1.124   3.078  17.502  0.0365 -2.4434  2.1439
 2278SOL    HW218471   1.011   3.085  17.399 -0.7474  0.3172  0.4991
 2279SOL     OW18472   3.376   3.140   8.530  0.4409  0.0929  0.5733
 2279SOL    HW118473   3.357   3.101   8.616 -0.5349  0.5325  0.5593
 2279SOL    HW218474   3.457   3.098   8.504  0.9893  0.3301  1.9020
 2280SOL     OW18475   1.075   4.175  17.481 -0.1264 -1.0785  0.2221
 2280SOL    HW118476   1.138   4.194  17.411  1.0744  0.9148  1.8736
 2280SOL    HW218477   1.058   4.264  17.512  1.0931 -0.2503 -1.5295
 2281SOL     OW18478   1.998   2.111   8.080  0.9087  0.2564 -0.1941
 2281SOL    HW118479   2.088   2.093   8.107  0.6832  2.0202  1.7643
 2281SOL    HW218480   1.954   2.027   8.094  0.9602  0.0076 -1.5416
 2282SOL     OW18481   1.946   0.386  14.823 -0.5760 -0.0196  0.1540
 2282SOL    HW118482   1.995   0.407  14.743 -1.2595 -0.3030 -0.3305
 2282SOL    HW218483   2.000   0.445  14.877 -0.4811  1.6904 -1.8048
 2283SOL     OW18484   1.988   2.634  10.162  0.5093 -0.0239 -0.0446
 2283SOL    HW118485   2.034   2.590  10.090  1.3788 -0.1195  0.5703
 2283SOL    HW218486   2.013   2.726  10.154  0.9701 -0.3131 -1.9164
 2284SOL     OW18487   1.077   2.258   1.775  0.2739  0.0813  0.0034
 2284SOL    HW118488   1.034   2.338   1.742 -0.4647 -0.6210 -0.7517
 2284SOL    HW218489   1.104   2.280   1.864 -0.6156  0.5353  0.1601
 2285SOL     OW18490   0.802   0.357   9.734  0.4135  0.1646 -0.2356
 2285SOL    HW118491   0.875   0.380   9.792  0.2350  0.8529 -0.2793
 2285SOL    HW218492   0.841   0.294   9.674 -1.0572  0.1080 -1.1256
 2286SOL     OW18493   2.993   2.446  17.309 -0.3574 -0.8708 -0.1886
 2286SOL    HW118494   2.915   2.440  17.365 -0.1584 -1.0156  0.0694
 2286SOL    HW218495   2.956   2.420  17.225 -1.1052  3.1013 -1.0909
 2287SOL     OW18496   1.016   4.564  14.336  0.5175  0.1730  0.5762
 2287SOL    HW118497   1.020   4.482  14.287  2.1913  0.0696  0.8565
 2287SOL    HW218498   0.989   4.528  14.421  1.9501 -0.0458  0.9417
 2288SOL     OW18499   4.419   0.959  15.868 -0.5522 -0.1318  0.2522
 2288SOL    HW118500   4.389   1.021  15.801 -1.7141 -1.1831 -0.1940
 2288SOL    HW218501   4.505   0.947  15.828 -0.3623 -0.2965  0.7122
 2289SOL     OW18502   2.019   3.375   2.415  0.8569 -0.1256  0.0859
 2289SOL    HW118503   1.939   3.392   2.465 -0.5257 -2.9619 -1.1888
 2289SOL    HW218504   2.036   3.281   2.416 -0.2806 -0.3347 -0.6077
 2290SOL     OW18505   4.197   3.684  10.025 -0.6613 -0.6285 -0.8495
 2290SOL    HW118506   4.184   3.655  10.116  0.0448  1.1661 -0.1589
 2290SOL    HW218507   4.130   3.753  10.027  2.3438  2.2671 -0.2305
 2291SOL     OW18508   0.004   3.744   3.079  0.2133 -0.2539 -0.2551
 2291SOL    HW118509   0.039   3.825   3.116  1.9116 -0.1379 -2.1490
 2291SOL    HW218510   0.084   3.693   3.094 -0.0206 -0.4191  0.4604
 2292SOL     OW18511   3.597   3.104   3.053  0.0628 -0.4124 -0.2796
 2292SOL    HW118512   3.558   3.191   3.061  1.0086 -0.1637  1.6288
 2292SOL    HW218513   3.515   3.055   3.053 -0.4847  0.5051  1.7215
 2293SOL     OW18514   2.844   2.922   9.451  0.0183 -0.1988 -0.5917
 2293SOL    HW118515   2.919   2.972   9.420 -0.6331 -0.9036 -3.2537
 2293SOL    HW218516   2.888   2.854   9.502 -1.3687 -0.3968  0.3540
 2294SOL     OW18517   0.012   2.482  14.283  0.3398 -0.2114  0.3202
 2294SOL    HW118518   0.016   2.523  14.369 -0.8944 -0.2689  0.4025
 2294SOL    HW218519   0.098   2.513  14.256  0.2229 -0.5599 -0.4829
 2295SOL     OW18520   0.774   3.018   2.536 -0.0057 -0.5234  0.2214
 2295SOL    HW118521   0.806   3.040   2.624 -0.4209 -0.7378  0.4276
 2295SOL    HW218522   0.740   2.930   2.553 -1.9684 -0.2468 -2.2275
 2296SOL     OW18523   2.932   4.244  16.952 -0.6269  0.4654 -0.4955
 2296SOL    HW118524   2.921   4.301  17.029 -0.4071  0.1015 -0.1903
 2296SOL    HW218525   3.023   4.218  16.964 -1.5564 -2.3225  0.5419
 2297SOL     OW18526   3.631   0.907   5.465  0.4531 -0.9235 -0.3190
 2297SOL    HW118527   3.638   0.872   5.376  1.3132  0.5924 -0.8442
 2297SOL    HW218528   3.702   0.971   5.467 -1.1627  0.8186  1.3263
 2298SOL     OW18529   0.550   1.488   1.545  0.4310  0.6404  0.1107
 2298SOL    HW118530   0.506   1.538   1.613  1.0023 -1.5022  2.0415
 2298SOL    HW218531   0.566   1.414   1.603 -1.2683  1.3096  1.4259
 2299SOL     OW18532   2.181   3.431   4.448  0.1358 -0.4434 -0.1714
 2299SOL    HW118533   2.108   3.370   4.434  0.6222 -1.2996  0.9306
 2299SOL    HW218534   2.179   3.460   4.539  1.1942 -4.0400  1.0196
 2300SOL     OW18535   0.888   2.790   9.147 -0.6634  0.2801 -0.1520
 2300SOL    HW118536   0.904   2.858   9.081  2.5899 -1.1582 -0.8649
 2300SOL    HW218537   0.860   2.712   9.098 -0.5672  0.2217 -0.1154
 2301SOL     OW18538   1.161   0.559  13.954  0.1847 -0.4261 -0.6082
 2301SOL    HW118539   1.158   0.641  13.905  0.5013  0.0400  0.1489
 2301SOL    HW218540   1.225   0.574  14.024 -1.2799  0.7764  0.4712
 2302SOL     OW18541   4.597   4.686   1.827  0.0556  0.0284 -0.0504
 2302SOL    HW118542   4.608   4.654   1.916 -0.1180  1.0350  0.3400
 2302SOL    HW218543   4.626   0.037   1.836 -2.6512  0.7600  1.3870
 2303SOL     OW18544   1.783   2.736   3.941 -0.1673  0.1375  0.2187
 2303SOL    HW118545   1.711   2.679   3.967  0.5009 -1.1595 -0.8036
 2303SOL    HW218546   1.753   2.817   3.983 -3.4941 -0.5987 -0.7108
 2304SOL     OW18547   3.188   2.254   2.701  0.2354  0.4211  0.1743
 2304SOL    HW118548   3.123   2.323   2.714  0.9544  0.5280  3.2598
 2304SOL    HW218549   3.205   2.224   2.790  0.1496  2.4430  0.8811
 2305SOL     OW18550   4.500   0.312   4.662  0.3796 -0.2099 -0.1967
 2305SOL    HW118551   4.526   0.252   4.732  0.3122  0.0758  0.0734
 2305SOL    HW218552   4.574   0.300   4.604  0.8333  2.0376 -0.0756
 2306SOL     OW18553   2.213   0.775  14.679  0.2088  0.2303  0.1903
 2306SOL    HW118554   2.171   0.853  14.716 -1.4578 -0.2426 -0.7456
 2306SOL    HW218555   2.167   0.707  14.727  0.3252  1.6453  2.3139
 2307SOL     OW18556   0.460   0.083   1.935 -0.1384  0.7902  0.0627
 2307SOL    HW118557   0.545   0.104   1.975  1.9193 -0.3665 -3.7321
 2307SOL    HW218558   0.464   0.157   1.875 -0.0780  0.8830  0.1801
 2308SOL     OW18559   2.100   0.485   7.872 -0.0083  0.4058 -0.0340
 2308SOL    HW118560   2.166   0.433   7.827 -0.6806  0.2171 -0.7928
 2308SOL    HW218561   2.165   0.537   7.919 -0.0952  0.8990 -0.4666
 2309SOL     OW18562   1.025   0.015  15.832  0.8944  0.2564 -0.2233
 2309SOL    HW118563   1.077   0.054  15.761 -1.1629  2.9681 -0.2481
 2309SOL    HW218564   0.979   0.097  15.847  1.5611  0.4297  0.8740
 2310SOL     OW18565   3.090   4.664   8.674  0.2870  0.0352  0.3488
 2310SOL    HW118566   3.079   4.646   8.580  1.2005 -1.7906  0.5851
 2310SOL    HW218567   2.996   4.678   8.682  0.5351  0.9449  1.6647
 2311SOL     OW18568   1.147   0.758   4.684 -0.0085  0.2124 -0.2525
 2311SOL    HW118569   1.142   0.832   4.624 -2.7542  1.0930  1.0395
 2311SOL    HW218570   1.072   0.773   4.742  0.1357 -1.0564  0.2692
 2312SOL     OW18571   2.381   3.147   3.452 -0.1375  1.0910 -0.2754
 2312SOL    HW118572   2.456   3.177   3.400  0.7086  1.8760  1.4090
 2312SOL    HW218573   2.337   3.088   3.392 -1.9677 -0.2020  2.3430
 2313SOL     OW18574   2.575   2.681  15.069  0.1877  0.9551 -0.4081
 2313SOL    HW118575   2.487   2.717  15.059 -0.4651 -0.1755  1.3332
 2313SOL    HW218576   2.556   2.621  15.141  1.7144  1.7576  0.6585
 2314SOL     OW18577   2.842   3.709   7.897 -0.5024  0.3578  0.5053
 2314SOL    HW118578   2.909   3.675   7.957 -1.7037 -0.7118  1.2487
 2314SOL    HW218579   2.881   3.782   7.850 -0.2243 -0.9852 -1.3309
 2315SOL     OW18580   3.352   3.407   2.636 -0.1675  0.3232 -0.3790
 2315SOL    HW118581   3.404   3.369   2.707  1.7235  0.1911 -1.8332
 2315SOL    HW218582   3.288   3.457   2.687 -1.8032 -2.0254 -0.0906
 2316SOL     OW18583   1.868   0.116   4.371  0.3141 -0.1685 -0.7526
 2316SOL    HW118584   1.841   0.027   4.347  0.3544 -0.0399 -1.2648
 2316SOL    HW218585   1.895   0.108   4.463  1.3359 -1.5378 -1.1746
 2317SOL     OW18586   2.070   4.218   4.785 -0.2599 -0.0863  0.0870
 2317SOL    HW118587   2.048   4.167   4.863  0.1470 -2.7557 -1.5248
 2317SOL    HW218588   2.165   4.228   4.794  0.0250 -0.4487 -2.3158
 2318SOL     OW18589   2.738   2.865   8.520 -0.0625  0.1263 -0.2220
 2318SOL    HW118590   2.762   2.877   8.428 -0.9179  2.0107 -0.1870
 2318SOL    HW218591   2.828   2.857   8.553 -0.2418 -2.1618 -0.2741
 2319SOL     OW18592   2.677   3.940   3.735 -0.2002  0.1871 -0.4059
 2319SOL    HW118593   2.723   3.892   3.804 -1.1130 -0.3509 -0.1639
 2319SOL    HW218594   2.621   3.994   3.790  0.1158  0.5966 -0.4905
 2320SOL     OW18595   1.027   4.497   5.714 -0.3485  0.2619  0.4466
 2320SOL    HW118596   1.053   4.419   5.665  3.9065  1.8436  0.1682
 2320SOL    HW218597   0.933   4.485   5.722 -0.1731 -0.3127  1.8245
 2321SOL     OW18598   1.161   1.455   6.265  0.1951  0.1744  1.0680
 2321SOL    HW118599   1.094   1.498   6.213  0.6728 -1.3825 -0.8495
 2321SOL    HW218600   1.136   1.490   6.350 -1.3815  0.6731  0.3848
 2322SOL     OW18601   3.711   0.705   6.770  0.4049  0.5729  0.5246
 2322SOL    HW118602   3.623   0.739   6.784  0.5002  0.1925  2.0160
 2322SOL    HW218603   3.761   0.777   6.808  2.1270  0.0002 -0.6411
 2323SOL     OW18604   4.421   4.145  14.993 -0.1470 -0.2811  0.0565
 2323SOL    HW118605   4.337   4.100  15.006 -0.9380  0.6495 -1.8979
 2323SOL    HW218606   4.423   4.132  14.899  2.2729 -1.5231  0.2774
 2324SOL     OW18607   2.661   0.402   0.473  0.3490 -0.0958  0.5100
 2324SOL    HW118608   2.745   0.446   0.485 -0.2815  1.5445 -1.0122
 2324SOL    HW218609   2.646   0.344   0.547  1.0852 -0.0463  0.6955
 2325SOL     OW18610   3.238   1.908   4.552 -0.2088 -0.4615  0.3719
 2325SOL    HW118611   3.271   1.986   4.596  0.0727  0.7710 -2.0510
 2325SOL    HW218612   3.228   1.861   4.635  1.6718 -1.6668 -0.0742
 2326SOL     OW18613   0.347   1.681   5.484  0.1780  0.1441 -0.6150
 2326SOL    HW118614   0.292   1.613   5.446  0.5356 -0.7484  0.4793
 2326SOL    HW218615   0.389   1.710   5.403  0.5584 -2.5609 -1.3784
 2327SOL     OW18616   3.990   0.570   6.848  0.2261 -0.5821  0.2519
 2327SOL    HW118617   4.053   0.581   6.777  1.8131  0.7150  1.8650
 2327SOL    HW218618   3.933   0.647   6.843  0.1450 -0.7456 -1.4984
 2328SOL     OW18619   2.562   2.838   9.657  0.2980  0.7046 -0.2332
 2328SOL    HW118620   2.632   2.786   9.619 -2.1848 -2.3132 -0.6773
 2328SOL    HW218621   2.590   2.827   9.748 -2.3010  1.4043  0.6560
 2329SOL     OW18622   3.082   4.138   7.406  0.7893  0.2660 -0.6736
 2329SOL    HW118623   3.007   4.107   7.457 -0.1843  0.2925 -2.0986
 2329SOL    HW218624   3.088   4.225   7.447 -3.1188  0.0841  0.3315
 2330SOL     OW18625   0.122   0.844   3.509 -0.3692  0.3831 -0.0674
 2330SOL    HW118626   0.125   0.936   3.486 -0.2467  0.1324 -1.0531
 2330SOL    HW218627   0.094   0.854   3.600 -2.8886  1.6429 -0.9760
 2331SOL     OW18628   2.427   3.797   7.773 -0.1364  0.1604  0.2554
 2331SOL    HW118629   2.351   3.738   7.773  0.3764 -0.5017 -0.3029
 2331SOL    HW218630   2.439   3.819   7.680 -0.2417 -0.0472  0.1920
 2332SOL     OW18631   3.576   3.626   7.534  0.2592  0.4065  0.0104
 2332SOL    HW118632   3.544   3.693   7.595  0.8291  0.2317  0.5001
 2332SOL    HW218633   3.669   3.646   7.541  0.1218  1.1527 -0.3238
 2333SOL     OW18634   3.117   2.862   7.832  0.5003 -0.0569  0.1965
 2333SOL    HW118635   3.024   2.867   7.853  0.3623  2.9435 -1.1043
 2333SOL    HW218636   3.104   2.878   7.739 -0.4884  1.0055  0.5305
 2334SOL     OW18637   2.429   0.582   2.937 -0.2343  0.1639  0.0704
 2334SOL    HW118638   2.343   0.622   2.955 -1.5674 -2.6628 -0.1133
 2334SOL    HW218639   2.414   0.544   2.851  0.2349  2.3698 -1.0013
 2335SOL     OW18640   2.197   3.647  15.555  0.6028 -0.0037  0.2295
 2335SOL    HW118641   2.151   3.718  15.598  2.2315  0.1891  1.6599
 2335SOL    HW218642   2.283   3.663  15.594  0.7075  2.3992 -1.0158
 2336SOL     OW18643   1.953   3.283  14.111  0.5691 -0.7751  0.1317
 2336SOL    HW118644   1.975   3.244  14.027 -1.9498  1.7901 -1.6875
 2336SOL    HW218645   1.892   3.213  14.136 -0.1248 -0.2206 -0.0058
 2337SOL     OW18646   1.703   2.305   8.305 -0.0354 -0.2433  0.8066
 2337SOL    HW118647   1.702   2.259   8.389  3.8979 -1.6732  0.0872
 2337SOL    HW218648   1.628   2.260   8.266 -0.8939  1.8151  0.1209
 2338SOL     OW18649   0.010   1.535   6.527  0.6146 -0.2171 -0.7441
 2338SOL    HW118650   0.029   1.597   6.597 -3.8624 -0.1230  0.3922
 2338SOL    HW218651   4.667   1.498   6.559  0.1258  1.2039 -0.3312
 2339SOL     OW18652   1.503   2.057   4.134 -0.0357 -0.4968  0.2295
 2339SOL    HW118653   1.426   2.020   4.090  0.5253 -0.8965 -0.4243
 2339SOL    HW218654   1.468   2.132   4.181  0.4284 -1.2386  1.7376
 2340SOL     OW18655   2.743   0.830   5.083 -0.0925 -0.5015 -0.0675
 2340SOL    HW118656   2.806   0.892   5.046  0.7225 -0.4193  1.4820
 2340SOL    HW218657   2.689   0.881   5.143  0.5057 -1.0423  0.9365
 2341SOL     OW18658   4.081   2.111   2.090  0.3944  0.1619  1.2275
 2341SOL    HW118659   4.172   2.085   2.074  0.2106 -1.2043  2.3716
 2341SOL    HW218660   4.048   2.112   2.000  2.1450  0.6691  0.5797
 2342SOL     OW18661   0.212   4.256  13.533  0.3157 -0.3899  0.1793
 2342SOL    HW118662   0.171   4.308  13.464  0.7851  1.1228  1.0473
 2342SOL    HW218663   0.235   4.323  13.597 -0.3115  1.8822 -1.9555
 2343SOL     OW18664   1.295   3.645   8.575 -0.2534  0.5608 -0.1142
 2343SOL    HW118665   1.246   3.566   8.597 -0.6804  1.1277  0.9790
 2343SOL    HW218666   1.306   3.645   8.480 -0.6016 -1.1988 -0.1486
 2344SOL     OW18667   0.214   0.246   3.398  0.0267 -0.0696 -0.6166
 2344SOL    HW118668   0.135   0.201   3.429  1.1207 -2.2209 -0.9754
 2344SOL    HW218669   0.233   0.196   3.318 -0.9625 -1.0228 -0.2667
 2345SOL     OW18670   4.363   2.307   5.800  0.1355  0.4198  0.2291
 2345SOL    HW118671   4.360   2.330   5.707 -1.3821 -0.5089  0.0554
 2345SOL    HW218672   4.444   2.256   5.807 -0.9945 -1.0385  2.5358
 2346SOL     OW18673   2.983   2.143   2.207  0.6229  0.4155 -0.1804
 2346SOL    HW118674   2.889   2.150   2.227  0.5763  0.3651 -0.3745
 2346SOL    HW218675   2.991   2.223   2.154  0.2827 -0.1362 -1.0749
 2347SOL     OW18676   1.964   1.645   6.044  0.1049 -0.0389  0.0358
 2347SOL    HW118677   1.931   1.724   6.001 -1.5740 -1.3610 -1.1201
 2347SOL    HW218678   2.003   1.679   6.125 -0.2544  0.7667 -0.1273
 2348SOL     OW18679   3.917   4.068   6.857  0.0906  0.5999 -0.1517
 2348SOL    HW118680   3.970   4.041   6.932  0.2649 -1.9609 -1.2116
 2348SOL    HW218681   3.856   4.135   6.887  1.8835  2.3397 -0.4491
 2349SOL     OW18682   2.768   1.693   5.954 -0.3969  0.0181  0.0865
 2349SOL    HW118683   2.681   1.697   5.913  0.3071  0.0087 -1.4172
 2349SOL    HW218684   2.817   1.654   5.881 -0.1947 -0.7063  0.6109
 2350SOL     OW18685   1.942   4.457   7.560  0.4049  0.5040 -0.5227
 2350SOL    HW118686   1.961   4.489   7.472 -2.2673 -0.9895 -1.6388
 2350SOL    HW218687   2.033   4.444   7.588  0.6649 -1.1028 -2.1569
 2351SOL     OW18688   0.979   1.298  14.238 -0.5811  0.1799  0.8520
 2351SOL    HW118689   0.886   1.276  14.246 -0.6137 -0.6294 -1.7546
 2351SOL    HW218690   0.970   1.371  14.176 -1.3070 -0.6898 -0.0702
 2352SOL     OW18691   4.434   2.290   9.322  0.3855  0.2897  0.3500
 2352SOL    HW118692   4.501   2.272   9.387 -1.4809 -3.6032  1.1967
 2352SOL    HW218693   4.418   2.384   9.338  0.3901  0.2330  0.6937
 2353SOL     OW18694   3.055   4.466   5.242 -0.1087  0.3696  0.6813
 2353SOL    HW118695   3.045   4.556   5.209  1.5574 -0.0641 -1.0697
 2353SOL    HW218696   2.987   4.416   5.198 -1.8070  2.8555  0.5209
 2354SOL     OW18697   1.789   1.566   8.007  0.2525  0.1840  0.0110
 2354SOL    HW118698   1.765   1.583   8.098 -2.7297  0.2273 -0.7802
 2354SOL    HW218699   1.748   1.481   7.990  1.0263  0.8580 -5.1650
 2355SOL     OW18700   2.961   2.146   4.902 -0.9161 -0.4711  0.1027
 2355SOL    HW118701   3.050   2.154   4.936 -1.7645  0.8084  2.0059
 2355SOL    HW218702   2.971   2.079   4.834  1.6746  0.4746 -0.4530
 2356SOL     OW18703   0.967   4.205   1.730  0.1281 -0.6591  0.1269
 2356SOL    HW118704   0.958   4.248   1.815  0.4543 -1.3737  0.5187
 2356SOL    HW218705   0.919   4.123   1.743 -1.1738  0.3630  1.6661
 2357SOL     OW18706   3.855   2.451   4.541  0.5173 -0.2119  0.3794
 2357SOL    HW118707   3.867   2.413   4.628  0.6714 -0.3527  0.2953
 2357SOL    HW218708   3.877   2.373   4.490 -0.2436 -0.1521 -0.0565
 2358SOL     OW18709   4.657   1.800  12.430 -0.8469 -0.8994 -0.1574
 2358SOL    HW118710   4.692   1.888  12.439 -0.4774 -1.2621  1.7993
 2358SOL    HW218711   4.612   1.811  12.346 -0.2139  1.5937 -0.1753
 2359SOL     OW18712   3.738   0.743  12.021  0.0962  0.1060 -0.2579
 2359SOL    HW118713   3.784   0.706  12.097 -0.4565  0.3288  0.1875
 2359SOL    HW218714   3.694   0.661  12.002 -0.3845 -0.0616  1.6014
 2360SOL     OW18715   3.639   3.188   7.874 -0.0647  0.3744  0.0291
 2360SOL    HW118716   3.653   3.231   7.958 -1.3069  0.6357  0.1098
 2360SOL    HW218717   3.548   3.213   7.857  0.4245  1.0065 -1.6918
 2361SOL     OW18718   2.036   2.575   7.402 -0.0023 -0.3572 -0.3429
 2361SOL    HW118719   2.051   2.549   7.311 -0.1832 -0.8022 -0.2490
 2361SOL    HW218720   2.031   2.487   7.440  2.1946 -0.6140 -0.6767
 2362SOL     OW18721   0.796   1.741  17.505  0.3925  0.1634  0.2163
 2362SOL    HW118722   0.890   1.735  17.521  0.5547 -1.4276 -1.2598
 2362SOL    HW218723   0.785   1.836  17.502  2.6905  0.5428  3.2729
 2363SOL     OW18724   1.135   4.287   1.536 -0.0572 -0.3835  0.2919
 2363SOL    HW118725   1.200   4.235   1.583  0.0035 -1.7769 -1.3669
 2363SOL    HW218726   1.068   4.274   1.604 -0.4289 -1.3848 -0.2668
 2364SOL     OW18727   1.589   2.223  10.042 -0.3202  0.1253  0.2336
 2364SOL    HW118728   1.561   2.310  10.015  1.5668  1.4945  2.6832
 2364SOL    HW218729   1.507   2.198  10.086  0.7110  0.0796  2.1529
 2365SOL     OW18730   2.991   0.722   5.953 -0.4398  0.0809 -0.3827
 2365SOL    HW118731   3.030   0.754   5.871 -0.2626  0.5747 -0.1040
 2365SOL    HW218732   3.049   0.650   5.978 -3.9397 -1.5348  2.9797
 2366SOL     OW18733   2.049   4.243   5.706 -0.6539  0.0474  0.2710
 2366SOL    HW118734   1.995   4.230   5.628  0.8589  1.3304 -1.0027
 2366SOL    HW218735   2.013   4.172   5.759  2.0946 -0.5078  1.3557
 2367SOL     OW18736   3.876   4.296   9.539  0.2490 -0.2243 -0.1745
 2367SOL    HW118737   3.815   4.347   9.591  2.5869  0.5764  1.7538
 2367SOL    HW218738   3.956   4.317   9.587 -0.7993 -1.0021  1.8853
 2368SOL     OW18739   0.191   0.213  13.399  0.5367 -0.4415  0.3845
 2368SOL    HW118740   0.285   0.229  13.392 -0.1259  3.1794 -0.3238
 2368SOL    HW218741   0.173   0.277  13.469  0.1424  1.6233 -1.6058
 2369SOL     OW18742   3.479   4.270   3.723 -0.7297  0.2903 -0.4453
 2369SOL    HW118743   3.533   4.341   3.690  1.0235 -1.0537 -0.5007
 2369SOL    HW218744   3.456   4.226   3.641 -0.9822  1.2845 -0.8991
 2370SOL     OW18745   2.177   1.193   6.653 -0.3400 -0.6488  0.4946
 2370SOL    HW118746   2.105   1.251   6.678 -0.5813 -0.3935 -0.7754
 2370SOL    HW218747   2.138   1.154   6.574  0.8048 -1.1521  0.1735
 2371SOL     OW18748   1.153   2.721   0.673 -0.6431 -0.1482  0.1093
 2371SOL    HW118749   1.198   2.737   0.590 -3.0871 -0.9191 -1.3633
 2371SOL    HW218750   1.063   2.728   0.641 -0.0309 -0.4773 -1.7314
 2372SOL     OW18751   0.817   3.044  10.687  0.0243 -0.1716  0.1056
 2372SOL    HW118752   0.873   2.969  10.708 -0.7651 -0.4348  1.2503
 2372SOL    HW218753   0.783   2.999  10.610 -0.0876 -0.1491  0.1427
 2373SOL     OW18754   3.157   2.768   2.471 -0.3317 -0.3774  0.1125
 2373SOL    HW118755   3.141   2.853   2.511  0.0601 -0.2263 -0.0579
 2373SOL    HW218756   3.160   2.709   2.547  0.4232  1.3054  1.3819
 2374SOL     OW18757   3.682   4.595  12.483 -0.1586  0.2340 -0.5306
 2374SOL    HW118758   3.634   4.514  12.500  0.4209  0.1605  0.7732
 2374SOL    HW218759   3.702   4.588  12.390 -1.3576 -1.3766 -0.6628
 2375SOL     OW18760   1.453   3.374   8.378 -0.2796  0.0802  0.6462
 2375SOL    HW118761   1.496   3.401   8.459  0.7443  0.0008  0.1256
 2375SOL    HW218762   1.517   3.396   8.311 -1.7295 -0.3011 -0.8681
 2376SOL     OW18763   3.334   0.605   0.661  0.2424  0.4246  0.0043
 2376SOL    HW118764   3.411   0.557   0.630 -1.5042 -2.2164 -0.2344
 2376SOL    HW218765   3.307   0.554   0.737 -0.3700 -1.9575 -1.8015
 2377SOL     OW18766   3.164   4.240  11.192  0.1211 -0.9064  0.1515
 2377SOL    HW118767   3.150   4.147  11.180  1.2479 -1.2450  1.4590
 2377SOL    HW218768   3.160   4.272  11.102 -0.5731  1.7419  1.1031
 2378SOL     OW18769   0.330   3.304  14.408  0.7283 -0.2014  0.0679
 2378SOL    HW118770   0.362   3.335  14.323 -3.6756  3.5104 -0.2268
 2378SOL    HW218771   0.401   3.241  14.422 -0.5276 -1.7355 -0.4350
 2379SOL     OW18772   4.658   0.920   5.203 -0.1752  0.0580  0.4867
 2379SOL    HW118773   4.642   0.858   5.275 -0.3562  1.0056  1.2538
 2379SOL    HW218774   4.734   0.884   5.159  0.4732  1.5176  0.4299
 2380SOL     OW18775   0.629   3.771   6.752 -0.4734 -0.5735 -0.0766
 2380SOL    HW118776   0.625   3.790   6.845  1.8904 -0.9007  0.0989
 2380SOL    HW218777   0.719   3.739   6.742 -1.1867 -2.0373 -1.9559
 2381SOL     OW18778   3.911   0.551   7.111 -0.5657  0.1615 -0.1678
 2381SOL    HW118779   3.942   0.567   7.022 -0.0484  0.0717 -0.0014
 2381SOL    HW218780   3.995   0.558   7.157  0.3537  1.0872 -1.9695
 2382SOL     OW18781   4.294   1.748  17.045 -0.3272 -0.4117 -0.2772
 2382SOL    HW118782   4.260   1.788  17.125  0.2164 -0.7472  0.1232
 2382SOL    HW218783   4.359   1.690  17.085  0.8998  0.0448 -1.5828
 2383SOL     OW18784   1.732   2.070  16.525  0.1649 -0.3423 -0.3900
 2383SOL    HW118785   1.778   2.108  16.451  0.2917  1.1237  0.4242
 2383SOL    HW218786   1.728   1.975  16.514  3.1366 -0.3713 -1.1079
 2384SOL     OW18787   2.562   4.145   6.482 -0.2912  0.9088 -0.1970
 2384SOL    HW118788   2.560   4.049   6.484  0.1277  0.8790 -1.4900
 2384SOL    HW218789   2.523   4.170   6.566  1.2442  0.7176  0.5742
 2385SOL     OW18790   1.381   1.926  16.021 -0.5351 -0.4663  0.1770
 2385SOL    HW118791   1.394   2.019  16.003 -0.1047 -0.8168 -1.2689
 2385SOL    HW218792   1.350   1.899  15.935 -0.2348 -0.5015  0.0805
 2386SOL     OW18793   0.320   4.405   7.146 -0.5389  0.1133  0.9193
 2386SOL    HW118794   0.337   4.359   7.064 -0.0278  0.0166  1.0817
 2386SOL    HW218795   0.389   4.374   7.205  0.5545 -0.2755 -0.5693
 2387SOL     OW18796   1.048   3.724   8.281 -0.5663  0.0032  0.5781
 2387SOL    HW118797   1.140   3.699   8.289 -1.4601 -2.7162  2.5641
 2387SOL    HW218798   1.010   3.638   8.261  1.0718 -0.4157 -0.7135
 2388SOL     OW18799   2.544   4.592   0.203  0.1160 -0.6372 -0.5801
 2388SOL    HW118800   2.515   4.500   0.197 -2.2975  0.0981 -0.2126
 2388SOL    HW218801   2.461   4.638   0.212 -0.5859 -2.0712  0.4073
 2389SOL     OW18802   2.121   1.032   6.071  0.5813  0.0052 -0.3838
 2389SOL    HW118803   2.167   0.950   6.053 -1.9822 -1.7542  1.0797
 2389SOL    HW218804   2.098   1.030   6.164 -2.6352  1.8528 -1.1241
 2390SOL     OW18805   0.254   0.244   8.731 -0.2421 -0.0411  0.0726
 2390SOL    HW118806   0.161   0.235   8.747 -0.4186  0.0081 -0.8980
 2390SOL    HW218807   0.252   0.282   8.643 -1.9295  1.2661  0.6697
 2391SOL     OW18808   2.471   1.488   3.714  0.5119 -0.1984  0.2923
 2391SOL    HW118809   2.493   1.425   3.782 -0.0597 -2.1348 -1.3329
 2391SOL    HW218810   2.378   1.470   3.708  0.0010  2.9522 -1.4109
 2392SOL     OW18811   1.480   3.185  13.421  0.1402  0.0589  0.0666
 2392SOL    HW118812   1.557   3.157  13.372  0.1209  0.1213  0.0017
 2392SOL    HW218813   1.479   3.111  13.482  0.2091  1.9715  2.3896
 2393SOL     OW18814   0.852   2.977   1.880 -0.1547 -0.0400 -0.3646
 2393SOL    HW118815   0.810   2.946   1.960 -0.7493  0.2429 -0.5593
 2393SOL    HW218816   0.899   3.051   1.918 -1.5021  0.2320  0.7890
 2394SOL     OW18817   4.098   2.855  16.738  0.4367 -0.3630  0.0792
 2394SOL    HW118818   4.021   2.815  16.779  0.9692 -0.0128  1.4412
 2394SOL    HW218819   4.113   2.929  16.797 -1.4116 -1.3523  1.7784
 2395SOL     OW18820   0.872   3.210   3.196 -0.1795  0.1992 -0.6488
 2395SOL    HW118821   0.779   3.225   3.179 -0.0926  0.8425 -0.5481
 2395SOL    HW218822   0.863   3.148   3.267  1.2423 -1.1567 -1.6498
 2396SOL     OW18823   4.166   1.411   6.648 -0.4810  0.5767  0.5733
 2396SOL    HW118824   4.156   1.505   6.633 -2.0773  0.3449  0.2409
 2396SOL    HW218825   4.151   1.367   6.564  3.5777 -0.0886  0.1966
 2397SOL     OW18826   2.330   0.703   8.017  0.0697 -0.0533 -0.6894
 2397SOL    HW118827   2.391   0.735   8.084  1.5166 -0.2294 -1.9176
 2397SOL    HW218828   2.389   0.664   7.953 -0.4147  1.8985 -2.3135
 2398SOL     OW18829   2.279   3.789   8.069 -0.4742 -0.0462  0.6512
 2398SOL    HW118830   2.265   3.707   8.022 -2.0982  0.3280  0.4735
 2398SOL    HW218831   2.334   3.839   8.009 -0.4488 -0.4242  0.3558
 2399SOL     OW18832   2.475   0.974   3.484  0.2572 -0.3015  0.0001
 2399SOL    HW118833   2.410   1.013   3.425 -0.2644  3.0745  2.8547
 2399SOL    HW218834   2.468   1.029   3.562  3.1240  1.4250 -0.9754
 2400SOL     OW18835   2.674   4.233   6.194  0.2139 -0.0249 -0.0528
 2400SOL    HW118836   2.602   4.289   6.223  1.3230  1.3019  0.1023
 2400SOL    HW218837   2.709   4.203   6.278  1.0702 -2.9738 -1.4639
 2401SOL     OW18838   0.012   2.110   8.271 -0.0046  0.2289  0.5098
 2401SOL    HW118839   0.041   2.039   8.214  1.7002  2.1096 -1.0045
 2401SOL    HW218840   4.663   2.076   8.277 -0.7993  1.9709 -1.5469
 2402SOL     OW18841   0.614   4.434   0.373 -0.2245  0.0335  0.2152
 2402SOL    HW118842   0.560   4.364   0.335  1.4843  0.3872 -2.9221
 2402SOL    HW218843   0.635   4.397   0.458  1.1178  0.9940  0.3140
 2403SOL     OW18844   1.533   0.912  10.649 -0.0652 -0.0756 -0.7602
 2403SOL    HW118845   1.514   0.896  10.742  3.8186  2.0223  0.4283
 2403SOL    HW218846   1.594   0.840  10.631 -0.1842  0.1477 -2.0433
 2404SOL     OW18847   2.335   0.617   4.093 -0.0587  0.0171  0.0842
 2404SOL    HW118848   2.271   0.551   4.068  0.1933 -0.4555  0.6737
 2404SOL    HW218849   2.411   0.584   4.045 -0.0610  0.1804 -0.0325
 2405SOL     OW18850   3.664   0.031  15.428  0.4979 -0.0893 -0.0193
 2405SOL    HW118851   3.697   4.726  15.350 -1.1705 -1.2072 -0.0938
 2405SOL    HW218852   3.718   0.109  15.426 -1.3274  1.2024  0.9150
 2406SOL     OW18853   0.256   2.265  11.016  0.3379 -0.4355 -0.0539
 2406SOL    HW118854   0.208   2.346  11.032  0.2904 -0.5508  0.4065
 2406SOL    HW218855   0.201   2.221  10.952 -1.7256  1.8881  0.1395
 2407SOL     OW18856   0.791   3.271   9.682  0.6337 -0.3991  0.1482
 2407SOL    HW118857   0.740   3.352   9.682 -1.0138 -1.4330 -0.5949
 2407SOL    HW218858   0.726   3.206   9.655 -0.0514 -0.3946  1.7822
 2408SOL     OW18859   1.355   4.501   3.517  0.3420 -0.4583  0.3032
 2408SOL    HW118860   1.450   4.492   3.509  0.1170 -0.3821 -2.1919
 2408SOL    HW218861   1.341   4.593   3.540  2.1070 -0.2943  0.7025
 2409SOL     OW18862   3.746   1.721   6.476  0.0816 -0.8141  0.3462
 2409SOL    HW118863   3.663   1.680   6.496 -1.0770  0.0942 -2.5091
 2409SOL    HW218864   3.719   1.750   6.388  0.9243 -0.8003  0.0889
 2410SOL     OW18865   0.668   0.133   5.053 -0.0104  0.5687  0.3048
 2410SOL    HW118866   0.634   0.044   5.038 -1.5182  1.3634 -0.8771
 2410SOL    HW218867   0.590   0.183   5.074 -0.3521  0.9665 -2.0179
 2411SOL     OW18868   1.229   0.164   5.367 -0.2252  0.1424  0.0292
 2411SOL    HW118869   1.248   0.212   5.448 -1.1087  1.3403 -0.4638
 2411SOL    HW218870   1.319   0.157   5.337  0.0494 -0.8561  1.0731
 2412SOL     OW18871   2.340   2.127   7.203  0.0842  0.8312 -0.3817
 2412SOL    HW118872   2.285   2.203   7.223  1.2603  1.4235  0.6447
 2412SOL    HW218873   2.274   2.064   7.177  2.2752 -1.7078  0.1871
 2413SOL     OW18874   0.712   4.019  15.243  0.0727  0.3352  0.1019
 2413SOL    HW118875   0.800   4.015  15.207 -0.6595  1.1903 -1.7490
 2413SOL    HW218876   0.694   3.927  15.262  1.5792 -0.0418 -0.2871
 2414SOL     OW18877   3.134   0.673   7.898  0.0041  0.5147  0.8954
 2414SOL    HW118878   3.180   0.757   7.901  0.2378  0.3755  1.3242
 2414SOL    HW218879   3.063   0.691   7.960 -1.0300  0.9627 -0.4240
 2415SOL     OW18880   3.157   2.761   6.458 -0.2453 -0.0918  0.3007
 2415SOL    HW118881   3.127   2.722   6.541 -0.0762  0.5099  0.6451
 2415SOL    HW218882   3.179   2.851   6.480  2.3664 -0.3717 -1.2151
 2416SOL     OW18883   0.418   2.204  16.972  0.2576 -0.4607  0.1554
 2416SOL    HW118884   0.409   2.188  16.878  0.1353  3.0845 -0.4134
 2416SOL    HW218885   0.338   2.254  16.990  0.7385 -0.2459  1.6785
 2417SOL     OW18886   1.528   4.472   5.197 -0.0873 -0.0389 -0.0920
 2417SOL    HW118887   1.483   4.432   5.272 -0.3731 -3.2670 -2.0241
 2417SOL    HW218888   1.617   4.497   5.222  0.4955 -1.3773 -0.8504
 2418SOL     OW18889   0.551   2.825  12.748  0.4339  0.0949 -0.9494
 2418SOL    HW118890   0.633   2.848  12.703  0.5412  0.7685 -0.4163
 2418SOL    HW218891   0.543   2.742  12.701 -1.0928  0.2236 -0.8944
 2419SOL     OW18892   1.502   3.169   5.199  0.2017 -0.6939  0.1239
 2419SOL    HW118893   1.508   3.264   5.210  0.1402 -0.8618  1.6261
 2419SOL    HW218894   1.437   3.158   5.129 -1.4892  2.3699  1.2305
 2420SOL     OW18895   0.575   1.750   2.730 -0.6050 -0.1348  0.1785
 2420SOL    HW118896   0.571   1.664   2.687 -0.3347  0.3043 -0.7238
 2420SOL    HW218897   0.617   1.726   2.812  1.3979 -2.4387 -1.4956
 2421SOL     OW18898   4.545   4.553   2.355  0.5457 -0.1206  0.1513
 2421SOL    HW118899   4.577   4.494   2.424 -2.9485 -1.7146  0.4172
 2421SOL    HW218900   4.597   4.535   2.277  1.5496  2.3588  0.2551
 2422SOL     OW18901   1.076   4.024   8.086 -0.5308  0.0231  0.1143
 2422SOL    HW118902   1.006   3.990   8.142 -2.6672  1.4130 -1.6873
 2422SOL    HW218903   1.042   3.980   8.008  1.2387  0.3142 -0.8200
 2423SOL     OW18904   4.058   0.403  16.906  0.8441 -0.0218  0.5778
 2423SOL    HW118905   4.139   0.443  16.940  0.5040  0.2623  1.0581
 2423SOL    HW218906   4.097   0.320  16.879  2.4758  0.0691  2.6275
 2424SOL     OW18907   1.784   0.199   3.212  0.1852 -0.6442 -0.0010
 2424SOL    HW118908   1.854   0.262   3.232 -1.0761  1.6736 -2.7988
 2424SOL    HW218909   1.773   0.152   3.294 -2.9312  0.8258  0.4213
 2425SOL     OW18910   0.443   3.537  13.968  0.2210 -0.1776  0.3548
 2425SOL    HW118911   0.438   3.495  13.882 -0.0371 -2.1157  1.3101
 2425SOL    HW218912   0.367   3.595  13.968 -0.2859 -0.8457  2.1735
 2426SOL     OW18913   3.654   3.367  13.999 -0.8925 -0.0203  0.0545
 2426SOL    HW118914   3.570   3.390  13.960 -0.7580  1.1922  0.5023
 2426SOL    HW218915   3.630   3.352  14.091 -1.4173  0.9341  0.0646
 2427SOL     OW18916   0.510   1.790  13.007 -0.3965  0.1582  0.0910
 2427SOL    HW118917   0.569   1.859  13.037 -1.4117  1.7150 -1.5375
 2427SOL    HW218918   0.545   1.709  13.046  1.6545  0.1712 -1.7175
 2428SOL     OW18919   3.516   3.710   5.278 -0.1922 -0.3286 -0.4093
 2428SOL    HW118920   3.545   3.625   5.245  0.5712 -0.0548 -0.4373
 2428SOL    HW218921   3.545   3.766   5.206 -2.5023  0.1766 -0.9438
 2429SOL     OW18922   0.979   4.329  11.670  0.1551  0.2541  0.5091
 2429SOL    HW118923   1.053   4.293  11.621 -0.7451 -0.9181  0.0064
 2429SOL    HW218924   0.928   4.249  11.683 -0.8203  0.7844  0.0051
 2430SOL     OW18925   2.459   0.525  14.716  0.5383  0.2703  0.0330
 2430SOL    HW118926   2.427   0.440  14.685  2.2297 -0.4179  0.1440
 2430SOL    HW218927   2.376   0.570  14.729  1.5134  1.5953  1.6302
 2431SOL     OW18928   4.578   0.403   8.457  0.0864 -0.2371  0.3579
 2431SOL    HW118929   4.539   0.400   8.545 -0.9957 -1.0012 -0.1487
 2431SOL    HW218930   4.543   0.323   8.418 -1.1941 -0.0467  1.1126
 2432SOL     OW18931   4.092   0.038  14.048 -0.2144 -0.0497  0.0381
 2432SOL    HW118932   4.177   0.041  14.093 -0.4439 -0.3431  0.4995
 2432SOL    HW218933   4.034   0.030  14.124  1.7675  4.8516  1.9997
 2433SOL     OW18934   0.296   0.207   2.277 -0.0820 -0.5525 -0.2768
 2433SOL    HW118935   0.267   0.124   2.240 -1.5910 -0.4205  0.6118
 2433SOL    HW218936   0.269   0.267   2.208 -0.8725 -0.8790 -0.2533
 2434SOL     OW18937   1.316   1.246   6.164  0.4261  0.8455  0.0204
 2434SOL    HW118938   1.268   1.312   6.213  1.8295  1.4144  0.6385
 2434SOL    HW218939   1.276   1.169   6.204  2.2947 -0.8227 -1.3190
 2435SOL     OW18940   3.058   4.024  12.033  0.4392 -0.1132 -0.6857
 2435SOL    HW118941   3.030   3.933  12.040  0.7907  0.1677  4.4419
 2435SOL    HW218942   3.115   4.020  11.956 -0.3172 -1.1493 -1.1898
 2436SOL     OW18943   2.538   4.198   5.731  0.1899 -0.1487  0.9562
 2436SOL    HW118944   2.617   4.250   5.742 -2.1986  3.1814  2.2971
 2436SOL    HW218945   2.491   4.227   5.809  0.4386 -1.2468  1.5130
 2437SOL     OW18946   3.115   0.990   1.871  0.4716  0.3461  0.4444
 2437SOL    HW118947   3.047   1.031   1.817 -1.2923  0.1995  2.5610
 2437SOL    HW218948   3.067   0.924   1.920 -1.4165 -1.0210 -3.2178
 2438SOL     OW18949   2.195   1.518   6.726  0.7016 -0.0966  0.2950
 2438SOL    HW118950   2.110   1.499   6.764  0.4682  1.1614  0.3960
 2438SOL    HW218951   2.203   1.609   6.756  0.2722 -0.7784  2.4518
 2439SOL     OW18952   2.523   1.196  16.607  0.9787 -0.1599 -0.0565
 2439SOL    HW118953   2.496   1.234  16.690 -3.2973 -0.6832 -1.2454
 2439SOL    HW218954   2.487   1.107  16.606 -1.0987  0.7051 -0.4853
 2440SOL     OW18955   4.300   4.661  14.180  0.4513 -0.1534  0.4423
 2440SOL    HW118956   4.333   4.677  14.268 -1.0782 -0.7124  1.1079
 2440SOL    HW218957   4.371   4.601  14.157 -0.2549 -0.6670 -0.4092
 2441SOL     OW18958   3.515   2.483  17.521  0.0240  0.5058  0.0691
 2441SOL    HW118959   3.547   2.458  17.434  0.1008  1.5332 -0.2069
 2441SOL    HW218960   3.488   2.395  17.548  2.0730  0.0512  0.6247
 2442SOL     OW18961   4.387   0.553   4.722  0.6257 -0.5120 -0.5799
 2442SOL    HW118962   4.421   0.464   4.728  0.4194 -0.4247  1.9379
 2442SOL    HW218963   4.427   0.601   4.795  0.4532 -1.6295  0.2543
 2443SOL     OW18964   2.938   4.647   7.193 -0.1608 -0.5800 -1.1313
 2443SOL    HW118965   2.998   4.707   7.238  1.7481 -1.9402 -1.8813
 2443SOL    HW218966   2.978   4.626   7.109 -2.0345 -0.7972 -1.9796
 2444SOL     OW18967   2.219   1.469   5.580 -0.5310 -0.3186 -0.1367
 2444SOL    HW118968   2.261   1.555   5.576 -0.1413 -0.4325  1.5449
 2444SOL    HW218969   2.184   1.474   5.668 -1.7634 -1.0723 -0.5924
 2445SOL     OW18970   3.145   4.720   4.668  0.0353  0.1057  0.6080
 2445SOL    HW118971   3.101   0.022   4.742 -1.0478  0.5296 -0.2866
 2445SOL    HW218972   3.078   4.669   4.622 -0.3593 -0.7053  2.0634
 2446SOL     OW18973   3.031   1.389   0.581  0.6028  0.4725 -0.3910
 2446SOL    HW118974   3.089   1.423   0.648  1.5709 -2.3454  0.2024
 2446SOL    HW218975   3.072   1.426   0.503 -1.2909  1.8841 -0.7071
 2447SOL     OW18976   0.839   3.265   5.873  0.3837 -0.3241  0.1784
 2447SOL    HW118977   0.911   3.248   5.812  1.4702  2.2931  0.7522
 2447SOL    HW218978   0.798   3.341   5.833 -1.0229 -1.5694 -0.7501
 2448SOL     OW18979   1.984   1.050   4.847 -0.8615  0.2408  0.2221
 2448SOL    HW118980   1.899   1.007   4.859 -0.2396 -1.4416 -1.3488
 2448SOL    HW218981   1.984   1.066   4.753 -1.8491 -2.3811 -0.2295
 2449SOL     OW18982   1.835   2.619  16.383 -0.0105  0.2230 -0.3829
 2449SOL    HW118983   1.890   2.675  16.438 -0.0945 -1.9000  1.8202
 2449SOL    HW218984   1.876   2.637  16.297 -1.8382  2.4262 -0.7954
 2450SOL     OW18985   0.285   4.085   2.286 -0.2580  0.1158 -0.1706
 2450SOL    HW118986   0.316   4.089   2.376 -2.1407 -0.0096  0.4919
 2450SOL    HW218987   0.200   4.130   2.293  0.1765  0.9010  0.0277
 2451SOL     OW18988   3.099   0.180   6.190 -0.4341  0.2400 -0.2093
 2451SOL    HW118989   3.031   0.198   6.125  0.2402 -0.0931 -1.0150
 2451SOL    HW218990   3.050   0.182   6.272 -1.3187 -2.7098 -0.6539
 2452SOL     OW18991   4.059   1.411   8.660 -0.2582 -0.0669  0.4318
 2452SOL    HW118992   3.975   1.390   8.700 -0.0933 -1.5321 -0.0114
 2452SOL    HW218993   4.055   1.410   8.564  0.0099 -0.3135  0.4233
 2453SOL     OW18994   1.201   1.582   3.043  0.2319 -0.2579  0.3409
 2453SOL    HW118995   1.111   1.570   3.013  0.1728 -0.8690  0.7638
 2453SOL    HW218996   1.242   1.495   3.053 -0.2619 -0.2617  2.3273
 2454SOL     OW18997   1.403   2.084   5.558 -0.3404  0.4592 -0.5290
 2454SOL    HW118998   1.432   2.149   5.494 -1.2725  0.7556 -0.6428
 2454SOL    HW218999   1.485   2.038   5.575 -0.8072  0.0865  0.7420
 2455SOL     OW19000   4.504   0.888   5.777 -0.5369  0.4035  0.3531
 2455SOL    HW119001   4.536   0.834   5.849  2.6917  1.4883 -0.2791
 2455SOL    HW219002   4.508   0.970   5.825 -0.3273  1.9723 -2.3467
 2456SOL     OW19003   1.086   0.159   0.523  0.1599 -0.1984 -0.0423
 2456SOL    HW119004   1.165   0.147   0.471 -0.1216 -0.1658 -0.4836
 2456SOL    HW219005   1.080   0.074   0.567 -4.2576 -0.7327 -1.6356
 2457SOL     OW19006   0.291   2.896   0.343 -0.0933 -0.1221 -0.3366
 2457SOL    HW119007   0.230   2.834   0.383 -0.6433  1.8929  1.9775
 2457SOL    HW219008   0.239   2.932   0.272  1.9349 -0.3930 -1.9575
 2458SOL     OW19009   0.531   2.202   5.915 -0.4466  0.5069 -0.2500
 2458SOL    HW119010   0.489   2.142   5.854  0.1220 -1.1538  1.0156
 2458SOL    HW219011   0.467   2.273   5.917 -0.0639  0.7790  2.4024
 2459SOL     OW19012   1.402   2.680   0.830  0.0873  0.5556  0.1581
 2459SOL    HW119013   1.318   2.669   0.786  0.1388  0.8163 -0.0059
 2459SOL    HW219014   1.457   2.641   0.763  0.1582  1.3435 -0.2488
 2460SOL     OW19015   2.425   1.799   1.114  0.0262 -0.6372 -0.1580
 2460SOL    HW119016   2.493   1.852   1.071  1.2586 -1.9081  0.1969
 2460SOL    HW219017   2.470   1.777   1.196 -0.9575 -0.9182  0.3022
 2461SOL     OW19018   1.348   4.194   5.362  0.3102  0.2631 -0.2341
 2461SOL    HW119019   1.402   4.252   5.415 -0.3434 -0.9506  1.7591
 2461SOL    HW219020   1.337   4.113   5.411  0.2846 -0.3161 -1.1787
 2462SOL     OW19021   4.505   3.245   3.785  0.0846  0.0935 -0.1533
 2462SOL    HW119022   4.514   3.315   3.721 -4.2128 -0.3232 -1.2636
 2462SOL    HW219023   4.411   3.229   3.774  0.3037  0.6416 -2.6946
 2463SOL     OW19024   2.284   3.583   7.892 -0.3835 -0.3598 -0.4716
 2463SOL    HW119025   2.202   3.541   7.917 -1.7917  1.4165 -2.1941
 2463SOL    HW219026   2.324   3.511   7.843 -1.5596 -0.3250 -1.4881
 2464SOL     OW19027   4.653   1.040  16.231 -0.0881  0.1265  0.2975
 2464SOL    HW119028   0.004   1.037  16.199  0.0512 -2.4749  0.9083
 2464SOL    HW219029   4.625   1.123  16.193 -1.1988 -0.3317  0.1220
 2465SOL     OW19030   3.939   0.503   0.673  0.2329  0.6887 -0.2723
 2465SOL    HW119031   3.853   0.475   0.706 -0.0420  0.1514 -1.4458
 2465SOL    HW219032   3.934   0.596   0.693 -1.3103  0.8923 -1.5916
 2466SOL     OW19033   1.814   2.694   7.965  0.1948  0.0648 -0.3675
 2466SOL    HW119034   1.809   2.685   8.060  1.2711  1.9095 -0.1369
 2466SOL    HW219035   1.868   2.616   7.949  0.2798 -0.0087  0.2606
 2467SOL     OW19036   4.287   2.070   7.911  0.0435 -0.4685  0.0836
 2467SOL    HW119037   4.267   2.144   7.969  0.9438 -0.9756  1.0564
 2467SOL    HW219038   4.325   2.008   7.974  1.9542  0.4211 -0.1872
 2468SOL     OW19039   3.335   0.259  16.409  0.2301  0.0561  0.2831
 2468SOL    HW119040   3.349   0.353  16.398 -2.2892  0.4622  0.5073
 2468SOL    HW219041   3.335   0.265  16.505  0.2011  2.3206  0.1455
 2469SOL     OW19042   3.849   1.547   4.758  0.7059 -0.5650  0.2877
 2469SOL    HW119043   3.798   1.505   4.689 -1.6462 -1.0088  2.2799
 2469SOL    HW219044   3.936   1.551   4.719  0.3669  2.2626 -0.1678
 2470SOL     OW19045   1.297   1.684   2.211 -0.3758  0.5900 -0.2948
 2470SOL    HW119046   1.310   1.779   2.217 -1.9267  0.6911  1.4938
 2470SOL    HW219047   1.324   1.661   2.300 -1.2982 -0.8850 -0.3898
 2471SOL     OW19048   2.600   2.876   3.018  0.5746  0.7878 -0.3168
 2471SOL    HW119049   2.597   2.783   3.038  1.8432  0.6932 -0.5948
 2471SOL    HW219050   2.585   2.883   2.923 -0.0358 -1.1856 -0.3643
 2472SOL     OW19051   4.494   4.308   5.455  0.6603 -0.3488  0.2854
 2472SOL    HW119052   4.447   4.313   5.372  1.8139  1.8303 -0.2332
 2472SOL    HW219053   4.522   4.398   5.470 -1.4760  0.0761  1.6687
 2473SOL     OW19054   1.289   3.064   8.869 -0.4202  0.2659  0.8636
 2473SOL    HW119055   1.204   3.101   8.893 -1.3442 -1.1714 -0.2233
 2473SOL    HW219056   1.298   3.003   8.943  0.8354  1.5998  1.8050
 2474SOL     OW19057   2.054   1.624   2.687 -0.3381 -0.4556  0.3620
 2474SOL    HW119058   2.083   1.707   2.723  3.3748 -0.8270 -1.8352
 2474SOL    HW219059   2.027   1.635   2.595 -0.9822  0.9426  0.7213
 2475SOL     OW19060   4.502   4.023   9.776 -0.2753 -0.4236 -0.3255
 2475SOL    HW119061   4.415   3.984   9.784 -0.6475  0.6388  0.8565
 2475SOL    HW219062   4.552   3.944   9.794  1.2140  0.8251  0.9515
 2476SOL     OW19063   2.075   4.674   4.230 -0.4244 -0.4681  0.1297
 2476SOL    HW119064   1.984   4.670   4.201 -0.0822 -0.3675 -0.9343
 2476SOL    HW219065   2.067   4.718   4.315  0.0488 -1.6795  0.8181
 2477SOL     OW19066   4.343   0.034   1.871  0.2696  0.3471 -0.1485
 2477SOL    HW119067   4.362   0.121   1.907 -3.0294  1.2921 -0.6765
 2477SOL    HW219068   4.427   4.733   1.852 -0.2715 -1.4584  1.2989
 2478SOL     OW19069   0.498   0.102   3.772 -0.0796  0.0736 -0.3042
 2478SOL    HW119070   0.460   0.016   3.754 -0.0720  0.6251 -2.8514
 2478SOL    HW219071   0.576   0.080   3.824 -0.2915  1.0295  0.4202
 2479SOL     OW19072   2.958   2.395  15.216 -0.3264 -0.6268 -0.3698
 2479SOL    HW119073   2.922   2.352  15.138  0.5210  0.8922 -1.6016
 2479SOL    HW219074   2.985   2.319  15.268  0.6446 -1.1363 -1.6291
 2480SOL     OW19075   0.665   1.394   6.314  0.4200 -0.3962  1.1632
 2480SOL    HW119076   0.578   1.358   6.297  0.4777  0.3464 -0.7748
 2480SOL    HW219077   0.649   1.487   6.296 -0.8747 -0.7983  0.1651
 2481SOL     OW19078   3.415   2.606   5.218  0.2492  0.0010  0.3798
 2481SOL    HW119079   3.434   2.641   5.304 -1.0997  0.2911  0.5672
 2481SOL    HW219080   3.361   2.529   5.236 -0.8774  0.7578  0.2503
 2482SOL     OW19081   0.018   0.057   3.483 -0.2173  0.0078 -0.4686
 2482SOL    HW119082   0.096   0.002   3.485 -0.4343 -0.3581 -1.6702
 2482SOL    HW219083   4.711   0.021   3.407 -0.9408 -0.4856  0.2111
 2483SOL     OW19084   4.259   4.113   5.339 -0.6536 -0.2680 -1.0968
 2483SOL    HW119085   4.266   4.205   5.364 -0.7598 -0.4808 -0.2883
 2483SOL    HW219086   4.253   4.072   5.426  0.8497 -1.8938 -1.7692
 2484SOL     OW19087   3.814   3.598   6.450  0.0867  0.5464  0.2989
 2484SOL    HW119088   3.826   3.687   6.418 -2.9482  0.9864  0.4155
 2484SOL    HW219089   3.908   3.578   6.447  0.0917  0.2861  2.3094
 2485SOL     OW19090   1.020   3.669   3.367  0.1066 -0.1461 -0.7141
 2485SOL    HW119091   0.989   3.727   3.298 -0.2178  1.8161  1.0595
 2485SOL    HW219092   0.952   3.602   3.372  0.0465 -0.0149  0.2310
 2486SOL     OW19093   4.340   3.460   5.480 -0.1559  0.2331  0.3493
 2486SOL    HW119094   4.253   3.421   5.474  0.1458 -0.6473  1.8052
 2486SOL    HW219095   4.380   3.422   5.558 -0.3229  0.2274  0.4329
 2487SOL     OW19096   2.053   2.975  13.152 -0.3563 -0.3772 -0.5014
 2487SOL    HW119097   1.966   2.935  13.151  0.6939 -2.6695 -0.4596
 2487SOL    HW219098   2.100   2.894  13.129  0.2158  0.3977 -2.0616
 2488SOL     OW19099   1.474   2.825  11.523 -0.2040 -0.3990  0.2752
 2488SOL    HW119100   1.406   2.795  11.584 -0.3973 -1.4186 -0.4207
 2488SOL    HW219101   1.554   2.818  11.574  2.4226  2.5890 -3.5029
 2489SOL     OW19102   3.562   0.191   5.361 -0.1843  0.0531  0.1140
 2489SOL    HW119103   3.556   0.147   5.276 -0.8089  1.0481 -0.3519
 2489SOL    HW219104   3.606   0.269   5.326 -0.5155  0.1414 -0.1020
 2490SOL     OW19105   0.530   2.546   7.962 -0.0921 -0.4782  0.3698
 2490SOL    HW119106   0.514   2.582   8.049  0.3993 -0.2208  0.3510
 2490SOL    HW219107   0.625   2.541   7.968  0.0781  1.2048 -0.9879
 2491SOL     OW19108   4.284   4.221   8.060  0.2317 -1.2273 -0.6736
 2491SOL    HW119109   4.356   4.214   7.998  1.7710 -2.9795  1.2873
 2491SOL    HW219110   4.220   4.195   7.994  0.0727  0.1564 -1.0679
 2492SOL     OW19111   1.737   3.524  16.607  1.0421 -0.1200  0.3792
 2492SOL    HW119112   1.825   3.519  16.646  1.7107  1.4642 -0.8958
 2492SOL    HW219113   1.714   3.433  16.621 -0.3418  0.2570  0.5387
 2493SOL     OW19114   1.261   1.421  11.995 -0.2577  0.7361 -1.2322
 2493SOL    HW119115   1.222   1.495  12.041 -1.5511 -0.0918 -0.9961
 2493SOL    HW219116   1.258   1.350  12.059  0.6763  1.4104 -0.4480
 2494SOL     OW19117   4.457   1.054  10.006 -0.4602  0.2300 -0.3498
 2494SOL    HW119118   4.400   1.130  10.008  0.3931  0.9662 -2.9218
 2494SOL    HW219119   4.427   1.011   9.925 -1.8165 -0.8099  0.7085
 2495SOL     OW19120   0.620   0.170   4.445  0.1115  0.2276 -0.7095
 2495SOL    HW119121   0.595   0.219   4.365 -1.4752  1.4167  0.5030
 2495SOL    HW219122   0.546   0.113   4.464  1.5462 -1.4912 -0.3577
 2496SOL     OW19123   1.926   0.683   8.804  0.4575  0.3843 -0.0328
 2496SOL    HW119124   1.916   0.687   8.709  0.2632  0.9680  0.0158
 2496SOL    HW219125   1.985   0.757   8.820 -0.6129  0.9190  1.4375
 2497SOL     OW19126   4.621   3.185  13.756 -0.2086  0.6685  0.0115
 2497SOL    HW119127   4.550   3.242  13.786 -1.5204 -0.6789 -0.5205
 2497SOL    HW219128   4.617   3.201  13.662 -1.9745 -0.1897 -0.0750
 2498SOL     OW19129   2.338   2.761   4.920  0.4792  0.1229 -0.5014
 2498SOL    HW119130   2.331   2.715   5.003  0.3640  1.6098  0.3071
 2498SOL    HW219131   2.420   2.716   4.896  0.0290 -0.6863 -0.5448
 2499SOL     OW19132   0.204   4.075   6.630  0.6049 -0.2733  0.1208
 2499SOL    HW119133   0.257   4.009   6.585 -1.8933 -0.0145 -3.1667
 2499SOL    HW219134   0.223   4.152   6.577 -0.5343  0.3358  0.6077
 2500SOL     OW19135   4.351   0.660   4.044  0.6979  0.7197 -0.6397
 2500SOL    HW119136   4.300   0.590   4.084  1.0508  1.2190  0.6550
 2500SOL    HW219137   4.296   0.698   3.975 -0.3947 -0.3449 -0.3412
 2501SOL     OW19138   0.113   1.186   2.259  0.0902 -0.1328  0.5458
 2501SOL    HW119139   0.052   1.122   2.223 -1.6901  2.1948 -0.5555
 2501SOL    HW219140   0.179   1.133   2.303  1.9672  0.8175 -1.1093
 2502SOL     OW19141   0.875   4.542  15.385 -0.1141  0.0691  0.1717
 2502SOL    HW119142   0.933   4.602  15.338  0.8251 -1.8904 -1.1996
 2502SOL    HW219143   0.897   4.559  15.476  0.9803 -1.1914  0.1419
 2503SOL     OW19144   1.288   3.590   8.296 -0.2726 -0.1048 -0.0691
 2503SOL    HW119145   1.358   3.525   8.304  0.0533  0.0066 -1.8125
 2503SOL    HW219146   1.227   3.529   8.254  0.7545  0.3107 -2.1936
 2504SOL     OW19147   4.270   2.252   9.085  0.2546 -0.2390  0.1764
 2504SOL    HW119148   4.335   2.281   9.149 -1.1701  0.4388  1.3316
 2504SOL    HW219149   4.316   2.241   9.003  1.6499  1.4129  0.7394
 2505SOL     OW19150   2.670   1.027   2.779 -0.2872 -0.1133  0.6874
 2505SOL    HW119151   2.579   1.039   2.751  0.1934 -1.0285 -1.2600
 2505SOL    HW219152   2.713   1.113   2.773 -0.9620  0.1068 -1.0673
 2506SOL     OW19153   2.614   1.579   6.552 -0.0175  0.1322  0.0926
 2506SOL    HW119154   2.579   1.619   6.631  0.8737  1.1400 -0.0178
 2506SOL    HW219155   2.704   1.568   6.584 -0.2654 -2.9098 -0.2417
 2507SOL     OW19156   3.053   3.370   5.711 -0.3408  0.5289 -0.8125
 2507SOL    HW119157   3.041   3.296   5.652 -0.0952 -0.2752  0.1616
 2507SOL    HW219158   3.081   3.318   5.786  0.9666 -1.1903 -2.4891
 2508SOL     OW19159   2.599   2.744   3.947 -0.4529  0.6146 -0.1861
 2508SOL    HW119160   2.669   2.694   3.904  1.4687  2.3807  0.8788
 2508SOL    HW219161   2.562   2.669   3.994  1.2673  0.8517  1.5551
 2509SOL     OW19162   1.337   4.025   4.969  0.0646  0.1073  0.2431
 2509SOL    HW119163   1.349   4.083   4.894  1.0232  1.4577  1.4338
 2509SOL    HW219164   1.250   3.990   4.952 -1.0243  2.1954  1.4417
 2510SOL     OW19165   3.013   2.964   2.165  0.1031 -0.4188  0.2572
 2510SOL    HW119166   3.085   2.924   2.213  0.4581  0.3838  0.4073
 2510SOL    HW219167   3.053   2.947   2.080 -0.5642 -2.5515  0.3838
 2511SOL     OW19168   0.811   2.823  12.644 -0.0348  0.6527  0.2851
 2511SOL    HW119169   0.873   2.895  12.639  2.4540 -1.5675 -0.9784
 2511SOL    HW219170   0.858   2.759  12.590  0.1093  2.0581 -1.2262
 2512SOL     OW19171   2.080   0.621   6.115  0.2498 -0.2585 -0.5207
 2512SOL    HW119172   2.102   0.566   6.040 -1.2827 -1.6714  0.0682
 2512SOL    HW219173   2.148   0.687   6.098  2.2254 -2.0461  0.3762
 2513SOL     OW19174   3.661   4.203   7.518  0.2239  0.1937  0.6667
 2513SOL    HW119175   3.595   4.273   7.520 -0.1971 -0.1885 -0.2474
 2513SOL    HW219176   3.668   4.174   7.428 -2.0169 -1.0532  0.9014
 2514SOL     OW19177   3.653   0.393   3.897 -0.6877  0.0880  0.6278
 2514SOL    HW119178   3.673   0.394   3.990 -0.5162  0.0573  0.5911
 2514SOL    HW219179   3.714   0.451   3.851 -1.5377 -1.2647 -2.2566
 2515SOL     OW19180   3.627   3.150   7.464 -0.8083 -0.0999 -0.1292
 2515SOL    HW119181   3.708   3.116   7.501 -0.4059 -1.0545 -1.8678
 2515SOL    HW219182   3.563   3.109   7.522 -0.5783  0.3628  0.4550
 2516SOL     OW19183   2.805   3.355   4.707 -0.0346 -0.3103 -0.2228
 2516SOL    HW119184   2.768   3.362   4.795  0.5484  0.7764 -0.0683
 2516SOL    HW219185   2.729   3.330   4.654 -0.3592 -2.4366  1.2252
 2517SOL     OW19186   0.278   2.661   9.200  0.7206  0.0546 -0.0609
 2517SOL    HW119187   0.203   2.615   9.160  1.8065 -0.9356 -0.9838
 2517SOL    HW219188   0.282   2.624   9.288 -1.0483 -0.4147 -0.1654
 2518SOL     OW19189   1.339   0.771   5.401  0.0692  0.4316  0.1510
 2518SOL    HW119190   1.416   0.769   5.458 -0.0820 -0.6170  0.3294
 2518SOL    HW219191   1.319   0.680   5.378  0.3547  0.8525 -1.7717
 2519SOL     OW19192   3.175   0.552   7.096  0.2678 -0.4455  0.0338
 2519SOL    HW119193   3.234   0.628   7.094 -1.2934  0.7437 -1.2220
 2519SOL    HW219194   3.164   0.547   7.191 -1.0148 -0.3262 -0.1082
 2520SOL     OW19195   1.505   3.732   8.760  0.1150  0.4533 -0.3271
 2520SOL    HW119196   1.426   3.694   8.721  0.8936 -1.9838  0.4486
 2520SOL    HW219197   1.478   3.811   8.807  2.0147  0.2289  1.1451
 2521SOL     OW19198   2.936   1.389  11.543  0.1907  0.0828 -0.4198
 2521SOL    HW119199   2.957   1.365  11.633  0.6054  1.3571 -0.1834
 2521SOL    HW219200   2.916   1.300  11.513 -1.0900  0.5279 -0.8713
 2522SOL     OW19201   2.754   2.921   8.253  0.0548 -0.5600  0.2457
 2522SOL    HW119202   2.685   2.856   8.267 -1.2160  0.7365  0.0331
 2522SOL    HW219203   2.710   2.981   8.192 -0.8854 -2.0881 -0.5874
 2523SOL     OW19204   2.597   2.712   0.790 -0.7366 -0.3794 -1.1066
 2523SOL    HW119205   2.594   2.665   0.706 -2.2215 -1.2017 -0.5896
 2523SOL    HW219206   2.613   2.801   0.760  1.9772 -1.1524 -1.9852
 2524SOL     OW19207   2.644   0.136  17.712 -0.1592 -0.1052 -0.0612
 2524SOL    HW119208   2.560   0.162  17.749 -0.5214  1.7731 -2.2299
 2524SOL    HW219209   2.632   0.151  17.619 -0.1317  2.7899  0.4187
 2525SOL     OW19210   1.941   4.045   4.980  0.6084  0.0559 -0.3287
 2525SOL    HW119211   1.854   4.027   5.015  0.1530  2.1571 -0.3666
 2525SOL    HW219212   1.982   4.071   5.063  0.7288  1.8467 -0.9640
 2526SOL     OW19213   4.521   1.556  11.409 -1.1057 -0.6861 -0.1305
 2526SOL    HW119214   4.432   1.537  11.436 -0.3243 -2.4759  1.1540
 2526SOL    HW219215   4.526   1.529  11.317  0.1182 -0.7112 -0.0669
 2527SOL     OW19216   4.119   0.315  16.406 -0.1859  0.4040  0.2619
 2527SOL    HW119217   4.095   0.223  16.401 -1.0219  0.6647 -0.5052
 2527SOL    HW219218   4.154   0.330  16.318 -1.6160 -0.3328 -0.4399
 2528SOL     OW19219   0.093   4.309  12.680 -0.0779  0.0717  0.2156
 2528SOL    HW119220   0.028   4.379  12.677 -0.8972 -0.8059 -2.5726
 2528SOL    HW219221   0.067   4.259  12.757 -2.0539  0.5438 -0.1295
 2529SOL     OW19222   0.741   4.122   8.386  0.2003  0.1975  0.0137
 2529SOL    HW119223   0.729   4.201   8.439 -1.7172 -0.3995  0.4592
 2529SOL    HW219224   0.699   4.165   8.311 -0.0627  1.1051  0.6848
 2530SOL     OW19225   3.447   0.177   7.871 -0.3469 -0.3497 -0.0364
 2530SOL    HW119226   3.403   0.125   7.804 -0.5840  1.1008 -0.9864
 2530SOL    HW219227   3.390   0.253   7.872  1.4807  1.0403 -2.3575
 2531SOL     OW19228   1.337   3.425   6.261 -0.3009  0.1289 -0.1441
 2531SOL    HW119229   1.344   3.336   6.295  2.7269  0.8253  1.0782
 2531SOL    HW219230   1.349   3.480   6.339 -1.8665 -0.1230  0.2727
 2532SOL     OW19231   4.142   1.110   1.472  0.1942  0.1418  0.2721
 2532SOL    HW119232   4.228   1.070   1.480  1.2917  2.4704  0.1485
 2532SOL    HW219233   4.160   1.182   1.412  1.2259 -0.4216 -0.0828
 2533SOL     OW19234   2.060   0.651   0.557 -0.0075 -0.2194 -0.5057
 2533SOL    HW119235   2.105   0.623   0.477 -0.3664 -0.4032 -0.6410
 2533SOL    HW219236   1.968   0.640   0.534  0.0645  0.8155 -1.3135
 2534SOL     OW19237   1.292   0.031   3.593 -0.0453  1.3690 -0.0518
 2534SOL    HW119238   1.249   0.098   3.646 -0.1991  1.9057 -0.8664
 2534SOL    HW219239   1.375   0.075   3.571 -1.0908  3.2709 -0.1615
 2535SOL     OW19240   4.430   4.105   2.527  0.2073  0.1806  0.1098
 2535SOL    HW119241   4.510   4.051   2.529 -0.8698 -1.3972  0.8162
 2535SOL    HW219242   4.377   4.043   2.577 -0.9251  0.5730 -0.5934
 2536SOL     OW19243   2.193   0.920   2.890 -1.0112 -0.6563 -0.0613
 2536SOL    HW119244   2.227   0.875   2.812  1.6964  0.2059  0.6275
 2536SOL    HW219245   2.139   0.854   2.934 -0.7163 -1.5547 -1.0376
 2537SOL     OW19246   4.624   1.996   7.637  0.1047  0.2477 -0.3019
 2537SOL    HW119247   4.636   1.999   7.731 -1.7686 -2.7613  0.0450
 2537SOL    HW219248   4.680   2.061   7.595 -0.8189  2.8245  2.5087
 2538SOL     OW19249   0.046   2.551   9.941  0.0438  0.5753  0.0454
 2538SOL    HW119250   0.076   2.506   9.862 -0.0718  2.1810 -0.9022
 2538SOL    HW219251   0.082   2.499  10.013 -1.5208 -1.3231 -0.5296
 2539SOL     OW19252   4.173   3.981   0.808  0.2556 -0.1008  0.0079
 2539SOL    HW119253   4.258   3.956   0.844 -0.2849 -1.0968  0.6025
 2539SOL    HW219254   4.126   4.019   0.883 -0.8780 -0.9934 -0.2430
 2540SOL     OW19255   2.766   1.320   6.584  0.2677  0.3393 -0.2012
 2540SOL    HW119256   2.800   1.271   6.509 -0.3639 -0.9503  0.3686
 2540SOL    HW219257   2.674   1.326   6.559  0.2215  1.1756  0.1572
 2541SOL     OW19258   4.265   1.174   5.423 -0.0468 -0.2491  0.4294
 2541SOL    HW119259   4.315   1.112   5.477  3.1382  1.1839 -0.8606
 2541SOL    HW219260   4.293   1.155   5.333  0.0001  0.8638  0.2155
 2542SOL     OW19261   2.840   3.719   3.286 -0.5314 -0.0565 -0.3157
 2542SOL    HW119262   2.775   3.668   3.335 -0.3542 -2.2221 -2.3547
 2542SOL    HW219263   2.919   3.679   3.323 -1.8786 -0.7129  1.8619
 2543SOL     OW19264   1.906   0.945   7.175 -0.3512  0.3285  0.1990
 2543SOL    HW119265   1.982   0.897   7.141 -1.3164 -1.9459  1.2735
 2543SOL    HW219266   1.881   0.892   7.250 -0.0896  2.6123  1.8822
 2544SOL     OW19267   2.516   2.388  17.255 -0.8862 -0.6290 -0.6005
 2544SOL    HW119268   2.436   2.341  17.279  0.4701 -2.3706  0.5416
 2544SOL    HW219269   2.589   2.333  17.283 -0.2224  1.6306  2.1279
 2545SOL     OW19270   4.448   4.446  14.636  0.4911  0.0391 -0.0830
 2545SOL    HW119271   4.495   4.369  14.603 -3.0389 -0.7744 -3.1759
 2545SOL    HW219272   4.520   4.509  14.642 -0.3265  0.8842  0.7418
 2546SOL     OW19273   2.108   2.215  17.137 -0.2807  0.1025 -0.8883
 2546SOL    HW119274   2.042   2.279  17.110 -0.9570 -0.6934 -1.1412
 2546SOL    HW219275   2.067   2.133  17.109 -0.9151  0.0280  0.2726
 2547SOL     OW19276   3.102   0.522  14.603 -0.1660  0.5304  0.3138
 2547SOL    HW119277   3.077   0.440  14.561 -0.1267  0.3553  0.6317
 2547SOL    HW219278   3.046   0.577  14.548  0.5766  1.9104  0.9366
 2548SOL     OW19279   0.253   4.123  10.398  0.1897 -0.1303 -0.1398
 2548SOL    HW119280   0.171   4.128  10.448  0.1324 -1.6500 -0.0786
 2548SOL    HW219281   0.231   4.051  10.339  0.5767 -1.5802  1.4906
 2549SOL     OW19282   4.113   2.373   3.390  0.2036 -0.0008  0.1290
 2549SOL    HW119283   4.037   2.374   3.331 -0.6945  1.0858  1.3216
 2549SOL    HW219284   4.090   2.299   3.447 -1.9231  1.2392  0.8752
 2550SOL     OW19285   1.365   2.526  13.489  0.3462  0.0974  0.7254
 2550SOL    HW119286   1.389   2.563  13.573 -1.1212  0.2550  1.0640
 2550SOL    HW219287   1.447   2.485  13.458  0.4422  0.7065  0.1758
 2551SOL     OW19288   1.910   0.044   8.329 -0.3833  0.0231 -0.3265
 2551SOL    HW119289   1.973   0.076   8.393 -1.0570 -0.0712  0.3869
 2551SOL    HW219290   1.967   0.000   8.266  2.6924  1.9429  1.0986
 2552SOL     OW19291   3.372   1.523  11.915 -0.0808 -0.2456 -0.3037
 2552SOL    HW119292   3.289   1.505  11.870 -0.2443 -3.3067  1.1913
 2552SOL    HW219293   3.358   1.597  11.974  2.1532  1.7868 -2.3778
 2553SOL     OW19294   4.258   2.717   5.270 -0.2361 -0.0557 -0.4894
 2553SOL    HW119295   4.337   2.728   5.322 -1.1106 -1.0666  1.0259
 2553SOL    HW219296   4.195   2.737   5.339  0.1642 -0.7761  0.0875
 2554SOL     OW19297   2.691   1.439   1.623  0.0723  0.0569  0.5225
 2554SOL    HW119298   2.596   1.436   1.612 -0.2134 -1.1928  3.5227
 2554SOL    HW219299   2.694   1.352   1.662 -2.0898 -1.3063 -2.3059
 2555SOL     OW19300   1.860   3.761   9.339 -0.2513 -0.1907  0.0894
 2555SOL    HW119301   1.939   3.717   9.309  0.1396 -1.0033  2.2844
 2555SOL    HW219302   1.849   3.832   9.276  1.4444 -0.3469 -0.3741
 2556SOL     OW19303   3.320   2.837   4.466 -0.3878 -0.4177 -0.0112
 2556SOL    HW119304   3.326   2.814   4.373 -1.3107  2.0930 -0.6755
 2556SOL    HW219305   3.413   2.830   4.488 -0.7857  0.2872  1.8413
 2557SOL     OW19306   4.266   2.372   6.948  0.3546  0.0913  0.0569
 2557SOL    HW119307   4.316   2.308   6.897  0.8421  0.1012  0.5213
 2557SOL    HW219308   4.332   2.419   6.999  0.8736 -2.5593  1.8106
 2558SOL     OW19309   2.599   2.857  14.463 -0.2216  0.1943  0.9653
 2558SOL    HW119310   2.636   2.815  14.386  0.3696  0.1504  1.2696
 2558SOL    HW219311   2.592   2.947  14.430 -3.2256 -0.5644 -0.4320
 2559SOL     OW19312   0.213   4.276   7.479  0.0344 -0.2458  0.4532
 2559SOL    HW119313   0.252   4.345   7.425  2.0114 -2.4660 -0.9754
 2559SOL    HW219314   0.294   4.244   7.518  1.0141  2.4080  0.6216
 2560SOL     OW19315   4.292   4.216   5.778  0.0975  0.3723  0.2940
 2560SOL    HW119316   4.309   4.282   5.711 -1.6193 -0.7003 -1.1877
 2560SOL    HW219317   4.359   4.233   5.845  1.5338 -2.5618 -0.3754
 2561SOL     OW19318   0.093   2.179   7.572  0.1412 -0.0351 -0.3382
 2561SOL    HW119319   0.174   2.137   7.599 -0.6952  0.7500  3.4736
 2561SOL    HW219320   0.108   2.201   7.480  0.0835  1.5094  0.0153
 2562SOL     OW19321   2.805   1.117  16.742  0.3551  0.1282 -0.6274
 2562SOL    HW119322   2.864   1.047  16.716  1.0209  0.0835  1.0040
 2562SOL    HW219323   2.792   1.099  16.835  1.8211 -0.1036 -0.4675
 2563SOL     OW19324   3.332   0.429   3.670  0.0348  0.1064 -0.5691
 2563SOL    HW119325   3.410   0.430   3.725  0.6057 -1.3226 -1.3427
 2563SOL    HW219326   3.325   0.523   3.652  0.5978  0.2767  0.1269
 2564SOL     OW19327   0.645   3.606  11.911 -0.5076  0.1229 -0.2483
 2564SOL    HW119328   0.699   3.623  11.834  1.5448  2.1156  1.6141
 2564SOL    HW219329   0.578   3.671  11.891  0.7535  1.4474 -0.2003
 2565SOL     OW19330   0.761   0.958   3.004 -0.7461  0.2783  0.2924
 2565SOL    HW119331   0.816   0.882   2.983 -2.4928 -0.7345 -0.6763
 2565SOL    HW219332   0.796   0.990   3.088 -0.8131  2.0708 -0.3763
 2566SOL     OW19333   1.728   3.494   2.284  0.3489  0.1138 -0.3329
 2566SOL    HW119334   1.645   3.475   2.240  0.3257 -1.1518  0.2607
 2566SOL    HW219335   1.792   3.504   2.213 -0.3956 -0.4208 -1.0643
 2567SOL     OW19336   1.958   2.998   2.939 -0.3330 -0.4641  0.0579
 2567SOL    HW119337   1.986   3.030   2.853  1.1058  1.1402  1.1154
 2567SOL    HW219338   2.038   2.960   2.973 -0.8712  0.2867  2.1740
 2568SOL     OW19339   4.007   2.367   9.851 -0.2253  0.2146  0.3158
 2568SOL    HW119340   4.091   2.410   9.867  0.2510 -0.6122  0.0538
 2568SOL    HW219341   4.043   2.278   9.841 -1.4347  0.0634 -2.7870
 2569SOL     OW19342   0.423   4.016   2.555  0.3771 -0.3440  0.4061
 2569SOL    HW119343   0.476   3.950   2.509 -1.9042 -2.0199  0.1822
 2569SOL    HW219344   0.491   4.067   2.599 -0.7286 -2.1513  4.3066
 2570SOL     OW19345   1.385   2.538  15.966  0.4591 -0.0312  0.5096
 2570SOL    HW119346   1.403   2.605  15.901  0.3013 -0.6380 -0.1516
 2570SOL    HW219347   1.310   2.582  16.007  2.1819  3.0765  0.3560
 2571SOL     OW19348   3.692   4.485   9.213 -0.2808  0.3577 -0.3606
 2571SOL    HW119349   3.669   4.492   9.120 -1.8494 -0.7299 -0.0589
 2571SOL    HW219350   3.717   4.574   9.237 -1.2962  1.0017 -1.6336
 2572SOL     OW19351   3.561   1.770   6.262 -0.2979  0.2243 -0.0809
 2572SOL    HW119352   3.584   1.678   6.252 -0.5865  0.0656  0.7386
 2572SOL    HW219353   3.487   1.774   6.202 -2.5332  0.1951  2.6823
 2573SOL     OW19354   0.602   0.211   6.160 -0.1763 -0.4127  0.1717
 2573SOL    HW119355   0.675   0.200   6.099 -1.2281  0.9416 -1.3390
 2573SOL    HW219356   0.603   0.125   6.202  2.7177 -0.7563 -0.6129
 2574SOL     OW19357   3.894   2.510   9.647  0.9577 -0.2865  0.3206
 2574SOL    HW119358   3.954   2.583   9.654  1.1801 -0.3867 -0.5614
 2574SOL    HW219359   3.922   2.449   9.715  0.1276  0.9611  1.7658
 2575SOL     OW19360   3.095   1.299   5.117 -0.5806  0.3761  0.0367
 2575SOL    HW119361   3.142   1.259   5.045  2.0216 -1.2920  2.6893
 2575SOL    HW219362   3.106   1.394   5.111  0.8291  0.0779 -1.9286
 2576SOL     OW19363   1.330   0.486   9.344 -0.1897 -0.7561  0.0145
 2576SOL    HW119364   1.282   0.424   9.399  2.3823 -0.4532  2.5910
 2576SOL    HW219365   1.252   0.521   9.300  0.4426 -0.8488 -1.1721
 2577SOL     OW19366   0.618   3.175   4.648  1.0446 -0.5230 -0.2022
 2577SOL    HW119367   0.631   3.108   4.716  0.1091 -0.0193  0.4634
 2577SOL    HW219368   0.701   3.189   4.602 -0.4304 -0.2530 -2.7977
 2578SOL     OW19369   4.253   0.211   6.118  0.2586 -0.4826  0.2326
 2578SOL    HW119370   4.333   0.258   6.143  1.1088 -1.1550 -1.1558
 2578SOL    HW219371   4.302   0.143   6.070 -0.1293 -1.4324  1.1936
 2579SOL     OW19372   4.363   3.923   8.047  0.2738 -0.0504  0.1630
 2579SOL    HW119373   4.325   3.998   8.093  0.4126  2.3851 -3.6637
 2579SOL    HW219374   4.456   3.923   8.073  0.5964 -0.5552 -0.9856
 2580SOL     OW19375   2.453   0.888  12.170 -0.1390  0.0243  0.0985
 2580SOL    HW119376   2.485   0.823  12.233  1.1969  2.1332  1.6215
 2580SOL    HW219377   2.366   0.851  12.157 -1.2369  2.5618  0.3102
 2581SOL     OW19378   2.742   4.639   2.660  0.3306 -0.3415  0.3773
 2581SOL    HW119379   2.733   4.601   2.748 -2.0383 -2.7202 -0.8918
 2581SOL    HW219380   2.675   4.589   2.614  0.3812 -0.6968  0.6877
 2582SOL     OW19381   2.667   2.833   7.583 -0.5001  0.2735  0.1775
 2582SOL    HW119382   2.680   2.895   7.655 -0.6806 -0.4635  0.8599
 2582SOL    HW219383   2.636   2.752   7.625  1.0426 -0.3843  0.0431
 2583SOL     OW19384   4.685   0.697   8.250  0.2456  0.1244 -0.6204
 2583SOL    HW119385   4.676   0.696   8.346 -1.7261 -1.3460 -0.8327
 2583SOL    HW219386   4.616   0.637   8.222 -0.5852  1.1938 -0.8499
 2584SOL     OW19387   0.343   3.276   4.603 -0.7439  0.4769 -0.3669
 2584SOL    HW119388   0.316   3.281   4.695 -1.8106 -0.4299 -0.6283
 2584SOL    HW219389   0.302   3.350   4.557 -2.2005  1.0129  1.7834
 2585SOL     OW19390   1.636   1.575   7.007  0.0069 -0.1552 -0.0903
 2585SOL    HW119391   1.651   1.665   7.037 -1.4258 -0.2701  0.9588
 2585SOL    HW219392   1.605   1.596   6.919 -0.4435 -0.5445 -0.0216
 2586SOL     OW19393   0.557   3.446   7.006 -0.3174 -0.1354  0.1798
 2586SOL    HW119394   0.551   3.374   6.942  2.9764  0.2888 -0.5980
 2586SOL    HW219395   0.641   3.478   6.975 -0.8962  0.2073 -1.0676
 2587SOL     OW19396   3.037   3.185  10.862  0.3688 -0.2571  0.2833
 2587SOL    HW119397   3.039   3.220  10.950  0.6492 -1.6475  0.8334
 2587SOL    HW219398   2.953   3.217  10.830  0.1005 -1.2494 -0.0035
 2588SOL     OW19399   3.474   1.096   3.250 -0.0726  0.3115  0.3066
 2588SOL    HW119400   3.567   1.077   3.238 -0.5053 -1.3110 -0.5789
 2588SOL    HW219401   3.441   1.019   3.297 -1.9597  0.4561 -0.7953
 2589SOL     OW19402   1.876   0.204   5.963  0.0521  0.0540  0.5452
 2589SOL    HW119403   1.805   0.164   6.013  0.3650 -1.4293 -0.1881
 2589SOL    HW219404   1.926   0.130   5.928 -0.6642 -0.2941  0.2504
 2590SOL     OW19405   1.847   0.935   7.679 -0.1558  0.0163  0.3932
 2590SOL    HW119406   1.837   0.901   7.590 -0.1491  1.2188 -0.0755
 2590SOL    HW219407   1.877   0.851   7.712 -0.2150  0.0375  0.4990
 2591SOL     OW19408   2.454   3.559   9.343 -0.3320  0.2555  0.2240
 2591SOL    HW119409   2.544   3.550   9.310 -0.6657 -1.3971 -0.2003
 2591SOL    HW219410   2.436   3.642   9.298  0.8591  0.4544  0.1075
 2592SOL     OW19411   3.166   4.314   4.870 -0.2345 -0.7548  0.2986
 2592SOL    HW119412   3.240   4.370   4.893  1.5129 -2.9019 -0.1265
 2592SOL    HW219413   3.189   4.231   4.910 -1.3496  0.0562  2.6275
 2593SOL     OW19414   4.159   2.485   4.471  0.1540 -0.1153 -0.1078
 2593SOL    HW119415   4.123   2.396   4.470 -1.0664  0.3880 -0.4491
 2593SOL    HW219416   4.128   2.518   4.555 -0.5929  1.0097 -0.8245
 2594SOL     OW19417   3.881   3.832   9.292  0.5887  0.5530 -0.6635
 2594SOL    HW119418   3.852   3.777   9.365  1.2149 -1.7968 -2.1832
 2594SOL    HW219419   3.929   3.900   9.338 -0.0661 -1.1058  2.4906
 2595SOL     OW19420   3.033   1.334   4.253  0.3511  0.2227  0.0232
 2595SOL    HW119421   3.099   1.374   4.196  0.9811  2.2790  2.1768
 2595SOL    HW219422   2.975   1.408   4.269 -0.8356 -0.2231 -2.1451
 2596SOL     OW19423   2.291   1.741   5.630  0.0008 -0.2498 -0.4956
 2596SOL    HW119424   2.250   1.797   5.696 -0.2093 -0.1082 -0.7424
 2596SOL    HW219425   2.379   1.736   5.665  0.0533  1.7586 -0.3284
 2597SOL     OW19426   1.909   0.567  16.796  0.2967  0.2474 -0.0020
 2597SOL    HW119427   1.905   0.599  16.886  0.7945  1.8156 -0.5374
 2597SOL    HW219428   1.876   0.642  16.748  0.9453 -0.9827 -2.3844
 2598SOL     OW19429   1.553   2.455   0.706 -0.0369 -0.3610 -0.4479
 2598SOL    HW119430   1.470   2.408   0.707 -1.6738  2.5314  0.6238
 2598SOL    HW219431   1.568   2.455   0.611 -2.7491  0.9071 -0.8807
 2599SOL     OW19432   1.201   2.656   3.305 -0.3440  0.7848  0.0616
 2599SOL    HW119433   1.211   2.717   3.378 -1.9114  1.7648 -0.5354
 2599SOL    HW219434   1.293   2.637   3.286  0.1739  0.7480  2.6583
 2600SOL     OW19435   1.910   3.398   6.172 -0.2281  0.5740  0.3010
 2600SOL    HW119436   1.993   3.353   6.187 -0.1124  1.5465  2.5750
 2600SOL    HW219437   1.854   3.325   6.144  0.5045 -0.0118  0.3823
 2601SOL     OW19438   1.921   2.377   7.778  0.0716 -0.3429 -0.4996
 2601SOL    HW119439   1.913   2.284   7.797 -0.8244  0.0074  0.8417
 2601SOL    HW219440   1.956   2.370   7.689  1.2727 -1.5462  0.0699
 2602SOL     OW19441   3.570   1.259  13.304  0.2348 -0.0336 -0.4273
 2602SOL    HW119442   3.508   1.308  13.358 -0.4564 -0.9376 -0.3932
 2602SOL    HW219443   3.656   1.294  13.325  0.1753  0.0620 -0.3423
 2603SOL     OW19444   4.269   1.527  10.916  0.2030  0.0790  0.6597
 2603SOL    HW119445   4.225   1.532  11.001  1.3414  1.2546  1.1681
 2603SOL    HW219446   4.193   1.530  10.858  0.9541  0.1758 -0.3148
 2604SOL     OW19447   2.468   0.519  17.399 -0.0114  0.1188 -0.1268
 2604SOL    HW119448   2.519   0.439  17.415  0.8362  0.9531  1.3643
 2604SOL    HW219449   2.430   0.536  17.485  2.3643 -0.1927  1.0053
 2605SOL     OW19450   4.406   4.123   7.513  0.4278 -0.2123  0.0775
 2605SOL    HW119451   4.500   4.141   7.510  0.2876  0.7126  1.2775
 2605SOL    HW219452   4.370   4.212   7.513  1.5866  0.2718  2.6668
 2606SOL     OW19453   1.167   2.327   0.866  0.4003 -0.5959  0.3586
 2606SOL    HW119454   1.155   2.364   0.778 -1.4626  0.8674  1.2222
 2606SOL    HW219455   1.240   2.378   0.902 -0.8781  0.6936  1.1258
 2607SOL     OW19456   1.165   4.695   8.400  0.5883  0.1703  0.6601
 2607SOL    HW119457   1.202   4.615   8.439  0.4147 -0.5384 -0.6208
 2607SOL    HW219458   1.141   0.006   8.478  1.5955 -0.7542  1.5781
 2608SOL     OW19459   3.580   2.568   2.471  0.3631  0.6220  0.1824
 2608SOL    HW119460   3.564   2.484   2.513 -0.2443 -0.4690 -2.2407
 2608SOL    HW219461   3.665   2.561   2.428  0.9219  0.4796  1.2990
 2609SOL     OW19462   0.509   2.762   9.118 -0.3347  0.1827  0.1834
 2609SOL    HW119463   0.437   2.703   9.135 -0.4822  0.2767 -0.1123
 2609SOL    HW219464   0.459   2.842   9.136 -2.3919 -1.2035  0.5977
 2610SOL     OW19465   0.093   3.555   0.279 -0.1056 -0.3701  0.4399
 2610SOL    HW119466   0.018   3.603   0.312 -0.4018 -1.2458  1.0596
 2610SOL    HW219467   0.165   3.613   0.304 -1.4190  0.7070  1.7661
 2611SOL     OW19468   0.780   1.446   7.011 -0.1773  0.3688  0.5385
 2611SOL    HW119469   0.777   1.500   7.090  1.8328  0.5653  0.4715
 2611SOL    HW219470   0.855   1.391   7.034 -1.9169 -2.3024 -0.0886
 2612SOL     OW19471   2.227   0.200   1.616  0.1224  0.0366  0.0837
 2612SOL    HW119472   2.228   0.285   1.660  0.5232 -1.1670  2.3517
 2612SOL    HW219473   2.178   0.222   1.536  1.0697 -2.1751 -1.1114
 2613SOL     OW19474   2.859   0.792   2.759  0.1920  0.1430 -0.2380
 2613SOL    HW119475   2.901   0.870   2.793 -0.7286  1.4095 -1.9947
 2613SOL    HW219476   2.807   0.768   2.836  2.6382 -1.4646  0.9235
 2614SOL     OW19477   4.578   2.710   4.505 -0.2051 -0.4166  0.2164
 2614SOL    HW119478   4.594   2.781   4.567  1.7094 -1.4368  0.8856
 2614SOL    HW219479   4.666   2.674   4.500 -0.7550 -1.8729  1.0189
 2615SOL     OW19480   1.306   3.420   5.769 -0.1447 -0.9654  0.0168
 2615SOL    HW119481   1.300   3.455   5.857 -2.8789 -0.8817 -0.2104
 2615SOL    HW219482   1.221   3.443   5.734 -0.4931 -1.3894  0.5830
 2616SOL     OW19483   4.082   1.983   9.570 -0.3210 -0.3385 -0.2321
 2616SOL    HW119484   4.076   1.910   9.508  0.7177 -0.4856 -0.1578
 2616SOL    HW219485   4.009   2.041   9.550  1.8196  2.4344  0.0587
 2617SOL     OW19486   4.608   2.195   7.220 -0.1019 -0.0842  0.3245
 2617SOL    HW119487   4.629   2.158   7.135 -1.5489  0.0054 -0.0641
 2617SOL    HW219488   4.575   2.116   7.262  0.9359 -0.5022  0.3461
 2618SOL     OW19489   1.800   1.424   5.548  0.2395  0.4402 -0.0396
 2618SOL    HW119490   1.738   1.434   5.621  1.0269  0.9541  0.5591
 2618SOL    HW219491   1.749   1.364   5.494 -0.5390 -0.3500  1.5467
 2619SOL     OW19492   3.157   2.023   6.450  0.4984 -0.2964  0.0413
 2619SOL    HW119493   3.100   1.965   6.501  0.9259 -0.5893  0.1881
 2619SOL    HW219494   3.085   2.076   6.416  0.9004 -1.0797 -2.0006
 2620SOL     OW19495   2.804   0.127   4.145 -0.6319 -0.5789 -0.0833
 2620SOL    HW119496   2.852   0.154   4.224  0.0164 -0.5060 -0.5029
 2620SOL    HW219497   2.816   0.032   4.152  0.8255 -0.4037 -0.0335
 2621SOL     OW19498   2.725   2.879   9.196 -0.0923 -0.3454  0.5852
 2621SOL    HW119499   2.652   2.941   9.194  0.7109  0.5709  0.0265
 2621SOL    HW219500   2.783   2.919   9.260  0.6693 -0.4170 -0.0549
 2622SOL     OW19501   4.661   1.736  10.627  0.2247  0.0032 -0.1314
 2622SOL    HW119502   4.655   1.792  10.705  0.9250 -1.6609  1.1137
 2622SOL    HW219503   4.718   1.781  10.564 -1.9654  1.3724 -1.1322
 2623SOL     OW19504   0.005   4.643   6.090  0.5409  0.5005 -0.0667
 2623SOL    HW119505   0.040   4.594   6.016 -0.1147  0.7510 -0.5499
 2623SOL    HW219506   4.685   4.574   6.119 -1.7583  1.6475 -2.0193
 2624SOL     OW19507   2.807   3.174  15.921  0.3022  0.0356  0.4767
 2624SOL    HW119508   2.730   3.137  15.878  1.1228  0.6907 -1.5487
 2624SOL    HW219509   2.775   3.193  16.009  0.2424 -0.4071  0.5508
 2625SOL     OW19510   2.282   2.029   3.858  0.4520 -0.5392  0.1609
 2625SOL    HW119511   2.215   2.098   3.862 -0.3807 -1.3857  0.6005
 2625SOL    HW219512   2.244   1.982   3.784  1.0984  1.2518 -1.3473
 2626SOL     OW19513   1.792   2.422  16.556  0.4965 -0.0259 -0.5225
 2626SOL    HW119514   1.807   2.484  16.485  0.6003  2.8232  1.9699
 2626SOL    HW219515   1.703   2.393  16.535  0.5905  0.6763 -1.8795
 2627SOL     OW19516   2.223   1.073   4.373 -0.9672 -0.1984 -0.3965
 2627SOL    HW119517   2.159   1.026   4.427 -1.6887  2.3884  0.9979
 2627SOL    HW219518   2.191   1.039   4.289  0.2810 -0.1445 -0.8846
 2628SOL     OW19519   4.727   4.062   1.793 -0.0272 -0.1127  0.2256
 2628SOL    HW119520   4.693   4.148   1.814 -0.0935  0.2847 -1.4885
 2628SOL    HW219521   4.737   4.070   1.698 -1.6111 -1.8016 -0.0763
 2629SOL     OW19522   3.114   1.578  11.782  0.2844  0.0375  0.5485
 2629SOL    HW119523   3.133   1.588  11.688 -1.9701  1.1329  0.2177
 2629SOL    HW219524   3.072   1.493  11.787  1.6544 -0.4917  3.2761
 2630SOL     OW19525   2.138   4.143  11.827  0.0091 -0.2422  0.2264
 2630SOL    HW119526   2.207   4.204  11.854  0.7394 -0.9430 -0.0424
 2630SOL    HW219527   2.102   4.184  11.748 -1.3286 -0.4767  0.7250
 2631SOL     OW19528   0.519   3.861   9.211 -0.5564 -0.0870 -0.1561
 2631SOL    HW119529   0.596   3.819   9.173 -2.7304 -2.8116 -1.5565
 2631SOL    HW219530   0.547   3.951   9.197 -1.0359  0.1047  0.1142
 2632SOL     OW19531   3.601   0.162   9.093 -0.3117  0.3425  0.0079
 2632SOL    HW119532   3.608   0.191   9.184  1.4655  0.1175 -0.0682
 2632SOL    HW219533   3.685   0.197   9.062 -0.2527 -0.8327 -1.1648
 2633SOL     OW19534   0.982   2.886   8.885  0.0424 -0.2606 -0.0842
 2633SOL    HW119535   0.915   2.855   8.823 -0.3234 -1.0631  0.7191
 2633SOL    HW219536   1.047   2.833   8.839  1.3905  0.5558  0.9247
 2634SOL     OW19537   3.982   2.326  15.841  0.2746 -0.0768 -0.4935
 2634SOL    HW119538   3.986   2.244  15.890 -0.5156  2.2927  3.5346
 2634SOL    HW219539   4.012   2.388  15.907  1.9608 -1.2607 -0.1370
 2635SOL     OW19540   0.451   3.975   7.465  0.0005 -0.2636  0.5170
 2635SOL    HW119541   0.534   3.970   7.510  0.8917 -1.6505 -1.2767
 2635SOL    HW219542   0.445   4.069   7.480 -1.0709  0.0951 -1.9828
 2636SOL     OW19543   2.510   1.395   2.606  0.2820 -0.0569 -0.6291
 2636SOL    HW119544   2.570   1.432   2.541  1.1809 -2.1306 -0.9828
 2636SOL    HW219545   2.453   1.469   2.626  0.0373 -0.0847 -1.2389
 2637SOL     OW19546   3.524   3.362   6.531 -0.1762 -0.0616 -0.0720
 2637SOL    HW119547   3.587   3.331   6.597  0.7037  1.5911 -0.1449
 2637SOL    HW219548   3.452   3.390   6.587  2.0249  0.4171  2.5297
 2638SOL     OW19549   4.164   2.837   7.808  0.0646  0.1670  0.2533
 2638SOL    HW119550   4.156   2.760   7.752  0.7781  0.7446 -0.6660
 2638SOL    HW219551   4.123   2.806   7.888  1.0602 -0.3176  0.5702
 2639SOL     OW19552   1.501   2.904   0.926  0.4318 -0.5322  0.1626
 2639SOL    HW119553   1.468   2.821   0.893  0.4552 -1.3609  2.2353
 2639SOL    HW219554   1.557   2.879   1.000  0.9558  0.0257 -0.0436
 2640SOL     OW19555   4.722   4.349   6.824  0.1260 -0.6439 -0.6228
 2640SOL    HW119556   4.637   4.314   6.852  0.1004 -0.2311 -0.1915
 2640SOL    HW219557   0.035   4.333   6.902 -2.3080  1.1320  1.3841
 2641SOL     OW19558   1.495   1.209   1.829 -0.5741  0.0093 -0.2124
 2641SOL    HW119559   1.424   1.214   1.765  0.7734 -0.4966 -1.7359
 2641SOL    HW219560   1.485   1.289   1.881  1.5290 -0.5254  0.9819
 2642SOL     OW19561   0.595   3.293  11.939 -0.0670  0.5452  0.1401
 2642SOL    HW119562   0.586   3.328  12.028  1.0466 -2.5288  1.4608
 2642SOL    HW219563   0.675   3.241  11.946 -0.8382 -0.3510  2.3690
 2643SOL     OW19564   2.932   2.960   5.927 -0.2051 -0.1851 -0.5970
 2643SOL    HW119565   2.892   3.047   5.936  2.3702  0.9930 -0.6947
 2643SOL    HW219566   3.009   2.971   5.871  0.4487 -0.7583  0.2041
 2644SOL     OW19567   0.600   4.245   3.207  0.6338  0.7205  0.6177
 2644SOL    HW119568   0.646   4.227   3.290 -0.4229 -2.2440  0.5371
 2644SOL    HW219569   0.669   4.252   3.141  1.4924 -3.3124  1.1061
 2645SOL     OW19570   0.592   0.004   6.955  0.1764 -0.2459 -0.0748
 2645SOL    HW119571   0.580   0.099   6.963 -0.5365 -0.5101  1.8253
 2645SOL    HW219572   0.505   4.706   6.968  1.0711 -2.6561 -1.0413
 2646SOL     OW19573   0.836   0.109   1.365  0.3356  0.2280 -0.0155
 2646SOL    HW119574   0.789   0.115   1.282  0.4618  1.3719 -0.0061
 2646SOL    HW219575   0.764   0.089   1.424 -0.4503 -1.1523 -1.4455
 2647SOL     OW19576   0.252   0.245   3.908  0.4389  0.7710 -0.3529
 2647SOL    HW119577   0.284   0.156   3.903 -1.2315  0.1844 -0.6399
 2647SOL    HW219578   0.190   0.248   3.835 -1.1630 -1.5009  0.9355
 2648SOL     OW19579   1.002   4.163  10.614 -0.1937  0.0415 -0.2981
 2648SOL    HW119580   1.017   4.250  10.577 -0.5490 -0.9959 -2.8923
 2648SOL    HW219581   0.907   4.167  10.602 -0.2731 -1.6433 -0.1760
 2649SOL     OW19582   2.615   2.585   7.425 -0.0755 -0.2004  0.1178
 2649SOL    HW119583   2.627   2.680   7.432 -3.2876  0.2433 -0.6160
 2649SOL    HW219584   2.540   2.594   7.367 -1.5063 -3.4599  1.5093
 2650SOL     OW19585   1.922   2.948   9.917  0.3904  0.2158 -0.3058
 2650SOL    HW119586   1.962   2.883   9.859 -2.6793  0.3030 -2.4964
 2650SOL    HW219587   1.842   2.901   9.938  1.0102  0.5357  2.8368
 2651SOL     OW19588   0.872   2.421  15.033  0.0439 -0.2180  0.2329
 2651SOL    HW119589   0.953   2.416  15.084  0.1084  0.5263  0.2061
 2651SOL    HW219590   0.854   2.328  15.025 -0.6386 -0.0539 -0.1078
 2652SOL     OW19591   4.613   2.202   3.040 -0.6311 -0.2572 -0.1500
 2652SOL    HW119592   4.686   2.205   2.979  0.6693  1.0035  1.4897
 2652SOL    HW219593   4.558   2.272   3.004  2.6537  1.9051 -0.9188
 2653SOL     OW19594   1.959   4.280   6.775 -0.4852 -0.5145 -0.2695
 2653SOL    HW119595   1.956   4.201   6.722  1.2463 -0.6103 -0.2351
 2653SOL    HW219596   2.033   4.330   6.739  0.0264 -1.3346 -0.3662
 2654SOL     OW19597   0.445   4.243   7.583  0.2141  0.8465  0.1221
 2654SOL    HW119598   0.502   4.305   7.628  0.6394 -0.4015  1.3056
 2654SOL    HW219599   0.439   4.179   7.654  0.9748 -0.6625 -1.1556
 2655SOL     OW19600   1.532   1.122  10.341  0.2939  0.3752 -0.5453
 2655SOL    HW119601   1.558   1.030  10.348  1.0203  0.6122 -0.0467
 2655SOL    HW219602   1.613   1.172  10.357 -0.6305  1.0441  2.0778
 2656SOL     OW19603   0.341   1.891   2.383 -0.7324  0.8698  0.4042
 2656SOL    HW119604   0.287   1.929   2.314 -0.8351  1.1813  0.6564
 2656SOL    HW219605   0.286   1.824   2.423 -0.0911  0.4003  0.5133
 2657SOL     OW19606   4.644   1.573   8.198 -0.2041  0.1913 -0.2717
 2657SOL    HW119607   4.634   1.533   8.284  0.3636 -1.3076 -0.9161
 2657SOL    HW219608   4.597   1.520   8.134 -0.5409 -0.5884  0.6255
 2658SOL     OW19609   3.792   3.844   6.363  0.1313  0.4118  0.5488
 2658SOL    HW119610   3.790   3.898   6.442 -1.8037  1.8168 -0.4539
 2658SOL    HW219611   3.871   3.882   6.324 -0.7615  0.5978 -1.0624
 2659SOL     OW19612   1.920   3.541  12.982 -0.2407 -0.2113  0.1894
 2659SOL    HW119613   1.860   3.589  12.925  0.1790  0.4299  0.2824
 2659SOL    HW219614   1.891   3.450  12.980  0.4493 -0.4199 -0.4617
 2660SOL     OW19615   1.033   2.310   8.453  0.4818 -0.3772 -0.1006
 2660SOL    HW119616   1.004   2.240   8.511 -4.5045 -0.3685 -2.5638
 2660SOL    HW219617   1.025   2.386   8.511  0.3233  0.2269 -0.9108
 2661SOL     OW19618   0.785   0.883  13.165 -0.0844  0.0737  0.0102
 2661SOL    HW119619   0.856   0.925  13.214 -0.4828  0.6645  0.0868
 2661SOL    HW219620   0.765   0.799  13.206 -1.9189  0.3169 -0.3920
 2662SOL     OW19621   1.302   0.092   6.128  0.1436  0.0286  0.1318
 2662SOL    HW119622   1.374   0.051   6.177  0.4110  0.1333 -0.1759
 2662SOL    HW219623   1.215   0.069   6.158 -0.4800  1.3277 -0.6676
 2663SOL     OW19624   0.704   3.413  17.694  0.1084 -0.8429 -0.2848
 2663SOL    HW119625   0.627   3.404  17.637  0.2724  0.2615 -0.6814
 2663SOL    HW219626   0.770   3.360  17.651 -1.3414 -1.3511 -1.8739
 2664SOL     OW19627   3.308   2.641   3.736 -0.2287  0.6251 -0.0778
 2664SOL    HW119628   3.306   2.594   3.653  1.0017  0.1063  0.1881
 2664SOL    HW219629   3.345   2.729   3.725 -0.5087  0.9007  1.2006
 2665SOL     OW19630   4.185   3.810  12.345 -0.2478 -0.0286 -0.0386
 2665SOL    HW119631   4.262   3.788  12.292 -0.0617 -2.2729  1.1626
 2665SOL    HW219632   4.143   3.727  12.324  0.7234 -0.5096 -0.1115
 2666SOL     OW19633   1.029   1.423   3.489 -0.0823  0.3354  0.1560
 2666SOL    HW119634   1.122   1.416   3.471 -0.5844 -1.2276 -1.8635
 2666SOL    HW219635   1.032   1.496   3.551 -2.0290 -1.6643  2.6414
 2667SOL     OW19636   1.304   2.155   0.427  0.2215  0.0545  0.4796
 2667SOL    HW119637   1.230   2.156   0.488 -0.3572  1.0146 -0.2319
 2667SOL    HW219638   1.368   2.104   0.476  0.6263  0.9434  0.8708
 2668SOL     OW19639   4.716   0.380   6.829 -0.0825 -0.3853 -0.0806
 2668SOL    HW119640   4.692   0.442   6.897 -0.9877 -0.7174 -0.0991
 2668SOL    HW219641   4.720   0.305   6.888 -0.6600 -3.4498 -3.8969
 2669SOL     OW19642   0.195   0.663   4.454  0.1628  0.3841 -0.1381
 2669SOL    HW119643   0.254   0.590   4.436 -0.6703 -0.1092 -0.8600
 2669SOL    HW219644   0.176   0.691   4.364  1.2752 -0.5371 -0.6657
 2670SOL     OW19645   4.090   1.614   5.266  0.0936 -0.0780  0.5235
 2670SOL    HW119646   4.156   1.584   5.204  0.8305  0.3801  1.0761
 2670SOL    HW219647   4.128   1.584   5.349  0.7595 -0.9298 -0.0935
 2671SOL     OW19648   3.842   0.689  16.740 -0.3958 -0.2361  0.0792
 2671SOL    HW119649   3.905   0.638  16.690  1.2148  0.3310  1.5295
 2671SOL    HW219650   3.892   0.768  16.762 -1.2192 -0.2520  1.9612
 2672SOL     OW19651   2.946   3.560   5.535 -0.0710  0.0373 -0.0985
 2672SOL    HW119652   2.926   3.643   5.579  0.0392 -0.4955  0.9700
 2672SOL    HW219653   2.966   3.510   5.614 -0.2430  0.8835  0.4821
 2673SOL     OW19654   2.155   0.014   3.816 -0.6367 -0.4424 -0.1500
 2673SOL    HW119655   2.207   4.698   3.758 -0.0894 -0.8491  0.7374
 2673SOL    HW219656   2.199   0.092   3.782  0.9898 -1.0348  0.5784
 2674SOL     OW19657   1.608   3.779  10.941  0.4730 -0.7482 -0.1643
 2674SOL    HW119658   1.565   3.733  10.869  1.1552 -0.8792 -0.4835
 2674SOL    HW219659   1.531   3.816  10.985  0.0555 -0.9257 -0.7464
 2675SOL     OW19660   2.901   2.783  10.853  0.4712 -0.1586 -0.2124
 2675SOL    HW119661   2.845   2.756  10.925 -0.9016  0.2503 -1.1227
 2675SOL    HW219662   2.973   2.820  10.905  0.5998 -0.0542 -0.4619
 2676SOL     OW19663   3.330   3.831  10.097 -0.5468  0.3457  0.3034
 2676SOL    HW119664   3.355   3.872  10.181 -0.0749 -0.0039  0.3362
 2676SOL    HW219665   3.269   3.772  10.140  0.0990  0.1092  0.9049
 2677SOL     OW19666   3.569   0.687  11.276 -0.6102  0.2544  0.2890
 2677SOL    HW119667   3.623   0.609  11.289 -1.4722 -0.3647  0.1009
 2677SOL    HW219668   3.617   0.757  11.321  0.1840  0.9324 -1.6471
 2678SOL     OW19669   2.246   1.069   8.890  0.2128 -0.3000  0.7986
 2678SOL    HW119670   2.282   0.996   8.939 -0.7315 -1.7628 -0.7006
 2678SOL    HW219671   2.228   1.134   8.958 -2.2827  0.3448 -0.4772
 2679SOL     OW19672   0.337   0.783   5.596  0.2179 -0.2333 -0.2044
 2679SOL    HW119673   0.337   0.702   5.545 -2.7937  0.1289 -0.7758
 2679SOL    HW219674   0.282   0.836   5.537 -1.1298 -2.7929 -1.2825
 2680SOL     OW19675   3.970   3.388   7.949  0.3130 -0.5186  0.6336
 2680SOL    HW119676   3.937   3.444   8.019  1.9232  2.6070 -1.0685
 2680SOL    HW219677   3.988   3.314   8.008 -0.1380  0.1464  1.6002
 2681SOL     OW19678   2.364   2.724   1.586 -0.1409  0.4907  0.5237
 2681SOL    HW119679   2.376   2.664   1.660 -0.6199 -1.7784 -1.2607
 2681SOL    HW219680   2.269   2.734   1.589 -0.2755 -0.4790 -0.8006
 2682SOL     OW19681   1.164   3.982   2.682 -0.5453  0.2106 -0.1856
 2682SOL    HW119682   1.148   4.058   2.626 -2.5869  1.3570  1.9908
 2682SOL    HW219683   1.235   3.936   2.635 -0.7900 -1.9793  1.6055
 2683SOL     OW19684   4.201   3.747   5.872  0.3040 -0.3949  0.0960
 2683SOL    HW119685   4.129   3.745   5.810 -0.5890  1.5680  1.0755
 2683SOL    HW219686   4.171   3.767   5.961 -1.8600  2.9875 -1.3877
 2684SOL     OW19687   2.005   0.715  12.320 -0.4849  0.2305  0.0090
 2684SOL    HW119688   1.973   0.625  12.312 -1.2907  0.8609 -3.6874
 2684SOL    HW219689   1.928   0.768  12.344 -0.4766  1.1538 -2.0353
 2685SOL     OW19690   4.725   1.518  13.213  0.0081 -0.2182 -0.4293
 2685SOL    HW119691   0.035   1.573  13.152  1.4816 -1.1552 -0.0644
 2685SOL    HW219692   4.652   1.578  13.227  0.4812  0.4671 -0.9013
 2686SOL     OW19693   0.328   2.757   7.024  0.0816 -0.9300  0.4131
 2686SOL    HW119694   0.388   2.682   7.020  0.3242 -0.7885  1.3878
 2686SOL    HW219695   0.383   2.825   7.063 -0.7761 -0.9429  1.6286
 2687SOL     OW19696   3.038   2.212   4.029  0.0151  0.3964  0.2282
 2687SOL    HW119697   3.094   2.152   4.079  0.4847  0.3427 -0.3710
 2687SOL    HW219698   2.956   2.219   4.078  0.5937  1.8483  0.9727
 2688SOL     OW19699   0.517   0.948  11.443  0.3918 -0.1517 -0.1186
 2688SOL    HW119700   0.607   0.930  11.418  0.5632  1.1122 -0.4391
 2688SOL    HW219701   0.470   0.951  11.359 -1.0761 -1.2191  0.6660
 2689SOL     OW19702   2.032   3.273   6.469 -0.5860  0.4678  0.6603
 2689SOL    HW119703   1.942   3.301   6.455 -1.1130 -2.3967 -1.5969
 2689SOL    HW219704   2.033   3.193   6.417 -0.9447 -0.1452  1.5828
 2690SOL     OW19705   0.412   0.440   3.294 -0.0606 -0.7335 -0.1592
 2690SOL    HW119706   0.358   0.381   3.347 -1.6801  0.2737 -0.7090
 2690SOL    HW219707   0.487   0.382   3.281 -0.1674 -1.7345  3.4732
 2691SOL     OW19708   1.013   2.236   6.212  0.6777  0.3846 -0.2607
 2691SOL    HW119709   1.096   2.194   6.234 -0.4777 -1.1014  1.3160
 2691SOL    HW219710   1.034   2.259   6.122  0.0795 -1.3040 -0.8270
 2692SOL     OW19711   3.515   4.311   7.794  0.8190 -0.2326 -0.3450
 2692SOL    HW119712   3.547   4.402   7.789 -0.8372  0.4439  1.6006
 2692SOL    HW219713   3.564   4.266   7.725  0.0810 -2.4832  0.6224
 2693SOL     OW19714   4.482   3.870   4.995  0.4546  0.6852  0.5213
 2693SOL    HW119715   4.551   3.840   5.054 -0.2632 -0.1763  0.9285
 2693SOL    HW219716   4.430   3.790   4.983 -0.1814  1.3993 -1.5909
 2694SOL     OW19717   0.084   0.038   7.865  0.6116  0.1136 -0.3750
 2694SOL    HW119718   0.011   0.070   7.812 -0.2058  0.0747  0.7495
 2694SOL    HW219719   0.158   0.023   7.806  0.4985 -1.5383 -0.1215
 2695SOL     OW19720   4.012   0.753   2.126 -0.2402  0.0161  0.0451
 2695SOL    HW119721   3.934   0.724   2.079 -0.7527 -0.6331  1.2994
 2695SOL    HW219722   3.972   0.818   2.184 -1.5710 -1.5050  0.8452
 2696SOL     OW19723   4.687   3.785   7.039 -0.0366 -0.2064  0.1783
 2696SOL    HW119724   0.042   3.769   7.044 -0.3265 -1.1982  2.6028
 2696SOL    HW219725   4.661   3.754   7.126 -0.8693 -0.1565 -0.0575
 2697SOL     OW19726   3.626   1.511  13.721 -0.1755 -0.6775 -0.1176
 2697SOL    HW119727   3.546   1.560  13.706  0.7363  0.2692 -1.8877
 2697SOL    HW219728   3.650   1.545  13.807  0.0841  0.6596 -0.7265
 2698SOL     OW19729   1.302   2.862  13.113  0.6149  0.2992  0.3630
 2698SOL    HW119730   1.290   2.837  13.205  2.1769  1.0420  0.7906
 2698SOL    HW219731   1.233   2.814  13.068 -0.4852  0.7860  1.5284
 2699SOL     OW19732   2.087   2.452  10.604  0.4836 -0.1701 -0.4887
 2699SOL    HW119733   2.036   2.523  10.564  1.1302  0.0773 -0.8640
 2699SOL    HW219734   2.176   2.475  10.577  1.1532  0.5515  2.3057
 2700SOL     OW19735   2.607   3.379   1.328 -0.4916  0.4998  0.1580
 2700SOL    HW119736   2.635   3.401   1.417 -3.1243  0.0932  1.0720
 2700SOL    HW219737   2.610   3.284   1.330  3.0096  0.6281  1.2321
 2701SOL     OW19738   2.348   0.460   8.575  0.0537 -0.3096 -0.2679
 2701SOL    HW119739   2.310   0.412   8.648  0.3632  1.3239  0.9597
 2701SOL    HW219740   2.438   0.475   8.603  0.0122  0.3901 -0.5185
 2702SOL     OW19741   2.420   3.177   8.006  0.2823 -0.5301  0.3244
 2702SOL    HW119742   2.476   3.216   8.073 -0.7945  0.0760  0.8744
 2702SOL    HW219743   2.461   3.092   7.997  0.3984 -0.2993 -1.2515
 2703SOL     OW19744   2.834   2.412   2.045 -0.0882  0.4743  0.2779
 2703SOL    HW119745   2.897   2.421   2.117 -2.7648 -2.7840  3.0363
 2703SOL    HW219746   2.754   2.415   2.098  0.1876 -2.3766  0.8136
 2704SOL     OW19747   3.141   2.420   7.411  0.1616 -0.1830  0.3936
 2704SOL    HW119748   3.188   2.384   7.336 -2.5946 -0.3709 -1.2346
 2704SOL    HW219749   3.050   2.438   7.388  0.4265  0.9849  0.2691
 2705SOL     OW19750   4.395   2.349   4.022 -0.4690 -0.0841  0.3641
 2705SOL    HW119751   4.390   2.355   4.118  4.2291 -0.6831  0.6495
 2705SOL    HW219752   4.309   2.387   4.003  0.6555  1.8226 -0.8734
 2706SOL     OW19753   3.174   2.476   5.189 -0.2141  0.0271  0.0112
 2706SOL    HW119754   3.116   2.543   5.153  0.8927  0.5172 -0.8569
 2706SOL    HW219755   3.118   2.410   5.229  1.6340 -2.5031 -1.5626
 2707SOL     OW19756   0.220   0.251  14.563  0.1808 -0.3519 -0.2016
 2707SOL    HW119757   0.286   0.303  14.516 -1.0514 -0.3401 -1.9143
 2707SOL    HW219758   0.272   0.232  14.641 -0.1424  0.8175  0.3079
 2708SOL     OW19759   3.871   0.221   9.034  0.3838 -0.4295 -0.6194
 2708SOL    HW119760   3.888   0.224   8.940 -2.9876 -0.8205 -1.2653
 2708SOL    HW219761   3.931   0.289   9.063  0.7102 -0.2812 -1.6522
 2709SOL     OW19762   0.770   2.199   3.727 -0.2355  0.1124  0.0602
 2709SOL    HW119763   0.692   2.219   3.675 -0.2697 -0.7533 -0.2308
 2709SOL    HW219764   0.818   2.279   3.706  0.5309 -0.4851 -0.4939
 2710SOL     OW19765   2.092   1.631  11.035  0.1679  0.2830 -0.0491
 2710SOL    HW119766   2.184   1.647  11.013  0.2233  0.0462  0.0083
 2710SOL    HW219767   2.075   1.582  10.954  2.3959  0.5489 -0.6902
 2711SOL     OW19768   2.234   0.085  15.091  0.1531 -0.6414 -0.0570
 2711SOL    HW119769   2.185   0.154  15.049 -0.9249 -1.0288  0.5723
 2711SOL    HW219770   2.319   0.097  15.049 -0.5266  1.2716 -0.8707
 2712SOL     OW19771   3.766   3.617  15.363  0.4550  0.1194 -0.2740
 2712SOL    HW119772   3.797   3.527  15.352 -3.5698 -1.2156 -0.9992
 2712SOL    HW219773   3.732   3.617  15.452 -0.1749  0.9819 -0.5181
 2713SOL     OW19774   1.970   0.350   6.179  0.1334 -0.0304  0.2069
 2713SOL    HW119775   1.931   0.309   6.101  0.5693 -1.6103  0.8175
 2713SOL    HW219776   1.985   0.438   6.145  0.0777  0.7922  2.3494
 2714SOL     OW19777   3.960   3.398   6.180 -0.3181  0.2008 -0.2005
 2714SOL    HW119778   3.953   3.450   6.260 -1.1083  1.3790 -1.0394
 2714SOL    HW219779   4.048   3.418   6.147 -0.7909 -0.9132 -2.1561
 2715SOL     OW19780   4.279   1.518   2.037 -0.0550  0.0995  0.3042
 2715SOL    HW119781   4.313   1.561   2.116 -0.5058  1.2056 -0.1100
 2715SOL    HW219782   4.232   1.447   2.081 -2.2065  0.9280 -0.6802
 2716SOL     OW19783   2.267   0.328   6.943 -0.2135  0.1681  0.7473
 2716SOL    HW119784   2.239   0.284   7.023 -0.1082  1.2462  1.3846
 2716SOL    HW219785   2.206   0.288   6.880 -1.4223 -1.0180  2.6732
 2717SOL     OW19786   4.579   4.043   8.569 -0.8380  0.4999 -0.4378
 2717SOL    HW119787   4.651   4.037   8.633 -0.1671  0.6391 -1.1826
 2717SOL    HW219788   4.608   4.117   8.516 -0.0632  0.0462 -0.6463
 2718SOL     OW19789   3.393   0.500   5.830  0.0239 -0.3947 -0.3656
 2718SOL    HW119790   3.461   0.465   5.773  1.7895 -0.9250  2.0963
 2718SOL    HW219791   3.404   0.446   5.908 -0.9787  1.4317  1.0447
 2719SOL     OW19792   0.082   3.780   8.578 -0.2653 -0.1165  0.1651
 2719SOL    HW119793   0.099   3.751   8.668 -1.5870  1.1535  0.8293
 2719SOL    HW219794   0.170   3.816   8.564 -0.0671 -0.8418 -0.4136
 2720SOL     OW19795   3.580   1.912  13.129  0.0438  0.6836 -0.2934
 2720SOL    HW119796   3.593   1.828  13.172 -0.5675  0.5331 -0.4129
 2720SOL    HW219797   3.485   1.924  13.121 -0.5467 -2.4658  2.0789
 2721SOL     OW19798   0.363   4.387   1.422 -0.1933  0.0452 -0.0668
 2721SOL    HW119799   0.443   4.435   1.398  0.0985 -0.2994  0.2078
 2721SOL    HW219800   0.373   4.374   1.516  0.7011  0.2778 -0.1283
 2722SOL     OW19801   4.009   0.727   7.451  0.0844  0.0940  0.6724
 2722SOL    HW119802   3.972   0.811   7.479  2.0551  1.7401 -1.5882
 2722SOL    HW219803   4.097   0.731   7.490  0.1986  0.5262  0.3683
 2723SOL     OW19804   0.089   2.940   0.695  0.1067  0.1200 -0.3533
 2723SOL    HW119805   0.017   2.942   0.632  1.6112  4.2318 -1.9780
 2723SOL    HW219806   0.168   2.981   0.661 -0.5760  0.9681 -0.9072
 2724SOL     OW19807   3.056   2.890   1.874 -0.1393  0.0493  0.0481
 2724SOL    HW119808   3.032   2.874   1.783  2.2035 -1.3148 -0.3290
 2724SOL    HW219809   3.019   2.808   1.907 -0.3593 -0.6134 -1.8337
 2725SOL     OW19810   0.338   4.219  15.293 -0.3141  0.3018 -0.4322
 2725SOL    HW119811   0.280   4.174  15.355  0.7750  1.1945  1.2391
 2725SOL    HW219812   0.303   4.307  15.304 -0.9467 -0.1232  0.9983
 2726SOL     OW19813   3.899   3.778   5.292  0.3263  0.8304  0.3784
 2726SOL    HW119814   3.844   3.805   5.218 -0.2601  1.3783  1.0061
 2726SOL    HW219815   3.847   3.701   5.314  0.7781 -0.2079 -2.2078
 2727SOL     OW19816   2.753   2.041   7.893  0.5394 -0.2754  1.3080
 2727SOL    HW119817   2.831   2.002   7.933  0.8181 -1.8611 -0.7825
 2727SOL    HW219818   2.719   1.956   7.865  0.6744  0.2677 -0.5508
 2728SOL     OW19819   4.353   1.984   6.478 -0.3076  0.3867  0.3979
 2728SOL    HW119820   4.411   1.915   6.509  1.0521  1.5593  0.4888
 2728SOL    HW219821   4.394   2.067   6.504 -1.3327  1.1655 -0.4521
 2729SOL     OW19822   3.880   2.739  14.779 -0.0203 -0.0855 -0.4783
 2729SOL    HW119823   3.900   2.679  14.707 -1.2825 -0.3434 -0.6096
 2729SOL    HW219824   3.789   2.746  14.750  0.2042 -0.5438 -1.3005
 2730SOL     OW19825   1.471   3.166   4.545  0.6800 -0.1453 -0.6522
 2730SOL    HW119826   1.500   3.217   4.470 -1.0157  0.3467 -0.9820
 2730SOL    HW219827   1.378   3.190   4.551  0.6864 -0.7892  2.0093
 2731SOL     OW19828   3.235   4.352   8.881  0.2974 -0.5270  0.1341
 2731SOL    HW119829   3.245   4.257   8.891  1.4828 -0.2269  1.6428
 2731SOL    HW219830   3.237   4.374   8.974  2.5670  0.9097 -0.2574
 2732SOL     OW19831   2.158   0.882   5.339  0.3401 -0.1790  0.1795
 2732SOL    HW119832   2.170   0.947   5.408  1.3014 -0.4806  0.3081
 2732SOL    HW219833   2.168   0.798   5.385 -1.6010  0.4284  1.6742
 2733SOL     OW19834   1.616   4.499   8.514 -0.5264 -0.4967 -0.1345
 2733SOL    HW119835   1.660   4.539   8.439 -1.1060 -1.6639 -1.0824
 2733SOL    HW219836   1.676   4.428   8.536  0.1154 -0.8258 -2.9695
 2734SOL     OW19837   2.311   4.710   6.680  0.2405  0.7242  0.8205
 2734SOL    HW119838   2.238   0.016   6.637 -0.5463 -1.7147 -0.4194
 2734SOL    HW219839   2.378   0.039   6.681  0.1441  0.8493 -1.8033
 2735SOL     OW19840   1.538   3.014   6.373  0.0232  0.1182 -0.3360
 2735SOL    HW119841   1.480   3.071   6.423 -0.2673 -1.1157  0.7510
 2735SOL    HW219842   1.590   2.980   6.446  0.5815  1.8028  0.0479
 2736SOL     OW19843   0.386   0.066   4.514 -0.1600  0.2344  0.3422
 2736SOL    HW119844   0.341   0.117   4.582 -0.4367 -0.8186  0.9494
 2736SOL    HW219845   0.315   0.049   4.451  1.2584 -3.7008 -0.2152
 2737SOL     OW19846   1.577   4.108   7.348  0.1556  0.0480 -0.2434
 2737SOL    HW119847   1.492   4.143   7.322  0.4277  1.9012  1.3655
 2737SOL    HW219848   1.623   4.183   7.385 -0.7215  1.7966 -2.6657
 2738SOL     OW19849   2.720   1.368   9.715 -0.8310  0.0192  0.0043
 2738SOL    HW119850   2.720   1.422   9.794  2.0001 -2.7470  1.9118
 2738SOL    HW219851   2.815   1.354   9.716 -0.8737 -0.1393  1.4780
 2739SOL     OW19852   0.913   0.232   5.631  0.2582 -0.1110 -0.0751
 2739SOL    HW119853   0.929   0.310   5.578 -2.9103 -0.1473 -1.0638
 2739SOL    HW219854   0.955   0.269   5.709 -0.9032 -1.8038  1.3646
 2740SOL     OW19855   3.041   0.045  12.270  0.1563 -0.5991 -0.3699
 2740SOL    HW119856   2.993   0.122  12.303  2.2440  0.4277  0.2577
 2740SOL    HW219857   2.984   0.007  12.204  0.7192 -0.7422 -0.7656
 2741SOL     OW19858   3.025   0.848  17.688  0.3932  0.3890 -0.2821
 2741SOL    HW119859   3.089   0.873  17.755  2.7619  0.2274 -2.4919
 2741SOL    HW219860   3.071   0.774  17.648  0.7744 -0.6416  2.0289
 2742SOL     OW19861   2.243   2.734  13.092  0.3677  0.0456  0.1821
 2742SOL    HW119862   2.222   2.650  13.050  2.4878 -0.1103 -0.5465
 2742SOL    HW219863   2.336   2.720  13.109  0.9257  0.4407 -2.6018
 2743SOL     OW19864   1.341   4.629  15.398  0.1417 -0.1955 -0.1965
 2743SOL    HW119865   1.283   4.569  15.446  2.0040 -2.0629 -0.2742
 2743SOL    HW219866   1.408   4.652  15.463 -1.8293 -0.5250  1.9575
 2744SOL     OW19867   4.551   4.504   0.545 -0.2862 -0.5636  0.0205
 2744SOL    HW119868   4.645   4.524   0.542 -0.2271 -1.0010 -1.0057
 2744SOL    HW219869   4.519   4.535   0.460  1.2201  1.1895  0.0950
 2745SOL     OW19870   3.577   2.026   2.974 -0.3051  0.1526  0.2722
 2745SOL    HW119871   3.672   2.013   2.969 -0.3740 -0.0555 -0.5550
 2745SOL    HW219872   3.549   1.938   2.949 -1.2355  0.4787  0.1962
 2746SOL     OW19873   1.857   3.664  10.982 -0.8924 -0.0243 -0.3884
 2746SOL    HW119874   1.772   3.698  10.953 -0.0088  0.8163 -1.9771
 2746SOL    HW219875   1.892   3.614  10.908  0.2304 -1.5159  1.1509
 2747SOL     OW19876   2.311   4.411   3.223 -0.2003  0.0157  0.1955
 2747SOL    HW119877   2.304   4.423   3.129  0.9035 -0.0494  0.1049
 2747SOL    HW219878   2.231   4.364   3.246 -0.5451  0.9362  0.8943
 2748SOL     OW19879   3.990   3.513   3.673  0.7881  0.0592  0.2956
 2748SOL    HW119880   4.042   3.588   3.644  1.5648  0.0132  1.5737
 2748SOL    HW219881   3.989   3.454   3.597  1.5370  0.9336 -0.3897
 2749SOL     OW19882   2.607   4.592   3.964 -0.2947 -0.1412 -0.2652
 2749SOL    HW119883   2.576   4.679   3.990 -0.6889 -0.4699  0.3466
 2749SOL    HW219884   2.533   4.552   3.918 -0.0823 -2.2645  1.2198
 2750SOL     OW19885   2.508   1.608   4.066 -0.2125 -0.2654 -0.4040
 2750SOL    HW119886   2.571   1.620   3.995  1.5105  1.8709  1.4754
 2750SOL    HW219887   2.570   1.602   4.138  0.8996  1.0589 -1.2491
 2751SOL     OW19888   1.195   2.395   2.005 -0.0864 -0.1786  0.1563
 2751SOL    HW119889   1.110   2.372   2.043  1.0826 -0.6022  2.5147
 2751SOL    HW219890   1.203   2.481   2.045 -0.8013  0.5608 -1.3265
 2752SOL     OW19891   1.186   1.617   4.590  0.0589  0.0411 -0.2841
 2752SOL    HW119892   1.152   1.607   4.501  1.4678  0.8683 -0.9123
 2752SOL    HW219893   1.153   1.702   4.621 -0.5228 -0.3983  0.3081
 2753SOL     OW19894   2.402   2.536   4.533  0.2541  0.6806  0.3409
 2753SOL    HW119895   2.457   2.578   4.599  1.0167  0.0572  0.0886
 2753SOL    HW219896   2.471   2.526   4.467  0.2842  1.8791  0.1962
 2754SOL     OW19897   4.177   0.568   6.646  0.0472  0.2819 -0.0750
 2754SOL    HW119898   4.173   0.524   6.561  1.4717 -0.0660  0.0231
 2754SOL    HW219899   4.266   0.605   6.646 -0.1170  0.6737 -0.1343
 2755SOL     OW19900   2.373   3.638   5.513  0.1517  0.0608 -0.0752
 2755SOL    HW119901   2.412   3.709   5.563 -0.1407  0.7351 -0.7969
 2755SOL    HW219902   2.451   3.583   5.517 -0.3221 -0.7986 -2.5699
 2756SOL     OW19903   2.422   3.059   6.556 -0.0287 -0.1599 -1.0172
 2756SOL    HW119904   2.441   2.980   6.505 -0.6508  0.1783 -1.7801
 2756SOL    HW219905   2.499   3.057   6.612 -0.8652  1.8134  0.1928
 2757SOL     OW19906   3.815   2.354   5.062 -0.1132  0.4046  0.3355
 2757SOL    HW119907   3.849   2.359   5.152 -1.0227  2.5888  0.5466
 2757SOL    HW219908   3.753   2.425   5.056 -2.9702 -1.9321  2.3241
 2758SOL     OW19909   2.104   2.757   9.794 -0.4283  0.1221 -0.4088
 2758SOL    HW119910   2.073   2.733   9.706  2.4319  1.5938 -1.8310
 2758SOL    HW219911   2.143   2.675   9.824  2.9396  1.8018 -0.0892
 2759SOL     OW19912   1.585   0.309   3.964 -0.1042  0.1410 -0.3755
 2759SOL    HW119913   1.574   0.318   4.059  2.3792  0.6807 -0.1278
 2759SOL    HW219914   1.533   0.233   3.940 -0.5445  0.5674 -0.7811
 2760SOL     OW19915   2.643   2.173   5.971  0.4629  0.0564 -0.3052
 2760SOL    HW119916   2.724   2.215   5.942 -0.5830  2.4134  0.2300
 2760SOL    HW219917   2.687   2.101   6.017 -0.5529  0.5373  1.4078
 2761SOL     OW19918   0.433   0.390  15.559  0.2843  0.1248 -0.0439
 2761SOL    HW119919   0.500   0.350  15.614  0.1396  0.6938  0.5374
 2761SOL    HW219920   0.357   0.336  15.579  0.2292  0.4812  0.6933
 2762SOL     OW19921   1.796   3.750   8.266 -0.2102 -0.7415  0.0355
 2762SOL    HW119922   1.755   3.811   8.327 -0.2162 -0.8053  0.0947
 2762SOL    HW219923   1.873   3.801   8.237 -0.1332 -2.3063 -2.4846
 2763SOL     OW19924   4.501   4.544   9.761 -0.2704 -0.1168 -0.3343
 2763SOL    HW119925   4.469   4.599   9.690 -2.4088 -1.0668 -0.0924
 2763SOL    HW219926   4.572   4.501   9.712  1.0262 -0.0041  1.4457
 2764SOL     OW19927   2.103   2.604  12.078  0.1433  0.1760 -0.1485
 2764SOL    HW119928   2.050   2.541  12.128  0.5147 -1.3412 -1.6692
 2764SOL    HW219929   2.166   2.642  12.138  0.3214 -1.7749  0.9134
 2765SOL     OW19930   4.484   4.112   9.293  0.8861  0.0374 -0.1447
 2765SOL    HW119931   4.453   4.202   9.303 -0.4377 -0.4109 -0.1774
 2765SOL    HW219932   4.400   4.073   9.318  0.2499  1.1062 -0.6011
 2766SOL     OW19933   1.790   1.872   8.447 -0.2878  0.1076  0.3301
 2766SOL    HW119934   1.755   1.876   8.357  0.6901  1.5791  0.0173
 2766SOL    HW219935   1.841   1.953   8.450 -0.3538  0.2027 -0.7712
 2767SOL     OW19936   2.506   2.642   6.698 -0.1230  0.1415 -0.4960
 2767SOL    HW119937   2.431   2.690   6.734 -0.0108 -0.4403  0.5199
 2767SOL    HW219938   2.497   2.682   6.612  1.1032  0.0251 -0.6757
 2768SOL     OW19939   0.111   3.379   2.879  0.5933  0.4269  0.2751
 2768SOL    HW119940   0.060   3.417   2.808  1.6556  1.8811  0.3022
 2768SOL    HW219941   0.036   3.349   2.931  1.4745  0.3566  1.5081
 2769SOL     OW19942   0.880   2.031  16.160 -0.4688  0.5209  0.0931
 2769SOL    HW119943   0.895   2.076  16.244  0.4643 -0.8961  0.6735
 2769SOL    HW219944   0.819   1.962  16.187  0.0026 -1.3355 -3.5696
 2770SOL     OW19945   2.721   1.527   3.560 -0.1130 -0.7945 -0.2943
 2770SOL    HW119946   2.637   1.493   3.589  0.7378 -0.2568  2.8013
 2770SOL    HW219947   2.716   1.497   3.469 -0.9172 -0.8662 -0.2274
 2771SOL     OW19948   4.296   2.985   3.848  0.2427  0.2258  0.2914
 2771SOL    HW119949   4.312   3.043   3.923 -0.7356 -0.4461  1.0290
 2771SOL    HW219950   4.208   3.016   3.824  0.9747  0.2456 -2.2812
 2772SOL     OW19951   0.651   3.818   4.581  0.4119  0.2085 -0.2772
 2772SOL    HW119952   0.637   3.903   4.623  2.4324 -0.6805  2.1874
 2772SOL    HW219953   0.592   3.765   4.635  0.5955 -1.1664 -1.4271
 2773SOL     OW19954   3.346   2.563   4.810  0.4619  0.0407  0.0840
 2773SOL    HW119955   3.434   2.575   4.773  0.7362  0.5522  0.9181
 2773SOL    HW219956   3.297   2.584   4.731  1.6428 -0.0333 -0.6755
 2774SOL     OW19957   0.352   0.382  17.179 -0.2707 -0.7694  0.6064
 2774SOL    HW119958   0.348   0.417  17.090  0.2731 -1.0257  0.4796
 2774SOL    HW219959   0.261   0.390  17.209 -0.3537 -4.4639  1.3749
 2775SOL     OW19960   4.684   4.294   3.802  0.6538 -0.1210 -0.1837
 2775SOL    HW119961   4.634   4.231   3.749 -0.9542  0.0444  1.1546
 2775SOL    HW219962   4.645   4.376   3.772  0.1669 -0.5488 -0.7231
 2776SOL     OW19963   4.622   2.558   9.433  0.5061  0.1882 -0.3616
 2776SOL    HW119964   4.691   2.492   9.428  1.8350  1.6586 -1.8971
 2776SOL    HW219965   4.682   2.628   9.461  0.4507  1.1638 -2.6074
 2777SOL     OW19966   3.655   3.769   3.418  0.2639 -0.5283  0.5359
 2777SOL    HW119967   3.715   3.740   3.487 -0.2707  1.1515  1.7195
 2777SOL    HW219968   3.644   3.859   3.449 -1.4920 -0.8876  0.9413
 2778SOL     OW19969   4.180   4.580  16.449 -0.5055  0.1085 -0.5357
 2778SOL    HW119970   4.120   4.618  16.385 -1.5028 -0.4010  0.1021
 2778SOL    HW219971   4.135   4.607  16.529 -1.0018  1.8890 -1.4175
 2779SOL     OW19972   2.508   4.526   4.975 -0.5257  0.1142 -0.3109
 2779SOL    HW119973   2.534   4.482   4.894  0.5247 -1.4220  0.8609
 2779SOL    HW219974   2.509   4.452   5.035  0.6837  2.7451  2.9584
 2780SOL     OW19975   0.882   3.419   3.893 -0.3914 -0.0201 -0.4200
 2780SOL    HW119976   0.895   3.407   3.798  0.6737  1.9665 -0.5136
 2780SOL    HW219977   0.855   3.329   3.914  0.8904 -0.7521 -1.8690
 2781SOL     OW19978   2.315   1.266   7.501  0.0337 -0.4994  0.0573
 2781SOL    HW119979   2.361   1.269   7.417  1.1293  0.1383  0.6893
 2781SOL    HW219980   2.223   1.286   7.484 -0.1231  0.7671  2.3963
 2782SOL     OW19981   4.676   3.017  16.339 -0.2195  0.1923  0.3961
 2782SOL    HW119982   0.001   3.087  16.338 -1.4926  1.3782  0.7441
 2782SOL    HW219983   4.697   2.980  16.424 -1.2046  2.0478  1.4427
 2783SOL     OW19984   2.796   2.902   4.760 -0.0644 -0.2203  0.0966
 2783SOL    HW119985   2.848   2.960   4.816 -2.0562 -0.1299  1.8390
 2783SOL    HW219986   2.710   2.929   4.791 -0.6078 -1.8078 -0.0490
 2784SOL     OW19987   3.808   1.438  14.098 -0.0070  0.2214  0.3913
 2784SOL    HW119988   3.903   1.435  14.102  0.0722  1.4430 -0.9110
 2784SOL    HW219989   3.785   1.348  14.074 -1.0396  0.5068  0.3149
 2785SOL     OW19990   4.500   3.342   4.349  0.0583  0.0584 -0.1608
 2785SOL    HW119991   4.580   3.386   4.319 -0.3186 -0.9410 -2.6744
 2785SOL    HW219992   4.493   3.356   4.443  3.0995 -1.1875  0.2682
 2786SOL     OW19993   3.025   1.385  16.008 -0.1267 -0.0819 -0.1078
 2786SOL    HW119994   2.994   1.390  16.098 -2.2582 -1.6747 -0.7661
 2786SOL    HW219995   2.977   1.305  15.986  1.5095 -0.3519 -2.6986
 2787SOL     OW19996   4.701   4.210   0.284  0.0610 -0.4460  0.4162
 2787SOL    HW119997   4.707   4.116   0.267 -3.1427  0.0583 -3.5817
 2787SOL    HW219998   4.718   4.251   0.199  0.1032  0.6104  0.9461
 2788SOL     OW19999   1.928   2.535   2.449  0.0421  0.5413  0.5799
 2788SOL    HW120000   1.853   2.546   2.508 -0.5249  0.8265 -0.1904
 2788SOL    HW220001   1.907   2.460   2.394  1.8184  1.3832 -1.2363
 2789SOL     OW20002   2.337   3.795   2.706 -0.3392  0.5039 -0.0576
 2789SOL    HW120003   2.344   3.757   2.794  4.0834  2.4380  0.4781
 2789SOL    HW220004   2.423   3.780   2.667 -1.6136 -1.8756 -1.9397
 2790SOL     OW20005   3.810   2.794   4.302  0.3037  0.4665  0.7470
 2790SOL    HW120006   3.802   2.847   4.223  2.5841  0.0181  0.2247
 2790SOL    HW220007   3.874   2.729   4.273  1.6891  1.6287  1.1534
 2791SOL     OW20008   4.572   2.963   4.928  0.7322  0.1129  0.0166
 2791SOL    HW120009   4.540   3.005   4.848  0.1011 -0.3679  0.0203
 2791SOL    HW220010   4.597   2.882   4.884 -0.6399 -1.8769  2.8505
 2792SOL     OW20011   4.074   2.494  16.025  0.1055 -0.0635 -0.1868
 2792SOL    HW120012   4.016   2.550  16.077 -1.1092 -1.2170 -0.3183
 2792SOL    HW220013   4.155   2.545  16.021 -0.1241  0.3873  0.8502
 2793SOL     OW20014   0.123   3.898  17.243  0.5216 -0.8064 -0.5672
 2793SOL    HW120015   0.112   3.845  17.164  0.7791  0.4281 -1.4452
 2793SOL    HW220016   0.050   3.959  17.225  0.1304 -1.4202 -1.0516
 2794SOL     OW20017   3.301   1.855  11.683 -0.2817 -0.2544  0.1006
 2794SOL    HW120018   3.313   1.897  11.598  0.7611  0.9887  0.8704
 2794SOL    HW220019   3.328   1.763  11.678  2.2822  0.4196  1.6882
 2795SOL     OW20020   0.881   4.238   8.064 -0.2708  0.1829 -0.4668
 2795SOL    HW120021   0.797   4.217   8.104  0.5808 -1.8783  0.2414
 2795SOL    HW220022   0.927   4.154   8.062  0.5561  0.6039  1.2442
 2796SOL     OW20023   0.638   2.939   1.695  0.0709  0.3788 -0.1503
 2796SOL    HW120024   0.705   2.959   1.761  0.7049  3.1757 -1.6771
 2796SOL    HW220025   0.665   2.850   1.671 -0.1009  0.6178 -1.2159
 2797SOL     OW20026   0.854   2.677   4.092  0.2372 -0.5897 -0.1064
 2797SOL    HW120027   0.914   2.719   4.154  0.0315 -0.3886 -0.0435
 2797SOL    HW220028   0.841   2.747   4.029  0.3964 -0.2348  0.2529
 2798SOL     OW20029   2.288   3.637   3.194 -0.2256 -0.4739  0.1362
 2798SOL    HW120030   2.195   3.618   3.206 -0.1862 -0.5619  0.3030
 2798SOL    HW220031   2.334   3.630   3.278 -1.7008  0.3661  0.9960
 2799SOL     OW20032   0.106   1.731   6.362  0.0258  0.2024  0.1669
 2799SOL    HW120033   0.184   1.694   6.321  1.2102  1.1413  1.5483
 2799SOL    HW220034   0.062   1.656   6.402 -1.3893  1.7262  1.4938
 2800SOL     OW20035   1.446   2.561   9.363 -0.3788 -0.5198 -0.5106
 2800SOL    HW120036   1.411   2.595   9.445  2.2693 -0.5171  0.6198
 2800SOL    HW220037   1.539   2.580   9.373 -0.8679  0.5700  1.9824
 2801SOL     OW20038   3.375   2.770   7.042 -0.1959 -0.2090 -0.0324
 2801SOL    HW120039   3.343   2.847   7.088  1.5977  0.3835  0.2001
 2801SOL    HW220040   3.461   2.800   7.012  0.1387 -0.6844  0.4597
 2802SOL     OW20041   0.440   3.057   0.621 -0.3976 -0.6957 -0.4077
 2802SOL    HW120042   0.497   3.020   0.554 -0.4981  0.0892 -0.9264
 2802SOL    HW220043   0.402   3.123   0.564  0.1546 -0.4193 -0.4610
 2803SOL     OW20044   1.372   2.309   8.261 -0.3247  0.1191 -0.2934
 2803SOL    HW120045   1.399   2.300   8.353 -0.4968 -1.5046 -0.3977
 2803SOL    HW220046   1.304   2.242   8.254 -0.6525  0.5631 -1.3040
 2804SOL     OW20047   1.789   3.163  13.587 -0.2309  0.0926 -0.8153
 2804SOL    HW120048   1.824   3.076  13.567 -0.2705 -0.6009  2.1527
 2804SOL    HW220049   1.855   3.222  13.551  0.5520  0.2170  0.8212
 2805SOL     OW20050   4.649   0.197   1.953  0.0919 -0.0377 -0.0139
 2805SOL    HW120051   4.735   0.158   1.970 -0.7101 -2.0873 -0.5834
 2805SOL    HW220052   4.671   0.289   1.944  1.0400 -0.2062  0.5487
 2806SOL     OW20053   3.430   0.791   8.131 -0.3961  0.5210  0.4288
 2806SOL    HW120054   3.496   0.769   8.197 -0.9811 -0.5382  0.6502
 2806SOL    HW220055   3.358   0.738   8.164 -0.2910 -1.2791 -2.2477
 2807SOL     OW20056   2.556   1.715  10.609  0.6332 -0.1508  0.2597
 2807SOL    HW120057   2.539   1.783  10.673 -0.9131 -1.4577  1.2201
 2807SOL    HW220058   2.606   1.773  10.551  1.3927 -1.5414 -0.4787
 2808SOL     OW20059   2.949   1.460  16.780 -0.3983  0.0355  0.1493
 2808SOL    HW120060   3.003   1.399  16.730 -0.3918  1.5238 -1.6634
 2808SOL    HW220061   2.924   1.412  16.859  3.0079  0.1800  1.3163
 2809SOL     OW20062   1.642   3.259   0.812 -0.3512  0.0335 -0.1163
 2809SOL    HW120063   1.547   3.271   0.812 -0.2719  0.6795 -1.0602
 2809SOL    HW220064   1.677   3.347   0.798 -1.3759  0.9578  3.0509
 2810SOL     OW20065   1.162   2.898   6.381 -0.3160 -0.7327 -0.5284
 2810SOL    HW120066   1.108   2.920   6.457 -0.3592  0.6268 -0.9491
 2810SOL    HW220067   1.162   2.989   6.352 -2.1995 -0.3594  0.5950
 2811SOL     OW20068   0.558   0.592   6.524  0.1014 -0.1427  0.1871
 2811SOL    HW120069   0.468   0.564   6.512 -0.5146  0.9883  2.2877
 2811SOL    HW220070   0.597   0.601   6.437 -1.0163  2.3699 -0.0477
 2812SOL     OW20071   0.151   2.524  11.063  0.4040  0.3959  0.4858
 2812SOL    HW120072   0.099   2.550  11.139 -0.5628 -0.7556  0.2199
 2812SOL    HW220073   0.218   2.591  11.075  0.9886 -0.0422 -0.3066
 2813SOL     OW20074   1.566   2.441   9.647  0.2624  0.4730  0.1607
 2813SOL    HW120075   1.474   2.454   9.667 -0.3206 -0.6800 -1.7463
 2813SOL    HW220076   1.573   2.347   9.633  1.0394  0.0479  3.2880
 2814SOL     OW20077   2.245   2.486   9.037 -0.2551 -0.4684  0.0986
 2814SOL    HW120078   2.275   2.569   9.000 -1.5791  0.1226  0.3519
 2814SOL    HW220079   2.324   2.452   9.080  0.4337  0.3677 -0.5160
 2815SOL     OW20080   1.851   2.382   3.403 -0.8361 -0.0449  0.4391
 2815SOL    HW120081   1.842   2.332   3.484  0.6247  1.3086  1.4587
 2815SOL    HW220082   1.832   2.473   3.425 -2.1505 -0.4959  1.1242
 2816SOL     OW20083   1.464   2.677  10.679  0.0566 -0.3669  0.7694
 2816SOL    HW120084   1.418   2.743  10.731 -2.3133  0.1132 -1.9331
 2816SOL    HW220085   1.386   2.643  10.635  1.6941 -1.9953 -0.8450
 2817SOL     OW20086   3.890   4.300   4.910 -0.5493  0.1482 -0.1467
 2817SOL    HW120087   3.935   4.266   4.987  1.1501  0.0378 -1.1999
 2817SOL    HW220088   3.946   4.374   4.885  0.7741 -1.1974 -1.1572
 2818SOL     OW20089   4.692   1.251  13.189 -0.0112 -0.0166  0.7129
 2818SOL    HW120090   4.725   1.338  13.208 -0.3366 -0.1790  1.9855
 2818SOL    HW220091   4.620   1.267  13.129 -1.3832  2.3253  3.0039
 2819SOL     OW20092   1.661   3.447   0.006  0.3390 -0.3484 -0.3698
 2819SOL    HW120093   1.600   3.482   0.072 -0.6561 -2.1349 -0.3344
 2819SOL    HW220094   1.710   3.382   0.056 -0.0096 -1.0304 -0.9069
 2820SOL     OW20095   0.143   3.118   6.848 -0.2559  0.5871  0.1600
 2820SOL    HW120096   0.219   3.118   6.905 -0.5380 -0.1830  0.5323
 2820SOL    HW220097   0.170   3.052   6.784  0.3214  0.5352  0.4647
 2821SOL     OW20098   0.871   0.812   5.472 -0.2097 -0.8009 -0.0559
 2821SOL    HW120099   0.816   0.758   5.416  1.0531 -1.8019 -0.3244
 2821SOL    HW220100   0.818   0.889   5.494  0.5611 -0.3477  0.2245
 2822SOL     OW20101   0.252   2.184   7.877 -0.0148  0.6003 -0.5999
 2822SOL    HW120102   0.260   2.145   7.790 -0.8927  0.2574 -0.5309
 2822SOL    HW220103   0.169   2.232   7.867 -2.1770 -2.4087  2.7873
 2823SOL     OW20104   0.641   1.963   6.312 -0.3423 -0.2264  0.3489
 2823SOL    HW120105   0.722   2.004   6.343 -0.1459  0.9233 -1.6057
 2823SOL    HW220106   0.580   1.974   6.384  1.0469  1.8729  1.2011
 2824SOL     OW20107   4.280   3.151  16.634  0.0252  0.0282 -0.4807
 2824SOL    HW120108   4.200   3.104  16.610 -0.0122 -0.4975  0.6382
 2824SOL    HW220109   4.247   3.226  16.684 -0.9311 -0.3504 -0.5294
 2825SOL     OW20110   1.982   2.357   6.761 -0.5363  0.2736  0.2937
 2825SOL    HW120111   2.011   2.426   6.701 -0.2097  0.5240  0.7354
 2825SOL    HW220112   1.892   2.345   6.731 -0.5338 -0.0459  0.4120
 2826SOL     OW20113   2.548   2.071   1.435 -0.1808 -0.7450  0.4745
 2826SOL    HW120114   2.567   2.008   1.504  1.0117 -0.0288  0.8029
 2826SOL    HW220115   2.622   2.049   1.378  0.1223 -1.2129  1.0527
 2827SOL     OW20116   1.739   1.364   7.716  0.6538  0.4929 -0.0623
 2827SOL    HW120117   1.687   1.363   7.796  0.4533 -2.9691 -0.2064
 2827SOL    HW220118   1.808   1.302   7.739  1.1802  0.3704 -2.0096
 2828SOL     OW20119   3.758   2.339   7.711 -0.2155  0.4701  0.1995
 2828SOL    HW120120   3.803   2.313   7.792  2.6583  0.7506 -1.3210
 2828SOL    HW220121   3.674   2.359   7.752  0.5715  0.4898  1.8193
 2829SOL     OW20122   4.195   3.737  11.694 -0.1116 -0.5349  0.1243
 2829SOL    HW120123   4.280   3.763  11.658  0.2297 -1.2518  0.4273
 2829SOL    HW220124   4.153   3.822  11.679  0.0787 -0.6583 -1.1264
 2830SOL     OW20125   4.456   4.230   6.046 -0.0433  0.5941 -0.0835
 2830SOL    HW120126   4.445   4.239   6.141 -0.4224  0.1391 -0.0854
 2830SOL    HW220127   4.550   4.216   6.045 -0.0759  0.2408  1.4356
 2831SOL     OW20128   4.117   0.247   8.465 -0.0939  0.4069 -0.0863
 2831SOL    HW120129   4.147   0.272   8.378  1.1869  0.4871  0.3746
 2831SOL    HW220130   4.055   0.180   8.438 -0.6928  0.9032  0.0748
 2832SOL     OW20131   0.793   0.364   3.886 -0.2152 -0.0400  0.0123
 2832SOL    HW120132   0.856   0.436   3.871 -0.7748  0.8850  2.2103
 2832SOL    HW220133   0.802   0.361   3.981  1.9731 -1.1769 -0.2274
 2833SOL     OW20134   4.652   4.573   8.137  0.1738 -0.3820 -0.0711
 2833SOL    HW120135   0.003   4.541   8.144  0.4525  0.2402 -0.8401
 2833SOL    HW220136   4.651   4.607   8.047  1.4950  0.2143  0.1314
 2834SOL     OW20137   0.721   3.498   2.535 -0.4659  0.2340  0.1722
 2834SOL    HW120138   0.671   3.427   2.494  0.4358  0.2550 -0.9938
 2834SOL    HW220139   0.813   3.472   2.532 -0.0848  1.8022 -2.3067
 2835SOL     OW20140   1.380   3.447   3.763  0.3133 -0.1040  0.2967
 2835SOL    HW120141   1.346   3.482   3.845  2.5247 -0.9517  1.5876
 2835SOL    HW220142   1.299   3.432   3.714  0.9005  0.3819 -0.8350
 2836SOL     OW20143   2.871   2.012   5.280 -0.1341  0.2680  0.0456
 2836SOL    HW120144   2.886   1.939   5.220 -0.3187  1.0871 -0.9973
 2836SOL    HW220145   2.786   1.986   5.314 -1.5436  1.4161 -2.5761
 2837SOL     OW20146   4.074   3.832   6.106 -0.0001  0.2246 -0.5379
 2837SOL    HW120147   4.038   3.891   6.040  0.2690  1.8091  0.7399
 2837SOL    HW220148   4.057   3.890   6.180 -1.5073 -3.4352  1.9879
 2838SOL     OW20149   0.013   0.445  13.136  0.4998 -0.3399 -0.4903
 2838SOL    HW120150   4.686   0.435  13.204  0.7059  1.0493 -0.0687
 2838SOL    HW220151   4.698   0.493  13.075  0.1347 -1.8998 -1.3806
 2839SOL     OW20152   4.499   1.432   3.003 -0.2881  0.4882  0.3182
 2839SOL    HW120153   4.431   1.491   2.972 -0.3514 -0.3911 -1.2035
 2839SOL    HW220154   4.495   1.363   2.937  2.3313  1.3229 -0.7180
 2840SOL     OW20155   1.646   0.154   6.122  0.5344 -0.3016 -0.1268
 2840SOL    HW120156   1.674   0.064   6.137  1.6758  0.0749  0.0314
 2840SOL    HW220157   1.639   0.197   6.208 -1.8812 -0.2446 -0.3554
 2841SOL     OW20158   1.668   0.891   7.957 -0.3317  0.2044  0.4025
 2841SOL    HW120159   1.626   0.868   8.039 -0.5211 -0.8093  0.0253
 2841SOL    HW220160   1.756   0.853   7.966  0.1933  1.4656  0.5856
 2842SOL     OW20161   2.464   0.473   0.329  0.9392  0.0331 -0.1478
 2842SOL    HW120162   2.443   0.546   0.387  1.9959 -1.3854  2.0245
 2842SOL    HW220163   2.543   0.447   0.377 -0.6935 -2.6233  1.0741
 2843SOL     OW20164   2.226   3.213  13.047  0.5011  0.1132  0.3028
 2843SOL    HW120165   2.290   3.236  13.113 -0.7254  0.9033  1.2049
 2843SOL    HW220166   2.161   3.160  13.093  0.3138 -1.4268 -1.6812
 2844SOL     OW20167   0.850   0.028   3.590 -0.0024  0.4457 -0.2632
 2844SOL    HW120168   0.840   0.078   3.671  2.9874  2.4611 -1.1330
 2844SOL    HW220169   0.877   4.688   3.634 -1.4058  1.0160  1.6122
 2845SOL     OW20170   3.849   3.597   7.583  0.5109  0.3479  0.2964
 2845SOL    HW120171   3.891   3.654   7.647  0.5272  2.9326 -2.0049
 2845SOL    HW220172   3.828   3.520   7.636  0.5643 -0.5186 -0.9248
 2846SOL     OW20173   0.892   4.504   3.703  0.0422  0.1701 -0.0699
 2846SOL    HW120174   0.941   4.469   3.628 -1.2132 -1.4480 -0.1263
 2846SOL    HW220175   0.831   4.435   3.729 -0.6074  1.2481  1.2421
 2847SOL     OW20176   3.499   2.359   1.281 -0.0408 -0.2015  0.6402
 2847SOL    HW120177   3.506   2.328   1.191  1.2695 -2.0871  1.3923
 2847SOL    HW220178   3.565   2.429   1.281 -1.9290  1.5973  1.0782
 2848SOL     OW20179   0.812   0.507   8.375 -0.4398  0.4125  0.3569
 2848SOL    HW120180   0.858   0.519   8.291 -3.1737  1.4482 -0.9804
 2848SOL    HW220181   0.878   0.465   8.431  1.0967 -0.8656 -2.3590
 2849SOL     OW20182   0.799   3.769  13.884 -0.2615 -1.0047 -0.0216
 2849SOL    HW120183   0.879   3.818  13.904 -0.7178 -0.1402 -0.2980
 2849SOL    HW220184   0.766   3.826  13.814  2.9289 -2.2543 -2.5320
 2850SOL     OW20185   2.733   1.437  16.550  0.3609  0.8237 -0.1844
 2850SOL    HW120186   2.727   1.479  16.636 -0.4999 -1.1024  0.6883
 2850SOL    HW220187   2.700   1.508  16.495 -3.4241 -0.2160  0.7210
 2851SOL     OW20188   2.150   4.095   4.417  0.1032 -0.4737  0.2191
 2851SOL    HW120189   2.060   4.064   4.427 -0.4623  0.6222 -1.3897
 2851SOL    HW220190   2.201   4.055   4.487  0.5940 -0.4990 -0.1457
 2852SOL     OW20191   2.386   3.691   4.561 -0.3692  0.1494  0.5268
 2852SOL    HW120192   2.328   3.636   4.508  0.1475  1.1208 -1.0510
 2852SOL    HW220193   2.469   3.671   4.518  0.3723  1.4119  1.3686
 2853SOL     OW20194   1.092   2.542   0.294  0.0545  0.2333 -0.1433
 2853SOL    HW120195   1.164   2.480   0.284 -0.5419  0.0923 -3.7347
 2853SOL    HW220196   1.132   2.624   0.266 -0.2849 -0.1673 -1.8649
 2854SOL     OW20197   0.772   1.294   9.433  0.3753 -0.4777 -0.1485
 2854SOL    HW120198   0.677   1.295   9.422  0.5444  2.1794 -1.2596
 2854SOL    HW220199   0.771   1.261   9.523 -1.8421  2.0438  0.7361
 2855SOL     OW20200   2.204   2.754  11.477 -0.1952  0.7739 -0.7704
 2855SOL    HW120201   2.205   2.760  11.572 -3.1826 -1.6739 -0.5818
 2855SOL    HW220202   2.288   2.709  11.466 -0.7120 -0.4984  0.6271
 2856SOL     OW20203   3.923   0.644  14.254  0.3364 -0.4508 -0.2109
 2856SOL    HW120204   3.890   0.555  14.240  2.4645 -1.5253  1.5953
 2856SOL    HW220205   3.856   0.700  14.216  0.9518 -0.9735 -2.0420
 2857SOL     OW20206   1.487   0.661   6.845 -0.5143  0.1096  0.0999
 2857SOL    HW120207   1.438   0.582   6.870  1.2952 -0.1903  2.5850
 2857SOL    HW220208   1.430   0.692   6.775  1.5419  0.4374 -1.4454
 2858SOL     OW20209   1.393   2.703   3.620  0.0015  0.1071  0.4041
 2858SOL    HW120210   1.460   2.772   3.623  2.5058 -2.3014 -0.8862
 2858SOL    HW220211   1.312   2.743   3.587 -0.4735 -0.9311  0.3280
 2859SOL     OW20212   1.471   1.719  14.643  0.7934 -0.7626  0.0243
 2859SOL    HW120213   1.454   1.650  14.707  0.0288 -0.2342  0.3853
 2859SOL    HW220214   1.441   1.672  14.565 -2.3335  1.2359  0.0328
 2860SOL     OW20215   0.793   2.881   6.450  0.0797  0.1349  0.2146
 2860SOL    HW120216   0.839   2.836   6.520  1.1832 -1.4529 -1.5237
 2860SOL    HW220217   0.758   2.813   6.392  0.1705  0.5383 -0.3182
 2861SOL     OW20218   3.182   0.084   6.522  0.0197 -0.2457 -0.1135
 2861SOL    HW120219   3.224   0.114   6.441 -1.0438 -0.9230 -0.9172
 2861SOL    HW220220   3.090   0.105   6.505  0.1069  2.9725  3.5564
 2862SOL     OW20221   3.050   3.979   0.358 -0.1195 -0.1003 -0.6350
 2862SOL    HW120222   3.067   4.019   0.273  3.8528 -2.9115 -1.1231
 2862SOL    HW220223   3.137   3.995   0.393 -0.4537 -0.9507  0.6013
 2863SOL     OW20224   2.292   2.142   1.377  0.0040  0.0621 -0.0559
 2863SOL    HW120225   2.376   2.101   1.393  0.8924  1.8131 -0.2053
 2863SOL    HW220226   2.249   2.118   1.459 -2.2342  1.7583 -0.7228
 2864SOL     OW20227   2.110   3.082   2.368 -0.2900  0.3168 -0.0197
 2864SOL    HW120228   2.180   3.142   2.344  0.1217  0.4221  1.4868
 2864SOL    HW220229   2.060   3.072   2.287 -0.0093  2.3248 -0.4389
 2865SOL     OW20230   1.632   4.462   4.496  0.1679 -0.4679 -0.1187
 2865SOL    HW120231   1.717   4.419   4.485 -0.7390 -2.3145  0.0696
 2865SOL    HW220232   1.635   4.503   4.583  1.5327 -1.1711  0.1796
 2866SOL     OW20233   4.248   2.946   6.334  0.0837  0.1672  0.3722
 2866SOL    HW120234   4.261   2.875   6.272 -0.8955  0.5216 -0.2556
 2866SOL    HW220235   4.296   2.919   6.411  0.0461  0.5575  0.5350
 2867SOL     OW20236   2.181   0.662   3.008 -0.0839  0.1059  0.2152
 2867SOL    HW120237   2.152   0.628   2.923 -0.8537 -0.1451  0.5788
 2867SOL    HW220238   2.102   0.703   3.041  1.2858  1.0458  2.3041
 2868SOL     OW20239   2.593   4.684   1.786  0.4609  0.1850  0.2380
 2868SOL    HW120240   2.594   4.591   1.809  0.1765  0.4304  1.2059
 2868SOL    HW220241   2.518   4.683   1.726  0.3775  1.4585  0.3280
 2869SOL     OW20242   2.964   4.191   7.850  1.4853  0.0205  0.2145
 2869SOL    HW120243   3.016   4.209   7.771  0.9346 -0.2868 -0.2194
 2869SOL    HW220244   3.011   4.240   7.917 -1.0958  2.3661  0.3044
 2870SOL     OW20245   1.859   0.770   4.824 -0.1794 -0.3226 -0.0295
 2870SOL    HW120246   1.899   0.683   4.825  1.4626  0.4495  0.5212
 2870SOL    HW220247   1.801   0.777   4.748  0.8799  2.3850 -0.5965
 2871SOL     OW20248   0.911   0.480  12.728 -0.1307 -0.0063  0.0102
 2871SOL    HW120249   0.983   0.424  12.698  1.2652  0.6805  2.0796
 2871SOL    HW220250   0.957   0.510  12.806 -0.2789  0.1184  0.0488
 2872SOL     OW20251   2.672   1.655   9.667  0.0891  0.5117  0.7923
 2872SOL    HW120252   2.671   1.685   9.758 -0.3182 -1.4445  1.4398
 2872SOL    HW220253   2.696   1.563   9.680 -0.5753  0.1653 -0.4061
 2873SOL     OW20254   1.111   0.667   7.841 -0.3440 -0.1878 -0.6454
 2873SOL    HW120255   1.051   0.623   7.780 -0.5752 -2.2050  1.0479
 2873SOL    HW220256   1.120   0.592   7.900  0.9213  1.3024  1.0469
 2874SOL     OW20257   0.400   4.060   7.783  0.2671  0.1423  0.5209
 2874SOL    HW120258   0.336   4.001   7.743  0.3268  1.9682 -2.2886
 2874SOL    HW220259   0.394   4.037   7.876 -3.5300  2.1149  0.7646
 2875SOL     OW20260   2.718   2.629   9.553 -0.2775 -0.1268 -0.2600
 2875SOL    HW120261   2.812   2.615   9.548 -0.5079 -1.2749 -1.4962
 2875SOL    HW220262   2.698   2.608   9.462  1.6342  0.4059 -0.7881
 2876SOL     OW20263   1.788   1.711   4.313  0.2567  1.0552  0.8478
 2876SOL    HW120264   1.713   1.770   4.300 -1.0514 -1.1622 -1.6647
 2876SOL    HW220265   1.827   1.737   4.396  2.6491 -2.5575  0.8331
 2877SOL     OW20266   0.113   3.089   5.092  1.0708 -0.0531  0.0683
 2877SOL    HW120267   0.180   3.098   5.160  1.2373 -0.0885 -0.0913
 2877SOL    HW220268   0.036   3.059   5.141  1.8205 -0.4414  1.0197
 2878SOL     OW20269   0.190   2.012   4.276  0.4434  0.5796  0.2133
 2878SOL    HW120270   0.268   1.991   4.225  0.5838 -0.6481  0.9297
 2878SOL    HW220271   0.127   1.990   4.207 -1.6916  1.3008  1.9577
 2879SOL     OW20272   4.236   3.099   5.420  0.1053 -0.2161  0.2908
 2879SOL    HW120273   4.284   3.033   5.369 -0.3032 -1.1983  1.1981
 2879SOL    HW220274   4.225   3.055   5.504 -1.9932  0.6468  0.4539
 2880SOL     OW20275   2.138   1.119  10.078 -0.4962 -0.2285 -0.4413
 2880SOL    HW120276   2.176   1.204  10.055  2.7763 -0.8058  2.7564
 2880SOL    HW220277   2.196   1.068  10.135  0.8890  2.2166  0.3719
 2881SOL     OW20278   1.612   0.390   2.492  0.0542 -0.0361  0.2897
 2881SOL    HW120279   1.687   0.332   2.499  0.8068  0.8619 -0.3300
 2881SOL    HW220280   1.561   0.360   2.416 -1.1451  0.5745  0.8517
 2882SOL     OW20281   3.864   2.572   1.518 -0.2048 -0.1725 -0.2184
 2882SOL    HW120282   3.790   2.562   1.459  0.9215 -1.4249 -1.4209
 2882SOL    HW220283   3.938   2.609   1.469  0.5991 -1.6186 -0.1000
 2883SOL     OW20284   1.929   4.377   7.048 -0.0278  0.0208  0.0258
 2883SOL    HW120285   1.903   4.351   6.960  1.1902 -1.5370  0.1194
 2883SOL    HW220286   1.842   4.387   7.089  0.8566  0.8468  1.7084
 2884SOL     OW20287   1.857   1.346   2.079  0.0512  0.6671  0.4267
 2884SOL    HW120288   1.861   1.349   1.984 -3.4831  2.1622  0.3213
 2884SOL    HW220289   1.925   1.281   2.098 -0.7397 -0.2500  0.1079
 2885SOL     OW20290   0.255   2.464  12.021 -0.1207 -0.4683  0.0428
 2885SOL    HW120291   0.218   2.550  12.040  0.5778 -0.2657  0.4968
 2885SOL    HW220292   0.259   2.422  12.107 -2.4557  0.5965  0.6602
 2886SOL     OW20293   0.794   3.064   8.432 -0.1131  0.3098  0.1366
 2886SOL    HW120294   0.885   3.034   8.423 -0.0293  1.5201 -2.8974
 2886SOL    HW220295   0.755   3.073   8.346 -1.3107 -1.3594  0.5041
 2887SOL     OW20296   4.023   0.592  15.073  0.4488 -0.5585  0.6989
 2887SOL    HW120297   3.956   0.568  15.137  0.2453  0.2940  0.8054
 2887SOL    HW220298   4.085   0.520  15.069  0.2285 -0.5811 -2.2534
 2888SOL     OW20299   1.623   2.524   5.209 -0.2465 -0.1909  0.4219
 2888SOL    HW120300   1.631   2.620   5.214 -1.8423 -0.0262 -0.4158
 2888SOL    HW220301   1.714   2.493   5.211 -0.1779 -0.0265 -0.4209
 2889SOL     OW20302   1.076   3.009   3.603  0.1110  0.3449  0.3252
 2889SOL    HW120303   1.117   3.016   3.689 -2.3538 -0.3721  1.5887
 2889SOL    HW220304   1.008   2.942   3.617 -0.7986  1.2215  0.1194
 2890SOL     OW20305   1.562   3.320   5.714 -0.0143  0.1576  0.0030
 2890SOL    HW120306   1.471   3.342   5.730  0.2044  1.0939 -0.0614
 2890SOL    HW220307   1.577   3.259   5.786 -1.3971 -0.1775 -0.0052
 2891SOL     OW20308   4.291   0.560   5.096  0.1568 -0.5296 -0.2186
 2891SOL    HW120309   4.357   0.589   5.034 -0.0081 -0.6590 -0.4562
 2891SOL    HW220310   4.326   0.472   5.115  4.3111  1.4316  1.1133
 2892SOL     OW20311   0.205   2.280  10.660 -0.1548  0.3284 -0.4502
 2892SOL    HW120312   0.283   2.226  10.675  0.2595  1.0817  0.0906
 2892SOL    HW220313   0.150   2.246  10.730  0.1211 -0.6320 -0.6906
 2893SOL     OW20314   1.051   3.436  12.995 -0.2119 -0.2606 -0.5000
 2893SOL    HW120315   0.961   3.412  13.018  0.2634 -0.6055  0.9817
 2893SOL    HW220316   1.070   3.500  13.063  0.9401 -0.5370 -0.5612
 2894SOL     OW20317   3.962   3.991   9.721 -0.0443 -0.9022 -0.5422
 2894SOL    HW120318   4.014   4.032   9.790 -0.2629 -1.4425 -0.0550
 2894SOL    HW220319   3.879   3.975   9.765 -0.2316  0.3420 -0.4270
 2895SOL     OW20320   2.883   0.606   7.448 -0.0241  0.0682 -0.1180
 2895SOL    HW120321   2.950   0.569   7.506 -0.9018 -0.9954  0.2162
 2895SOL    HW220322   2.904   0.697   7.467 -0.5073  0.0516  0.5008
 2896SOL     OW20323   2.331   1.982   6.050 -0.4544 -0.1517 -0.1883
 2896SOL    HW120324   2.312   1.973   6.143 -2.4056  0.0280 -0.5572
 2896SOL    HW220325   2.364   2.072   6.042 -0.0440 -0.3160 -0.3592
 2897SOL     OW20326   1.732   1.101  10.970  0.1167 -0.2208  0.3643
 2897SOL    HW120327   1.772   1.185  10.993 -2.0605  1.0487 -0.3850
 2897SOL    HW220328   1.753   1.088  10.877  0.9458 -4.2816  1.1466
 2898SOL     OW20329   3.707   1.404   7.671 -0.1741 -0.4417 -0.4096
 2898SOL    HW120330   3.621   1.444   7.656 -0.1011  0.2734  1.0726
 2898SOL    HW220331   3.755   1.449   7.600 -1.6235 -0.7231 -1.5648
 2899SOL     OW20332   4.004   3.652   8.409 -0.2177 -0.6743  0.1547
 2899SOL    HW120333   4.082   3.658   8.464  1.7841 -1.3146 -2.6125
 2899SOL    HW220334   3.965   3.738   8.426  0.9274 -0.5205  2.0163
 2900SOL     OW20335   3.533   4.335  15.994 -0.3093  0.3137  0.1139
 2900SOL    HW120336   3.447   4.296  16.009 -0.0962  0.4037  1.5380
 2900SOL    HW220337   3.518   4.390  15.917  1.4326 -0.6064 -0.8910
 2901SOL     OW20338   3.477   3.878  14.127  0.4188  0.3398  0.0471
 2901SOL    HW120339   3.417   3.936  14.174 -0.0052  0.5662 -0.7590
 2901SOL    HW220340   3.417   3.804  14.125  1.8727 -0.8256 -0.0202
 2902SOL     OW20341   2.283   3.287   7.037  0.0808  0.0711 -0.7311
 2902SOL    HW120342   2.212   3.328   6.987 -0.3671  1.0451  0.7021
 2902SOL    HW220343   2.244   3.299   7.123  0.0369 -0.2422 -0.7096
 2903SOL     OW20344   3.203   3.033   3.380 -0.3323 -0.2831 -0.5469
 2903SOL    HW120345   3.112   3.062   3.394  0.9124  3.1361  0.4390
 2903SOL    HW220346   3.242   3.065   3.461 -1.8292  2.1189 -0.7515
 2904SOL     OW20347   3.696   1.735   7.347 -0.0189  0.0525 -0.3350
 2904SOL    HW120348   3.651   1.651   7.344  1.7045 -0.8565 -1.5809
 2904SOL    HW220349   3.625   1.797   7.364 -0.4298 -0.3378 -0.6564
 2905SOL     OW20350   3.820   4.739   2.844  0.5155  0.0539 -0.0778
 2905SOL    HW120351   3.796   4.647   2.831  1.8674 -0.3484  0.2888
 2905SOL    HW220352   3.744   0.025   2.897 -0.2076 -2.1864 -0.0099
 2906SOL     OW20353   1.854   4.238   1.989  0.1097 -0.4264  0.6559
 2906SOL    HW120354   1.927   4.194   1.946 -0.2922 -1.5996  1.1566
 2906SOL    HW220355   1.891   4.316   2.029  1.8472 -0.5929 -0.6021
 2907SOL     OW20356   0.200   1.265   3.904 -0.0607  0.5418  0.0371
 2907SOL    HW120357   0.119   1.277   3.854 -0.0841 -1.6325 -0.4669
 2907SOL    HW220358   0.259   1.229   3.838 -0.1828  0.8684 -0.2475
 2908SOL     OW20359   0.829   1.670   8.104 -0.3582  0.5817 -0.1755
 2908SOL    HW120360   0.909   1.657   8.155 -0.6073  0.7415  0.2556
 2908SOL    HW220361   0.863   1.705   8.022  1.3373 -0.2095  0.1948
 2909SOL     OW20362   3.952   0.456   7.514  0.0357  0.3386 -0.5480
 2909SOL    HW120363   3.964   0.549   7.497  0.0087  0.2117 -1.2801
 2909SOL    HW220364   3.858   0.449   7.496  0.2174 -0.7543 -1.0544
 2910SOL     OW20365   2.036   0.186   6.813 -0.4920  0.1759 -0.7591
 2910SOL    HW120366   1.951   0.208   6.851 -0.6494 -2.4048  0.4022
 2910SOL    HW220367   2.036   0.090   6.822 -0.9246  0.0959 -1.6178
 2911SOL     OW20368   2.134   3.017   6.400 -0.2150  0.3684  0.0283
 2911SOL    HW120369   2.193   2.942   6.393 -0.3743  0.1683  0.8583
 2911SOL    HW220370   2.062   2.970   6.442 -1.0167 -0.4879 -2.2588
 2912SOL     OW20371   0.124   2.102  13.599 -0.3406 -0.6029  0.5150
 2912SOL    HW120372   0.182   2.134  13.668  0.4641 -1.2240  0.1288
 2912SOL    HW220373   0.152   2.011  13.588  0.4833 -0.0129 -2.1238
 2913SOL     OW20374   2.593   2.366   5.286  0.2547  0.2312 -0.3930
 2913SOL    HW120375   2.646   2.404   5.216 -0.0025  0.1894 -0.6126
 2913SOL    HW220376   2.555   2.281   5.266 -0.8630  0.7957 -0.6909
 2914SOL     OW20377   4.388   2.607  15.505  0.3277 -0.2072 -0.1648
 2914SOL    HW120378   4.410   2.545  15.436  0.8412  1.0607 -1.1508
 2914SOL    HW220379   4.454   2.676  15.500  0.7357 -0.7025 -1.5429
 2915SOL     OW20380   1.306   1.844   4.343 -0.2636 -0.2265 -0.2969
 2915SOL    HW120381   1.264   1.759   4.333 -0.7955 -0.2706  2.3000
 2915SOL    HW220382   1.239   1.905   4.312 -1.0779 -0.4454  1.0126
 2916SOL     OW20383   2.170   1.402   0.771  0.1612 -0.3196 -0.0559
 2916SOL    HW120384   2.209   1.411   0.685  0.7783  2.5994  0.5313
 2916SOL    HW220385   2.153   1.491   0.803 -2.3100 -0.1038 -1.9208
 2917SOL     OW20386   2.515   3.023   4.503 -0.5205  0.2140  0.0513
 2917SOL    HW120387   2.533   2.999   4.594 -0.9585  0.3161  0.1644
 2917SOL    HW220388   2.561   2.955   4.454  2.0895  2.1913 -0.1596
 2918SOL     OW20389   4.630   2.646  13.759 -0.4906  0.4938 -0.0845
 2918SOL    HW120390   4.582   2.629  13.840  0.0804  1.2223  0.3972
 2918SOL    HW220391   4.664   2.558  13.742  1.0461  0.9566  0.5967
 2919SOL     OW20392   0.419   2.858  15.823 -0.0656 -0.2589 -0.2970
 2919SOL    HW120393   0.438   2.951  15.835 -1.8838 -0.0258  0.8328
 2919SOL    HW220394   0.340   2.843  15.876 -0.0678 -1.5221 -0.6711
 2920SOL     OW20395   2.904   4.360  11.058 -0.2482  0.3438 -0.7491
 2920SOL    HW120396   2.920   4.266  11.050 -1.1830 -0.0405  1.7874
 2920SOL    HW220397   2.975   4.380  11.120 -1.3025  3.0779 -0.4181
 2921SOL     OW20398   0.933   1.806   8.987  0.4935 -0.1151 -0.0752
 2921SOL    HW120399   0.927   1.779   8.895  1.1290  1.6502 -0.6262
 2921SOL    HW220400   0.911   1.722   9.028  0.3835  0.9572  2.0601
 2922SOL     OW20401   4.713   2.421   5.157 -0.1813  0.3753  0.4026
 2922SOL    HW120402   4.654   2.457   5.223 -0.2713 -1.6503  1.4458
 2922SOL    HW220403   4.703   2.328   5.178 -0.6876  0.2280 -0.4834
 2923SOL     OW20404   4.159   3.160   1.587 -0.5255  0.1189 -0.0896
 2923SOL    HW120405   4.143   3.180   1.679 -0.0738 -2.5378  0.5532
 2923SOL    HW220406   4.116   3.076   1.573 -0.7275  0.4652 -1.5161
 2924SOL     OW20407   3.421   0.827   3.277  0.8390 -0.4678  0.1200
 2924SOL    HW120408   3.336   0.803   3.314 -0.0008  1.1156 -0.7690
 2924SOL    HW220409   3.419   0.787   3.190 -4.2264 -1.0606  0.4789
 2925SOL     OW20410   2.720   4.449  13.704  0.4812 -0.1143 -0.3372
 2925SOL    HW120411   2.712   4.387  13.777 -0.7039  2.0018  1.3293
 2925SOL    HW220412   2.782   4.398  13.651 -0.1782 -2.2530  0.9693
 2926SOL     OW20413   1.485   0.212   7.600  0.0524 -0.4342  0.2034
 2926SOL    HW120414   1.528   0.296   7.618 -1.0248 -0.0013  0.7400
 2926SOL    HW220415   1.562   0.154   7.603 -0.7221 -1.5961 -3.0481
 2927SOL     OW20416   4.423   0.607   3.587 -0.1912  0.2755 -0.7750
 2927SOL    HW120417   4.348   0.570   3.634  0.2467  0.4456  0.0627
 2927SOL    HW220418   4.404   0.701   3.586  0.8670  0.5017  1.1502
 2928SOL     OW20419   4.430   1.267   3.212  0.6948  0.1681  0.4982
 2928SOL    HW120420   4.519   1.265   3.177 -0.7768  0.6010 -3.1473
 2928SOL    HW220421   4.395   1.349   3.179 -1.1752 -1.8248 -2.4591
 2929SOL     OW20422   4.656   3.935   5.769  0.2543  0.4477 -0.5719
 2929SOL    HW120423   4.654   3.989   5.690  0.9382  1.7297  0.2630
 2929SOL    HW220424   4.562   3.934   5.790  0.1220 -0.5870 -1.2278
 2930SOL     OW20425   3.908   4.174  14.080 -0.1521  0.0692 -0.2520
 2930SOL    HW120426   3.839   4.239  14.090 -0.0882 -0.2464  2.2633
 2930SOL    HW220427   3.922   4.165  13.985  2.4906  0.5964  0.0976
 2931SOL     OW20428   3.928   1.654  14.596 -0.2687 -0.2371 -0.4681
 2931SOL    HW120429   3.980   1.701  14.661 -2.1883  0.2018  0.7736
 2931SOL    HW220430   3.976   1.573  14.585  0.2473  0.3117 -2.2165
 2932SOL     OW20431   3.769   3.020  15.447 -0.0315 -0.2281 -0.5632
 2932SOL    HW120432   3.864   3.018  15.456  0.1193  0.1830 -2.1914
 2932SOL    HW220433   3.759   3.074  15.369  1.9671  0.2323 -0.4873
 2933SOL     OW20434   3.697   3.991   5.956  0.8594 -0.7715 -0.4185
 2933SOL    HW120435   3.692   4.081   5.989 -0.7241 -0.6909 -0.8899
 2933SOL    HW220436   3.655   3.937   6.023  2.4553 -2.6058 -0.8897
 2934SOL     OW20437   1.997   3.520  13.865 -0.0535  0.2568 -0.9378
 2934SOL    HW120438   2.077   3.537  13.816 -0.0576  1.4007 -0.5507
 2934SOL    HW220439   2.020   3.502  13.956  0.4604  1.9022 -0.7447
 2935SOL     OW20440   3.126   0.760  14.953  0.2674  0.3149  0.7842
 2935SOL    HW120441   3.138   0.687  15.015 -0.1455  0.0255  0.5256
 2935SOL    HW220442   3.097   0.821  15.021 -1.0368  2.8330 -2.0820
 2936SOL     OW20443   1.155   0.547   4.321  0.7765  0.5614  0.2499
 2936SOL    HW120444   1.162   0.455   4.295  0.2997  0.8449 -0.8719
 2936SOL    HW220445   1.148   0.543   4.416  1.1544  1.2273  0.3091
 2937SOL     OW20446   1.163   3.428   9.483  0.4975 -0.4982 -0.2893
 2937SOL    HW120447   1.090   3.448   9.542  0.6997 -2.5166  0.6529
 2937SOL    HW220448   1.116   3.419   9.400 -1.3193 -2.6255  0.9855
 2938SOL     OW20449   2.845   1.605  10.596 -0.1059 -0.0242 -0.2259
 2938SOL    HW120450   2.780   1.617  10.526 -0.7145  2.1817  0.7239
 2938SOL    HW220451   2.805   1.561  10.671  1.2007 -0.1554  0.3895
 2939SOL     OW20452   3.307   4.035  17.176  0.0977  0.0870  0.0985
 2939SOL    HW120453   3.358   3.961  17.141 -0.9445 -0.4657 -0.2360
 2939SOL    HW220454   3.286   4.071  17.090  0.8505  0.8854  0.2506
 2940SOL     OW20455   2.085   4.286   7.808  0.1066 -0.2828  0.4019
 2940SOL    HW120456   2.133   4.311   7.886  0.8668 -1.2178  0.2345
 2940SOL    HW220457   1.994   4.301   7.832 -0.1010 -0.8049 -0.0426
 2941SOL     OW20458   1.554   2.325   3.487 -0.0249 -0.5361  0.4141
 2941SOL    HW120459   1.520   2.244   3.448 -0.5135 -0.0700 -0.1190
 2941SOL    HW220460   1.642   2.300   3.514 -0.0567  0.8610  1.7738
 2942SOL     OW20461   1.334   4.595   4.466 -0.1290  0.0037 -0.1680
 2942SOL    HW120462   1.416   4.546   4.470 -0.9432 -1.4466 -1.5089
 2942SOL    HW220463   1.292   4.563   4.546  0.9658 -0.5552  0.1790
 2943SOL     OW20464   0.383   4.196  16.242 -0.3490 -0.0553 -0.1318
 2943SOL    HW120465   0.397   4.281  16.199  4.1166 -0.1233  1.2118
 2943SOL    HW220466   0.289   4.188  16.226 -0.3734 -3.0845  1.6305
 2944SOL     OW20467   1.185   3.987   0.785 -0.4350  0.1454 -0.3015
 2944SOL    HW120468   1.238   4.005   0.708  1.8208  1.2646  1.5123
 2944SOL    HW220469   1.107   4.037   0.764  0.7002  0.6916 -3.2018
 2945SOL     OW20470   0.832   4.475   7.283 -0.3131  0.3657  0.2227
 2945SOL    HW120471   0.764   4.504   7.343 -0.5056 -0.4638  0.3924
 2945SOL    HW220472   0.856   4.563   7.253  0.5681  0.5554  1.4981
 2946SOL     OW20473   4.140   1.653  17.650 -0.3987 -0.2994 -0.4010
 2946SOL    HW120474   4.054   1.614  17.633 -0.5705  0.2164 -0.7072
 2946SOL    HW220475   4.180   1.663  17.563  1.1828 -0.4025  0.3151
 2947SOL     OW20476   3.309   2.247   6.834 -0.0181 -0.0985  0.4033
 2947SOL    HW120477   3.234   2.208   6.789  0.2431  0.6523 -0.7179
 2947SOL    HW220478   3.381   2.186   6.820  1.3671  1.6484 -0.2125
 2948SOL     OW20479   0.121   2.235   6.000  0.0988 -0.2228  0.5562
 2948SOL    HW120480   0.095   2.289   5.925  0.1093  0.7972  1.2829
 2948SOL    HW220481   0.204   2.276   6.022 -0.8513  1.1242  1.6221
 2949SOL     OW20482   3.971   2.989  10.096  0.0466  0.2170 -0.4412
 2949SOL    HW120483   4.039   2.991  10.029  0.4538  0.3015 -0.0301
 2949SOL    HW220484   3.938   2.903  10.071 -0.2835  0.1808  0.1149
 2950SOL     OW20485   0.981   1.268   2.027  0.0454  0.2568  0.3334
 2950SOL    HW120486   0.922   1.195   2.045  2.3370 -0.8971  3.2092
 2950SOL    HW220487   1.068   1.232   2.042 -0.1712 -0.3890  0.0369
 2951SOL     OW20488   0.658   2.712   5.823 -0.6089  0.1558  0.6168
 2951SOL    HW120489   0.711   2.787   5.796 -0.0013 -1.3949 -2.4409
 2951SOL    HW220490   0.725   2.656   5.865  0.9978  0.1941 -1.8881
 2952SOL     OW20491   4.230   2.534   9.234 -0.1694  0.6482 -0.2658
 2952SOL    HW120492   4.267   2.578   9.158 -3.3993 -0.0850 -2.2356
 2952SOL    HW220493   4.229   2.597   9.305  0.2868 -0.8555  1.0861
 2953SOL     OW20494   0.079   0.002  17.587  0.1235  0.0540  0.7359
 2953SOL    HW120495   0.088   4.656  17.544  0.8198  0.3207  0.3575
 2953SOL    HW220496   4.730   0.002  17.624 -1.1237 -0.2926 -2.1842
 2954SOL     OW20497   0.433   4.125  13.390 -0.1344 -0.1074 -0.5458
 2954SOL    HW120498   0.422   4.177  13.310 -1.4984 -0.2797 -0.4699
 2954SOL    HW220499   0.357   4.154  13.439  1.7536 -1.1345  2.9881
 2955SOL     OW20500   2.088   1.484   4.702 -0.0751 -0.3214 -0.9360
 2955SOL    HW120501   2.122   1.397   4.679 -0.9537 -1.3125  1.5767
 2955SOL    HW220502   2.075   1.472   4.796 -0.9522  2.0832 -0.7580
 2956SOL     OW20503   1.040   0.937   2.452 -0.7691  0.0346 -0.3064
 2956SOL    HW120504   1.010   0.936   2.542 -2.1632  1.9581 -0.7468
 2956SOL    HW220505   1.050   1.030   2.430 -1.5241  0.0631 -0.5174
 2957SOL     OW20506   2.514   4.328   0.191  0.6635  0.2088 -0.1627
 2957SOL    HW120507   2.605   4.301   0.189  0.4405 -0.6321  0.8728
 2957SOL    HW220508   2.468   4.248   0.217 -0.1926  1.2434  1.5818
 2958SOL     OW20509   1.413   3.051   5.450 -0.4613 -0.0247 -0.4610
 2958SOL    HW120510   1.401   3.140   5.484 -0.7933 -0.5242  0.7408
 2958SOL    HW220511   1.479   3.072   5.384 -1.7832  2.0992 -1.1063
 2959SOL     OW20512   0.242   2.311  10.388 -0.2955 -0.0848  0.3348
 2959SOL    HW120513   0.210   2.315  10.478 -0.7412 -3.4348  0.3163
 2959SOL    HW220514   0.275   2.221  10.384 -2.6306 -0.8237 -2.2506
 2960SOL     OW20515   4.386   0.071   7.265  0.4802  0.3587  0.2245
 2960SOL    HW120516   4.380   4.721   7.233 -2.7963  1.2974 -1.8325
 2960SOL    HW220517   4.303   0.106   7.231  0.5048  0.5112  0.3199
 2961SOL     OW20518   2.288   2.570   9.913 -0.1081  0.2951 -0.3828
 2961SOL    HW120519   2.304   2.629   9.986 -0.6807 -1.1795  0.9251
 2961SOL    HW220520   2.374   2.574   9.871  0.7674 -2.1017  1.1958
 2962SOL     OW20521   0.249   1.160   6.183  0.0054  0.2006 -0.5306
 2962SOL    HW120522   0.243   1.224   6.254  0.3255  0.5894 -0.8553
 2962SOL    HW220523   0.329   1.191   6.142  0.1872  0.2098 -0.1670
 2963SOL     OW20524   4.586   0.047   7.731 -0.0046 -0.4111 -0.4054
 2963SOL    HW120525   4.494   0.056   7.755 -0.4852 -0.9097 -2.0406
 2963SOL    HW220526   4.580   0.079   7.641  1.5575  1.0298 -0.0076
 2964SOL     OW20527   0.734   2.014   9.915 -0.1702  0.1515  0.0448
 2964SOL    HW120528   0.759   2.064   9.837 -1.6842 -1.3753 -1.4408
 2964SOL    HW220529   0.813   1.963   9.933  0.1916  1.0289  0.9095
 2965SOL     OW20530   1.189   2.063   5.162  0.3473  0.1904  0.1566
 2965SOL    HW120531   1.098   2.084   5.182 -0.0251  0.2743 -1.6436
 2965SOL    HW220532   1.189   1.969   5.183 -0.0066  0.3719  0.9692
 2966SOL     OW20533   4.176   3.963  15.308 -0.0021 -0.3777  0.1384
 2966SOL    HW120534   4.229   4.036  15.340  1.6923 -0.9173 -1.4616
 2966SOL    HW220535   4.137   3.947  15.394  0.0326  1.2012  0.4384
 2967SOL     OW20536   3.294   3.123   7.298  0.6908 -0.1222 -0.0042
 2967SOL    HW120537   3.277   3.076   7.216  2.6426 -2.8371  1.1058
 2967SOL    HW220538   3.328   3.045   7.343 -0.8999 -0.8040  0.0041
 2968SOL     OW20539   2.570   3.492   5.618 -0.0065  0.0385 -0.1497
 2968SOL    HW120540   2.604   3.402   5.616 -0.0250  0.0041  1.4781
 2968SOL    HW220541   2.487   3.486   5.665 -1.0624  3.3885 -1.5959
 2969SOL     OW20542   0.214   1.247   8.014 -0.1310 -0.1839  0.5570
 2969SOL    HW120543   0.181   1.330   8.049  1.3036  0.0526  1.3586
 2969SOL    HW220544   0.134   1.196   8.003 -0.2138 -0.0539  0.5531
 2970SOL     OW20545   1.086   3.487  11.528 -0.1802 -0.4737  1.1256
 2970SOL    HW120546   1.009   3.479  11.585 -0.2590 -0.9008  0.9580
 2970SOL    HW220547   1.132   3.405  11.542 -3.3139 -1.8674  3.4150
 2971SOL     OW20548   0.409   4.124   5.211 -0.0398 -0.1803 -0.1188
 2971SOL    HW120549   0.460   4.043   5.203  0.6936  0.4907 -2.0808
 2971SOL    HW220550   0.453   4.167   5.284 -0.3945  0.3296 -0.2050
 2972SOL     OW20551   0.421   2.858   5.491 -0.4984  0.2023 -0.3717
 2972SOL    HW120552   0.447   2.851   5.582 -0.1685  3.8449 -0.1930
 2972SOL    HW220553   0.450   2.775   5.452  2.1480  1.0815 -0.2705
 2973SOL     OW20554   0.352   1.994   0.909 -0.1793  0.4497 -0.0132
 2973SOL    HW120555   0.356   2.044   0.991  2.8193 -1.3684  0.9501
 2973SOL    HW220556   0.319   1.909   0.938  0.2624  0.8050  1.5754
 2974SOL     OW20557   1.494   4.348   5.525  0.6892 -0.0321  0.2818
 2974SOL    HW120558   1.475   4.404   5.600  1.5410  1.4685 -0.6266
 2974SOL    HW220559   1.584   4.375   5.508  0.4726 -1.4280 -2.9797
 2975SOL     OW20560   3.952   2.573   3.818  0.0856  0.4151  0.0487
 2975SOL    HW120561   3.900   2.582   3.738 -3.4306 -2.2187  2.0579
 2975SOL    HW220562   3.940   2.658   3.861  0.1689  0.5253 -0.1471
 2976SOL     OW20563   2.138   2.834  11.734 -0.1068 -0.0298 -1.0705
 2976SOL    HW120564   2.157   2.925  11.712  0.4474 -0.0046 -0.4791
 2976SOL    HW220565   2.209   2.802  11.789  0.4543  4.6543  0.9159
 2977SOL     OW20566   3.540   0.265   8.254  0.5677  0.0718 -0.2892
 2977SOL    HW120567   3.496   0.189   8.215  0.7903 -1.7783  3.0401
 2977SOL    HW220568   3.573   0.229   8.336  0.7863 -1.0919 -0.8933
 2978SOL     OW20569   1.148   2.226  12.687  0.1667  0.1179  0.1219
 2978SOL    HW120570   1.141   2.223  12.591  1.0419  1.9552  0.0073
 2978SOL    HW220571   1.190   2.311  12.698 -2.0982  1.2590 -0.0669
 2979SOL     OW20572   2.741   1.546   9.022 -0.2146  0.1041 -0.1663
 2979SOL    HW120573   2.733   1.563   8.928  0.2724  0.5616 -0.1309
 2979SOL    HW220574   2.673   1.480   9.025 -0.6582  0.4982 -1.4887
 2980SOL     OW20575   2.812   3.601  11.380  0.1758  0.0672 -0.7546
 2980SOL    HW120576   2.728   3.645  11.374  2.0419  3.3819 -2.5018
 2980SOL    HW220577   2.841   3.638  11.464  1.4692 -2.6258  0.0041
 2981SOL     OW20578   0.052   2.574  14.947 -0.1495  0.0857 -0.2093
 2981SOL    HW120579   0.038   2.482  14.968  0.1200  0.4739  1.6456
 2981SOL    HW220580   0.016   2.614  15.026 -0.1503  1.4180 -0.8842
 2982SOL     OW20581   3.596   3.366  13.655 -0.2045  0.6059  0.8094
 2982SOL    HW120582   3.630   3.443  13.700 -0.0286  1.0453 -0.0685
 2982SOL    HW220583   3.510   3.407  13.647 -0.8007 -1.0021 -1.0108
 2983SOL     OW20584   3.658   0.904   7.389  0.4696 -0.4344  0.2055
 2983SOL    HW120585   3.580   0.925   7.441 -0.6016 -0.7933 -1.2871
 2983SOL    HW220586   3.631   0.954   7.313 -1.5872 -1.2096  0.4254
 2984SOL     OW20587   4.305   0.346   5.445 -0.9743  0.2150  0.3599
 2984SOL    HW120588   4.316   0.251   5.437 -0.7231  0.3486 -0.8021
 2984SOL    HW220589   4.268   0.351   5.533  0.4335  0.1504  0.9638
 2985SOL     OW20590   0.512   0.266   5.603  0.1547 -0.5498 -0.0137
 2985SOL    HW120591   0.473   0.183   5.628  0.0969 -0.5720 -0.1839
 2985SOL    HW220592   0.579   0.240   5.539  0.7257  1.6565 -0.3267
 2986SOL     OW20593   1.246   1.242   4.401 -0.4217  0.2699  0.7931
 2986SOL    HW120594   1.323   1.299   4.400 -1.9506  2.3236  1.2243
 2986SOL    HW220595   1.233   1.231   4.495 -3.9920  2.5113  0.5730
 2987SOL     OW20596   2.015   0.325   3.273 -0.6196  0.2488 -0.8693
 2987SOL    HW120597   1.988   0.415   3.293  0.9087  0.1422  1.7531
 2987SOL    HW220598   2.072   0.303   3.348 -2.8889 -2.9243 -0.0615
 2988SOL     OW20599   3.252   1.437  17.345 -0.1701 -0.2713  0.1648
 2988SOL    HW120600   3.296   1.457  17.427  0.3893 -0.7302 -0.0225
 2988SOL    HW220601   3.203   1.360  17.376  0.0183  0.1175  1.4228
 2989SOL     OW20602   1.285   3.147  17.616  0.2049  0.1842 -0.0124
 2989SOL    HW120603   1.317   3.098  17.692 -1.6214 -1.5176 -0.3323
 2989SOL    HW220604   1.315   3.237  17.631  0.1352  0.0921  0.7005
 2990SOL     OW20605   3.293   0.269   8.579  0.1907  0.1157 -0.1999
 2990SOL    HW120606   3.304   0.202   8.646 -0.0029  0.6567  0.3669
 2990SOL    HW220607   3.365   0.326   8.605 -0.4466  0.3391  1.0216
 2991SOL     OW20608   3.491   0.648   7.888 -0.1632 -0.8534  0.0368
 2991SOL    HW120609   3.454   0.714   7.946 -4.2757 -2.3531 -0.9262
 2991SOL    HW220610   3.422   0.583   7.880 -0.8334 -0.2518  0.8899
 2992SOL     OW20611   4.457   0.594   0.998 -0.0697  0.3109 -0.4857
 2992SOL    HW120612   4.526   0.551   0.948  0.0953  0.1361 -0.1060
 2992SOL    HW220613   4.501   0.679   0.992  0.8145 -0.1761 -0.8027
 2993SOL     OW20614   3.277   3.287   3.054 -0.0955  0.2702  0.4870
 2993SOL    HW120615   3.289   3.382   3.055 -1.0398  0.3859  0.0896
 2993SOL    HW220616   3.269   3.269   2.961 -0.2423 -0.1468  0.5816
 2994SOL     OW20617   2.738   0.261   7.730 -0.0401  0.0911  0.3773
 2994SOL    HW120618   2.717   0.350   7.757  0.5458  0.1528  0.6237
 2994SOL    HW220619   2.659   0.209   7.751 -0.3344  0.1037 -0.7150
 2995SOL     OW20620   3.629   4.094  16.129  0.1967  0.1066 -0.0264
 2995SOL    HW120621   3.618   4.139  16.045  0.2991  1.1425  0.5084
 2995SOL    HW220622   3.720   4.063  16.128 -0.2233 -1.1243 -0.9882
 2996SOL     OW20623   0.087   3.476   9.012 -0.2497  0.2031 -0.3941
 2996SOL    HW120624   0.151   3.542   9.038 -0.8087  0.2780  0.7572
 2996SOL    HW220625   0.118   3.445   8.927  2.4526 -0.9477  1.0109
 2997SOL     OW20626   2.836   2.593   4.319 -0.2738 -0.2387  0.0675
 2997SOL    HW120627   2.909   2.533   4.336 -0.9349 -1.3807 -1.0586
 2997SOL    HW220628   2.860   2.654   4.389 -0.3516 -1.4738  1.1592
 2998SOL     OW20629   2.463   0.117  14.982 -0.4410 -0.2007 -0.0010
 2998SOL    HW120630   2.552   0.088  14.998 -0.5754  0.1459  1.3551
 2998SOL    HW220631   2.467   0.212  14.979  0.5344 -0.2410  0.2620
 2999SOL     OW20632   3.612   2.068   3.701 -0.9821  0.1427 -0.2965
 2999SOL    HW120633   3.614   1.982   3.743 -0.4707  0.5936  0.6080
 2999SOL    HW220634   3.655   2.131   3.759  0.0775 -0.0295 -0.8820
 3000SOL     OW20635   1.580   4.511  11.125  0.4977 -0.1669  0.1972
 3000SOL    HW120636   1.555   4.512  11.217 -0.9467 -2.2391 -0.1878
 3000SOL    HW220637   1.650   4.446  11.117  0.5926 -0.1673  1.0556
 3001SOL     OW20638   3.256   1.552   5.906 -0.2951 -0.2075 -0.8549
 3001SOL    HW120639   3.257   1.458   5.927 -3.2240  0.3456  1.7612
 3001SOL    HW220640   3.308   1.568   5.827  1.6163  1.5574  0.7890
 3002SOL     OW20641   1.943   1.746   7.247 -0.0937  0.1847  0.3545
 3002SOL    HW120642   1.879   1.777   7.183  0.6339  1.2561  0.1436
 3002SOL    HW220643   1.916   1.784   7.331 -0.9422  2.4325 -0.9234
 3003SOL     OW20644   3.924   3.959   8.819 -0.0677 -0.1344  0.2484
 3003SOL    HW120645   3.933   4.043   8.865  0.9985  0.0375 -0.2686
 3003SOL    HW220646   3.844   3.973   8.768 -2.1839 -0.5061  3.4566
 3004SOL     OW20647   4.423   4.335   9.402 -0.3907  0.1080  0.5794
 3004SOL    HW120648   4.408   4.311   9.493 -2.3786  0.9469  0.4753
 3004SOL    HW220649   4.357   4.405   9.406 -0.3307  0.2227 -0.3763
 3005SOL     OW20650   0.079   0.908  11.521 -0.1666  0.7004 -0.0966
 3005SOL    HW120651   0.065   0.930  11.428  0.4411  0.6205 -0.2061
 3005SOL    HW220652   0.008   0.955  11.566 -1.8241 -2.3016  0.3834
 3006SOL     OW20653   2.965   2.120   1.173 -0.7226 -0.3914 -0.4341
 3006SOL    HW120654   2.986   2.161   1.089  2.9417  1.4683  1.3921
 3006SOL    HW220655   2.948   2.029   1.151 -2.8112  0.4296 -2.1729
 3007SOL     OW20656   2.413   3.748  16.157  1.0112 -0.2291  0.1483
 3007SOL    HW120657   2.443   3.786  16.240  0.1253  1.4290 -0.2913
 3007SOL    HW220658   2.498   3.714  16.127  1.6932  0.8765  0.8419
 3008SOL     OW20659   0.674   2.701   9.653 -0.3291  0.4512  0.1925
 3008SOL    HW120660   0.731   2.665   9.721  0.4550  0.9652 -0.1925
 3008SOL    HW220661   0.704   2.652   9.576 -0.7726 -0.6564  0.7177
 3009SOL     OW20662   4.561   3.950   6.837  0.5488 -0.3833 -0.0884
 3009SOL    HW120663   4.588   3.901   6.914 -2.5402 -1.6212  0.1978
 3009SOL    HW220664   4.505   3.888   6.789  0.2962  1.0181 -1.6257
 3010SOL     OW20665   1.181   2.661  16.118  0.0707 -0.8648 -0.8423
 3010SOL    HW120666   1.145   2.645  16.205  0.9907  0.5844 -0.2001
 3010SOL    HW220667   1.181   2.756  16.111  0.4379 -0.8841 -1.0769
 3011SOL     OW20668   2.137   1.470   2.261 -0.1723 -0.5341 -0.0075
 3011SOL    HW120669   2.163   1.403   2.324 -0.4339  0.8114  1.5428
 3011SOL    HW220670   2.206   1.465   2.196  0.4716  0.4376  0.5905
 3012SOL     OW20671   4.336   2.030  14.222 -0.0884  0.2493 -0.4746
 3012SOL    HW120672   4.249   2.034  14.260  0.4456  0.1812  0.7687
 3012SOL    HW220673   4.317   2.066  14.136  1.7341  2.9220  0.2476
 3013SOL     OW20674   1.039   1.974   9.192  0.2997  0.0569 -0.1007
 3013SOL    HW120675   1.102   1.915   9.234 -0.1551 -1.6901 -1.8517
 3013SOL    HW220676   0.994   1.905   9.142 -1.4550  0.2808  1.1850
 3014SOL     OW20677   0.373   1.571   7.314 -0.5649  1.0248 -0.1091
 3014SOL    HW120678   0.302   1.633   7.332 -0.3732  0.5591  2.2873
 3014SOL    HW220679   0.326   1.517   7.251  0.0323  0.2313  0.1324
 3015SOL     OW20680   0.158   1.211   2.920 -0.0934 -0.9831 -0.4205
 3015SOL    HW120681   0.163   1.271   2.846 -3.4157 -0.1105  0.0639
 3015SOL    HW220682   0.218   1.148   2.880  0.3083 -0.7270 -0.2177
 3016SOL     OW20683   1.395   3.862   2.597 -0.0448  0.3055 -0.0277
 3016SOL    HW120684   1.487   3.874   2.572 -0.1373  2.2966  0.5376
 3016SOL    HW220685   1.396   3.769   2.620 -0.7245  0.1406 -0.6797
 3017SOL     OW20686   3.559   4.545  14.918  0.0922  0.2256  0.0238
 3017SOL    HW120687   3.582   4.521  15.007 -4.1529 -0.8011  0.8400
 3017SOL    HW220688   3.618   4.488  14.869 -0.8068 -0.9711  0.3285
 3018SOL     OW20689   0.134   1.840   4.585  0.5028  0.9418 -0.7097
 3018SOL    HW120690   0.099   1.799   4.665 -1.1245 -1.8558 -2.8685
 3018SOL    HW220691   0.198   1.772   4.562 -1.3391 -1.3899  1.0413
 3019SOL     OW20692   1.695   3.286   6.780 -0.1856  0.2554 -0.2271
 3019SOL    HW120693   1.756   3.229   6.732  0.7411  0.0979  1.1467
 3019SOL    HW220694   1.663   3.235   6.855 -0.0346  0.5798  0.0544
 3020SOL     OW20695   3.818   2.867   1.681 -0.0906 -0.0567  0.2071
 3020SOL    HW120696   3.733   2.847   1.719 -0.5839  0.6393 -0.5596
 3020SOL    HW220697   3.824   2.784   1.634 -1.7660  0.4033 -0.7847
 3021SOL     OW20698   0.637   0.377  16.683  0.1778 -0.7304  0.8671
 3021SOL    HW120699   0.579   0.306  16.654  0.2036 -0.7147  0.7765
 3021SOL    HW220700   0.612   0.399  16.772  2.4759  0.6900  1.1488
 3022SOL     OW20701   3.624   1.431   3.556  0.3694 -0.6420 -0.1714
 3022SOL    HW120702   3.671   1.450   3.475 -1.5315  0.5211 -1.0013
 3022SOL    HW220703   3.589   1.343   3.542 -3.2583  0.6169  0.8680
 3023SOL     OW20704   4.190   3.306   8.937 -0.3415 -0.3748 -0.4675
 3023SOL    HW120705   4.113   3.259   8.907 -3.0200  3.0491  0.9895
 3023SOL    HW220706   4.255   3.278   8.874  0.0963 -2.8112  1.0586
 3024SOL     OW20707   0.064   2.132  10.845 -0.5226 -0.1755 -0.4323
 3024SOL    HW120708   4.728   2.181  10.875  0.6774  0.3337  1.7595
 3024SOL    HW220709   0.023   2.050  10.816  1.4131 -0.6313 -1.9339
 3025SOL     OW20710   1.093   3.397  17.465 -0.2800 -0.1394  0.4302
 3025SOL    HW120711   1.052   3.473  17.506 -2.0269 -1.0392  0.3380
 3025SOL    HW220712   1.025   3.334  17.491 -0.1736 -1.1838 -1.8022
 3026SOL     OW20713   1.032   3.096  10.177  0.0489  0.0013 -0.3577
 3026SOL    HW120714   0.987   3.153  10.115 -0.0263 -0.0755 -0.3746
 3026SOL    HW220715   1.117   3.140  10.185 -0.6821  1.5956 -1.3701
 3027SOL     OW20716   1.116   0.995   1.219 -0.3900 -0.1816  0.4150
 3027SOL    HW120717   1.064   0.992   1.300 -2.1845  0.6173 -0.7258
 3027SOL    HW220718   1.189   0.938   1.245  0.6996  0.7511 -0.6232
 3028SOL     OW20719   3.839   0.312  16.775 -0.0327  0.6723  0.3976
 3028SOL    HW120720   3.776   0.355  16.833  1.4089  0.9890  1.7256
 3028SOL    HW220721   3.918   0.356  16.806  0.8264  0.0665 -0.9227
 3029SOL     OW20722   2.779   1.446   5.293  0.4041  0.0597 -0.1438
 3029SOL    HW120723   2.689   1.476   5.307 -0.4961 -2.4011 -0.8095
 3029SOL    HW220724   2.770   1.405   5.207  1.0112 -0.9387  0.2721
 3030SOL     OW20725   3.836   2.349   5.338 -0.3212 -0.1410 -0.0240
 3030SOL    HW120726   3.909   2.332   5.397  0.0762  0.8134 -0.2385
 3030SOL    HW220727   3.779   2.397   5.399 -0.2246 -1.8789  1.4126
 3031SOL     OW20728   0.782   2.155   8.489  0.5762 -0.1484  0.2350
 3031SOL    HW120729   0.765   2.130   8.580 -0.8999 -2.7664 -0.7449
 3031SOL    HW220730   0.825   2.078   8.451 -0.2864 -0.6672  0.3052
 3032SOL     OW20731   4.185   4.389   6.338  0.0328  0.0795 -0.0099
 3032SOL    HW120732   4.249   4.326   6.304  0.1896  1.4819 -2.3325
 3032SOL    HW220733   4.216   4.472   6.301 -0.0773  0.1204 -0.0087
 3033SOL     OW20734   2.825   1.096  10.342  0.1029 -0.3838 -0.0785
 3033SOL    HW120735   2.862   1.101  10.254  1.7917  2.6481  0.8014
 3033SOL    HW220736   2.734   1.071  10.323  0.6028 -1.9633 -0.3741
 3034SOL     OW20737   3.913   2.572  14.525  0.2170 -0.5403  0.6578
 3034SOL    HW120738   3.827   2.531  14.527 -0.2119  0.3464  0.4337
 3034SOL    HW220739   3.934   2.590  14.433 -0.3415 -0.5553  0.5307
 3035SOL     OW20740   2.154   1.247   8.663  0.0675 -0.1466  0.4168
 3035SOL    HW120741   2.186   1.161   8.691  0.2654 -0.9875 -2.3783
 3035SOL    HW220742   2.166   1.241   8.568  2.2323  0.4019  0.6595
 3036SOL     OW20743   1.443   0.801  11.836 -0.1416 -0.1456  0.2090
 3036SOL    HW120744   1.367   0.857  11.854 -0.5835 -0.2570 -1.2825
 3036SOL    HW220745   1.497   0.864  11.788 -0.2150  0.3646  0.7923
 3037SOL     OW20746   3.485   1.842   1.824 -0.1385  0.9510 -0.6597
 3037SOL    HW120747   3.567   1.858   1.777  0.8880  0.7741  1.1053
 3037SOL    HW220748   3.514   1.768   1.877 -1.8538  0.2094 -0.7544
 3038SOL     OW20749   0.762   0.150   8.601  0.1783  0.6026  0.1384
 3038SOL    HW120750   0.721   0.182   8.520 -0.5471  0.6382  0.5218
 3038SOL    HW220751   0.730   0.214   8.664 -0.8829  1.4935 -1.3242
 3039SOL     OW20752   3.790   4.681   5.673 -0.4409  0.0521 -0.1494
 3039SOL    HW120753   3.809   4.739   5.747  0.8810  1.2202 -1.3863
 3039SOL    HW220754   3.787   4.595   5.714 -0.8189  0.3787  0.5018
 3040SOL     OW20755   0.389   0.284  14.795  0.4475  0.4457 -0.2020
 3040SOL    HW120756   0.347   0.250  14.873  2.1692 -0.1771  0.4673
 3040SOL    HW220757   0.355   0.371  14.776  1.0516  0.9400  0.9616
 3041SOL     OW20758   4.151   3.202   6.407 -0.0188 -0.2105  0.4098
 3041SOL    HW120759   4.216   3.226   6.474 -1.3131  1.7869  0.9207
 3041SOL    HW220760   4.172   3.110   6.388 -1.3738 -0.5837  0.7270
 3042SOL     OW20761   4.457   2.397   2.939  0.2087  0.4838 -0.6177
 3042SOL    HW120762   4.367   2.395   2.970  0.0510 -0.0145 -1.1030
 3042SOL    HW220763   4.440   2.412   2.846  3.1764  1.1757 -1.0652
 3043SOL     OW20764   4.432   1.435  13.540  0.1135 -0.3832 -0.3743
 3043SOL    HW120765   4.341   1.413  13.518 -1.2779  1.5629  3.3652
 3043SOL    HW220766   4.480   1.356  13.516  1.6978  0.3190  0.5071
 3044SOL     OW20767   2.228   1.268   5.399  0.5515 -0.6518  0.0775
 3044SOL    HW120768   2.314   1.227   5.393 -0.1795 -2.4120  1.4497
 3044SOL    HW220769   2.228   1.334   5.468  2.9455 -0.2902 -0.2771
 3045SOL     OW20770   1.160   0.898   2.835  0.4806 -0.2264 -0.9761
 3045SOL    HW120771   1.176   0.896   2.929 -0.6294 -2.9356 -0.8498
 3045SOL    HW220772   1.149   0.993   2.824  1.9317  0.0687  0.0101
 3046SOL     OW20773   3.767   2.320  12.585  0.4633 -0.0201 -0.0439
 3046SOL    HW120774   3.832   2.318  12.655 -0.4263 -1.1526  0.7550
 3046SOL    HW220775   3.726   2.237  12.611  1.4679 -0.6028 -0.3136
 3047SOL     OW20776   4.466   2.533   6.273 -0.1847 -0.1242 -0.5732
 3047SOL    HW120777   4.408   2.606   6.250 -0.3679  0.0205  0.3234
 3047SOL    HW220778   4.460   2.480   6.194  0.1893  1.2672 -1.5316
 3048SOL     OW20779   2.158   0.257  15.799  0.5095 -0.1385  0.1805
 3048SOL    HW120780   2.119   0.343  15.783  1.3227  0.8199  3.3248
 3048SOL    HW220781   2.175   0.260  15.893 -0.7253 -1.7879  0.4649
 3049SOL     OW20782   3.992   4.276   3.010 -0.0723 -0.3469 -0.5277
 3049SOL    HW120783   4.045   4.199   3.028  0.3122  0.4430  1.8213
 3049SOL    HW220784   3.987   4.270   2.915  2.0987 -0.2156 -0.6497
 3050SOL     OW20785   4.091   3.840  12.955 -0.2971  0.8164  0.1156
 3050SOL    HW120786   4.099   3.873  12.866 -1.1793 -1.7926 -0.9431
 3050SOL    HW220787   4.024   3.903  12.983 -1.1168 -0.5155  1.2135
 3051SOL     OW20788   1.207   2.941   2.031 -0.0217  0.4239 -0.0099
 3051SOL    HW120789   1.194   2.897   1.947  1.7147 -1.7367  0.8211
 3051SOL    HW220790   1.272   3.010   2.022  0.5522  0.0371  1.1121
 3052SOL     OW20791   4.384   2.500   2.707 -0.2635 -0.5123 -0.0094
 3052SOL    HW120792   4.400   2.522   2.615 -2.4351 -0.8140 -0.4596
 3052SOL    HW220793   4.297   2.538   2.719 -0.4530 -0.7331 -0.6590
 3053SOL     OW20794   0.326   3.383  12.907 -0.1290 -0.1276 -0.1777
 3053SOL    HW120795   0.409   3.414  12.942 -0.4377 -0.6447  1.0083
 3053SOL    HW220796   0.352   3.370  12.816  0.4526  0.9906 -0.1708
 3054SOL     OW20797   3.764   4.209   8.939 -0.3827 -0.4999 -0.4624
 3054SOL    HW120798   3.756   4.301   8.966 -0.7016 -0.9843  1.0970
 3054SOL    HW220799   3.787   4.162   9.019  0.4395  0.4881 -0.1194
 3055SOL     OW20800   1.386   0.658   4.161 -0.5664  0.3178  0.0908
 3055SOL    HW120801   1.321   0.616   4.218 -0.7544  1.1375  0.4856
 3055SOL    HW220802   1.443   0.589   4.126 -0.4522  0.3614  0.1912
 3056SOL     OW20803   2.660   2.564  16.078 -0.0442  0.3153 -0.1625
 3056SOL    HW120804   2.631   2.655  16.080 -0.5862  0.1257  0.7302
 3056SOL    HW220805   2.611   2.529  16.153  1.3665 -0.3389  0.4523
 3057SOL     OW20806   4.323   4.096   5.009 -0.5412  0.1810  0.2848
 3057SOL    HW120807   4.391   4.033   4.985  0.0008  0.7248  0.3766
 3057SOL    HW220808   4.263   4.033   5.049  1.2925 -1.7572 -0.0052
 3058SOL     OW20809   2.326   4.552  17.536 -0.5958  0.2026  0.0098
 3058SOL    HW120810   2.333   4.477  17.594  0.1525  0.3261  0.0885
 3058SOL    HW220811   2.236   4.551  17.505 -0.9054  2.8503  0.7953
 3059SOL     OW20812   3.533   3.223   9.580 -0.1431 -0.3488 -0.1826
 3059SOL    HW120813   3.571   3.304   9.545 -4.0902  0.9024 -1.6200
 3059SOL    HW220814   3.609   3.165   9.578  0.5769  0.4638  3.1583
 3060SOL     OW20815   1.947   2.376   8.163 -0.1472  0.1410 -0.2395
 3060SOL    HW120816   1.863   2.382   8.208  0.4210 -0.7430  0.9315
 3060SOL    HW220817   1.951   2.290   8.121 -1.7909 -0.3943  0.7170
 3061SOL     OW20818   1.564   3.363   3.955 -0.4351 -0.3432  0.4329
 3061SOL    HW120819   1.504   3.424   3.997  0.6359  0.1953  1.1770
 3061SOL    HW220820   1.532   3.381   3.866  0.5864  1.4073  0.4235
 3062SOL     OW20821   4.090   4.041   1.856  0.3891  0.0861  0.0487
 3062SOL    HW120822   4.078   4.074   1.945 -0.5756  1.1346 -0.4653
 3062SOL    HW220823   4.005   4.076   1.829 -0.1402  0.0283  1.6172
 3063SOL     OW20824   0.199   4.487  15.013 -0.2132  0.2862 -0.1278
 3063SOL    HW120825   0.274   4.546  15.014  1.2316 -1.5998  0.9959
 3063SOL    HW220826   0.239   4.403  14.992 -2.6739 -0.7575 -0.7040
 3064SOL     OW20827   4.604   1.941  14.120 -0.2898 -0.1397  0.2543
 3064SOL    HW120828   4.639   2.026  14.144 -1.3975  0.1635  0.7823
 3064SOL    HW220829   4.536   1.948  14.187  0.5359 -0.0960  1.0851
 3065SOL     OW20830   2.304   2.318  10.054 -0.0477  0.3029  0.2868
 3065SOL    HW120831   2.280   2.393  10.000  1.7438  0.8187  0.2132
 3065SOL    HW220832   2.399   2.329  10.055  0.0868 -0.7590 -1.2776
 3066SOL     OW20833   0.036   4.443  13.914 -0.1731 -0.4783  0.0581
 3066SOL    HW120834   4.719   4.509  13.956 -0.3864  0.2385 -1.3425
 3066SOL    HW220835   0.069   4.394  13.989 -1.3828 -0.0579  0.8702
 3067SOL     OW20836   1.554   1.941   3.751 -0.0552  0.5454 -0.1192
 3067SOL    HW120837   1.626   1.886   3.781 -0.4725 -0.0332 -0.1734
 3067SOL    HW220838   1.584   2.031   3.768 -1.1128  0.7304  0.8475
 3068SOL     OW20839   3.354   3.730   5.758 -0.8077 -0.0157 -0.1807
 3068SOL    HW120840   3.314   3.729   5.845 -1.2963 -1.9574 -0.4373
 3068SOL    HW220841   3.316   3.658   5.709 -2.1392  1.4556 -1.3190
 3069SOL     OW20842   1.587   2.088  15.010 -0.0893  0.5396  0.0313
 3069SOL    HW120843   1.548   2.045  14.934 -0.2377  1.8879 -0.6564
 3069SOL    HW220844   1.575   2.180  14.985  3.6326  1.4751  1.6307
 3070SOL     OW20845   4.025   3.374   1.455 -0.0804  0.3723 -0.1036
 3070SOL    HW120846   4.102   3.388   1.511  0.1228 -1.4406  0.0673
 3070SOL    HW220847   4.006   3.281   1.471 -0.7432  0.9591  2.4768
 3071SOL     OW20848   3.440   3.974   7.212 -0.4438  0.5526  0.3112
 3071SOL    HW120849   3.366   4.033   7.204 -0.9173  0.0777  1.2624
 3071SOL    HW220850   3.421   3.906   7.147 -0.0070  2.5319 -1.8695
 3072SOL     OW20851   0.729   4.162   2.067  0.0417 -0.5053 -0.0970
 3072SOL    HW120852   0.721   4.067   2.079 -2.3149 -0.0610  1.9587
 3072SOL    HW220853   0.649   4.188   2.021 -0.9002  0.3548  1.9909
 3073SOL     OW20854   1.425   1.227   9.096 -0.4289  0.0227 -0.2975
 3073SOL    HW120855   1.516   1.217   9.124 -0.2674  0.7973 -0.5628
 3073SOL    HW220856   1.392   1.293   9.156 -0.2731  1.1092 -1.4197
 3074SOL     OW20857   2.063   0.924   1.931  0.2117  0.4990 -0.4855
 3074SOL    HW120858   1.986   0.932   1.987 -0.1042  1.2945 -1.0298
 3074SOL    HW220859   2.094   1.014   1.938 -0.3754  0.6200  0.5279
 3075SOL     OW20860   4.548   1.029   3.295  0.0532 -0.1132  0.2332
 3075SOL    HW120861   4.494   1.106   3.275  0.0225 -0.6389 -1.7400
 3075SOL    HW220862   4.602   1.023   3.216 -2.4059 -0.7082 -1.3928
 3076SOL     OW20863   1.266   4.494  12.091 -0.0412  0.0258 -0.3832
 3076SOL    HW120864   1.292   4.539  12.172 -1.3663  0.1415 -0.0303
 3076SOL    HW220865   1.296   4.562  12.030  0.5245 -1.4803 -1.7647
 3077SOL     OW20866   2.705   0.379   8.438 -0.2926 -0.2023 -0.0678
 3077SOL    HW120867   2.653   0.301   8.419 -1.5241  1.2624 -2.7724
 3077SOL    HW220868   2.709   0.405   8.345 -0.9418 -1.3868 -0.4277
 3078SOL     OW20869   3.584   3.382   4.629 -0.1276  0.2282 -0.6037
 3078SOL    HW120870   3.578   3.477   4.621  0.2774  0.1939 -1.3091
 3078SOL    HW220871   3.648   3.376   4.700  0.4485 -0.2646 -1.1602
 3079SOL     OW20872   3.580   4.649   0.964  0.2270  0.0205  0.0469
 3079SOL    HW120873   3.664   4.694   0.961  0.4342 -0.2655  1.5220
 3079SOL    HW220874   3.555   4.648   0.871  0.9528  0.3121 -0.1575
 3080SOL     OW20875   1.639   3.727   1.875 -0.0061 -0.0627 -0.4173
 3080SOL    HW120876   1.662   3.655   1.816  2.0769  1.4062 -1.4354
 3080SOL    HW220877   1.730   3.753   1.890  0.0001 -1.3729  1.7053
 3081SOL     OW20878   0.588   4.709   3.225  0.6941  1.0602 -0.3702
 3081SOL    HW120879   0.559   4.655   3.298  0.5165 -1.0383 -1.9761
 3081SOL    HW220880   0.632   4.638   3.179 -1.0163 -0.0119 -0.3608
 3082SOL     OW20881   2.994   3.842   5.238 -0.0766  0.0091 -0.2740
 3082SOL    HW120882   3.054   3.815   5.169 -1.0331 -1.0252 -0.6961
 3082SOL    HW220883   2.958   3.920   5.195  0.8971  1.1756  1.0185
 3083SOL     OW20884   1.530   1.763   8.194 -0.5950  0.3860  0.2347
 3083SOL    HW120885   1.585   1.692   8.227  0.8613  1.3249 -0.1480
 3083SOL    HW220886   1.523   1.734   8.104  1.0170 -3.5914  1.4124
 3084SOL     OW20887   1.776   4.039  14.706  0.5926  0.4995  0.4953
 3084SOL    HW120888   1.750   4.130  14.691 -0.5123  0.1615  0.4266
 3084SOL    HW220889   1.841   4.042  14.776  2.2893  3.2702 -1.1719
 3085SOL     OW20890   2.210   0.285  14.885 -0.3974 -0.1674 -0.1381
 3085SOL    HW120891   2.261   0.349  14.836 -0.1580 -0.0135  0.3086
 3085SOL    HW220892   2.156   0.238  14.822  0.8858  0.4353 -1.6882
 3086SOL     OW20893   2.528   1.376   4.602  0.0642 -0.0862 -0.4522
 3086SOL    HW120894   2.622   1.364   4.614  0.2779 -0.8007 -2.8487
 3086SOL    HW220895   2.529   1.462   4.644 -0.9309 -0.1768 -0.2557
 3087SOL     OW20896   1.722   0.543   2.959 -0.1011 -0.0768 -0.0242
 3087SOL    HW120897   1.654   0.475   2.957  1.0019 -1.1798 -0.1973
 3087SOL    HW220898   1.716   0.563   3.052 -2.6977  1.2077 -0.4524
 3088SOL     OW20899   0.027   1.335  10.672  0.2495  0.7561  0.0308
 3088SOL    HW120900   0.085   1.411  10.678  0.4464  0.5956  0.1887
 3088SOL    HW220901   4.686   1.372  10.709  0.0865 -0.8438  1.2870
 3089SOL     OW20902   3.061   3.649   2.483  0.3198 -0.0302 -0.0786
 3089SOL    HW120903   3.116   3.572   2.470  0.7477  0.0146  1.5453
 3089SOL    HW220904   3.111   3.706   2.540  0.5220 -1.9824  1.6799
 3090SOL     OW20905   4.173   2.685   5.916  0.3479  0.1239  0.3089
 3090SOL    HW120906   4.089   2.722   5.943 -0.4792 -0.4542 -1.4904
 3090SOL    HW220907   4.163   2.594   5.943 -2.3130  0.5215  0.6323
 3091SOL     OW20908   1.271   1.534   8.725  0.4104 -0.2930 -0.4053
 3091SOL    HW120909   1.300   1.462   8.669 -0.2238  0.4767 -1.7202
 3091SOL    HW220910   1.215   1.580   8.663 -1.1947 -0.3275  1.0138
 3092SOL     OW20911   2.056   0.622   0.816  0.4498  0.1295 -0.2979
 3092SOL    HW120912   2.045   0.634   0.722 -0.4596  0.9957 -0.0818
 3092SOL    HW220913   1.979   0.670   0.846 -0.0411 -0.5670 -0.4476
 3093SOL     OW20914   3.501   3.054   6.976 -0.4679 -0.6354  0.0975
 3093SOL    HW120915   3.499   3.042   7.071  0.5764 -1.7302 -0.0193
 3093SOL    HW220916   3.593   3.076   6.960 -1.0302  0.6767 -1.3182
 3094SOL     OW20917   4.602   0.263   3.032 -0.2439 -0.0451  0.0927
 3094SOL    HW120918   4.555   0.287   3.113  1.4533  1.2733  0.6867
 3094SOL    HW220919   4.546   0.305   2.966  0.6107  2.4225  0.9084
 3095SOL     OW20920   0.023   1.337  10.146 -0.2647 -0.2114 -0.6091
 3095SOL    HW120921   4.688   1.279  10.157 -0.1722 -0.4129 -1.0569
 3095SOL    HW220922   0.092   1.272  10.140  0.1499  0.1579  0.2107
 3096SOL     OW20923   1.386   3.754   3.769 -0.2297  0.3268 -0.2366
 3096SOL    HW120924   1.474   3.731   3.739  0.5566  0.9733  1.5892
 3096SOL    HW220925   1.389   3.848   3.754 -2.3940  0.5988  1.0766
 3097SOL     OW20926   0.250   1.897   8.612 -0.0755  0.0166  0.4107
 3097SOL    HW120927   0.258   1.991   8.596  0.7338 -0.2677 -0.8190
 3097SOL    HW220928   0.225   1.899   8.705  0.3320  0.0458  0.5225
 3098SOL     OW20929   3.754   2.102   4.435  0.0919 -0.2534 -0.4831
 3098SOL    HW120930   3.818   2.041   4.471  2.1073  1.0648 -1.8769
 3098SOL    HW220931   3.794   2.158   4.368 -3.1111 -0.2617 -2.4023
 3099SOL     OW20932   2.053   2.555  11.191  0.3910  0.1051 -0.3220
 3099SOL    HW120933   2.085   2.483  11.137 -1.7742 -1.4762  0.4932
 3099SOL    HW220934   2.095   2.528  11.273 -0.2615 -0.6710 -0.2404
 3100SOL     OW20935   3.765   1.256   5.386 -0.2680 -0.6291 -0.5873
 3100SOL    HW120936   3.806   1.286   5.306  0.8370  0.3073  0.3315
 3100SOL    HW220937   3.757   1.336   5.438  1.0843 -2.0141  1.7866
 3101SOL     OW20938   1.152   2.715   8.770 -0.5643 -0.3084 -0.5308
 3101SOL    HW120939   1.174   2.626   8.797 -0.9273  0.1753  1.3756
 3101SOL    HW220940   1.194   2.717   8.684  2.1420  0.7383  0.8010
 3102SOL     OW20941   4.493   1.310   4.713 -0.3315 -1.3017 -0.0413
 3102SOL    HW120942   4.419   1.254   4.734 -1.5579 -0.4794 -2.2083
 3102SOL    HW220943   4.509   1.364   4.790 -2.3304 -2.1907  0.9781
 3103SOL     OW20944   2.432   3.582   5.209 -0.4877 -0.1665  0.4538
 3103SOL    HW120945   2.343   3.617   5.212  0.8110  3.0044  1.7761
 3103SOL    HW220946   2.484   3.658   5.183 -0.2888 -1.1230 -1.9743
 3104SOL     OW20947   0.111   3.031   2.778 -0.1980  0.2041 -0.1703
 3104SOL    HW120948   0.179   3.085   2.738 -0.1876  2.6299  3.1491
 3104SOL    HW220949   0.044   3.041   2.710 -0.5025 -1.5103 -0.1120
 3105SOL     OW20950   2.889   2.671  10.143  0.0129  0.4059 -0.2459
 3105SOL    HW120951   2.851   2.695  10.227  1.0881 -0.7524  0.5697
 3105SOL    HW220952   2.805   2.666  10.097  0.0812  0.4218 -0.3735
 3106SOL     OW20953   3.024   1.374  10.818  0.4042 -0.2433  0.7545
 3106SOL    HW120954   3.098   1.426  10.850 -0.3077 -0.6024  2.9548
 3106SOL    HW220955   2.946   1.424  10.841 -0.2351 -0.0041 -1.9059
 3107SOL     OW20956   0.929   0.534   7.409 -0.2646 -0.0190 -0.0941
 3107SOL    HW120957   0.994   0.508   7.475  1.8191  0.7957 -1.8189
 3107SOL    HW220958   0.909   0.623   7.436 -0.6457 -0.4130  0.9621
 3108SOL     OW20959   3.340   4.627   1.958 -0.6347  0.0511 -0.2843
 3108SOL    HW120960   3.249   4.646   1.981 -0.7879  1.8552 -2.3865
 3108SOL    HW220961   3.376   4.715   1.950  1.7712 -0.6905  2.3623
 3109SOL     OW20962   3.607   3.450  17.343 -0.5140  0.4565  0.0505
 3109SOL    HW120963   3.564   3.451  17.428 -0.9055 -0.2238 -0.1409
 3109SOL    HW220964   3.589   3.362  17.311 -0.4891  0.2145  0.7056
 3110SOL     OW20965   2.961   2.557   2.683  0.0514  0.1312  0.7139
 3110SOL    HW120966   2.916   2.495   2.625 -0.1464  0.9590 -0.0404
 3110SOL    HW220967   2.894   2.591   2.743 -0.6453  0.8400 -0.4301
 3111SOL     OW20968   3.726   3.268   8.119  0.6924 -0.1907 -0.2085
 3111SOL    HW120969   3.807   3.305   8.155  0.0835  1.8049 -0.8952
 3111SOL    HW220970   3.707   3.198   8.182 -1.4640 -1.0323 -1.7851
 3112SOL     OW20971   0.531   0.110  12.851 -0.4149  0.2998 -0.4636
 3112SOL    HW120972   0.546   0.015  12.852  0.0888  0.4046  2.1016
 3112SOL    HW220973   0.618   0.129  12.816  0.8907  0.8278  3.0577
 3113SOL     OW20974   2.037   3.813  15.702  0.3461  0.1353 -0.4545
 3113SOL    HW120975   1.944   3.837  15.700  0.4040  0.3793 -0.1777
 3113SOL    HW220976   2.060   3.792  15.792 -0.3089 -0.9478 -0.5281
 3114SOL     OW20977   4.115   1.844  14.346  0.2900  0.7097 -0.3833
 3114SOL    HW120978   4.110   1.824  14.440  1.4983 -3.1672 -1.1316
 3114SOL    HW220979   4.154   1.763  14.313 -0.4185 -0.5338  1.8210
 3115SOL     OW20980   0.733   0.417   0.240  0.2115  0.7093 -0.0992
 3115SOL    HW120981   0.803   0.483   0.234  1.4195 -0.6817 -1.4701
 3115SOL    HW220982   0.771   0.337   0.276 -0.0662  1.9651  3.0011
 3116SOL     OW20983   0.418   4.042   7.052  0.1774  0.4787 -0.2549
 3116SOL    HW120984   0.367   4.091   6.988 -1.1226 -0.2219  0.2470
 3116SOL    HW220985   0.341   4.015   7.101 -0.1972  0.0402 -1.0878
 3117SOL     OW20986   1.449   1.705   5.596 -0.3217  0.2797  0.0048
 3117SOL    HW120987   1.472   1.647   5.524  0.5974 -0.7523  1.1318
 3117SOL    HW220988   1.434   1.637   5.662 -1.5643 -0.8840 -1.4898
 3118SOL     OW20989   1.374   0.506   5.305 -0.3468  0.3871  0.5060
 3118SOL    HW120990   1.361   0.411   5.300 -0.9535  0.6044 -1.8115
 3118SOL    HW220991   1.457   0.519   5.259  0.0169  0.5791  1.2045
 3119SOL     OW20992   0.262   3.605  12.297 -1.1397  0.2822  0.0157
 3119SOL    HW120993   0.317   3.531  12.322  0.5822  1.0216 -1.6281
 3119SOL    HW220994   0.290   3.604  12.205 -0.4173 -1.7803  0.2591
 3120SOL     OW20995   0.773   2.103   4.701  0.3548 -0.6121 -0.1632
 3120SOL    HW120996   0.868   2.109   4.708  0.3202  0.4026 -0.5583
 3120SOL    HW220997   0.765   2.083   4.608 -0.2078  2.2687 -0.7344
 3121SOL     OW20998   1.726   3.265   6.451  0.7550  0.5132 -0.2982
 3121SOL    HW120999   1.647   3.311   6.482  0.3964  0.4570 -1.1461
 3121SOL    HW221000   1.683   3.199   6.397 -1.4989  0.2241  1.8199
 3122SOL     OW21001   4.004   3.942   0.065 -0.0509  0.4176  0.0708
 3122SOL    HW121002   3.938   3.881   0.097 -0.2736  0.6944  0.1429
 3122SOL    HW221003   4.086   3.916   0.107 -0.9985  0.9184  2.1903
 3123SOL     OW21004   2.054   2.935   5.765 -0.1157  0.5282 -0.2523
 3123SOL    HW121005   2.098   2.886   5.695  0.3722 -0.0709  0.4761
 3123SOL    HW221006   1.971   2.888   5.768  0.6340 -0.8488 -1.1490
 3124SOL     OW21007   4.108   3.560   4.432  0.6879 -0.0185 -0.2451
 3124SOL    HW121008   4.178   3.564   4.367  0.3017 -4.4507 -0.9263
 3124SOL    HW221009   4.081   3.652   4.426  1.1847  0.0709 -1.2405
 3125SOL     OW21010   2.532   3.259   1.711  0.0353  0.1192 -0.4589
 3125SOL    HW121011   2.468   3.191   1.692  0.6239 -0.7520  0.6320
 3125SOL    HW221012   2.533   3.245   1.806 -1.3492 -1.1483 -0.6255
 3126SOL     OW21013   3.389   2.724   6.710  0.8243 -0.0857 -0.6398
 3126SOL    HW121014   3.409   2.777   6.787 -0.1570 -0.4445 -0.1390
 3126SOL    HW221015   3.383   2.636   6.748 -0.0340  0.6209  0.8606
 3127SOL     OW21016   2.377   3.697   3.940  0.0884  0.7105  0.6188
 3127SOL    HW121017   2.454   3.654   3.903 -0.5960 -0.0149  0.0518
 3127SOL    HW221018   2.405   3.720   4.029  0.3004  0.5469  0.5938
 3128SOL     OW21019   3.443   1.061   7.298 -0.3066  0.2217  0.4689
 3128SOL    HW121020   3.475   1.054   7.208 -2.6058  2.3607 -0.5359
 3128SOL    HW221021   3.377   1.129   7.313  0.1266  0.5379  0.9597
 3129SOL     OW21022   3.487   0.975  13.253 -0.2940 -0.0325 -0.0196
 3129SOL    HW121023   3.527   1.045  13.305 -1.7402  0.3674  0.5662
 3129SOL    HW221024   3.406   0.955  13.300 -0.9610  0.7573 -0.8295
 3130SOL     OW21025   3.036   2.427   4.439  0.1158 -0.2425  0.7330
 3130SOL    HW121026   3.060   2.498   4.498  0.8307 -0.6394  0.9153
 3130SOL    HW221027   3.109   2.365   4.433 -1.0621 -1.6945  1.6221
 3131SOL     OW21028   0.850   2.962   4.153 -0.5727 -0.3463  0.1124
 3131SOL    HW121029   0.829   2.939   4.244  1.6793  0.4064  0.8444
 3131SOL    HW221030   0.942   2.985   4.170 -0.2778 -0.0241 -1.9254
 3132SOL     OW21031   2.852   4.144   4.329 -0.0887  0.3595 -0.0795
 3132SOL    HW121032   2.823   4.158   4.419  0.3971  3.3100 -0.3651
 3132SOL    HW221033   2.933   4.195   4.322 -0.8926  1.9488  2.4624
 3133SOL     OW21034   3.209   2.493  10.642  0.0674 -0.1542 -0.0722
 3133SOL    HW121035   3.288   2.443  10.661 -0.0027  0.6792  2.3670
 3133SOL    HW221036   3.217   2.562  10.708  0.9239  1.3887 -1.7880
 3134SOL     OW21037   1.982   3.839  13.701  0.0796 -0.4737 -0.0053
 3134SOL    HW121038   2.001   3.857  13.793  0.2808  1.7729 -0.4796
 3134SOL    HW221039   1.940   3.921  13.676 -1.7148 -1.3176  0.2682
 3135SOL     OW21040   4.266   1.472   6.163  0.6952  0.5728  0.3380
 3135SOL    HW121041   4.310   1.524   6.231 -0.4681  1.9302  0.0421
 3135SOL    HW221042   4.227   1.405   6.219 -0.4082  0.8840 -0.0752
 3136SOL     OW21043   3.174   4.025   6.914  0.0694 -0.0107 -0.0733
 3136SOL    HW121044   3.133   3.940   6.931 -0.8984  0.8449  1.8960
 3136SOL    HW221045   3.191   4.059   7.002 -1.1800  1.4938 -0.4265
 3137SOL     OW21046   2.886   4.224  12.127  0.4455 -0.0666  0.1632
 3137SOL    HW121047   2.960   4.183  12.082  0.2731 -0.3838  0.1691
 3137SOL    HW221048   2.887   4.177  12.210  3.3573 -1.0802 -0.4266
 3138SOL     OW21049   2.955   1.015   5.026 -0.2260 -0.4992 -0.5088
 3138SOL    HW121050   2.914   1.054   4.948 -0.6829 -1.4695 -0.7540
 3138SOL    HW221051   3.023   1.078   5.050  0.2067 -0.1367 -2.7104
 3139SOL     OW21052   1.065   2.540   1.665 -0.0316 -0.6734  0.1465
 3139SOL    HW121053   1.070   2.568   1.574 -0.3215  2.2018  1.0076
 3139SOL    HW221054   1.024   2.619   1.699  0.7182  0.1001 -0.7513
 3140SOL     OW21055   1.176   2.780   4.111 -0.2008  0.1158 -0.3215
 3140SOL    HW121056   1.204   2.714   4.174  0.6858 -1.3977 -2.2854
 3140SOL    HW221057   1.190   2.865   4.152 -1.2683 -0.0054  0.2984
 3141SOL     OW21058   4.046   2.983  15.445  0.3084  0.2058  0.1789
 3141SOL    HW121059   4.105   3.051  15.479 -1.1105  0.8942  1.2885
 3141SOL    HW221060   4.057   3.005  15.352  4.7268  3.4379  1.4541
 3142SOL     OW21061   1.355   4.301   0.312 -0.2074  0.1536 -0.2851
 3142SOL    HW121062   1.266   4.267   0.307  0.1117 -0.6695 -0.4155
 3142SOL    HW221063   1.375   4.301   0.218  1.1359  2.1012 -0.0097
 3143SOL     OW21064   4.294   4.307   2.823  0.4756 -0.0529 -0.8611
 3143SOL    HW121065   4.223   4.248   2.797  0.9462 -1.3443  0.7832
 3143SOL    HW221066   4.258   4.348   2.902  0.1937 -0.5523 -0.7305
 3144SOL     OW21067   0.068   2.725   4.171  0.2761  0.0358  0.7278
 3144SOL    HW121068   0.076   2.775   4.252  1.2551  1.3336 -0.1743
 3144SOL    HW221069   0.086   2.805   4.121 -1.2202  1.5740  2.7025
 3145SOL     OW21070   1.701   0.465   1.766  0.3375 -0.7096  0.4349
 3145SOL    HW121071   1.681   0.371   1.769  0.3923 -0.6137  3.0120
 3145SOL    HW221072   1.618   0.491   1.727  0.2544  0.5779  1.4912
 3146SOL     OW21073   0.262   3.992   6.170  0.0032  0.1849 -0.1687
 3146SOL    HW121074   0.344   4.006   6.218 -0.7244  0.3072  1.0397
 3146SOL    HW221075   0.213   3.928   6.221  1.9383 -2.7955 -2.0181
 3147SOL     OW21076   2.970   1.220   1.776 -0.0893 -0.0141  0.2270
 3147SOL    HW121077   3.036   1.213   1.707 -0.5317 -0.8980 -0.1108
 3147SOL    HW221078   3.000   1.292   1.831  0.9518 -1.4780  1.5719
 3148SOL     OW21079   1.889   3.295   7.799  0.5326 -0.4856  0.4302
 3148SOL    HW121080   1.855   3.222   7.747 -1.5232 -0.1265  1.3045
 3148SOL    HW221081   1.809   3.346   7.811  0.5048 -0.0809 -1.3909
 3149SOL     OW21082   0.348   4.574   5.628  0.6023  0.0647 -0.2638
 3149SOL    HW121083   0.314   4.632   5.560 -0.6572 -0.8649 -0.4185
 3149SOL    HW221084   0.375   4.644   5.688 -1.1189 -0.7054  1.3639
 3150SOL     OW21085   4.047   3.079   3.810  0.0837  0.5353  0.1382
 3150SOL    HW121086   4.019   3.089   3.901 -2.4748  0.0298 -0.6005
 3150SOL    HW221087   3.962   3.079   3.766 -0.2556 -0.4167  0.7958
 3151SOL     OW21088   2.582   2.276   7.179 -0.6526  0.1030 -0.3928
 3151SOL    HW121089   2.501   2.229   7.197  0.5144 -1.4067  0.8829
 3151SOL    HW221090   2.624   2.273   7.264 -1.0821  0.0714 -0.1829
 3152SOL     OW21091   2.720   1.046   3.428 -0.3361  0.4288 -0.2738
 3152SOL    HW121092   2.633   1.010   3.443 -0.9024  1.6561 -0.6025
 3152SOL    HW221093   2.719   1.049   3.332  1.3011  2.1166 -0.2420
 3153SOL     OW21094   3.509   0.986   4.423 -0.1160  1.0798 -0.1156
 3153SOL    HW121095   3.533   0.978   4.515 -0.1101  1.1171 -0.1142
 3153SOL    HW221096   3.419   1.008   4.447  0.1430 -1.1540  2.9113
 3154SOL     OW21097   3.917   3.237  10.199  0.5331 -0.2163  0.5055
 3154SOL    HW121098   3.930   3.142  10.195  0.1295 -0.2981  1.1925
 3154SOL    HW221099   3.876   3.253  10.114  2.2255 -2.7161 -0.8100
 3155SOL     OW21100   2.913   3.381  13.978 -0.0812 -0.3541  0.3058
 3155SOL    HW121101   2.981   3.382  13.911  1.1859 -0.7534  1.5791
 3155SOL    HW221102   2.902   3.287  13.990  0.8299 -0.3666  1.0319
 3156SOL     OW21103   0.701   0.823  12.033  0.0573  0.5270 -0.2942
 3156SOL    HW121104   0.680   0.737  12.071  3.4341 -0.6791 -1.1393
 3156SOL    HW221105   0.628   0.828  11.972  0.6067 -1.4691 -1.1203
 3157SOL     OW21106   3.749   0.771   4.548  0.8603 -0.4771 -0.2038
 3157SOL    HW121107   3.702   0.833   4.603  0.4481 -0.1519 -0.9171
 3157SOL    HW221108   3.721   0.795   4.459 -0.5926  3.5670  1.3389
 3158SOL     OW21109   1.971   0.113   7.841  0.5762  0.1051 -0.7942
 3158SOL    HW121110   1.973   0.177   7.912  1.6487 -0.1219 -0.6130
 3158SOL    HW221111   2.039   0.053   7.872 -0.2617 -1.1954 -1.4722
 3159SOL     OW21112   4.480   1.803   2.742 -0.0573  0.0302 -0.4357
 3159SOL    HW121113   4.564   1.840   2.769 -1.4881  2.0933  1.1994
 3159SOL    HW221114   4.499   1.782   2.651  3.6594 -2.6588  0.9287
 3160SOL     OW21115   2.173   0.792   2.334 -0.4853  0.1903 -0.0274
 3160SOL    HW121116   2.188   0.782   2.240  1.6941  0.8401  0.2705
 3160SOL    HW221117   2.244   0.738   2.366  1.3895  3.1660  0.8462
 3161SOL     OW21118   2.015   0.887  12.626  0.3874 -0.5301 -0.2975
 3161SOL    HW121119   1.986   0.954  12.563  1.8495 -1.0276 -1.4975
 3161SOL    HW221120   2.093   0.843  12.592 -0.7781 -1.9577 -1.1398
 3162SOL     OW21121   3.543   0.220   4.889  0.0927  0.1106 -0.6858
 3162SOL    HW121122   3.615   0.265   4.845  0.7540 -0.5329 -0.2540
 3162SOL    HW221123   3.521   0.156   4.821 -1.7646  0.5871 -0.5285
 3163SOL     OW21124   0.362   3.489   7.975 -0.0772 -0.1093  0.3186
 3163SOL    HW121125   0.406   3.497   8.060  0.1863  3.9173 -0.1848
 3163SOL    HW221126   0.272   3.463   7.998 -0.5462  0.3085 -1.0673
 3164SOL     OW21127   2.928   2.103   6.255  0.3363  0.3012  0.6194
 3164SOL    HW121128   2.863   2.046   6.215  0.7940  0.2031  0.0070
 3164SOL    HW221129   2.876   2.169   6.302 -0.6535 -1.0383  1.3751
 3165SOL     OW21130   2.505   0.667   5.621  0.1869 -0.2925 -0.1213
 3165SOL    HW121131   2.499   0.733   5.552 -0.0984  0.2771  0.4552
 3165SOL    HW221132   2.552   0.597   5.576  2.6626  0.1318  1.7824
 3166SOL     OW21133   2.427   1.616   9.020 -0.0567 -0.0227  0.2295
 3166SOL    HW121134   2.451   1.654   8.935  0.3724 -0.8370 -0.0138
 3166SOL    HW221135   2.443   1.696   9.070  0.4586  1.3665 -2.1441
 3167SOL     OW21136   4.014   1.717  15.574  0.0096 -0.3355  0.3319
 3167SOL    HW121137   4.052   1.642  15.528  1.2782  0.6389 -0.2007
 3167SOL    HW221138   3.966   1.769  15.510 -0.9798 -1.6945 -0.0161
 3168SOL     OW21139   1.692   3.016  10.990 -0.2799 -0.0056 -0.8087
 3168SOL    HW121140   1.716   2.957  11.061 -0.8490  1.4306  0.6014
 3168SOL    HW221141   1.622   3.058  11.040  0.3073 -0.5620  0.4944
 3169SOL     OW21142   4.076   0.421   7.770 -0.6806  0.2832 -0.6207
 3169SOL    HW121143   4.081   0.510   7.806 -0.6366  0.8303 -1.9469
 3169SOL    HW221144   4.035   0.448   7.687 -2.7110  1.2826  0.7117
 3170SOL     OW21145   3.952   0.557  16.523  0.1819 -0.2082  0.0340
 3170SOL    HW121146   4.028   0.607  16.496  0.0538 -0.3560 -0.6002
 3170SOL    HW221147   3.992   0.472  16.541  0.4091 -0.6773 -2.6052
 3171SOL     OW21148   4.366   1.068  15.050  0.8984 -0.3633 -0.7395
 3171SOL    HW121149   4.279   1.031  15.061  0.9332 -0.5963 -1.2384
 3171SOL    HW221150   4.383   1.066  14.956 -2.0446 -1.2910 -1.2431
 3172SOL     OW21151   1.140   2.280  12.419 -0.1595 -0.4738  0.8121
 3172SOL    HW121152   1.179   2.206  12.372 -1.5936 -0.7035 -0.0368
 3172SOL    HW221153   1.168   2.352  12.362  1.1821 -1.3595  0.3446
 3173SOL     OW21154   1.284   2.491  15.389 -0.1375 -0.3711 -0.2939
 3173SOL    HW121155   1.314   2.568  15.342 -1.7468  1.7240  2.1024
 3173SOL    HW221156   1.368   2.473  15.431 -0.5917 -0.4262  0.6004
 3174SOL     OW21157   2.715   1.596  10.198 -0.5161 -0.6111 -0.2089
 3174SOL    HW121158   2.660   1.640  10.264  0.9246 -1.6701  1.7066
 3174SOL    HW221159   2.728   1.518  10.253  1.8573  0.6858  1.0795
 3175SOL     OW21160   0.483   3.692   0.897 -0.2890 -0.2379 -0.0212
 3175SOL    HW121161   0.529   3.687   0.981  0.6364  0.8477 -0.4673
 3175SOL    HW221162   0.397   3.659   0.923  0.0042 -2.2301 -1.5351
 3176SOL     OW21163   1.584   2.859  11.837  0.1764  0.3308  0.4871
 3176SOL    HW121164   1.641   2.836  11.763  1.0615 -2.3147  1.9931
 3176SOL    HW221165   1.629   2.931  11.882  4.5784 -1.5653 -0.8563
 3177SOL     OW21166   2.109   3.954   0.525 -0.3176 -0.6073 -0.2461
 3177SOL    HW121167   2.105   3.864   0.558  2.2360  0.5539  3.2419
 3177SOL    HW221168   2.128   4.004   0.605  1.4626 -1.8138  0.0793
 3178SOL     OW21169   1.075   3.108   9.491 -0.2587  0.0701 -0.4047
 3178SOL    HW121170   0.999   3.165   9.473 -0.9142 -0.5296  0.4390
 3178SOL    HW221171   1.047   3.072   9.575  0.7015  0.8193  0.2443
 3179SOL     OW21172   2.202   4.229  15.317  0.4734  0.1984  0.1145
 3179SOL    HW121173   2.180   4.236  15.409  0.5189 -0.2886  0.1636
 3179SOL    HW221174   2.158   4.146  15.300 -0.3438  0.2012  2.2366
 3180SOL     OW21175   4.074   2.811  13.192 -0.0737 -0.3500 -0.7250
 3180SOL    HW121176   4.014   2.760  13.247 -0.7295  0.8061 -0.3755
 3180SOL    HW221177   4.160   2.796  13.230  0.0322  2.1602 -0.0186
 3181SOL     OW21178   3.199   2.076   5.008 -0.0396 -0.0245 -0.5498
 3181SOL    HW121179   3.196   2.056   5.102  1.5371 -0.2660 -0.5395
 3181SOL    HW221180   3.275   2.134   4.999  1.7102 -2.3113 -0.6634
 3182SOL     OW21181   2.070   0.281   3.800 -0.0682  0.1758  0.0634
 3182SOL    HW121182   2.031   0.288   3.713 -0.1353 -2.8320 -0.1517
 3182SOL    HW221183   2.045   0.191   3.817  0.0264  0.1855  0.2523
 3183SOL     OW21184   0.143   1.568   7.894 -0.1452 -0.0619  0.1403
 3183SOL    HW121185   0.082   1.507   7.852 -1.7859  1.5772  0.1267
 3183SOL    HW221186   0.164   1.520   7.975 -2.5916 -0.9755  0.2494
 3184SOL     OW21187   4.410   3.640   1.365  0.3244  0.1858 -0.0218
 3184SOL    HW121188   4.360   3.585   1.426 -0.5559  1.8471  0.7829
 3184SOL    HW221189   4.424   3.720   1.416  0.5644 -0.8398  1.5213
 3185SOL     OW21190   0.024   3.229   1.428  0.1047  0.0417 -0.2149
 3185SOL    HW121191   0.091   3.235   1.360  0.7479  1.1270  0.5196
 3185SOL    HW221192   4.691   3.256   1.371  1.2674 -1.8444 -2.5363
 3186SOL     OW21193   1.534   3.019   9.967  0.4241 -0.4751  0.2047
 3186SOL    HW121194   1.550   2.997   9.875 -1.7118 -2.3202  0.2701
 3186SOL    HW221195   1.486   3.100   9.952  0.0668 -0.6040  0.6426
 3187SOL     OW21196   1.888   0.443   8.618 -0.2333  0.5484 -0.5471
 3187SOL    HW121197   1.851   0.356   8.605 -1.1077  0.8981 -0.4460
 3187SOL    HW221198   1.938   0.431   8.699  0.1177  1.0912 -0.6853
 3188SOL     OW21199   2.196   2.461  10.859 -0.6258 -0.2588  0.5375
 3188SOL    HW121200   2.114   2.418  10.883 -0.8966 -0.6019 -0.9733
 3188SOL    HW221201   2.182   2.458  10.764 -1.1807  0.3053  0.6030
 3189SOL     OW21202   2.632   3.275  15.075 -0.0935  0.6232  0.2842
 3189SOL    HW121203   2.644   3.360  15.117 -1.1669  0.8982  0.0614
 3189SOL    HW221204   2.536   3.275  15.084 -0.0336 -0.6548  0.8850
 3190SOL     OW21205   3.089   1.120  16.959  0.2110 -0.0896 -0.1088
 3190SOL    HW121206   3.037   1.134  17.038  1.9635  1.1415  0.8107
 3190SOL    HW221207   3.173   1.152  16.993  0.4671 -0.4294 -0.4189
 3191SOL     OW21208   2.922   2.006  11.170  0.3450 -0.3066 -0.0199
 3191SOL    HW121209   3.007   2.033  11.204 -0.3247  0.0339  1.3659
 3191SOL    HW221210   2.868   1.992  11.248 -1.2328  2.0252 -0.7007
 3192SOL     OW21211   2.055   3.866   8.199 -0.6520 -0.1728 -0.1381
 3192SOL    HW121212   2.121   3.874   8.131 -1.1128 -1.2042 -0.7141
 3192SOL    HW221213   2.073   3.950   8.240 -3.0705 -0.2644  1.1241
 3193SOL     OW21214   3.482   0.616   1.584  0.1095 -0.1902 -0.7253
 3193SOL    HW121215   3.451   0.593   1.497 -1.7432 -0.7665  0.0851
 3193SOL    HW221216   3.436   0.699   1.598  0.5685 -0.4030  2.1197
 3194SOL     OW21217   2.984   4.412   0.301 -0.4426  0.1350 -0.4223
 3194SOL    HW121218   3.030   4.426   0.383  0.7061  0.9409 -1.2073
 3194SOL    HW221219   2.964   4.503   0.279 -0.9252  0.5405  1.7796
 3195SOL     OW21220   3.959   4.145  10.221 -0.4418  0.6530 -0.0342
 3195SOL    HW121221   3.886   4.085  10.236 -0.7225  0.9864 -0.0408
 3195SOL    HW221222   3.933   4.221  10.274  0.5149  0.5716  0.5440
 3196SOL     OW21223   1.360   0.208   1.916  0.3286 -0.2221  0.5180
 3196SOL    HW121224   1.339   0.122   1.880  0.8694 -0.2945  0.3715
 3196SOL    HW221225   1.433   0.192   1.976 -0.1528 -2.7507  0.4087
 3197SOL     OW21226   0.490   3.156   8.997 -0.2621 -0.1447  0.1182
 3197SOL    HW121227   0.541   3.220   9.046  1.2438 -0.8005 -0.5862
 3197SOL    HW221228   0.559   3.097   8.967  0.3957  0.6729  0.0227
 3198SOL     OW21229   0.466   0.024   5.467 -0.1754 -0.4660  0.2630
 3198SOL    HW121230   0.551   4.736   5.433  0.9415  0.3847  2.3715
 3198SOL    HW221231   0.478   0.005   5.560  2.4018  1.7080  0.3360
 3199SOL     OW21232   0.906   3.702   8.592  0.3724 -0.1229  0.1902
 3199SOL    HW121233   0.874   3.694   8.502 -1.1569  0.9325  0.6396
 3199SOL    HW221234   0.848   3.648   8.645  1.8533 -0.1463  1.7864
 3200SOL     OW21235   4.674   2.040  13.030  0.3152  0.0499  0.2097
 3200SOL    HW121236   4.632   2.040  13.116  2.1125 -0.7742  1.0956
 3200SOL    HW221237   0.009   2.098  13.049 -0.0258  0.7890 -0.6731
 3201SOL     OW21238   0.092   3.876  12.767 -0.4712 -0.4715 -0.8072
 3201SOL    HW121239   0.023   3.822  12.806 -1.3812  2.1719  1.3221
 3201SOL    HW221240   0.153   3.810  12.734 -1.4525 -1.8528  0.1396
 3202SOL     OW21241   2.697   1.810  10.389 -0.8498  0.5839 -0.4503
 3202SOL    HW121242   2.667   1.899  10.375 -3.2928 -0.2412 -0.4570
 3202SOL    HW221243   2.788   1.818  10.360 -0.4729 -0.9032  0.3167
 3203SOL     OW21244   0.388   3.803  17.242  0.1089 -0.4784 -0.6355
 3203SOL    HW121245   0.302   3.846  17.240 -0.5910 -1.8894 -1.0091
 3203SOL    HW221246   0.382   3.737  17.173  0.3743 -1.5290  0.3421
 3204SOL     OW21247   1.242   1.951   6.633  0.0440 -0.4901  0.4107
 3204SOL    HW121248   1.261   1.862   6.604  1.7549  0.7623 -2.2780
 3204SOL    HW221249   1.193   1.984   6.558  0.4579 -1.2656 -0.1939
 3205SOL     OW21250   0.143   3.765   6.335  0.5753 -0.7628 -0.0559
 3205SOL    HW121251   0.056   3.777   6.372  0.8713  0.3024  0.2900
 3205SOL    HW221252   0.135   3.695   6.270 -2.3951 -0.2400 -0.2543
 3206SOL     OW21253   4.028   1.294   6.866  0.4771 -0.0932  0.1355
 3206SOL    HW121254   3.959   1.357   6.847  0.9173  0.5526  0.7109
 3206SOL    HW221255   4.085   1.306   6.790 -0.2221 -0.9049 -0.5138
 3207SOL     OW21256   2.084   4.011   1.727 -0.7035  0.4599  0.3047
 3207SOL    HW121257   2.077   4.101   1.759 -0.8703  0.2468  0.8785
 3207SOL    HW221258   2.014   4.020   1.663 -1.0887 -1.2063  0.4914
 3208SOL     OW21259   2.981   3.037   2.993  0.5607  0.4703 -0.0780
 3208SOL    HW121260   3.010   2.976   3.061  2.3676  0.2317 -1.0782
 3208SOL    HW221261   2.930   3.086   3.058 -0.9115  3.0512 -3.1966
 3209SOL     OW21262   0.204   3.459   4.427 -0.3106  0.3552 -0.2724
 3209SOL    HW121263   0.233   3.385   4.374  0.1672  0.7932 -0.6239
 3209SOL    HW221264   0.144   3.498   4.364 -1.0805 -2.2899 -1.1608
 3210SOL     OW21265   1.844   3.950   6.811 -0.2904  0.1174 -0.2949
 3210SOL    HW121266   1.931   3.952   6.772 -0.3253 -1.9193 -0.4807
 3210SOL    HW221267   1.855   3.917   6.900  1.0832 -1.2523 -0.9762
 3211SOL     OW21268   2.403   4.341   4.143 -0.0817  0.2570  0.1633
 3211SOL    HW121269   2.372   4.425   4.108  1.4647  2.0476  3.1225
 3211SOL    HW221270   2.434   4.300   4.062 -3.0275  0.9016 -1.2710
 3212SOL     OW21271   0.906   1.250   2.692  0.2851 -0.0484  0.3670
 3212SOL    HW121272   0.993   1.219   2.714  0.6843 -0.2672 -1.4813
 3212SOL    HW221273   0.921   1.326   2.636  1.3389 -0.2100  0.4440
 3213SOL     OW21274   4.119   2.272   2.734 -0.1885  0.6500  0.2907
 3213SOL    HW121275   4.169   2.200   2.773  0.2207 -1.1468 -3.4985
 3213SOL    HW221276   4.122   2.251   2.640 -2.4370 -0.2130  0.4178
 3214SOL     OW21277   2.941   0.404   7.922 -0.1607 -0.0343  0.2949
 3214SOL    HW121278   2.906   0.354   7.996 -0.2324 -1.2876 -0.5940
 3214SOL    HW221279   2.862   0.446   7.887 -0.5212 -0.9850 -0.0416
 3215SOL     OW21280   0.806   0.261   4.185  0.0280  0.2353 -0.0716
 3215SOL    HW121281   0.879   0.204   4.159  0.5229  0.2240  1.3506
 3215SOL    HW221282   0.726   0.209   4.175 -0.0206  0.4218 -0.6843
 3216SOL     OW21283   0.005   3.238   7.883 -0.3180  0.0779  0.3732
 3216SOL    HW121284   0.048   3.199   7.806 -0.4619  2.7114 -1.0169
 3216SOL    HW221285   4.654   3.238   7.852  0.1109  2.0486 -0.8992
 3217SOL     OW21286   0.266   1.796   2.766 -0.0713 -0.4254 -0.3280
 3217SOL    HW121287   0.274   1.818   2.859  1.5962 -1.2267 -0.2743
 3217SOL    HW221288   0.343   1.842   2.735  0.0636 -1.5075 -1.5870
 3218SOL     OW21289   1.863   4.287   2.381 -0.5959  0.1882  0.4303
 3218SOL    HW121290   1.827   4.296   2.469 -0.5857  0.8386  0.3742
 3218SOL    HW221291   1.916   4.207   2.386 -0.5899  0.2389  1.2184
 3219SOL     OW21292   0.571   1.078  14.564 -0.0995 -0.5030  0.2178
 3219SOL    HW121293   0.534   1.025  14.493 -1.5506 -3.5184  3.2722
 3219SOL    HW221294   0.623   1.009  14.605  0.8156 -1.3973 -2.3904
 3220SOL     OW21295   3.786   1.989   4.088 -0.4645  0.3811  0.3972
 3220SOL    HW121296   3.813   1.931   4.017  2.5463  0.4697  1.4734
 3220SOL    HW221297   3.774   2.072   4.042  1.3388  1.5933  2.1524
 3221SOL     OW21298   0.948   1.961  11.584 -0.1788  0.3860  0.5709
 3221SOL    HW121299   0.952   1.894  11.652 -0.3541 -0.1223  0.0763
 3221SOL    HW221300   0.887   1.928  11.518  1.6601 -0.8471 -0.5127
 3222SOL     OW21301   2.400   2.578   1.372 -0.2353  0.0536  0.1298
 3222SOL    HW121302   2.307   2.556   1.374  0.1287 -1.5610 -1.1347
 3222SOL    HW221303   2.406   2.632   1.451  0.6575 -0.9417  0.7357
 3223SOL     OW21304   3.896   1.725  12.008  0.5753 -0.5941  0.0914
 3223SOL    HW121305   3.966   1.710  12.071  0.5999 -0.0139  0.1984
 3223SOL    HW221306   3.923   1.798  11.953 -0.5688  0.8154  1.4016
 3224SOL     OW21307   2.429   2.746  10.103 -0.6816  0.5955  0.3066
 3224SOL    HW121308   2.367   2.819  10.100 -2.6272 -1.1678 -2.5037
 3224SOL    HW221309   2.446   2.744  10.197  1.4711 -1.7488 -0.1208
 3225SOL     OW21310   3.602   0.511   7.090 -0.4915 -0.1751 -0.1477
 3225SOL    HW121311   3.694   0.489   7.105 -0.4127 -1.7481 -2.8737
 3225SOL    HW221312   3.557   0.432   7.120 -0.6448 -0.3432 -0.8109
 3226SOL     OW21313   0.053   4.087   8.116  0.2762  0.3720  0.6571
 3226SOL    HW121314   0.044   4.112   8.208 -0.5597 -0.2883  0.7540
 3226SOL    HW221315   0.044   4.176   8.083 -1.6864 -0.2747 -0.4987
 3227SOL     OW21316   2.193   1.619   3.397  0.5766 -0.1638  0.1373
 3227SOL    HW121317   2.257   1.687   3.418 -0.2126  0.8023 -0.5768
 3227SOL    HW221318   2.250   1.555   3.354  0.6213 -0.5350  0.7559
 3228SOL     OW21319   0.252   1.205  10.131  0.3998  0.0843 -0.3635
 3228SOL    HW121320   0.302   1.145  10.188 -1.2901 -0.2930  0.7078
 3228SOL    HW221321   0.313   1.279  10.130 -0.4931  0.8547  1.0829
 3229SOL     OW21322   4.133   0.854   8.644 -0.1031  0.6413  0.1919
 3229SOL    HW121323   4.176   0.939   8.634  0.0384  0.5601  0.1163
 3229SOL    HW221324   4.171   0.804   8.572  1.3544 -0.0416  1.4350
 3230SOL     OW21325   1.167   1.024   7.433 -0.6410  0.2074 -0.0994
 3230SOL    HW121326   1.205   0.989   7.514  1.0943  0.5920 -0.7282
 3230SOL    HW221327   1.103   1.086   7.467  0.1533  1.3413 -0.6432
 3231SOL     OW21328   0.506   3.854   5.830  0.3416 -0.2283  0.3038
 3231SOL    HW121329   0.540   3.861   5.741  2.2029 -0.5973  1.0024
 3231SOL    HW221330   0.589   3.864   5.876  0.6356  1.0698 -0.5200
 3232SOL     OW21331   4.664   1.356   8.679  0.4672  0.3413  0.2541
 3232SOL    HW121332   4.622   1.432   8.720 -0.7380  1.4663 -3.0239
 3232SOL    HW221333   4.655   1.385   8.588 -0.2579 -0.9928 -0.1052
 3233SOL     OW21334   0.241   4.305   1.938  0.8783  0.3091 -0.0138
 3233SOL    HW121335   0.234   4.393   1.900  0.1583  0.5266  0.6155
 3233SOL    HW221336   0.183   4.260   1.876  1.8717 -0.6682 -0.2363
 3234SOL     OW21337   1.331   2.223   3.128  0.0326  0.2613 -0.6453
 3234SOL    HW121338   1.386   2.179   3.193  1.8681 -0.6666 -2.8364
 3234SOL    HW221339   1.269   2.277   3.177 -0.5454 -0.8689 -0.1142
 3235SOL     OW21340   2.153   3.794  12.093  0.3732 -0.2425 -0.7423
 3235SOL    HW121341   2.153   3.701  12.118 -0.1612  0.2560  1.0409
 3235SOL    HW221342   2.232   3.824  12.137 -1.0662  1.0378  0.9444
 3236SOL     OW21343   2.970   3.505  11.823  0.3095  0.0475 -0.2522
 3236SOL    HW121344   2.973   3.416  11.788 -0.3435  0.2240 -0.7602
 3236SOL    HW221345   3.027   3.490  11.898 -0.8675  2.1519  1.0661
 3237SOL     OW21346   1.854   4.706   7.108  0.2637 -0.4117 -0.0751
 3237SOL    HW121347   1.891   4.692   7.021 -0.8424  1.4226 -0.8525
 3237SOL    HW221348   1.890   0.054   7.120  1.4365 -0.5663 -2.5335
 3238SOL     OW21349   1.857   4.291   0.445  0.1301  0.0707  0.2062
 3238SOL    HW121350   1.938   4.315   0.399  1.3476 -1.6612  1.4327
 3238SOL    HW221351   1.877   4.321   0.533 -2.1270  0.6448  0.5174
 3239SOL     OW21352   0.476   0.040  17.378 -0.0957 -0.1276  0.6432
 3239SOL    HW121353   0.490   4.687  17.360  1.1104 -0.2602  2.2712
 3239SOL    HW221354   0.566   0.068  17.390 -0.0799 -0.3888  1.1099
 3240SOL     OW21355   4.585   1.994   1.270  0.0101 -0.0516 -0.6654
 3240SOL    HW121356   4.498   1.972   1.237 -0.5888  0.4872  0.5125
 3240SOL    HW221357   4.639   2.007   1.192  1.3238 -1.8241 -0.0543
 3241SOL     OW21358   4.189   4.057   9.161  0.2828  0.1509  0.2211
 3241SOL    HW121359   4.095   4.039   9.164  0.5722 -0.9650  2.2081
 3241SOL    HW221360   4.226   3.992   9.220 -2.0089 -1.6018 -0.2834
 3242SOL     OW21361   3.000   2.639   9.496 -0.5623 -0.3335  0.0247
 3242SOL    HW121362   3.059   2.580   9.543  1.2649  2.4689  1.2437
 3242SOL    HW221363   3.004   2.606   9.406  2.5242  1.8742 -0.6572
 3243SOL     OW21364   0.073   1.115   8.604  0.3895  0.0944  0.4464
 3243SOL    HW121365   0.004   1.071   8.554 -0.0740  2.7997 -1.2875
 3243SOL    HW221366   0.022   1.195   8.615  2.3924  1.4001  0.3174
 3244SOL     OW21367   4.061   0.534   8.440  0.3270  0.7577  0.3839
 3244SOL    HW121368   4.121   0.462   8.457  1.2201  2.2200  3.3318
 3244SOL    HW221369   3.983   0.479   8.439  1.8869 -1.4421 -0.4000
 3245SOL     OW21370   0.731   4.401   7.041 -0.6413 -0.8411  0.0673
 3245SOL    HW121371   0.767   4.441   7.120  0.2434 -1.6815  0.0841
 3245SOL    HW221372   0.710   4.317   7.082  3.6751 -1.5405  0.7984
 3246SOL     OW21373   1.037   0.048   9.887 -0.2271  0.0078 -0.1624
 3246SOL    HW121374   1.023   4.724   9.957  0.2711  1.6858  1.4765
 3246SOL    HW221375   1.101   0.110   9.922  0.3177  0.0097 -1.1525
 3247SOL     OW21376   2.094   3.333   3.788 -0.0307 -0.0894 -0.0830
 3247SOL    HW121377   2.154   3.330   3.713 -0.5495  0.0602 -0.5091
 3247SOL    HW221378   2.150   3.356   3.862  0.7479 -1.6484 -0.1801
 3248SOL     OW21379   4.466   3.863  13.211  0.3188 -0.4422 -0.1148
 3248SOL    HW121380   4.378   3.899  13.218  0.4753 -0.1558  0.3929
 3248SOL    HW221381   4.518   3.912  13.274  2.2479 -0.9954 -1.2672
 3249SOL     OW21382   4.653   0.013   2.906 -0.3133  0.5622 -0.3929
 3249SOL    HW121383   4.697   0.046   2.984 -1.4292 -1.1425  0.9920
 3249SOL    HW221384   4.598   0.083   2.871 -0.9493 -1.1410 -2.8637
 3250SOL     OW21385   0.300   1.794   1.294  0.6827 -0.1479  0.4605
 3250SOL    HW121386   0.234   1.852   1.333 -1.6546 -2.0641 -0.6146
 3250SOL    HW221387   0.378   1.821   1.342  0.4476  0.2340  0.6335
 3251SOL     OW21388   2.909   0.557  17.326 -0.1271  0.0896  0.2183
 3251SOL    HW121389   2.827   0.599  17.303  0.8089  0.2025 -2.8867
 3251SOL    HW221390   2.939   0.531  17.239  1.9005  0.7085  0.7125
 3252SOL     OW21391   3.887   0.040   6.792  0.2736  0.0433  0.2193
 3252SOL    HW121392   3.873   0.135   6.791 -1.8966 -0.2612  0.2553
 3252SOL    HW221393   3.982   0.036   6.801  0.3355  1.3305  0.2344
 3253SOL     OW21394   2.930   4.478   0.837  0.0340  0.1544  0.3640
 3253SOL    HW121395   2.882   4.410   0.883  1.8696  0.1317  2.2501
 3253SOL    HW221396   2.868   4.488   0.765 -1.7357  0.0934  1.8677
 3254SOL     OW21397   2.840   3.352   1.851 -0.4499 -0.5590  0.3074
 3254SOL    HW121398   2.880   3.285   1.796 -2.6589 -1.2879 -0.3804
 3254SOL    HW221399   2.860   3.315   1.937 -0.7902  0.2354  0.7327
 3255SOL     OW21400   1.561   2.886   2.078 -0.5974 -1.0821 -0.7520
 3255SOL    HW121401   1.644   2.928   2.055 -1.2565  1.1830  0.9777
 3255SOL    HW221402   1.492   2.918   2.019 -0.0357  1.2662 -0.1226
 3256SOL     OW21403   1.799   4.395   7.779  0.0865 -0.6795  0.5611
 3256SOL    HW121404   1.737   4.341   7.729 -1.4542  0.3719  1.3622
 3256SOL    HW221405   1.846   4.428   7.702 -0.2227  2.2601  1.6367
 3257SOL     OW21406   2.492   4.526   6.551  0.1890 -0.0695 -0.0617
 3257SOL    HW121407   2.544   4.494   6.624  3.2238  1.9710 -1.3485
 3257SOL    HW221408   2.429   4.587   6.589 -0.7018  0.8365 -2.9452
 3258SOL     OW21409   2.884   0.237   1.684  0.1667 -0.1185  0.7018
 3258SOL    HW121410   2.909   0.150   1.654 -0.0287 -0.3451  1.1939
 3258SOL    HW221411   2.930   0.287   1.617  1.5838  0.0107  1.7670
 3259SOL     OW21412   2.420   3.725   4.837  0.1182 -0.0199 -0.1801
 3259SOL    HW121413   2.349   3.682   4.884 -1.1071  2.2418 -0.0032
 3259SOL    HW221414   2.401   3.693   4.749  2.1572  0.1295 -0.6743
 3260SOL     OW21415   2.026   2.833   7.210  0.4454 -0.3689 -0.5637
 3260SOL    HW121416   1.975   2.876   7.280  1.1869  1.3806 -1.1058
 3260SOL    HW221417   2.020   2.898   7.141 -0.7694  1.9136  1.6926
 3261SOL     OW21418   0.019   2.797   8.593 -0.5665  0.1312  0.5375
 3261SOL    HW121419   0.113   2.795   8.575 -0.9152 -0.1086 -1.2830
 3261SOL    HW221420   0.009   2.726   8.657  0.0210 -0.2548  0.1983
 3262SOL     OW21421   1.992   0.374  17.180  0.1377 -0.3439  0.1759
 3262SOL    HW121422   2.077   0.411  17.205  0.3626  0.5339 -1.8996
 3262SOL    HW221423   2.006   0.325  17.099 -0.7479  1.3474 -0.9848
 3263SOL     OW21424   1.408   3.053  10.332 -0.0271  0.4788 -0.3284
 3263SOL    HW121425   1.459   3.126  10.296  3.4371  0.2376  4.1391
 3263SOL    HW221426   1.366   3.084  10.412  1.2198 -2.8040  1.5754
 3264SOL     OW21427   0.972   2.322   9.044  0.2288 -0.5460  0.1494
 3264SOL    HW121428   0.986   2.251   8.981 -0.4119 -1.9158  1.5412
 3264SOL    HW221429   0.921   2.271   9.107 -1.7282 -0.9591 -1.7588
 3265SOL     OW21430   2.545   3.300  14.042 -0.6896 -0.3037  0.2369
 3265SOL    HW121431   2.572   3.226  13.987 -1.1628  0.6674 -1.2942
 3265SOL    HW221432   2.628   3.317  14.087 -0.9270 -0.4753  0.7383
 3266SOL     OW21433   1.461   1.911  14.846 -0.6570  0.0514 -0.3163
 3266SOL    HW121434   1.469   1.828  14.893 -0.6110 -1.2739 -2.6612
 3266SOL    HW221435   1.460   1.872  14.758  2.8108 -1.1438  0.1975
 3267SOL     OW21436   4.713   3.671   2.420  0.3876 -0.0817 -0.2017
 3267SOL    HW121437   4.636   3.703   2.373 -1.1817  0.0391  2.5003
 3267SOL    HW221438   4.679   3.586   2.447  0.8680 -0.0097  0.6438
 3268SOL     OW21439   3.725   2.640   4.861 -0.5860  0.1768  0.2529
 3268SOL    HW121440   3.725   2.669   4.952  0.5659  1.4537 -0.1664
 3268SOL    HW221441   3.671   2.562   4.875 -0.5349  0.2803  1.0171
 3269SOL     OW21442   1.809   4.489   6.771  0.3871 -0.1927  0.2418
 3269SOL    HW121443   1.836   4.499   6.680  2.2529  0.4613  0.8528
 3269SOL    HW221444   1.854   4.408   6.795  2.2267  0.5122 -0.8451
 3270SOL     OW21445   3.269   1.277   7.306  0.1707  0.6268 -0.1918
 3270SOL    HW121446   3.177   1.252   7.308  0.5415 -0.8241 -1.5015
 3270SOL    HW221447   3.294   1.273   7.398  1.5491 -0.8296 -0.6356
 3271SOL     OW21448   2.975   0.293   6.668  0.3136 -0.4403  0.2142
 3271SOL    HW121449   2.993   0.344   6.589 -2.3391  0.1497 -0.0036
 3271SOL    HW221450   2.900   0.241   6.641  0.8408  0.3441 -2.7553
 3272SOL     OW21451   2.772   2.085   8.778  0.0696  0.1237  0.2716
 3272SOL    HW121452   2.689   2.061   8.819  0.6225 -1.4573  0.4836
 3272SOL    HW221453   2.829   2.033   8.835 -0.2310 -0.9396 -0.3826
 3273SOL     OW21454   3.826   0.092   4.075 -0.6216 -0.1759 -0.0914
 3273SOL    HW121455   3.857   0.182   4.060 -1.7515  0.1163 -0.6627
 3273SOL    HW221456   3.753   0.073   4.017  1.6237  0.4211 -3.0813
 3274SOL     OW21457   2.939   1.390  10.092  0.1591 -0.2667 -0.6368
 3274SOL    HW121458   2.856   1.346  10.072  0.7898 -1.5256 -0.5034
 3274SOL    HW221459   2.977   1.409  10.007  1.2774  0.0136 -0.0699
 3275SOL     OW21460   1.924   3.830   1.901 -0.4254  0.8343  0.4862
 3275SOL    HW121461   1.975   3.895   1.852  0.1688  0.3782  0.4941
 3275SOL    HW221462   1.992   3.767   1.926 -1.4345 -0.4713 -0.0358
 3276SOL     OW21463   1.769   1.613   6.703 -0.3517  0.5675 -0.0599
 3276SOL    HW121464   1.734   1.689   6.750  0.9871  0.3847  1.2278
 3276SOL    HW221465   1.715   1.627   6.625 -0.6778  1.4454  0.3250
 3277SOL     OW21466   4.711   2.411   2.629  0.0452 -0.0634 -0.3213
 3277SOL    HW121467   0.059   2.429   2.596  0.1756  0.4342  0.2848
 3277SOL    HW221468   4.658   2.427   2.551 -0.1449 -0.1822 -0.2155
 3278SOL     OW21469   1.120   3.836  14.867 -0.0003 -0.4133  0.0410
 3278SOL    HW121470   1.212   3.813  14.881  0.3391  0.2972 -1.0011
 3278SOL    HW221471   1.097   3.766  14.806  0.4909  0.5921 -1.3037
 3279SOL     OW21472   0.808   1.078   6.094  0.2029 -0.1596  0.2455
 3279SOL    HW121473   0.762   1.014   6.148  0.8093  1.0477  2.2069
 3279SOL    HW221474   0.765   1.055   6.012  1.9772  0.5946 -0.9152
 3280SOL     OW21475   2.616   1.492   2.219 -0.5193 -0.5777  0.0708
 3280SOL    HW121476   2.533   1.447   2.199  0.8159 -3.4247  1.0131
 3280SOL    HW221477   2.675   1.438   2.167  0.5119  1.0912 -0.5138
 3281SOL     OW21478   2.699   1.150   1.795 -0.0165 -0.1406  0.0538
 3281SOL    HW121479   2.792   1.168   1.778 -0.2468 -0.2703 -1.3387
 3281SOL    HW221480   2.694   1.155   1.890  2.0574  1.3872  0.0991
 3282SOL     OW21481   3.703   1.776   1.988 -0.3149  0.0793  0.3406
 3282SOL    HW121482   3.799   1.779   1.981 -0.2711 -0.6724  0.7395
 3282SOL    HW221483   3.686   1.720   2.063 -0.7325 -0.3351 -0.0658
 3283SOL     OW21484   3.297   0.502   4.589  0.6309 -0.5687 -0.3560
 3283SOL    HW121485   3.381   0.497   4.543  1.4789  1.6332  0.9632
 3283SOL    HW221486   3.279   0.596   4.583 -0.4468 -0.8339 -1.1056
 3284SOL     OW21487   2.659   1.416   6.268  0.2118 -0.4757 -0.4963
 3284SOL    HW121488   2.732   1.448   6.216  0.3001 -1.5162 -1.0158
 3284SOL    HW221489   2.676   1.467   6.347 -2.0290 -0.8301  0.2225
 3285SOL     OW21490   3.002   1.876   2.084  0.4106  0.7170  0.1525
 3285SOL    HW121491   3.096   1.868   2.067 -0.0380  2.2143 -3.1135
 3285SOL    HW221492   2.999   1.947   2.148  1.7845 -0.1209  1.1447
 3286SOL     OW21493   1.914   0.812   3.421 -0.4760 -0.4674 -0.2984
 3286SOL    HW121494   1.999   0.850   3.443  0.1748 -2.1695  0.1532
 3286SOL    HW221495   1.866   0.894   3.411  1.8015  1.0023  0.7219
 3287SOL     OW21496   4.462   0.729  13.552 -0.2563  0.5535 -0.1110
 3287SOL    HW121497   4.377   0.756  13.588 -0.9441 -1.5913 -0.1075
 3287SOL    HW221498   4.440   0.638  13.528  0.0884  1.2935 -3.2006
 3288SOL     OW21499   1.920   3.320   9.685 -0.2992  0.7923  0.4417
 3288SOL    HW121500   1.991   3.313   9.749 -1.3315 -3.4651  1.1400
 3288SOL    HW221501   1.955   3.349   9.601 -0.7551 -0.3623 -0.1532
 3289SOL     OW21502   3.786   3.476   0.962  0.0643 -0.4791 -0.2388
 3289SOL    HW121503   3.823   3.452   1.046 -1.6573 -0.8432  0.4184
 3289SOL    HW221504   3.846   3.438   0.898  1.1714  1.1124 -0.1396
 3290SOL     OW21505   1.124   0.885   5.538 -0.0435  0.1432 -0.1091
 3290SOL    HW121506   1.036   0.856   5.515 -0.3989  0.6974  0.5567
 3290SOL    HW221507   1.185   0.843   5.476 -0.8924 -1.0539 -0.1368
 3291SOL     OW21508   2.399   1.055   1.521  0.0653  0.0080 -0.7813
 3291SOL    HW121509   2.310   1.072   1.488 -0.5859 -2.2409 -0.1775
 3291SOL    HW221510   2.444   1.095   1.446  1.4853 -2.1903 -1.0784
 3292SOL     OW21511   3.995   2.282   4.042  0.6056 -0.3506  0.2482
 3292SOL    HW121512   4.045   2.231   4.106  3.2873  0.0913 -1.4502
 3292SOL    HW221513   4.052   2.356   4.022 -3.7851  2.0178 -3.2541
 3293SOL     OW21514   1.962   4.158   7.566  0.1121 -0.2809  0.5500
 3293SOL    HW121515   1.961   4.250   7.592 -0.0045  0.3394 -1.6029
 3293SOL    HW221516   2.027   4.174   7.497  2.0784  0.6068  2.6220
 3294SOL     OW21517   1.640   3.568   4.591 -0.1374 -0.3778  0.1292
 3294SOL    HW121518   1.591   3.589   4.511  1.2843  0.1508 -0.6002
 3294SOL    HW221519   1.711   3.516   4.553  2.7447  2.4549  1.6231
 3295SOL     OW21520   2.419   0.788   4.339  0.1350  0.6927  0.1107
 3295SOL    HW121521   2.510   0.783   4.311 -0.0875  1.3758 -0.7429
 3295SOL    HW221522   2.381   0.805   4.252 -2.7740  1.6606  1.5832
 3296SOL     OW21523   2.548   1.537   8.356 -0.0894  0.5671 -0.0943
 3296SOL    HW121524   2.490   1.567   8.286 -0.4297 -0.1859 -0.1406
 3296SOL    HW221525   2.482   1.541   8.425 -1.4263 -1.4818 -1.2496
 3297SOL     OW21526   0.515   0.950   1.078 -0.0700  0.2888  0.1503
 3297SOL    HW121527   0.546   1.001   1.003 -0.0686  0.0752  0.0056
 3297SOL    HW221528   0.598   0.933   1.124 -0.7219 -0.8681  0.9222
 3298SOL     OW21529   2.062   1.355   9.262 -0.3174  0.4632  0.1513
 3298SOL    HW121530   2.064   1.261   9.278 -1.0626  0.3842 -0.2160
 3298SOL    HW221531   2.033   1.386   9.348 -0.4886  0.5687  0.0556
 3299SOL     OW21532   3.638   2.222  16.554  0.4242  0.3703 -0.7284
 3299SOL    HW121533   3.552   2.198  16.521  0.3389 -1.5625  0.9123
 3299SOL    HW221534   3.699   2.201  16.483  1.2215 -0.2928  0.1561
 3300SOL     OW21535   3.789   0.800   3.089 -0.8808  0.4986  0.1894
 3300SOL    HW121536   3.694   0.800   3.079 -1.1371 -0.4810  2.4492
 3300SOL    HW221537   3.821   0.715   3.058 -1.0517  0.3753  0.3474
 3301SOL     OW21538   4.229   1.522   8.322 -0.0987 -0.2595  0.0058
 3301SOL    HW121539   4.158   1.465   8.354 -2.2946  1.2351 -2.1715
 3301SOL    HW221540   4.236   1.482   8.236 -0.4696  0.4900 -0.3698
 3302SOL     OW21541   3.092   4.434   1.337  0.2253  0.4227  0.6095
 3302SOL    HW121542   3.053   4.468   1.256  2.1475  0.1412 -0.4502
 3302SOL    HW221543   3.128   4.351   1.305  1.6718  0.4384  2.2356
 3303SOL     OW21544   3.364   3.018   8.175 -0.1670  0.1917  0.1196
 3303SOL    HW121545   3.459   3.014   8.186  0.1313  1.0630 -2.0650
 3303SOL    HW221546   3.341   3.108   8.197 -1.0466  0.5150 -2.1024
 3304SOL     OW21547   4.380   2.728   7.054 -0.5752  0.4754  0.1329
 3304SOL    HW121548   4.362   2.650   7.105  1.3805 -0.0815 -0.0505
 3304SOL    HW221549   4.299   2.745   7.005 -0.1909 -0.5828 -0.8756
 3305SOL     OW21550   0.617   0.585   3.418 -0.3357  0.0113 -0.3255
 3305SOL    HW121551   0.648   0.605   3.330 -0.6758  2.0348  0.0086
 3305SOL    HW221552   0.525   0.563   3.401 -0.0771 -1.6419  0.3935
 3306SOL     OW21553   2.679   3.464   1.563  0.3067 -0.0443  0.0729
 3306SOL    HW121554   2.738   3.498   1.630 -2.1711  2.5872  0.9481
 3306SOL    HW221555   2.629   3.404   1.619  1.0097  2.1300  3.0022
 3307SOL     OW21556   1.415   4.663   7.348  0.0055  0.3903 -0.1370
 3307SOL    HW121557   1.504   4.689   7.325 -0.6450  3.8684  1.2763
 3307SOL    HW221558   1.363   0.002   7.331 -0.0500  0.2902 -0.4322
 3308SOL     OW21559   0.359   2.996   9.159  0.1425 -0.0206 -0.0501
 3308SOL    HW121560   0.388   3.036   9.077  0.4581 -0.1162  0.0163
 3308SOL    HW221561   0.291   3.056   9.190 -2.0499 -1.8212 -1.3712
 3309SOL     OW21562   0.889   4.178   4.178 -0.1802  1.0154 -0.4189
 3309SOL    HW121563   0.879   4.237   4.253  2.4399  2.2974 -1.0637
 3309SOL    HW221564   0.812   4.186   4.122  0.1538  0.2118 -0.9962
 3310SOL     OW21565   1.829   3.461   3.420 -0.4463 -0.3013  0.3427
 3310SOL    HW121566   1.834   3.437   3.513  0.2484  1.0416  0.6452
 3310SOL    HW221567   1.753   3.519   3.421 -1.5806 -1.7747 -0.2897
 3311SOL     OW21568   2.246   4.633   2.042 -0.2827  0.2063  0.3264
 3311SOL    HW121569   2.242   4.675   1.955  0.6913  3.4342  1.8364
 3311SOL    HW221570   2.217   4.701   2.102 -2.6855  0.2128 -0.8309
 3312SOL     OW21571   0.589   4.323   5.600  0.1087  0.1584  0.4622
 3312SOL    HW121572   0.631   4.397   5.644 -0.2303  0.5789  0.0838
 3312SOL    HW221573   0.525   4.309   5.669 -0.9976  0.0918 -0.5801
 3313SOL     OW21574   1.623   2.140  10.686 -0.8394  0.3641 -0.0536
 3313SOL    HW121575   1.701   2.190  10.709 -0.3357  0.3190 -1.6540
 3313SOL    HW221576   1.638   2.111  10.596 -0.7983  1.3785 -0.3815
 3314SOL     OW21577   1.001   1.275   4.839 -0.5221 -0.4619  0.3617
 3314SOL    HW121578   1.021   1.193   4.885 -1.8612 -1.6206 -1.1242
 3314SOL    HW221579   1.049   1.268   4.757 -0.9656  1.2500 -0.0378
 3315SOL     OW21580   0.213   4.079   9.455 -0.4382  0.5165  0.0856
 3315SOL    HW121581   0.130   4.056   9.414 -1.3035  1.8316  1.0982
 3315SOL    HW221582   0.191   4.165   9.491 -0.8351  1.1881 -1.7752
 3316SOL     OW21583   4.443   3.351   5.711 -0.1470 -0.5290  0.5303
 3316SOL    HW121584   4.363   3.327   5.758 -2.6445  3.1541 -1.9353
 3316SOL    HW221585   4.504   3.360   5.785  1.3079  0.5336 -0.8063
 3317SOL     OW21586   1.436   4.442   7.907  0.4974  0.5716  0.0439
 3317SOL    HW121587   1.463   4.524   7.866 -1.9127  1.4727  0.2576
 3317SOL    HW221588   1.385   4.477   7.979  0.6025 -2.1104  1.4076
 3318SOL     OW21589   4.616   0.497   3.394  0.3407 -0.6126  0.3632
 3318SOL    HW121590   4.555   0.517   3.465  0.3143 -0.6395  0.3481
 3318SOL    HW221591   4.660   0.579   3.370  0.0869 -0.2865  1.0082
 3319SOL     OW21592   0.169   1.436  10.372 -0.6203 -0.1571 -0.1212
 3319SOL    HW121593   0.109   1.393  10.311 -3.2589  2.1157  0.8824
 3319SOL    HW221594   0.249   1.389  10.346 -1.6040 -1.5739 -0.5825
 3320SOL     OW21595   2.588   4.274   7.375 -0.3199  0.2376  0.0681
 3320SOL    HW121596   2.678   4.305   7.380  0.1568 -1.0565 -0.6512
 3320SOL    HW221597   2.560   4.301   7.462 -0.0247 -2.7635  1.0990
 3321SOL     OW21598   1.145   3.987   1.044  0.5322  0.5158 -0.2413
 3321SOL    HW121599   1.148   3.986   0.948  1.3820 -0.4056 -0.1964
 3321SOL    HW221600   1.155   3.894   1.064  0.5615  0.2697 -1.4116
 3322SOL     OW21601   2.334   3.654   2.940  0.5066 -0.4754  0.0801
 3322SOL    HW121602   2.302   3.632   3.028 -0.4640  0.1515 -0.1136
 3322SOL    HW221603   2.422   3.618   2.955  0.3993 -0.1300  1.5924
 3323SOL     OW21604   1.414   2.596  12.000 -0.5908 -0.2562 -0.1694
 3323SOL    HW121605   1.371   2.513  11.983  1.1905 -1.1875 -0.1569
 3323SOL    HW221606   1.497   2.568  11.960  0.4157  1.4514  0.7105
 3324SOL     OW21607   1.765   0.484   7.376  0.4135 -0.2334 -0.1314
 3324SOL    HW121608   1.818   0.472   7.454  0.0816 -1.2860 -0.0680
 3324SOL    HW221609   1.836   0.492   7.312  0.3789  0.0862 -0.1327
 3325SOL     OW21610   0.129   2.816   1.865 -0.1345  0.0528 -0.4082
 3325SOL    HW121611   0.071   2.804   1.941  0.1083 -3.7408 -0.8126
 3325SOL    HW221612   0.197   2.752   1.888 -0.3423 -0.1635 -0.3988
 3326SOL     OW21613   0.657   0.185   1.174 -0.5511  0.5371 -0.2433
 3326SOL    HW121614   0.564   0.163   1.179 -0.4516 -0.4389 -2.4641
 3326SOL    HW221615   0.668   0.185   1.078 -1.1438  0.9729 -0.3085
 3327SOL     OW21616   1.989   4.483   0.619  0.3121  0.4561 -0.5345
 3327SOL    HW121617   2.056   4.538   0.578  1.0688  0.0389  0.1304
 3327SOL    HW221618   1.953   4.547   0.681 -1.1192 -1.6449  0.7939
 3328SOL     OW21619   1.357   3.100   3.251 -0.2916  0.5603 -0.2971
 3328SOL    HW121620   1.397   3.184   3.228  0.5761 -0.0271 -0.9510
 3328SOL    HW221621   1.361   3.060   3.165  1.0745  4.1547 -1.9036
 3329SOL     OW21622   0.135   3.237   8.410 -0.0910 -0.8414 -0.3789
 3329SOL    HW121623   0.074   3.237   8.484 -0.5445  1.3621 -0.7330
 3329SOL    HW221624   0.132   3.153   8.364 -0.4524  0.4885 -2.7724
 3330SOL     OW21625   2.983   4.445  17.146  0.3751  0.0420  0.1596
 3330SOL    HW121626   2.906   4.491  17.179 -0.3783 -0.4236 -0.9329
 3330SOL    HW221627   3.054   4.509  17.140 -1.6587  2.3134  0.1819
 3331SOL     OW21628   1.354   2.743   2.344 -0.0041 -0.0927  0.1038
 3331SOL    HW121629   1.275   2.797   2.351  0.2053  0.5939 -3.0729
 3331SOL    HW221630   1.389   2.758   2.432 -1.2077  0.6392  0.4618
 3332SOL     OW21631   1.352   2.562  14.579  0.3523 -0.2005 -0.0131
 3332SOL    HW121632   1.394   2.640  14.613 -1.4175  0.4806  0.6104
 3332SOL    HW221633   1.305   2.605  14.508  1.8124  0.2521 -0.7152
 3333SOL     OW21634   3.762   4.321  17.663  0.4483 -0.0194 -0.2426
 3333SOL    HW121635   3.792   4.269  17.738  0.5724 -0.3078 -0.4942
 3333SOL    HW221636   3.750   4.256  17.594 -2.8986  0.7341 -0.3765
 3334SOL     OW21637   2.773   2.943   6.844  0.0558  0.1100 -0.0061
 3334SOL    HW121638   2.763   2.848   6.831 -0.4471  0.3414 -1.2548
 3334SOL    HW221639   2.853   2.937   6.896 -1.2437 -2.7340  1.6851
 3335SOL     OW21640   0.721   1.699   7.679 -0.4346  0.3579  0.3875
 3335SOL    HW121641   0.672   1.642   7.620 -0.6836 -0.0014  0.9542
 3335SOL    HW221642   0.650   1.730   7.734  0.0941 -0.9075  1.7864
 3336SOL     OW21643   3.133   1.192  11.333 -0.1373  0.3213 -0.2362
 3336SOL    HW121644   3.198   1.230  11.274 -0.1839 -1.1979 -1.2680
 3336SOL    HW221645   3.188   1.127  11.376 -0.4971  0.3154  0.2170
 3337SOL     OW21646   2.506   2.563  12.106  0.7178  0.4755  0.3957
 3337SOL    HW121647   2.449   2.602  12.171 -1.5864  0.2420 -1.4602
 3337SOL    HW221648   2.570   2.631  12.087 -0.4785  1.7358  0.8752
 3338SOL     OW21649   3.177   1.488   0.384 -0.2534  0.0799 -0.3817
 3338SOL    HW121650   3.152   1.573   0.348  0.8438 -0.3391 -2.1344
 3338SOL    HW221651   3.255   1.470   0.332 -0.0249  1.6248 -0.5600
 3339SOL     OW21652   1.416   0.114   2.582  0.2781  0.1255  0.0608
 3339SOL    HW121653   1.486   0.149   2.637 -0.7048  1.3311  0.5435
 3339SOL    HW221654   1.387   0.194   2.540 -3.2949 -1.9928 -1.4458
 3340SOL     OW21655   1.090   1.994   1.847 -0.7550 -0.1088  0.0689
 3340SOL    HW121656   1.158   2.000   1.914  1.3159 -0.3678 -2.0108
 3340SOL    HW221657   1.097   2.077   1.800  0.6936  1.3974  2.8930
 3341SOL     OW21658   1.047   1.571  12.431 -0.2981 -0.3428 -0.1253
 3341SOL    HW121659   1.047   1.582  12.336  1.6978  0.8975 -0.0040
 3341SOL    HW221660   0.967   1.618  12.455 -0.4316 -1.4844  1.6701
 3342SOL     OW21661   2.667   4.140   5.327 -0.0779  0.0341 -0.0566
 3342SOL    HW121662   2.726   4.149   5.402  0.3886 -0.8550 -0.3146
 3342SOL    HW221663   2.688   4.050   5.304 -1.0971  0.0729 -1.1394
 3343SOL     OW21664   0.048   4.045   5.246 -0.3930 -0.6655  0.0432
 3343SOL    HW121665   0.035   3.984   5.173 -0.2627  0.0933 -0.6188
 3343SOL    HW221666   0.107   3.995   5.301  0.5451  1.5229  1.0380
 3344SOL     OW21667   1.039   2.151   4.824  0.4926  0.1943  0.1785
 3344SOL    HW121668   1.083   2.192   4.898 -2.3517  2.7773  0.4267
 3344SOL    HW221669   1.103   2.164   4.754  2.1432 -1.6818  1.3561
 3345SOL     OW21670   1.310   3.166  15.002 -0.6880  0.3315 -0.1957
 3345SOL    HW121671   1.300   3.073  15.019  1.8934 -0.2923 -2.2467
 3345SOL    HW221672   1.340   3.168  14.912 -0.0966  2.4646  0.0465
 3346SOL     OW21673   0.955   3.607   9.255  0.2549  0.0935  0.2215
 3346SOL    HW121674   0.901   3.566   9.322  0.2216 -0.3035 -0.0501
 3346SOL    HW221675   1.043   3.609   9.294  0.5191  2.3223 -0.4823
 3347SOL     OW21676   3.019   4.289   6.172  0.0844 -0.2040 -0.0105
 3347SOL    HW121677   2.965   4.210   6.175  0.5719 -0.5472 -0.2880
 3347SOL    HW221678   3.104   4.245   6.166 -0.6745 -1.4362 -1.6686
 3348SOL     OW21679   4.003   1.982   3.693  0.5243 -0.7566 -0.6775
 3348SOL    HW121680   4.053   2.013   3.769  1.0377  0.6741 -1.6073
 3348SOL    HW221681   3.968   2.060   3.651  0.6239  0.2561  1.1374
 3349SOL     OW21682   4.452   1.021  13.289  0.4536 -0.4343 -0.2948
 3349SOL    HW121683   4.471   1.115  13.281  0.3407 -0.2454  1.7059
 3349SOL    HW221684   4.503   0.979  13.219 -0.3314  3.0571 -2.9561
 3350SOL     OW21685   2.373   4.202   6.299 -0.3767  0.5283  0.3537
 3350SOL    HW121686   2.445   4.171   6.355  0.0378  0.6526 -0.1130
 3350SOL    HW221687   2.393   4.295   6.287 -2.1468  0.8910  0.3522
 3351SOL     OW21688   3.344   2.849  10.997 -0.3642 -0.7122 -0.1917
 3351SOL    HW121689   3.365   2.816  11.084 -2.9030  1.5377  1.2705
 3351SOL    HW221690   3.425   2.898  10.984  0.3476 -1.5569  1.1019
 3352SOL     OW21691   1.517   4.666   7.804  0.1307  0.3296  0.6416
 3352SOL    HW121692   1.590   4.722   7.777 -0.6807 -0.4905 -3.1986
 3352SOL    HW221693   1.449   4.732   7.821  0.7642  1.3120 -0.6324
 3353SOL     OW21694   1.213   1.004   3.709 -0.9874  0.6211  0.2533
 3353SOL    HW121695   1.146   0.937   3.703  0.3893 -0.5530 -2.1719
 3353SOL    HW221696   1.154   1.078   3.721 -0.5329  0.6618  2.2505
 3354SOL     OW21697   4.473   1.226   9.449 -0.2313 -0.9308 -0.1413
 3354SOL    HW121698   4.547   1.178   9.487  0.3560  2.3478  2.9433
 3354SOL    HW221699   4.400   1.182   9.493 -2.5597 -0.3444 -3.4037
 3355SOL     OW21700   1.913   3.929   7.823  0.1124  0.2425 -0.3932
 3355SOL    HW121701   1.928   4.007   7.876 -1.8045 -1.3232  2.4383
 3355SOL    HW221702   1.914   3.969   7.736  1.9438  3.1970  0.9829
 3356SOL     OW21703   0.621   2.232  10.014  0.1680 -0.1064  0.2621
 3356SOL    HW121704   0.536   2.194  10.035  0.4271 -0.9856 -0.2946
 3356SOL    HW221705   0.669   2.152   9.995 -1.5634 -0.4513 -2.6169
 3357SOL     OW21706   0.709   1.660  10.106 -0.0511 -0.5589  0.1557
 3357SOL    HW121707   0.713   1.653  10.010 -1.1932 -1.0523  0.1319
 3357SOL    HW221708   0.780   1.718  10.131  0.3345 -1.7718  1.8716
 3358SOL     OW21709   0.149   3.636  15.235  0.1556  0.3254  0.1873
 3358SOL    HW121710   0.060   3.601  15.243  0.2899 -0.1208 -0.2508
 3358SOL    HW221711   0.195   3.560  15.198  0.2709  1.2865 -1.6479
 3359SOL     OW21712   1.089   1.862   3.867  0.4997 -0.2378  0.3309
 3359SOL    HW121713   1.015   1.894   3.816 -0.0256 -3.7050 -1.1352
 3359SOL    HW221714   1.052   1.813   3.940  1.4271  1.1854  1.7274
 3360SOL     OW21715   4.104   2.858   8.381  0.8786  0.3686 -0.0688
 3360SOL    HW121716   4.159   2.936   8.393  1.0766  0.2727 -0.3563
 3360SOL    HW221717   4.136   2.815   8.302 -1.1798 -1.5912  0.1780
 3361SOL     OW21718   1.392   1.675  15.286  0.3996 -0.2778 -0.3016
 3361SOL    HW121719   1.316   1.621  15.308  2.4623 -3.0337 -0.0516
 3361SOL    HW221720   1.448   1.669  15.363  0.0099  0.2918  0.0286
 3362SOL     OW21721   0.425   2.634   5.153  0.0769 -0.5845  0.7432
 3362SOL    HW121722   0.366   2.616   5.080  0.1505  0.4644  0.4230
 3362SOL    HW221723   0.500   2.601   5.103 -0.5197  0.6840 -0.9858
 3363SOL     OW21724   2.587   1.717   5.602  0.6798  0.4154  0.3837
 3363SOL    HW121725   2.571   1.767   5.522 -2.2590 -0.2425  0.5554
 3363SOL    HW221726   2.651   1.778   5.640  1.3502  0.6039 -1.0644
 3364SOL     OW21727   1.222   0.515   9.705  0.0935  0.2617  0.2491
 3364SOL    HW121728   1.253   0.457   9.775  1.5374  0.7482  0.0053
 3364SOL    HW221729   1.231   0.457   9.629 -1.0130 -2.6133  2.2855
 3365SOL     OW21730   2.841   1.550   7.034 -0.4407  0.2301 -0.1781
 3365SOL    HW121731   2.900   1.565   7.109 -0.3165 -1.9112  0.1591
 3365SOL    HW221732   2.904   1.525   6.966 -1.2197  2.5120 -1.7116
 3366SOL     OW21733   0.789   1.213   6.813 -0.8079  0.2962  0.4852
 3366SOL    HW121734   0.740   1.170   6.882  0.2232  0.0020  1.0316
 3366SOL    HW221735   0.749   1.300   6.805 -1.6253 -0.1918 -0.7878
 3367SOL     OW21736   0.171   0.278   5.582 -0.6247  0.1252  0.3269
 3367SOL    HW121737   0.105   0.216   5.549 -1.7955  1.6779 -0.2565
 3367SOL    HW221738   0.212   0.227   5.651  1.3714  0.0463 -0.9261
 3368SOL     OW21739   4.705   0.046   5.598 -0.1366 -0.0687  0.2155
 3368SOL    HW121740   4.641   4.729   5.556 -0.8958  0.5393  0.5491
 3368SOL    HW221741   4.656   0.100   5.660  0.6309 -0.1628  0.9031
 3369SOL     OW21742   4.197   1.068   7.321  0.4532 -0.2670  0.0726
 3369SOL    HW121743   4.254   0.996   7.295 -0.2773 -0.9315  0.3215
 3369SOL    HW221744   4.128   1.065   7.255 -0.6469  0.8905  1.1741
 3370SOL     OW21745   2.541   1.154   9.128 -0.3515  0.2094 -0.2897
 3370SOL    HW121746   2.475   1.224   9.123 -0.3884  0.1637 -0.4279
 3370SOL    HW221747   2.506   1.109   9.205  1.0171  0.0855  0.2436
 3371SOL     OW21748   3.716   1.559  10.088 -0.1576 -0.6329  0.1157
 3371SOL    HW121749   3.755   1.584  10.004 -0.3055 -1.9222 -0.3421
 3371SOL    HW221750   3.757   1.623  10.146 -0.4685 -1.3147  1.0871
 3372SOL     OW21751   3.023   3.997   6.681 -0.6076  0.0257  0.4977
 3372SOL    HW121752   3.082   3.999   6.756 -0.5118 -0.4711  0.4343
 3372SOL    HW221753   2.964   3.925   6.703 -1.4678  0.4863 -0.2768
 3373SOL     OW21754   0.370   1.774   9.047 -0.9602 -0.0096  0.0606
 3373SOL    HW121755   0.358   1.868   9.034 -2.1156 -0.1001  0.5318
 3373SOL    HW221756   0.285   1.736   9.024 -0.8826 -1.0047  1.4042
 3374SOL     OW21757   3.400   3.001   4.694  0.8952 -0.9685 -0.7315
 3374SOL    HW121758   3.415   3.068   4.627 -2.0295  1.0152  0.6135
 3374SOL    HW221759   3.487   2.990   4.732 -0.2403 -0.8572  1.8667
 3375SOL     OW21760   3.621   0.574  14.042 -0.1840 -0.3881 -0.1340
 3375SOL    HW121761   3.636   0.481  14.056  2.4871  0.1641  0.6797
 3375SOL    HW221762   3.655   0.585  13.953  1.1369  1.7276  0.6309
 3376SOL     OW21763   3.332   2.158   4.658 -0.7612  0.7912  0.0312
 3376SOL    HW121764   3.426   2.159   4.676 -0.5271 -3.0571 -0.9736
 3376SOL    HW221765   3.290   2.217   4.721  2.1411  1.0063  1.7831
 3377SOL     OW21766   0.193   0.088   0.140 -0.1658 -0.4175  0.7648
 3377SOL    HW121767   0.125   0.112   0.077 -2.1328  1.9087  3.8388
 3377SOL    HW221768   0.255   0.155   0.112  1.3683 -1.3994  1.7774
 3378SOL     OW21769   1.630   2.651  11.313 -0.3323  0.0970  0.1843
 3378SOL    HW121770   1.571   2.708  11.361 -0.2950  2.2344 -2.2788
 3378SOL    HW221771   1.683   2.613  11.384 -0.6316 -1.5744 -0.4751
 3379SOL     OW21772   1.300   4.001   2.290  0.2581  0.5073 -0.2806
 3379SOL    HW121773   1.343   4.080   2.259  0.3547  0.0534 -1.2998
 3379SOL    HW221774   1.357   3.992   2.367 -1.1390  0.9640  0.7890
 3380SOL     OW21775   3.853   1.167   6.296 -0.1408 -0.1421 -0.4337
 3380SOL    HW121776   3.820   1.084   6.331  0.8184  0.3953  1.7342
 3380SOL    HW221777   3.828   1.217   6.373  2.1613 -1.1448  0.9807
 3381SOL     OW21778   4.510   4.447  14.237 -0.6705 -0.2015  0.0771
 3381SOL    HW121779   4.532   4.532  14.276 -2.1705  0.6607 -0.9078
 3381SOL    HW221780   4.549   4.394  14.306 -0.4301 -1.6900 -1.2126
 3382SOL     OW21781   0.285   0.538   5.482 -0.0577 -1.2464 -0.3197
 3382SOL    HW121782   0.268   0.465   5.541  0.1853 -0.4409  0.7714
 3382SOL    HW221783   0.219   0.532   5.413 -0.7123  0.5008  0.1575
 3383SOL     OW21784   2.778   1.270  11.930  0.2412 -0.1817 -0.7256
 3383SOL    HW121785   2.838   1.212  11.978  1.0057  1.8241  0.7724
 3383SOL    HW221786   2.707   1.274  11.994  0.5008 -0.6686 -0.4062
 3384SOL     OW21787   2.530   4.208   7.640  0.2609  0.1896 -0.1298
 3384SOL    HW121788   2.455   4.158   7.608  1.8233 -0.7867 -2.3153
 3384SOL    HW221789   2.596   4.139   7.647 -0.6201 -0.8356 -1.9156
 3385SOL     OW21790   0.829   2.672  13.585 -0.1406 -0.2908  0.1804
 3385SOL    HW121791   0.855   2.750  13.635  0.0486 -1.4790  1.9605
 3385SOL    HW221792   0.883   2.688  13.508 -0.7793  0.0772 -0.1823
 3386SOL     OW21793   3.689   1.273   2.944  0.4125 -0.2219  0.7180
 3386SOL    HW121794   3.767   1.256   2.891 -0.1044 -0.7529  0.1289
 3386SOL    HW221795   3.729   1.336   3.003  0.5972  1.0010 -0.6906
 3387SOL     OW21796   1.378   4.551   3.207  0.1187 -0.0090  0.7663
 3387SOL    HW121797   1.326   4.629   3.223  0.2355  0.1711  0.2612
 3387SOL    HW221798   1.369   4.506   3.291 -2.4954  0.9675  0.9998
 3388SOL     OW21799   0.874   2.778   2.331 -0.7095  1.2260  0.0406
 3388SOL    HW121800   0.879   2.746   2.421  0.5157 -0.1390 -0.5010
 3388SOL    HW221801   0.947   2.840   2.328 -0.6457  1.0106 -2.8759
 3389SOL     OW21802   0.295   1.857   9.315 -0.4432  0.7652 -0.1149
 3389SOL    HW121803   0.277   1.944   9.351 -2.2430  0.1985  0.3330
 3389SOL    HW221804   0.205   1.841   9.287 -0.8965 -0.8479  2.2872
 3390SOL     OW21805   2.253   4.501   0.423  0.0923  0.1146 -0.0079
 3390SOL    HW121806   2.349   4.503   0.415  0.3035  0.7987  2.9083
 3390SOL    HW221807   2.236   4.585   0.467  2.7662 -0.7117  2.5865
 3391SOL     OW21808   2.944   2.526  15.994  0.4322  0.0914  0.3584
 3391SOL    HW121809   2.850   2.541  16.003  0.4312 -0.1135  0.7010
 3391SOL    HW221810   2.975   2.594  16.054  1.1414  0.3978 -0.3678
 3392SOL     OW21811   0.033   3.620  16.512 -0.0065 -0.4254  0.0469
 3392SOL    HW121812   4.685   3.659  16.510 -0.4011 -1.3216 -0.3192
 3392SOL    HW221813   0.004   3.529  16.511  0.4051 -0.5553 -0.3784
 3393SOL     OW21814   4.187   0.511   6.111 -0.2603  0.3130 -0.2201
 3393SOL    HW121815   4.188   0.417   6.097  0.6928  0.1271  1.0850
 3393SOL    HW221816   4.105   0.512   6.160 -1.8123 -1.6245 -2.8294
 3394SOL     OW21817   1.951   4.133   3.339 -0.0538 -0.3032  0.2428
 3394SOL    HW121818   1.989   4.219   3.358  2.2392 -1.8694  2.8154
 3394SOL    HW221819   2.028   4.093   3.298  1.7467  1.5390  1.8276
 3395SOL     OW21820   2.714   1.179  17.037  0.4549  0.3614 -0.3797
 3395SOL    HW121821   2.736   1.272  17.031 -0.1972  0.6227  1.4314
 3395SOL    HW221822   2.718   1.148  17.127 -0.4603  1.6521  0.0953
 3396SOL     OW21823   4.411   3.385   4.875 -0.7614 -0.4395  0.2997
 3396SOL    HW121824   4.381   3.294   4.865 -3.2122  0.2683  1.2806
 3396SOL    HW221825   4.500   3.382   4.909 -1.3333  1.2380  1.9432
 3397SOL     OW21826   3.827   3.089  14.424  0.0062  0.1122 -0.5723
 3397SOL    HW121827   3.839   3.063  14.515  0.0906  1.6418 -0.1541
 3397SOL    HW221828   3.804   3.011  14.373 -1.6326  0.4473 -0.3372
 3398SOL     OW21829   3.482   3.421   6.937  0.2353  0.1026  0.0071
 3398SOL    HW121830   3.491   3.372   7.019  0.1740 -0.8843 -0.5705
 3398SOL    HW221831   3.561   3.474   6.942  1.6302 -2.2330  2.8020
 3399SOL     OW21832   2.000   0.459   8.355  0.0945 -0.4927 -0.5155
 3399SOL    HW121833   1.988   0.434   8.446  0.0689 -3.4333 -1.3183
 3399SOL    HW221834   2.091   0.486   8.362 -0.2061  0.6570 -1.1447
 3400SOL     OW21835   1.304   3.262  11.673 -0.5671 -0.0620 -0.3745
 3400SOL    HW121836   1.337   3.339  11.628  1.3648 -0.8312 -0.2760
 3400SOL    HW221837   1.368   3.255  11.744  0.8863  2.0154 -1.4930
 3401SOL     OW21838   3.826   2.785   6.704 -0.2008  0.3971 -0.7156
 3401SOL    HW121839   3.761   2.825   6.646 -0.7712 -0.0616 -0.3959
 3401SOL    HW221840   3.897   2.763   6.644  2.9694  1.9794  2.4322
 3402SOL     OW21841   0.817   0.438  11.185  1.2186  0.0489  0.1248
 3402SOL    HW121842   0.888   0.378  11.161 -1.4004 -1.5411 -3.7380
 3402SOL    HW221843   0.773   0.395  11.258  1.6156 -2.6935 -1.2314
 3403SOL     OW21844   2.500   2.814   8.640  0.1438  0.0061  0.1064
 3403SOL    HW121845   2.544   2.735   8.672 -0.5975  0.0910  1.3466
 3403SOL    HW221846   2.560   2.839   8.570  0.5035 -0.6784  0.1731
 3404SOL     OW21847   3.522   2.957   9.098  0.0782 -0.1567 -0.1441
 3404SOL    HW121848   3.518   3.050   9.118  0.2462 -0.3172  0.6534
 3404SOL    HW221849   3.502   2.916   9.182 -0.9939  0.8203  0.0736
 3405SOL     OW21850   3.311   1.917   0.111  0.5149  0.4627 -0.3975
 3405SOL    HW121851   3.295   1.976   0.036  0.7836  1.2671  0.1769
 3405SOL    HW221852   3.252   1.848   0.079  0.6912 -0.3886  1.1360
 3406SOL     OW21853   0.595   3.861   5.553  0.1353 -0.1624  0.2133
 3406SOL    HW121854   0.683   3.895   5.534 -0.3622  0.0779 -1.6000
 3406SOL    HW221855   0.605   3.773   5.517  0.0166 -0.3589  0.6565
 3407SOL     OW21856   4.227   0.747   4.564 -0.3385  1.2042  0.0023
 3407SOL    HW121857   4.134   0.737   4.586 -0.6651  0.8011 -1.5308
 3407SOL    HW221858   4.273   0.683   4.618 -0.5776  0.3701 -0.7837
 3408SOL     OW21859   2.609   0.302  17.414  0.7587 -0.5983  0.5845
 3408SOL    HW121860   2.559   0.221  17.416  1.2678 -0.8470  3.4449
 3408SOL    HW221861   2.645   0.292  17.326  2.4287  0.3416  1.1554
 3409SOL     OW21862   3.116   3.374  13.778 -0.2670  0.1040  0.6574
 3409SOL    HW121863   3.193   3.403  13.729 -0.7929  0.2673 -0.0827
 3409SOL    HW221864   3.073   3.318  13.713  2.2383 -0.9556 -0.0622
 3410SOL     OW21865   3.636   3.767   6.167  0.0136  0.4369  0.3485
 3410SOL    HW121866   3.700   3.799   6.231  1.0340 -2.4340  0.7679
 3410SOL    HW221867   3.554   3.785   6.213  0.6534  0.4043  1.5298
 3411SOL     OW21868   1.089   1.722   8.047 -0.6629 -0.2829  0.1307
 3411SOL    HW121869   1.168   1.727   8.101 -0.2822 -2.3296 -0.2431
 3411SOL    HW221870   1.078   1.817   8.043 -1.8214 -0.4982 -2.1452
 3412SOL     OW21871   4.305   3.363   0.188 -0.4324 -0.1350 -0.3490
 3412SOL    HW121872   4.266   3.284   0.150  0.7757 -0.2869 -1.2606
 3412SOL    HW221873   4.280   3.343   0.279  0.1573  1.2203  0.1083
 3413SOL     OW21874   2.850   1.897   4.774 -0.3822  0.2080 -0.7772
 3413SOL    HW121875   2.891   1.875   4.691 -0.9079  1.5388 -1.3994
 3413SOL    HW221876   2.858   1.819   4.828 -1.2095 -0.5983 -1.8183
 3414SOL     OW21877   0.790   2.237   3.213 -0.0956  0.0480 -0.0424
 3414SOL    HW121878   0.738   2.158   3.224 -0.9063  0.6741  0.5557
 3414SOL    HW221879   0.875   2.195   3.197  0.2237  0.6294  0.1210
 3415SOL     OW21880   2.115   0.697  10.241 -0.3910 -0.0784 -0.4562
 3415SOL    HW121881   2.059   0.622  10.259 -1.9561  1.1200 -0.2426
 3415SOL    HW221882   2.083   0.730  10.157  1.2990 -1.0990 -1.4937
 3416SOL     OW21883   2.491   1.546  12.617 -0.2592 -0.4768 -0.0014
 3416SOL    HW121884   2.487   1.612  12.687  2.1065  0.2274 -0.5494
 3416SOL    HW221885   2.578   1.563  12.583 -1.1372  2.1543 -0.8851
 3417SOL     OW21886   1.494   3.212   2.552  0.5600  0.5510  0.3615
 3417SOL    HW121887   1.546   3.269   2.610  0.4336  2.6926 -1.6169
 3417SOL    HW221888   1.553   3.202   2.478  0.8357  1.4591  0.4568
 3418SOL     OW21889   1.744   2.975  10.159  0.3677  0.6551 -0.1093
 3418SOL    HW121890   1.660   2.970  10.113  0.4822 -1.8904 -0.0457
 3418SOL    HW221891   1.747   2.889  10.201 -1.8770  0.7634  0.2546
 3419SOL     OW21892   4.229   4.026   6.817  0.1638 -0.6623  0.2379
 3419SOL    HW121893   4.275   3.983   6.744 -0.7459 -0.2422 -0.5747
 3419SOL    HW221894   4.243   3.972   6.895  0.7308  0.9759  1.2688
 3420SOL     OW21895   1.876   1.619   1.939 -0.7642 -0.4943  0.3237
 3420SOL    HW121896   1.875   1.620   2.035  1.9163  2.3660  0.3512
 3420SOL    HW221897   1.956   1.570   1.922 -0.1676  0.5624  0.0347
 3421SOL     OW21898   2.765   0.159   2.690  0.2795 -0.1566  0.0196
 3421SOL    HW121899   2.753   0.067   2.665 -0.7204  0.0545 -0.2521
 3421SOL    HW221900   2.710   0.177   2.766 -0.3964 -0.6334 -0.3621
 3422SOL     OW21901   4.200   2.878   4.746  0.5576 -0.2178  0.2917
 3422SOL    HW121902   4.188   2.783   4.744 -0.9171 -0.0628  2.3106
 3422SOL    HW221903   4.237   2.879   4.834 -1.4450 -1.1764  1.1479
 3423SOL     OW21904   4.051   3.436   9.367  0.2645  0.3377 -0.5026
 3423SOL    HW121905   3.969   3.483   9.354  1.0816  2.1011  0.7739
 3423SOL    HW221906   4.075   3.471   9.453  0.0217  0.4687 -0.4889
 3424SOL     OW21907   2.304   0.083  11.177  0.1590 -0.0530  0.7707
 3424SOL    HW121908   2.289   0.032  11.098  0.5801 -0.6822  1.0962
 3424SOL    HW221909   2.390   0.052  11.205  0.7227 -0.2536 -1.2012
 3425SOL     OW21910   0.822   0.747  12.704 -0.1576 -0.1067 -0.2846
 3425SOL    HW121911   0.737   0.754  12.747 -0.1079 -1.3734  0.0315
 3425SOL    HW221912   0.851   0.656  12.710 -0.0986 -0.1250 -0.8455
 3426SOL     OW21913   2.680   0.142  10.496  0.0096 -0.4920  0.2130
 3426SOL    HW121914   2.733   0.068  10.526  2.9839  3.6761  5.1754
 3426SOL    HW221915   2.619   0.157  10.568 -2.3304 -1.0780 -1.6441
 3427SOL     OW21916   3.402   1.363  13.504 -0.4811  0.0818  0.7474
 3427SOL    HW121917   3.473   1.412  13.545 -0.7500  1.1009 -0.0168
 3427SOL    HW221918   3.347   1.331  13.576 -1.4527 -0.1048 -0.0855
 3428SOL     OW21919   3.156   1.193   1.569 -0.6035  0.4853 -0.2384
 3428SOL    HW121920   3.246   1.226   1.570 -0.3764 -0.1534  1.4032
 3428SOL    HW221921   3.102   1.272   1.564 -1.0058  0.2394  0.2570
 3429SOL     OW21922   1.978   1.096  15.930 -0.3840  0.3795  0.6311
 3429SOL    HW121923   1.893   1.062  15.902 -1.6258  2.5408  1.7401
 3429SOL    HW221924   1.973   1.191  15.918  0.0349  0.6313  2.3783
 3430SOL     OW21925   0.091   3.036   5.550  0.0308 -0.2456 -0.1069
 3430SOL    HW121926   0.048   3.011   5.632 -0.1794  0.3525 -0.0305
 3430SOL    HW221927   0.031   3.101   5.515 -0.6772 -0.0419  1.4647
 3431SOL     OW21928   4.397   0.055  16.204  0.3674  0.2476 -0.8394
 3431SOL    HW121929   4.423   4.706  16.179  1.9336 -0.1363  2.2242
 3431SOL    HW221930   4.398   0.115  16.129 -1.8649 -0.6671 -1.5931
 3432SOL     OW21931   3.044   0.514   5.241 -0.9454  0.0670  0.1051
 3432SOL    HW121932   3.060   0.588   5.182 -1.4401  0.9348  1.0557
 3432SOL    HW221933   2.982   0.558   5.299  0.3881  2.0987 -0.0211
 3433SOL     OW21934   0.159   3.184   9.169 -0.3103 -0.4784 -0.2811
 3433SOL    HW121935   0.070   3.185   9.134 -0.3171  3.1885 -0.2261
 3433SOL    HW221936   0.188   3.272   9.145  1.1887 -0.9889 -0.3289
 3434SOL     OW21937   3.533   3.446  16.910  0.2718  0.3010 -0.0712
 3434SOL    HW121938   3.450   3.481  16.942 -0.3722 -1.1487 -0.1546
 3434SOL    HW221939   3.569   3.523  16.865 -1.1723  1.3677  0.6047
 3435SOL     OW21940   2.441   0.134   2.483  0.2531 -0.1921  0.1678
 3435SOL    HW121941   2.473   0.167   2.400  0.4137  0.7865  0.6187
 3435SOL    HW221942   2.518   0.082   2.505 -0.2024 -0.9457 -0.0520
 3436SOL     OW21943   4.151   1.408   2.962 -0.3672 -0.3644  0.1507
 3436SOL    HW121944   4.196   1.492   2.957 -0.9696 -0.0486  0.0674
 3436SOL    HW221945   4.217   1.357   2.915  0.7236  0.4497  0.8125
 3437SOL     OW21946   4.005   3.716  12.658  0.1811 -0.1477  0.1647
 3437SOL    HW121947   3.933   3.655  12.669  0.9115 -0.5594  2.6865
 3437SOL    HW221948   4.059   3.663  12.598 -0.3105 -1.4325  0.8580
 3438SOL     OW21949   3.848   4.494  15.000 -0.3059 -0.0818 -0.0333
 3438SOL    HW121950   3.837   4.484  14.905 -0.1072 -2.4391  0.1895
 3438SOL    HW221951   3.909   4.423  15.022  0.0261  0.7785  1.7826
 3439SOL     OW21952   0.828   3.840  11.469 -0.1094 -0.3835 -0.2479
 3439SOL    HW121953   0.918   3.861  11.492  1.0279 -2.3268 -2.9067
 3439SOL    HW221954   0.773   3.887  11.532 -0.6198 -0.3883 -0.6852
 3440SOL     OW21955   4.703   3.419   2.222  0.7974  0.2438  0.6266
 3440SOL    HW121956   4.679   3.418   2.130  1.5740  2.3565  0.4010
 3440SOL    HW221957   4.619   3.408   2.268 -1.3944  1.9126 -3.0052
 3441SOL     OW21958   1.358   4.060   3.982 -0.2405 -0.7723 -0.6147
 3441SOL    HW121959   1.402   4.144   3.969  0.3359 -0.8851  0.5949
 3441SOL    HW221960   1.297   4.095   4.046 -1.6421 -4.0684 -0.1675
 3442SOL     OW21961   0.835   3.102   6.232 -0.1089  0.1187 -0.5251
 3442SOL    HW121962   0.874   3.049   6.163  0.9610  1.4133 -0.9082
 3442SOL    HW221963   0.794   3.037   6.289  0.2330 -0.0859 -0.5147
 3443SOL     OW21964   1.728   0.533   3.948  0.3182  0.8554 -0.9583
 3443SOL    HW121965   1.668   0.460   3.933 -0.0270  0.9397 -0.0115
 3443SOL    HW221966   1.767   0.502   4.031 -1.0270  3.6153  0.6883
 3444SOL     OW21967   2.926   0.629   6.720  0.6262  0.4869 -0.1181
 3444SOL    HW121968   2.837   0.640   6.688  0.1285  0.0518  1.1075
 3444SOL    HW221969   2.921   0.567   6.793  1.0597 -0.4682 -0.8972
 3445SOL     OW21970   4.013   3.919   8.509 -0.2478 -0.6897  0.2898
 3445SOL    HW121971   4.085   3.937   8.449 -0.5682  0.3884  0.2342
 3445SOL    HW221972   4.056   3.940   8.592  0.1729  0.4093 -0.1970
 3446SOL     OW21973   1.183   4.119   9.077  0.7612  0.2366  0.1558
 3446SOL    HW121974   1.205   4.103   8.985 -3.8927 -1.2469 -0.6847
 3446SOL    HW221975   1.273   4.131   9.110  1.1390 -0.2306 -0.7011
 3447SOL     OW21976   1.085   0.885   5.960  0.0798  0.1872 -0.1489
 3447SOL    HW121977   1.021   0.953   5.940  1.4460  1.7116  0.6206
 3447SOL    HW221978   1.159   0.936   5.993  0.0841  0.7493 -1.0432
 3448SOL     OW21979   4.243   3.439  13.605  0.1177  0.5329 -0.1680
 3448SOL    HW121980   4.232   3.531  13.580  1.2849  1.0719  1.2774
 3448SOL    HW221981   4.151   3.416  13.619  0.4080  0.1172  1.0055
 3449SOL     OW21982   1.116   0.418   0.539 -0.0044  0.6730 -0.3755
 3449SOL    HW121983   1.176   0.444   0.469 -0.1529  0.4256 -0.5965
 3449SOL    HW221984   1.115   0.323   0.525  0.9713  0.4725  0.9380
 3450SOL     OW21985   2.616   2.029   2.457 -0.0014  0.4485  0.1391
 3450SOL    HW121986   2.528   2.048   2.488  0.2659  2.5576 -0.3573
 3450SOL    HW221987   2.646   1.968   2.524 -0.7220  0.3960  0.4071
 3451SOL     OW21988   2.536   4.660   7.396  0.3245 -0.3462 -0.3314
 3451SOL    HW121989   2.471   4.634   7.462  1.0197  1.7869  1.2099
 3451SOL    HW221990   2.616   4.657   7.448 -1.5434  0.6180  2.6751
 3452SOL     OW21991   1.583   3.573  11.318  0.5374  0.1011 -0.0673
 3452SOL    HW121992   1.538   3.645  11.273 -1.1913  0.2640  1.8937
 3452SOL    HW221993   1.572   3.503  11.255  0.7002 -0.1888  0.2261
 3453SOL     OW21994   1.586   3.453  11.055  0.5899  0.7431 -1.0653
 3453SOL    HW121995   1.564   3.377  11.001 -0.8044  0.8084 -0.5902
 3453SOL    HW221996   1.509   3.508  11.048  0.2861  0.3039 -1.1691
 3454SOL     OW21997   2.409   0.183   2.912 -0.2784  0.2738 -0.4858
 3454SOL    HW121998   2.391   0.241   2.838  0.4703  3.5116  1.8881
 3454SOL    HW221999   2.320   0.186   2.948  0.0520  0.6143  0.2776
 3455SOL     OW22000   1.734   1.406   4.343 -0.2672 -0.3384  0.0577
 3455SOL    HW122001   1.737   1.496   4.311  0.9660 -1.0460 -1.8431
 3455SOL    HW222002   1.786   1.409   4.423  0.5601 -1.6174 -0.4359
 3456SOL     OW22003   0.215   3.700   7.078 -0.0740  0.3327 -0.3494
 3456SOL    HW122004   0.298   3.676   7.118 -0.8734 -1.5808  0.1620
 3456SOL    HW222005   0.223   3.653   6.994 -1.5224 -0.5438 -0.0066
 3457SOL     OW22006   4.058   4.431   6.570  0.6451 -0.3191 -0.1920
 3457SOL    HW122007   4.088   4.346   6.602  1.9955 -0.0061 -0.6291
 3457SOL    HW222008   4.089   4.421   6.480  0.0841  0.0361 -0.4217
 3458SOL     OW22009   3.780   3.000   2.458  0.0403  0.0283  0.2381
 3458SOL    HW122010   3.710   2.935   2.463  0.1097  0.0661  1.7780
 3458SOL    HW222011   3.754   3.053   2.383 -0.6909 -3.2262 -1.8204
 3459SOL     OW22012   0.673   4.560   4.259 -0.0428 -0.4083 -0.5443
 3459SOL    HW122013   0.754   4.514   4.278  0.6740  0.8597 -0.4807
 3459SOL    HW222014   0.638   4.508   4.187  1.0808 -1.8799 -0.0091
 3460SOL     OW22015   2.936   0.649  11.612 -0.1667 -0.2795  0.0178
 3460SOL    HW122016   3.004   0.601  11.565 -0.2924  1.3968 -1.8781
 3460SOL    HW222017   2.934   0.596  11.692 -0.1002 -0.3188 -0.0067
 3461SOL     OW22018   2.622   1.876  15.969  0.1691  0.3084  0.4434
 3461SOL    HW122019   2.568   1.926  16.030 -0.6685 -1.2762  0.9811
 3461SOL    HW222020   2.676   1.943  15.926  0.5780  0.9321  1.9497
 3462SOL     OW22021   0.924   1.763  11.760 -0.4557  0.5167 -0.4856
 3462SOL    HW122022   0.835   1.762  11.796  0.3940  1.8887  1.6704
 3462SOL    HW222023   0.936   1.669  11.746 -1.6928  0.4718 -1.2718
 3463SOL     OW22024   1.312   0.607  10.927 -0.0749  0.1272  0.2626
 3463SOL    HW122025   1.238   0.546  10.936  1.0156 -1.0164  1.3956
 3463SOL    HW222026   1.369   0.583  11.000  1.5807  0.0284 -1.0643
 3464SOL     OW22027   4.694   2.450   3.279  0.1262 -0.3237 -0.3884
 3464SOL    HW122028   4.611   2.404   3.263  1.1877 -1.8586 -1.4300
 3464SOL    HW222029   4.668   2.537   3.249  0.7807 -0.3634 -1.0506
 3465SOL     OW22030   2.158   4.603   2.815  0.0164  0.4372 -0.8360
 3465SOL    HW122031   2.174   4.685   2.767  1.5806 -0.2777 -1.5203
 3465SOL    HW222032   2.170   4.534   2.750  1.3468 -0.5271  0.4396
 3466SOL     OW22033   0.329   1.236   1.541  0.0293  0.4306 -0.2114
 3466SOL    HW122034   0.385   1.197   1.474 -0.1857  0.7895 -0.6037
 3466SOL    HW222035   0.385   1.226   1.618  1.2822 -2.2807 -1.4772
 3467SOL     OW22036   3.641   1.655   5.177  0.0494 -0.0960  0.6023
 3467SOL    HW122037   3.724   1.699   5.195  0.4266 -0.2497 -0.8167
 3467SOL    HW222038   3.667   1.587   5.116 -0.5595 -1.9717  2.4427
 3468SOL     OW22039   3.874   4.456   4.267 -0.1481  0.6693 -0.2731
 3468SOL    HW122040   3.906   4.410   4.190  0.3275  0.4721  0.0445
 3468SOL    HW222041   3.794   4.408   4.288  1.4872 -1.3871  1.2443
 3469SOL     OW22042   3.822   0.983   8.154  0.3807 -0.1294  0.3074
 3469SOL    HW122043   3.801   0.973   8.061  2.0449  0.6219 -0.1571
 3469SOL    HW222044   3.789   0.898   8.183  2.8052 -1.6488 -1.4100
 3470SOL     OW22045   4.502   1.543  10.422  0.0546  0.4006  0.2233
 3470SOL    HW122046   4.521   1.568  10.512 -1.6722 -0.4016  0.8232
 3470SOL    HW222047   4.545   1.458  10.415  0.0910  0.6391 -2.4031
 3471SOL     OW22048   4.676   2.606  14.056 -0.6629 -0.4863  0.0671
 3471SOL    HW122049   4.714   2.583  14.141 -1.2455 -1.5862  0.0406
 3471SOL    HW222050   4.637   2.690  14.078 -0.6449 -0.0262 -1.6732
 3472SOL     OW22051   3.354   4.389   2.728  0.0849 -0.2126  0.0153
 3472SOL    HW122052   3.338   4.370   2.635  0.9356 -0.4048 -0.0902
 3472SOL    HW222053   3.364   4.484   2.737 -0.9101 -0.1129  0.1374
 3473SOL     OW22054   2.012   0.717   3.934 -0.7652  0.4650 -0.4280
 3473SOL    HW122055   2.048   0.630   3.953  0.9398  1.2632 -0.0531
 3473SOL    HW222056   2.036   0.720   3.841  0.3506 -2.6981 -0.2294
 3474SOL     OW22057   0.794   1.595   7.239 -0.1248  0.2431 -0.6492
 3474SOL    HW122058   0.843   1.567   7.316 -0.1044 -2.4436 -1.6340
 3474SOL    HW222059   0.841   1.676   7.222  0.0186  0.7947  2.4119
 3475SOL     OW22060   1.853   0.669  15.751  0.0982  0.4049 -0.8025
 3475SOL    HW122061   1.909   0.721  15.693  1.6096  0.6199  0.8413
 3475SOL    HW222062   1.898   0.585  15.745  1.4546  0.8995  2.3639
 3476SOL     OW22063   2.671   2.322   7.456  0.1370 -0.6019  0.1998
 3476SOL    HW122064   2.713   2.362   7.532  0.3785  0.0788 -0.2865
 3476SOL    HW222065   2.628   2.403   7.428 -0.1722 -1.6503 -2.3913
 3477SOL     OW22066   2.976   2.649   1.966  0.0543 -0.6220 -0.3764
 3477SOL    HW122067   3.062   2.625   2.003 -0.5605 -1.6061  0.4054
 3477SOL    HW222068   2.924   2.577   1.999 -0.6966 -0.6210 -1.5857
 3478SOL     OW22069   1.017   4.212   0.762 -0.1640 -0.2547  0.0372
 3478SOL    HW122070   1.089   4.254   0.714 -0.9933  2.6878  1.3426
 3478SOL    HW222071   1.039   4.247   0.849 -0.3034  0.7909 -0.3470
 3479SOL     OW22072   4.022   3.367   0.350 -0.0814  1.3176  0.4567
 3479SOL    HW122073   4.110   3.342   0.379 -1.4671  0.2905  3.7007
 3479SOL    HW222074   3.981   3.283   0.370  0.3964  1.1815  0.8596
 3480SOL     OW22075   4.210   4.694  13.562  0.1073 -0.0441 -0.3241
 3480SOL    HW122076   4.217   4.658  13.474  2.9773 -2.0747  0.7253
 3480SOL    HW222077   4.122   4.668  13.589  1.7445 -2.8945  2.2697
 3481SOL     OW22078   2.680   4.484  17.601  0.0755  0.5279 -0.1196
 3481SOL    HW122079   2.664   4.416  17.535 -0.3271 -0.3162  0.8474
 3481SOL    HW222080   2.610   4.469  17.664  0.4570 -2.9510 -0.4857
 3482SOL     OW22081   0.680   3.611  14.121 -0.2581  0.1730  0.6335
 3482SOL    HW122082   0.735   3.664  14.062  0.3223  0.2173  1.2147
 3482SOL    HW222083   0.613   3.581  14.060 -0.5903  0.2661  0.9602
 3483SOL     OW22084   3.174   4.322   4.174 -0.1090  0.4520 -0.0651
 3483SOL    HW122085   3.117   4.363   4.239 -0.6658  1.0019 -0.8951
 3483SOL    HW222086   3.127   4.357   4.099  0.9750  1.8824 -0.0810
 3484SOL     OW22087   2.131   4.221   3.747  0.3303  0.3068  0.1724
 3484SOL    HW122088   2.052   4.180   3.711 -0.2249  1.7911 -0.3146
 3484SOL    HW222089   2.184   4.253   3.674 -0.0763  0.3630 -0.1031
 3485SOL     OW22090   2.668   3.177   2.721 -0.0429  0.2018  0.4735
 3485SOL    HW122091   2.736   3.242   2.704 -0.2902  0.4720  0.5133
 3485SOL    HW222092   2.638   3.206   2.807  0.0841 -1.8766  1.2176
 3486SOL     OW22093   4.189   1.738   5.924  0.0680 -0.0314  0.0065
 3486SOL    HW122094   4.254   1.797   5.886  1.6415 -1.5773  0.3115
 3486SOL    HW222095   4.174   1.776   6.011  0.6424  1.7359 -0.6691
 3487SOL     OW22096   4.146   2.065  16.991  0.0127 -0.4891  0.1172
 3487SOL    HW122097   4.077   2.041  17.053 -0.4739  3.2742  1.0140
 3487SOL    HW222098   4.204   2.110  17.052  1.1641 -0.1623 -1.2253
 3488SOL     OW22099   1.727   3.529   7.876  0.8295  1.1092  0.1723
 3488SOL    HW122100   1.721   3.623   7.894 -1.0912  1.4943 -2.5450
 3488SOL    HW222101   1.768   3.501   7.958 -1.0643 -0.8604  0.4369
 3489SOL     OW22102   3.977   3.966   3.350  0.5892 -1.0269 -0.6079
 3489SOL    HW122103   4.054   4.018   3.326 -0.5830  0.5313 -0.9882
 3489SOL    HW222104   3.918   4.032   3.386  2.8834  0.1243  1.0068
 3490SOL     OW22105   3.588   0.399   3.483 -0.2302  0.6417 -0.5045
 3490SOL    HW122106   3.656   0.337   3.457 -1.4532 -0.5611 -0.8145
 3490SOL    HW222107   3.512   0.352   3.451 -1.8362  1.5946  1.8853
 3491SOL     OW22108   3.160   1.758  16.189  0.1621  0.2953 -0.0082
 3491SOL    HW122109   3.236   1.786  16.137 -0.3584  0.9579 -0.4091
 3491SOL    HW222110   3.082   1.786  16.140  0.3542 -1.8264 -1.5497
 3492SOL     OW22111   3.522   1.678   0.213  0.0923  0.4970  0.0891
 3492SOL    HW122112   3.592   1.674   0.148 -1.4381 -0.2656 -1.5446
 3492SOL    HW222113   3.462   1.739   0.170 -0.3352 -0.1813 -0.2961
 3493SOL     OW22114   0.676   2.064   2.848  0.5074  0.2694 -0.4361
 3493SOL    HW122115   0.717   1.998   2.905  0.4050 -0.3846 -1.1151
 3493SOL    HW222116   0.605   2.010   2.813  0.5899  0.6344 -1.1679
 3494SOL     OW22117   2.169   0.228   8.719  0.6192 -0.2117  0.1018
 3494SOL    HW122118   2.191   0.265   8.805  1.4784  0.2672 -0.3214
 3494SOL    HW222119   2.173   0.133   8.735  1.4761 -0.1638  0.1884
 3495SOL     OW22120   0.292   3.159   3.480  0.1806 -0.6594 -0.4056
 3495SOL    HW122121   0.362   3.108   3.519  0.2264 -0.5192 -0.3038
 3495SOL    HW222122   0.212   3.133   3.525  0.6648  1.0810  1.4939
 3496SOL     OW22123   1.525   1.029  12.085 -0.0151  0.3553  0.4929
 3496SOL    HW122124   1.472   1.009  12.008 -0.1188  1.9206  0.1506
 3496SOL    HW222125   1.609   0.986  12.073 -0.6314 -1.2153  1.8424
 3497SOL     OW22126   3.781   3.572  13.729 -0.2168  0.0188  0.6298
 3497SOL    HW122127   3.703   3.624  13.708  1.0718  0.4808 -2.9839
 3497SOL    HW222128   3.821   3.621  13.800 -0.3398  0.5861  0.3026
 3498SOL     OW22129   1.500   2.225   7.222 -0.1889  0.1925 -0.3224
 3498SOL    HW122130   1.579   2.279   7.216 -1.3644  1.7944 -1.6582
 3498SOL    HW222131   1.428   2.288   7.222  1.3732  1.9633 -1.9574
 3499SOL     OW22132   3.397   2.374   2.541 -0.7739 -0.0450  0.8368
 3499SOL    HW122133   3.333   2.329   2.596  0.1288 -0.7537  1.3008
 3499SOL    HW222134   3.470   2.313   2.542 -0.1860  0.6713  2.4022
 3500SOL     OW22135   0.901   2.885   9.977 -0.2561  0.2574  0.5023
 3500SOL    HW122136   0.878   2.927   9.894  0.9277  0.6726  0.3874
 3500SOL    HW222137   0.895   2.947  10.049  1.0481  1.0174 -0.0325
 3501SOL     OW22138   4.207   4.330   1.656  0.1356 -0.1460  0.4462
 3501SOL    HW122139   4.138   4.293   1.600  0.8300 -0.2218 -0.3617
 3501SOL    HW222140   4.148   4.352   1.728 -0.5346 -2.3641  0.5825
 3502SOL     OW22141   1.486   2.360  10.307 -0.2126  0.4468 -0.2492
 3502SOL    HW122142   1.565   2.331  10.353 -1.5503 -2.7573  0.0347
 3502SOL    HW222143   1.492   2.454  10.323  2.5585  0.1602  0.5419
 3503SOL     OW22144   0.247   1.369   5.208 -0.2578 -0.0063  0.4865
 3503SOL    HW122145   0.242   1.456   5.248 -1.4357 -0.5676  1.5552
 3503SOL    HW222146   0.177   1.370   5.142  0.4639  0.1133 -0.2706
 3504SOL     OW22147   0.106   4.064   3.490  0.1288 -0.1161  0.4888
 3504SOL    HW122148   0.174   4.054   3.557  0.6679  1.2404  0.1492
 3504SOL    HW222149   0.081   3.974   3.469 -1.1974  0.3350  0.1248
 3505SOL     OW22150   4.169   3.305   4.040  0.3240 -0.8548  0.2585
 3505SOL    HW122151   4.211   3.315   3.955  1.0547  1.1607  0.8640
 3505SOL    HW222152   4.080   3.336   4.023 -0.0652 -1.9749  0.2625
 3506SOL     OW22153   2.665   2.696   1.547 -0.6625  0.1518  0.1385
 3506SOL    HW122154   2.574   2.712   1.521 -1.0777 -0.7854  1.0697
 3506SOL    HW222155   2.707   2.669   1.465 -0.1853  1.1179  0.0551
 3507SOL     OW22156   2.055   3.612   2.590 -0.1350  0.3100 -0.1655
 3507SOL    HW122157   2.130   3.653   2.632  0.2097  0.5539 -1.0190
 3507SOL    HW222158   2.097   3.546   2.535 -1.9291  1.2857 -2.7214
 3508SOL     OW22159   1.298   0.356   9.886  0.1437 -0.2909 -0.2923
 3508SOL    HW122160   1.290   0.340   9.980 -0.2570  0.7491 -0.1559
 3508SOL    HW222161   1.354   0.281   9.867  0.2378  0.2883 -2.2647
 3509SOL     OW22162   0.791   0.533  12.426 -0.1177 -0.3179  0.3874
 3509SOL    HW122163   0.803   0.537  12.521 -0.6972 -0.7301  0.4764
 3509SOL    HW222164   0.882   0.555  12.403  0.7076 -2.3938  1.6881
 3510SOL     OW22165   1.244   1.684  10.898 -0.0870 -0.5637 -0.6556
 3510SOL    HW122166   1.267   1.633  10.975  1.0301 -1.7552 -1.7762
 3510SOL    HW222167   1.283   1.769  10.918  2.6948 -1.8448 -0.5786
 3511SOL     OW22168   1.940   2.447  12.245 -0.2175  0.2280 -0.3407
 3511SOL    HW122169   1.931   2.499  12.325  0.4325  2.1078 -1.4938
 3511SOL    HW222170   1.859   2.397  12.255  0.5574 -1.2218 -1.3737
 3512SOL     OW22171   4.572   4.413  12.712  0.3764 -0.1476  0.2922
 3512SOL    HW122172   4.530   4.498  12.711  1.9960  0.6683  1.8226
 3512SOL    HW222173   4.537   4.386  12.796  0.2759  0.5470  0.4738
 3513SOL     OW22174   0.636   2.990   6.800  0.8046 -0.8906  0.2606
 3513SOL    HW122175   0.674   3.008   6.714 -0.3974 -0.2042 -0.1382
 3513SOL    HW222176   0.584   2.913   6.778  1.7612 -1.4927  0.1363
 3514SOL     OW22177   0.007   2.143   5.470  0.1506  0.9697  0.1114
 3514SOL    HW122178   4.707   2.156   5.383  1.0436 -0.2500 -0.4795
 3514SOL    HW222179   0.037   2.234   5.478  1.2577  0.6568 -0.5037
 3515SOL     OW22180   4.350   4.440  12.218  0.3375 -0.3025 -0.0565
 3515SOL    HW122181   4.360   4.367  12.156 -1.6475 -0.1415 -0.5760
 3515SOL    HW222182   4.347   4.395  12.302 -1.2008 -0.3167 -0.1270
 3516SOL     OW22183   0.736   3.742   9.124 -0.4421  0.2733 -0.1543
 3516SOL    HW122184   0.819   3.730   9.170 -0.5061  0.6614  0.0650
 3516SOL    HW222185   0.770   3.757   9.036  0.3895 -0.0554  0.1094
 3517SOL     OW22186   2.735   1.936  13.060  0.1887 -0.4222 -0.5362
 3517SOL    HW122187   2.726   1.925  13.155  0.4014  1.4134 -0.2970
 3517SOL    HW222188   2.722   1.843  13.040  0.9867 -0.5102 -0.6573
 3518SOL     OW22189   1.028   3.203   4.865 -0.2950  0.9022  0.5954
 3518SOL    HW122190   1.026   3.298   4.851  0.5246  0.7235 -0.6690
 3518SOL    HW222191   0.963   3.194   4.935  0.3874  0.0406  1.1229
 3519SOL     OW22192   4.156   1.318  13.367  0.1829 -0.1856  0.1344
 3519SOL    HW122193   4.099   1.375  13.314  2.6469  3.5341  1.4910
 3519SOL    HW222194   4.227   1.288  13.310 -0.9324 -1.4179 -0.6123
 3520SOL     OW22195   2.499   1.227  10.107  0.3202  0.3933 -0.8760
 3520SOL    HW122196   2.434   1.157  10.108  0.9520 -0.1739  0.7417
 3520SOL    HW222197   2.559   1.191  10.042  0.0722 -0.3078 -0.7133
 3521SOL     OW22198   0.328   2.743  13.007  0.5471 -0.4075 -0.0573
 3521SOL    HW122199   0.273   2.766  12.932 -0.5444 -0.2603  0.7856
 3521SOL    HW222200   0.414   2.746  12.966  1.5738 -0.5738  2.0805
 3522SOL     OW22201   3.051   0.456   2.990  0.3810 -0.1183 -0.1866
 3522SOL    HW122202   3.024   0.364   2.993  1.7714 -0.4842  0.8061
 3522SOL    HW222203   2.980   0.497   3.038  1.5459 -0.3703  1.7336
 3523SOL     OW22204   3.948   1.685  15.099  0.1501  0.5976  0.0599
 3523SOL    HW122205   3.932   1.592  15.115 -0.1155  0.5063 -0.7490
 3523SOL    HW222206   4.032   1.707  15.140  0.4045 -0.7992  0.2842
 3524SOL     OW22207   3.430   1.283  10.635  0.1735 -0.0985 -0.2344
 3524SOL    HW122208   3.435   1.326  10.550 -0.9885 -0.5814 -0.5431
 3524SOL    HW222209   3.406   1.193  10.616  2.0006 -0.7363  0.3870
 3525SOL     OW22210   3.365   0.623   9.104  0.1500 -0.0105 -0.0982
 3525SOL    HW122211   3.337   0.626   9.196 -3.1972 -0.8085 -1.0807
 3525SOL    HW222212   3.291   0.603   9.047  0.9685  0.4620 -1.3189
 3526SOL     OW22213   0.212   2.596   2.962  0.3758  1.1630 -0.2376
 3526SOL    HW122214   0.176   2.659   2.901 -1.6486 -1.4832 -1.7630
 3526SOL    HW222215   0.135   2.540   2.977  1.9584 -0.8335  0.5195
 3527SOL     OW22216   3.872   3.250   9.049 -0.2531  0.0458 -0.5738
 3527SOL    HW122217   3.843   3.236   9.139  1.4023 -1.0961 -0.2050
 3527SOL    HW222218   3.837   3.337   9.030  1.6608  0.6616 -1.3134
 3528SOL     OW22219   3.457   1.975   0.329  0.0823 -0.1029 -0.2898
 3528SOL    HW122220   3.529   1.954   0.268  1.2699 -2.4789  1.9497
 3528SOL    HW222221   3.382   1.956   0.273  0.4228  0.1180 -0.8235
 3529SOL     OW22222   4.169   2.608   7.675  0.3582 -0.3051 -0.3723
 3529SOL    HW122223   4.159   2.603   7.580  1.0763  0.9697 -0.5104
 3529SOL    HW222224   4.146   2.519   7.703  1.0882 -0.4145 -0.1127
 3530SOL     OW22225   1.002   0.350   3.577 -0.0559  0.0758 -0.1917
 3530SOL    HW122226   0.961   0.297   3.509 -0.1534 -0.4287  0.2576
 3530SOL    HW222227   0.935   0.406   3.616  0.9566  0.8864  0.3993
 3531SOL     OW22228   0.827   2.672   7.514 -0.1922 -0.2573 -0.5407
 3531SOL    HW122229   0.735   2.688   7.533  0.4567  3.1563 -0.3550
 3531SOL    HW222230   0.829   2.708   7.426 -0.0801  1.2452  0.0728
 3532SOL     OW22231   4.398   2.901   1.330 -0.3731  0.4705 -0.0386
 3532SOL    HW122232   4.487   2.880   1.360 -1.0070 -1.8175  0.2067
 3532SOL    HW222233   4.385   2.973   1.392  1.9792  1.7880 -1.0464
 3533SOL     OW22234   3.637   1.485  11.871 -0.2071 -0.5210  0.4595
 3533SOL    HW122235   3.550   1.515  11.896 -0.2218  0.1540 -0.3778
 3533SOL    HW222236   3.661   1.436  11.949  0.5467 -1.4184 -0.3246
 3534SOL     OW22237   3.293   1.015  10.965  0.0731 -0.0660  0.0508
 3534SOL    HW122238   3.231   1.037  10.895 -1.1054  0.1112  1.1516
 3534SOL    HW222239   3.255   0.932  10.996  0.4431 -2.3614 -5.6307
 3535SOL     OW22240   1.785   1.874   4.550  0.3036 -0.5522 -0.5855
 3535SOL    HW122241   1.839   1.950   4.527 -1.3890  0.2424 -1.9644
 3535SOL    HW222242   1.705   1.895   4.502  0.5386 -0.0112 -0.7326
 3536SOL     OW22243   0.550   4.529  17.350 -0.2428  0.3468  0.3637
 3536SOL    HW122244   0.476   4.471  17.331  1.0787 -0.8810 -1.0213
 3536SOL    HW222245   0.624   4.474  17.323  0.1449  1.1573 -0.2303
 3537SOL     OW22246   2.890   4.095  11.084  0.2466  0.4193  0.0761
 3537SOL    HW122247   2.971   4.052  11.112 -0.7768 -0.9694  0.8749
 3537SOL    HW222248   2.835   4.017  11.080  1.1230 -0.2754  1.4248
 3538SOL     OW22249   3.862   0.033   1.963 -0.3954 -0.8339  0.2134
 3538SOL    HW122250   3.896   0.052   2.051 -1.4318 -0.4143  0.5281
 3538SOL    HW222251   3.772   0.063   1.980 -0.2736 -0.8541  0.8791
 3539SOL     OW22252   0.062   0.687   2.141 -0.1388  0.0698 -0.1836
 3539SOL    HW122253   0.045   0.624   2.071 -2.3696  0.9606 -0.4336
 3539SOL    HW222254   0.063   0.640   2.225 -1.7662  0.4644  0.0518
 3540SOL     OW22255   3.053   1.408   2.609  0.0023 -0.3623  0.6822
 3540SOL    HW122256   2.991   1.357   2.556 -0.0806  2.4217 -1.9192
 3540SOL    HW222257   3.131   1.353   2.606 -0.3751 -1.0255  3.3389
 3541SOL     OW22258   4.736   1.908   2.774  0.4548 -0.1129 -0.1409
 3541SOL    HW122259   4.729   1.982   2.835 -1.3193 -1.4888  1.3390
 3541SOL    HW222260   0.090   1.895   2.763  0.3750 -1.3451  0.6720
 3542SOL     OW22261   2.375   1.325   8.196 -0.3888  0.0044  0.1525
 3542SOL    HW122262   2.310   1.297   8.260 -0.8557 -2.5156 -1.4515
 3542SOL    HW222263   2.379   1.419   8.214 -0.8489  0.4244 -1.8446
 3543SOL     OW22264   4.591   4.554  16.613 -0.1587 -0.1358  0.3133
 3543SOL    HW122265   4.604   4.500  16.535  0.2208 -3.1827  2.4760
 3543SOL    HW222266   4.516   4.606  16.584 -0.0823  0.4452  1.1590
 3544SOL     OW22267   1.463   0.616  17.416 -0.2567  0.2696  0.1049
 3544SOL    HW122268   1.385   0.659  17.383 -1.8042 -1.6661  1.1972
 3544SOL    HW222269   1.480   0.669  17.494  0.6084  1.8745 -1.2046
 3545SOL     OW22270   0.492   3.851  11.926 -0.2479 -0.4193  0.2283
 3545SOL    HW122271   0.519   3.911  11.995 -1.0948 -0.9790  1.0325
 3545SOL    HW222272   0.437   3.791  11.975  1.4369 -0.7219  1.7665
 3546SOL     OW22273   1.072   2.952  10.437  0.5345  0.0159 -0.0442
 3546SOL    HW122274   1.032   2.996  10.362  2.2104 -1.2381 -1.6677
 3546SOL    HW222275   1.161   2.986  10.447  0.7061  0.4390 -2.9393
 3547SOL     OW22276   1.086   4.698  15.246 -0.8974  0.0531 -0.0449
 3547SOL    HW122277   1.113   4.730  15.160 -1.3569  0.6970  0.0503
 3547SOL    HW222278   1.162   4.663  15.293 -0.0223  0.3456 -1.2395
 3548SOL     OW22279   1.983   2.042   8.838 -0.5038  0.4601  0.0406
 3548SOL    HW122280   2.066   2.081   8.809 -0.6826  0.5976 -0.2938
 3548SOL    HW222281   2.003   2.019   8.928 -0.8378 -1.0166 -0.2765
 3549SOL     OW22282   1.455   1.409   4.420 -0.2832  0.2892 -0.1011
 3549SOL    HW122283   1.436   1.479   4.356 -0.9281  1.8487  1.7896
 3549SOL    HW222284   1.532   1.364   4.387 -1.9468 -0.3584 -3.1436
 3550SOL     OW22285   0.317   0.641   5.842  0.1494  0.2852  0.1210
 3550SOL    HW122286   0.333   0.707   5.775 -2.3017  2.2767  1.4753
 3550SOL    HW222287   0.406   0.611   5.857 -0.7215 -1.7620  1.1493
 3551SOL     OW22288   3.746   0.522  16.952  0.1550 -0.1894  0.5854
 3551SOL    HW122289   3.655   0.551  16.944  0.1823 -0.3803 -0.3976
 3551SOL    HW222290   3.791   0.589  16.901 -0.3725  0.1473  0.5634
 3552SOL     OW22291   0.287   2.424   6.419 -0.4174  0.3451  0.1101
 3552SOL    HW122292   0.328   2.348   6.378 -0.8752  0.2779 -0.2183
 3552SOL    HW222293   0.197   2.425   6.386 -0.7076 -3.2807  0.7341
 3553SOL     OW22294   2.233   0.609   1.029  0.1881 -0.1998 -0.4696
 3553SOL    HW122295   2.327   0.622   1.013 -0.2492  0.6682 -2.3106
 3553SOL    HW222296   2.198   0.631   0.942 -1.7536 -1.3963  0.0161
 3554SOL     OW22297   4.512   0.162   8.334  0.6993  0.4679  0.0458
 3554SOL    HW122298   4.544   0.164   8.244 -1.0924  1.0834 -0.5728
 3554SOL    HW222299   4.539   0.080   8.374 -1.2829 -0.3341 -0.2594
 3555SOL     OW22300   1.940   4.496   7.993  0.2911  0.2667 -0.5254
 3555SOL    HW122301   1.858   4.475   7.949 -0.6838 -0.0244  1.4668
 3555SOL    HW222302   1.933   4.441   8.071 -1.5204  2.7685  1.0336
 3556SOL     OW22303   0.158   3.916   2.106  0.0686 -0.0568 -0.0255
 3556SOL    HW122304   0.219   3.971   2.155  0.1233 -0.1082 -0.0364
 3556SOL    HW222305   0.144   3.837   2.159  1.3775  0.3870  0.9734
 3557SOL     OW22306   4.386   4.234   9.636 -0.4068  0.2824 -0.1685
 3557SOL    HW122307   4.318   4.250   9.701 -0.8767  1.0846 -0.8517
 3557SOL    HW222308   4.437   4.165   9.678  0.4959  0.6738 -0.6161
 3558SOL     OW22309   0.193   2.598  13.796 -0.7058  0.3312  0.3589
 3558SOL    HW122310   0.203   2.683  13.840  1.7096  0.7497 -1.0331
 3558SOL    HW222311   0.155   2.618  13.711 -0.7651  0.4156  0.4052
 3559SOL     OW22312   4.303   3.631   7.483  0.2648 -0.7065  0.2756
 3559SOL    HW122313   4.368   3.684   7.529  0.2252 -2.0226  1.8673
 3559SOL    HW222314   4.289   3.556   7.541  2.0556  0.2341  1.9102
 3560SOL     OW22315   0.694   3.923   7.833 -0.0277  0.4904  0.0441
 3560SOL    HW122316   0.728   3.887   7.915 -0.0292 -0.6957 -0.4706
 3560SOL    HW222317   0.600   3.912   7.848  0.0033  0.5184  0.2607
 3561SOL     OW22318   3.437   3.448  13.898 -0.4527 -0.0349  0.1172
 3561SOL    HW122319   3.401   3.444  13.809 -0.0270  3.1813 -0.2247
 3561SOL    HW222320   3.362   3.416  13.949 -0.1568  2.4965  2.1279
 3562SOL     OW22321   1.391   4.129   1.016  0.4682 -0.4789 -0.0050
 3562SOL    HW122322   1.300   4.114   1.042 -0.2206 -0.3506 -2.3843
 3562SOL    HW222323   1.407   4.053   0.959 -3.6075 -1.0091 -0.4651
 3563SOL     OW22324   4.509   3.233   7.712  0.1834  0.2297 -0.6152
 3563SOL    HW122325   4.484   3.195   7.627 -1.3220 -2.3021  0.9788
 3563SOL    HW222326   4.505   3.326   7.690 -4.0157  0.8462  2.9791
 3564SOL     OW22327   4.614   0.035  12.641  0.1739 -0.1331 -0.4169
 3564SOL    HW122328   4.661   0.104  12.593  1.5841 -2.2363 -2.0727
 3564SOL    HW222329   4.685   4.716  12.669 -0.0120  0.4245  1.2008
 3565SOL     OW22330   0.562   2.953   0.395 -0.1555  0.0373  0.6143
 3565SOL    HW122331   0.472   2.926   0.380  0.2036 -0.1329 -1.2711
 3565SOL    HW222332   0.610   2.889   0.342  0.5940  0.7909  0.3696
 3566SOL     OW22333   2.607   1.932  14.882  0.0464  0.0337  0.0753
 3566SOL    HW122334   2.688   1.890  14.912  0.2607  0.3236 -0.0972
 3566SOL    HW222335   2.564   1.854  14.845  1.2727 -0.8315  0.4492
 3567SOL     OW22336   1.254   3.851   3.439  0.0103  0.0818 -0.5382
 3567SOL    HW122337   1.207   3.802   3.371  0.8737  0.0011 -1.0804
 3567SOL    HW222338   1.247   3.788   3.511 -3.0576 -0.3639 -1.2288
 3568SOL     OW22339   1.392   0.309  10.866 -0.1069  0.2223  0.0648
 3568SOL    HW122340   1.320   0.347  10.917  0.3062  1.2231 -0.1161
 3568SOL    HW222341   1.339   0.242  10.823  1.5041  0.0360 -1.5921
 3569SOL     OW22342   1.330   1.251   2.531 -0.3174  0.1114  0.5867
 3569SOL    HW122343   1.313   1.339   2.565 -4.2747  0.0657 -1.2930
 3569SOL    HW222344   1.255   1.239   2.474  0.4126 -1.5572 -0.0026
 3570SOL     OW22345   4.307   2.064  17.427  0.3515 -1.2670  0.2208
 3570SOL    HW122346   4.361   2.142  17.416  1.7082 -1.7831  3.2579
 3570SOL    HW222347   4.326   2.047  17.519  1.0982 -0.7164  0.1642
 3571SOL     OW22348   2.863   4.463  13.010  0.2240 -0.1903 -0.1910
 3571SOL    HW122349   2.807   4.460  13.087  1.2598 -0.5033  0.5470
 3571SOL    HW222350   2.929   4.399  13.037 -0.9460 -1.8603 -1.2626
 3572SOL     OW22351   4.485   2.142  15.153 -0.1821 -0.5508  0.3326
 3572SOL    HW122352   4.456   2.160  15.242 -1.5068  3.8135 -0.9598
 3572SOL    HW222353   4.398   2.116  15.120 -0.0401 -0.3289 -0.2280
 3573SOL     OW22354   1.270   1.944   9.805 -0.7210  0.0914  0.0046
 3573SOL    HW122355   1.262   2.028   9.760 -0.9473  0.2035  0.2508
 3573SOL    HW222356   1.287   1.875   9.741  1.0792 -0.1499  0.7279
 3574SOL     OW22357   3.707   3.852  17.473 -0.4992  0.2625 -0.1324
 3574SOL    HW122358   3.675   3.849  17.564 -1.9484 -2.2443 -0.7058
 3574SOL    HW222359   3.633   3.821  17.421 -0.3443  0.4273 -0.4456
 3575SOL     OW22360   2.572   0.580   8.858 -0.6919 -0.2364  0.5756
 3575SOL    HW122361   2.632   0.579   8.933 -2.7812  1.0829  2.2557
 3575SOL    HW222362   2.486   0.551   8.890 -1.2061  0.9341  0.2632
 3576SOL     OW22363   3.470   0.633   5.327  0.0388  0.1549  0.4034
 3576SOL    HW122364   3.453   0.602   5.417  2.2013 -4.1112 -0.6806
 3576SOL    HW222365   3.398   0.696   5.320  1.5177  2.0058  1.7490
 3577SOL     OW22366   0.186   1.363   6.382  0.5561  0.0311  0.0851
 3577SOL    HW122367   0.251   1.342   6.449  1.4883 -0.6748 -1.0487
 3577SOL    HW222368   0.121   1.418   6.427 -1.2491 -2.3251  0.3144
 3578SOL     OW22369   0.458   4.171  13.126  0.1247  0.1897 -0.1688
 3578SOL    HW122370   0.469   4.079  13.101 -1.4318 -0.2571  0.7813
 3578SOL    HW222371   0.548   4.201  13.109  0.0800  1.1654  1.3189
 3579SOL     OW22372   1.623   4.171   2.639 -0.1472  0.9000 -0.0216
 3579SOL    HW122373   1.574   4.100   2.680  1.1342  0.6646  1.0941
 3579SOL    HW222374   1.549   4.197   2.583 -1.2450 -0.2585  0.8784
 3580SOL     OW22375   0.079   1.774   8.428  0.4625  0.4317 -0.3779
 3580SOL    HW122376   0.156   1.789   8.374  1.2834 -0.8591  0.4577
 3580SOL    HW222377   0.108   1.819   8.508 -2.9282  0.2237  0.9548
 3581SOL     OW22378   2.521   4.161   3.327 -0.2277 -0.1851  0.4477
 3581SOL    HW122379   2.450   4.225   3.320 -2.0872 -2.1309  1.4473
 3581SOL    HW222380   2.524   4.141   3.233  0.5570 -0.1099  0.4548
 3582SOL     OW22381   3.295   1.152   7.831  0.0716 -0.3798 -0.4545
 3582SOL    HW122382   3.281   1.060   7.855  1.2059  0.1696  2.2934
 3582SOL    HW222383   3.222   1.198   7.873  1.4985 -0.8657  2.5031
 3583SOL     OW22384   1.301   2.583   7.550 -0.1499 -0.6744  0.3520
 3583SOL    HW122385   1.337   2.631   7.625  0.5980  0.4019 -0.6963
 3583SOL    HW222386   1.209   2.569   7.571 -0.8790  6.2512  1.8418
 3584SOL     OW22387   1.992   3.428  16.760  0.5111 -0.4336 -0.4852
 3584SOL    HW122388   2.030   3.515  16.770 -1.5187  0.4670 -0.6449
 3584SOL    HW222389   1.908   3.425  16.806  0.8459 -0.3281  0.1349
 3585SOL     OW22390   4.405   1.534  13.073  0.1620  0.1186  0.0577
 3585SOL    HW122391   4.406   1.611  13.129  0.2427 -0.7241  1.2044
 3585SOL    HW222392   4.390   1.578  12.989  3.3588  0.9329 -0.0993
 3586SOL     OW22393   3.552   3.444   2.448 -0.4024 -0.2406 -0.3910
 3586SOL    HW122394   3.539   3.535   2.474  1.6083 -0.1269  0.2107
 3586SOL    HW222395   3.476   3.400   2.486  0.0845  1.5207  2.5985
 3587SOL     OW22396   0.272   1.247   1.952 -0.0567  0.3944  0.5154
 3587SOL    HW122397   0.327   1.302   1.896  0.5444 -0.1827  0.5389
 3587SOL    HW222398   0.203   1.308   1.980  0.7288  1.4811  0.0735
 3588SOL     OW22399   4.656   0.953  17.188  0.3911  0.0860  0.1792
 3588SOL    HW122400   0.000   0.991  17.214  0.8279 -1.0850  0.5060
 3588SOL    HW222401   4.636   1.007  17.112  1.7564  0.6074  0.1870
 3589SOL     OW22402   3.046   3.712   8.810  0.2912 -0.0422 -0.3300
 3589SOL    HW122403   2.951   3.717   8.803  0.1579 -1.4247  0.4786
 3589SOL    HW222404   3.070   3.637   8.756  0.1886 -1.5881  1.7708
 3590SOL     OW22405   2.873   4.179   2.192  0.1564  1.0305 -0.6017
 3590SOL    HW122406   2.792   4.211   2.231  0.4445  2.0219 -0.8122
 3590SOL    HW222407   2.866   4.205   2.100  0.6052  0.1325 -0.8906
 3591SOL     OW22408   3.675   3.603   4.053 -0.1457 -0.3983  0.1585
 3591SOL    HW122409   3.644   3.646   3.973  0.3642  1.6016  1.0327
 3591SOL    HW222410   3.615   3.629   4.122 -0.7559  2.5114 -1.4765
 3592SOL     OW22411   3.915   0.096  17.133  0.0861 -0.2075  0.1431
 3592SOL    HW122412   3.920   0.190  17.147 -0.8087 -0.4147  1.8875
 3592SOL    HW222413   3.887   0.066  17.220 -0.2392  2.2032  0.8670
 3593SOL     OW22414   0.236   3.628   3.321 -0.8210  0.0207 -0.5584
 3593SOL    HW122415   0.264   3.550   3.369  4.1711  0.9335 -1.9912
 3593SOL    HW222416   0.238   3.597   3.231  0.4677 -0.1578 -0.4666
 3594SOL     OW22417   2.166   1.824  15.732 -0.2275  0.2247  0.0702
 3594SOL    HW122418   2.188   1.752  15.790  1.1245  0.3035 -0.3552
 3594SOL    HW222419   2.248   1.872  15.719 -2.2577  3.5698 -0.4017
 3595SOL     OW22420   0.794   1.502   2.383  0.1406 -0.2991 -0.6537
 3595SOL    HW122421   0.832   1.563   2.321 -1.4632  0.8824 -0.4826
 3595SOL    HW222422   0.705   1.536   2.397 -0.1735 -1.3226 -0.1536
 3596SOL     OW22423   3.750   1.054   3.192 -0.1540  0.0549 -0.3464
 3596SOL    HW122424   3.820   1.110   3.159  0.5904 -0.8964 -0.3837
 3596SOL    HW222425   3.768   0.971   3.147  2.3950  1.4541 -1.8888
 3597SOL     OW22426   3.435   4.654   3.509 -0.3365  0.0651 -0.2803
 3597SOL    HW122427   3.391   4.736   3.488 -0.0720  0.4262  0.5940
 3597SOL    HW222428   3.493   4.638   3.435  0.6314  0.5219  0.3888
 3598SOL     OW22429   1.049   3.956  11.628  0.3911 -0.1453 -0.5503
 3598SOL    HW122430   1.129   3.905  11.615  0.2612  0.2349 -2.7672
 3598SOL    HW222431   1.042   4.011  11.550  1.0991  3.5178  1.9998
 3599SOL     OW22432   1.738   2.684  10.203  0.0835  0.3309  0.2342
 3599SOL    HW122433   1.809   2.625  10.178  0.2761 -0.0192  1.5854
 3599SOL    HW222434   1.700   2.692  10.115 -1.1119  0.7065  0.7727
 3600SOL     OW22435   4.365   4.468   6.945  0.0780  0.2985 -1.1166
 3600SOL    HW122436   4.303   4.422   6.888 -1.6251  0.3206  0.7351
 3600SOL    HW222437   4.417   4.388   6.948  0.8215  0.8567  0.8472
 3601SOL     OW22438   4.614   0.863   4.820  0.5615 -0.0317  0.6325
 3601SOL    HW122439   4.643   0.866   4.729  1.4907 -0.5484  0.9195
 3601SOL    HW222440   4.696   0.853   4.869  1.3240 -0.1503 -0.6866
 3602SOL     OW22441   0.427   4.333   1.693  0.6180  0.0479  0.0504
 3602SOL    HW122442   0.497   4.391   1.724 -0.6537 -0.2193  3.3482
 3602SOL    HW222443   0.475   4.250   1.690 -0.8482 -0.7213 -2.5983
 3603SOL     OW22444   0.973   0.894  13.570  0.0831  0.2415 -0.3498
 3603SOL    HW122445   1.003   0.850  13.490 -0.9547 -0.1508 -0.5154
 3603SOL    HW222446   0.888   0.924  13.537 -0.5703 -2.3724 -1.0256
 3604SOL     OW22447   2.948   3.314   8.117 -0.3418  0.1297  0.1260
 3604SOL    HW122448   2.958   3.228   8.157 -2.0354 -0.2413 -0.2417
 3604SOL    HW222449   2.995   3.378   8.169  1.1280 -1.0293  0.2292
 3605SOL     OW22450   1.380   0.780   5.766 -0.7866  0.4113 -0.2585
 3605SOL    HW122451   1.363   0.710   5.829 -0.1213 -1.6054 -2.3467
 3605SOL    HW222452   1.462   0.752   5.727 -1.0537 -0.7546  0.0341
 3606SOL     OW22453   1.040   1.181   6.885 -0.2142 -0.2810 -0.1496
 3606SOL    HW122454   0.954   1.185   6.843  0.1221  1.0911 -0.7273
 3606SOL    HW222455   1.022   1.211   6.974  0.9185  0.3718 -0.1381
 3607SOL     OW22456   2.297   0.897   4.030  0.1454  0.6389 -0.0887
 3607SOL    HW122457   2.209   0.912   3.994  0.4236  2.0002 -0.2105
 3607SOL    HW222458   2.304   0.802   4.026 -0.3803  0.5633  0.6351
 3608SOL     OW22459   4.389   1.640   7.605  0.0906 -0.0193 -0.4280
 3608SOL    HW122460   4.325   1.640   7.534 -1.0439 -1.2316  0.5979
 3608SOL    HW222461   4.337   1.686   7.672  1.1666 -0.7667  0.9262
 3609SOL     OW22462   4.057   3.307   3.496  0.0598 -0.4741 -0.2056
 3609SOL    HW122463   4.065   3.226   3.445  0.4156 -1.2852  1.1490
 3609SOL    HW222464   4.097   3.377   3.445 -1.5818  0.4514 -0.2332
 3610SOL     OW22465   0.110   1.252  17.344 -0.4932  0.0423 -0.1302
 3610SOL    HW122466   0.025   1.260  17.385 -1.1344  1.4838 -1.7499
 3610SOL    HW222467   0.142   1.342  17.339  0.1667 -0.2672 -1.6775
 3611SOL     OW22468   2.597   4.423   1.902 -0.0044  0.7369  0.6651
 3611SOL    HW122469   2.664   4.439   1.969  0.1710 -1.4308  1.0206
 3611SOL    HW222470   2.608   4.328   1.892 -1.7418  0.5749  0.4300
 3612SOL     OW22471   3.498   0.229   7.085 -0.2855 -0.0318 -0.3088
 3612SOL    HW122472   3.578   0.187   7.117 -0.9742 -1.1182  0.0032
 3612SOL    HW222473   3.513   0.251   6.993 -0.7989  1.0780 -0.1303
 3613SOL     OW22474   0.621   1.658  11.548 -0.0193 -0.0026 -0.2699
 3613SOL    HW122475   0.612   1.687  11.639 -0.8464  1.5810 -0.8459
 3613SOL    HW222476   0.660   1.736  11.507 -0.1253  0.5941  0.7562
 3614SOL     OW22477   1.252   4.046   1.380 -0.5945  0.2805 -0.1422
 3614SOL    HW122478   1.340   4.023   1.352 -0.6084  0.5377 -0.3959
 3614SOL    HW222479   1.270   4.095   1.460  2.2707 -3.0232  1.2391
 3615SOL     OW22480   1.349   1.702   6.610 -0.1135 -0.1512  0.2796
 3615SOL    HW122481   1.421   1.712   6.547 -1.1307 -0.4007 -0.9364
 3615SOL    HW222482   1.379   1.622   6.653 -0.1351 -0.0634  0.4563
 3616SOL     OW22483   4.612   2.275   4.951 -0.7347  0.2418 -0.2853
 3616SOL    HW122484   4.689   2.248   4.900 -0.0236  0.1561  0.8240
 3616SOL    HW222485   4.643   2.349   5.003  1.5080 -0.8095 -0.1306
 3617SOL     OW22486   4.645   1.853   4.346  0.0036  0.1016  0.1521
 3617SOL    HW122487   4.687   1.837   4.261  0.8629  0.4113  0.5156
 3617SOL    HW222488   4.722   1.864   4.402 -0.0819  2.3904 -0.1490
 3618SOL     OW22489   1.018   2.221  11.141  0.1438 -0.0509 -1.1033
 3618SOL    HW122490   1.104   2.192  11.109 -1.7324 -4.6884 -2.0220
 3618SOL    HW222491   0.986   2.274  11.068 -0.7842 -1.5708 -1.8171
 3619SOL     OW22492   1.586   0.920   2.164 -0.2433 -0.2049  0.4952
 3619SOL    HW122493   1.541   1.003   2.182  1.2410  0.8058 -0.4841
 3619SOL    HW222494   1.551   0.861   2.231 -0.4325  0.5871  1.0949
 3620SOL     OW22495   2.232   3.818   0.311 -0.2727  0.1420  0.1308
 3620SOL    HW122496   2.163   3.850   0.369  0.9789  0.8038  1.2421
 3620SOL    HW222497   2.309   3.827   0.367 -1.6104  1.2757  1.7688
 3621SOL     OW22498   2.409   3.946   3.115  0.5038  0.4974  0.6328
 3621SOL    HW122499   2.464   3.894   3.056  1.2093  1.8955  0.0616
 3621SOL    HW222500   2.368   3.873   3.161 -1.1301  1.2510  0.4096
 3622SOL     OW22501   0.477   2.779   6.030  0.4765 -0.4013 -0.2239
 3622SOL    HW122502   0.400   2.760   5.975  0.1217 -2.3913  0.9787
 3622SOL    HW222503   0.539   2.765   5.959  0.6190  0.9096 -0.3585
 3623SOL     OW22504   0.991   0.561   0.198  0.2038 -0.1653 -0.2068
 3623SOL    HW122505   0.982   0.585   0.106 -1.1968  0.3963  0.0650
 3623SOL    HW222506   1.036   0.638   0.232 -0.4143 -0.6704  1.7288
 3624SOL     OW22507   1.872   4.345   4.443 -0.6213  0.0974 -0.5221
 3624SOL    HW122508   1.953   4.370   4.397  0.1817  1.7485  1.8354
 3624SOL    HW222509   1.894   4.296   4.522  1.1083  0.4916 -0.7423
 3625SOL     OW22510   0.035   2.701   3.768  0.4489  0.5051 -0.2985
 3625SOL    HW122511   4.705   2.691   3.832  0.1703  1.6959 -0.4192
 3625SOL    HW222512   4.717   2.720   3.694 -2.2036 -0.4768  1.5492
 3626SOL     OW22513   4.218   1.818   5.030 -0.5854  0.0859 -0.1236
 3626SOL    HW122514   4.201   1.862   4.947  0.3520 -0.0891 -0.4133
 3626SOL    HW222515   4.192   1.729   5.007 -1.0240  0.6628 -1.8355
 3627SOL     OW22516   2.059   2.216   4.230 -0.3130 -0.3726  0.3700
 3627SOL    HW122517   2.150   2.207   4.259  0.1286 -0.6540 -1.0604
 3627SOL    HW222518   2.043   2.310   4.241 -1.0545 -0.3419 -0.9973
 3628SOL     OW22519   2.116   1.850   2.807  0.1857 -0.1733  0.0516
 3628SOL    HW122520   2.175   1.872   2.879  0.2485 -0.2900  0.0366
 3628SOL    HW222521   2.046   1.911   2.831  0.2596 -0.3483  0.7192
 3629SOL     OW22522   1.025   2.117   3.254 -0.2861  0.0338 -0.8009
 3629SOL    HW122523   1.028   2.027   3.285  0.2376  0.5046  0.5036
 3629SOL    HW222524   1.098   2.155   3.303  0.0900 -0.4475 -0.9875
 3630SOL     OW22525   0.215   3.274   4.222  0.0431 -0.8908 -0.4458
 3630SOL    HW122526   0.267   3.199   4.194 -0.4259 -1.3467 -0.1052
 3630SOL    HW222527   0.152   3.265   4.151  0.3846  1.6637 -1.0491
 3631SOL     OW22528   0.622   1.903   5.891  0.5273 -0.2591  0.3364
 3631SOL    HW122529   0.590   1.901   5.801  0.5600  0.2028  0.3122
 3631SOL    HW222530   0.535   1.886   5.928 -0.8272  0.5002 -2.4763
 3632SOL     OW22531   1.270   2.886   7.127 -0.4345  0.3733 -0.1526
 3632SOL    HW122532   1.308   2.875   7.214 -1.7298 -2.3044  0.0873
 3632SOL    HW222533   1.193   2.943   7.131  0.0343  0.7063  4.1020
 3633SOL     OW22534   4.268   0.834   2.152  0.1525  0.0065 -0.4397
 3633SOL    HW122535   4.286   0.813   2.060 -0.1043  1.4593 -0.8169
 3633SOL    HW222536   4.175   0.813   2.139 -0.2506  2.2760 -1.1246
 3634SOL     OW22537   3.878   1.746   6.712  0.5476 -0.8455 -0.4032
 3634SOL    HW122538   3.849   1.738   6.621 -2.4423  0.8516  0.3838
 3634SOL    HW222539   3.845   1.834   6.731  0.3607 -0.6367 -1.7128
 3635SOL     OW22540   2.050   3.027   8.342  0.1108 -0.3651 -0.1643
 3635SOL    HW122541   2.009   2.941   8.334  2.3664 -1.5223  0.7967
 3635SOL    HW222542   2.040   3.053   8.251 -0.3329 -0.8435 -0.2559
 3636SOL     OW22543   2.652   0.785   7.956 -0.7136  0.4920 -0.0873
 3636SOL    HW122544   2.668   0.844   8.030 -0.4959  0.0497  0.2220
 3636SOL    HW222545   2.585   0.830   7.904 -1.4055 -0.6286 -0.1738
 3637SOL     OW22546   0.398   2.265   4.442  0.4502  0.2074 -0.0211
 3637SOL    HW122547   0.366   2.264   4.532  0.6121 -2.4835  0.0040
 3637SOL    HW222548   0.445   2.183   4.454  0.2919 -0.0879 -1.3997
 3638SOL     OW22549   0.507   4.316   7.320 -0.0674  0.5003 -0.3558
 3638SOL    HW122550   0.528   4.310   7.413 -0.2452  0.6763 -0.3042
 3638SOL    HW222551   0.484   4.409   7.325  3.4276  1.2491  1.9659
 3639SOL     OW22552   4.033   1.588  14.023  0.1440 -0.4314  0.6271
 3639SOL    HW122553   4.124   1.617  14.030  0.0890 -0.4307  1.2975
 3639SOL    HW222554   4.003   1.662  13.968 -1.8963  0.1585  2.5204
 3640SOL     OW22555   2.900   0.872   9.931  0.0051  0.1793 -0.1741
 3640SOL    HW122556   2.893   0.781   9.959  1.4316 -0.3199 -1.4556
 3640SOL    HW222557   2.969   0.866   9.866  0.2123  1.6028 -0.1009
 3641SOL     OW22558   0.483   3.614  11.665 -0.1585  0.0975  0.0300
 3641SOL    HW122559   0.431   3.543  11.702  0.4939 -0.8491 -0.8660
 3641SOL    HW222560   0.532   3.566  11.598 -1.3182 -0.4189 -0.4448
 3642SOL     OW22561   3.890   0.332   5.782 -0.1629  0.0540 -0.1976
 3642SOL    HW122562   3.876   0.385   5.860 -1.8269  1.6952 -1.6306
 3642SOL    HW222563   3.859   0.245   5.809 -1.1713  0.0652 -1.3287
 3643SOL     OW22564   0.889   2.135   1.265 -0.7377 -0.4899 -0.2165
 3643SOL    HW122565   0.967   2.090   1.235 -0.8973 -0.8952 -0.0281
 3643SOL    HW222566   0.885   2.197   1.192  0.7347 -0.2233 -0.0704
 3644SOL     OW22567   4.726   2.511  13.143 -0.3635  0.0548 -0.4842
 3644SOL    HW122568   0.082   2.512  13.151 -0.3630  0.8389 -0.5762
 3644SOL    HW222569   4.706   2.596  13.182  1.6352  0.5084 -0.4188
 3645SOL     OW22570   2.074   2.943  12.379  0.8424  0.2061 -0.0235
 3645SOL    HW122571   2.153   2.910  12.423  0.4767  0.5646  0.9177
 3645SOL    HW222572   2.052   3.022  12.428 -1.6550  0.0078 -0.8073
 3646SOL     OW22573   4.301   3.859   3.799  0.1342  0.0949 -0.0581
 3646SOL    HW122574   4.395   3.856   3.817  0.0288  1.2830  0.6812
 3646SOL    HW222575   4.274   3.767   3.804 -1.1121  0.5185  0.9613
 3647SOL     OW22576   2.442   2.035  16.226 -0.0878  0.0818 -0.1955
 3647SOL    HW122577   2.352   2.023  16.198 -0.5535 -0.8867  1.7541
 3647SOL    HW222578   2.477   1.947  16.242 -2.3235 -0.6194  0.7560
 3648SOL     OW22579   0.120   0.411  14.855  0.1273 -0.5980  0.3485
 3648SOL    HW122580   0.102   0.422  14.761 -0.6877 -0.5536  0.5069
 3648SOL    HW222581   0.203   0.457  14.868 -1.3781  3.3590 -4.0358
 3649SOL     OW22582   2.534   4.628  11.110  0.4334 -0.2115 -0.4404
 3649SOL    HW122583   2.570   4.545  11.141 -0.0900 -0.0935  0.4875
 3649SOL    HW222584   2.613   4.680  11.101 -0.8429  1.8286  0.1641
 3650SOL     OW22585   1.756   0.396  11.796  0.0468  0.6153 -0.2902
 3650SOL    HW122586   1.689   0.363  11.857 -0.9083  0.7590 -1.2552
 3650SOL    HW222587   1.708   0.398  11.713 -2.1875 -0.0486  0.9886
 3651SOL     OW22588   2.386   2.951   7.186  0.5933 -0.1034 -0.1215
 3651SOL    HW122589   2.365   3.011   7.115 -0.5059  0.0327  0.3074
 3651SOL    HW222590   2.426   3.000   7.257  0.9727  1.0621 -1.1540
 3652SOL     OW22591   4.569   1.716  16.536 -0.2061 -0.5530 -0.3966
 3652SOL    HW122592   4.512   1.792  16.522  1.8293  0.6669 -2.0582
 3652SOL    HW222593   4.612   1.712  16.450  1.9517 -0.8567  0.7015
 3653SOL     OW22594   1.200   3.859   6.649 -0.0480  0.6892 -0.0937
 3653SOL    HW122595   1.274   3.802   6.668 -1.2993 -0.8579  0.1794
 3653SOL    HW222596   1.240   3.934   6.606  3.6031 -1.4174 -0.3745
 3654SOL     OW22597   0.980   1.258   4.332  0.4532  0.0704 -0.0294
 3654SOL    HW122598   1.072   1.235   4.342 -0.5309 -3.8925  0.1601
 3654SOL    HW222599   0.965   1.332   4.391  1.1496 -0.3181  0.6325
 3655SOL     OW22600   2.901   0.378   2.514 -0.0713  0.4044 -0.2589
 3655SOL    HW122601   2.891   0.290   2.551  1.1370 -0.6913 -2.5694
 3655SOL    HW222602   2.912   0.433   2.591  0.5192 -0.7625  0.4916
 3656SOL     OW22603   3.428   2.793   1.120  0.1516  0.0860  0.1197
 3656SOL    HW122604   3.517   2.764   1.139  0.1494 -0.8582 -1.2832
 3656SOL    HW222605   3.420   2.878   1.164 -0.2416  0.9107 -1.5103
 3657SOL     OW22606   2.445   3.904  17.036 -0.3846 -0.8766 -0.4974
 3657SOL    HW122607   2.468   3.814  17.060  0.1921 -0.7418 -0.5444
 3657SOL    HW222608   2.364   3.885  16.988 -0.5506 -0.7353 -0.2683
 3658SOL     OW22609   3.263   0.692   3.623 -0.0319 -0.1677 -0.4620
 3658SOL    HW122610   3.181   0.719   3.664 -0.2991  1.5866 -2.1419
 3658SOL    HW222611   3.322   0.765   3.645 -0.9792  1.3262 -2.7806
 3659SOL     OW22612   0.441   3.860   9.462 -0.3433  0.2169 -0.4249
 3659SOL    HW122613   0.444   3.843   9.368  1.1349 -0.4301 -0.2532
 3659SOL    HW222614   0.394   3.944   9.468  0.9965  1.1661 -3.3532
 3660SOL     OW22615   4.460   1.899   5.746 -0.2334  0.0488 -0.0634
 3660SOL    HW122616   4.499   1.980   5.715 -2.1931  0.4639 -1.4636
 3660SOL    HW222617   4.403   1.876   5.672 -0.1845  1.1323 -0.4261
 3661SOL     OW22618   1.327   2.055   7.755  0.3718 -0.6842  0.4015
 3661SOL    HW122619   1.377   2.137   7.753  0.0042 -0.5862 -4.2817
 3661SOL    HW222620   1.321   2.035   7.848 -1.7039 -0.6566  0.2767
 3662SOL     OW22621   2.102   2.211   3.393 -0.1642 -0.0238 -0.5568
 3662SOL    HW122622   2.023   2.265   3.384 -0.9239 -1.0675 -0.1316
 3662SOL    HW222623   2.178   2.269   3.388 -0.5412  0.5017 -0.1220
 3663SOL     OW22624   4.653   3.979   9.460  0.2770 -0.6280 -0.4465
 3663SOL    HW122625   4.616   3.984   9.549 -0.7550 -1.0096 -0.8469
 3663SOL    HW222626   4.606   4.057   9.430  1.2302 -0.3424 -1.1865
 3664SOL     OW22627   3.251   4.029  15.860  0.1363  0.2082  0.3774
 3664SOL    HW122628   3.200   3.959  15.899 -0.0323 -0.0169 -0.2459
 3664SOL    HW222629   3.243   4.008  15.767 -0.6686  2.3644 -0.0533
 3665SOL     OW22630   0.213   3.381   3.696 -0.1731  0.4390 -0.2553
 3665SOL    HW122631   0.170   3.368   3.612 -2.1194  0.7427  0.6817
 3665SOL    HW222632   0.229   3.288   3.714  1.8300  1.2554  2.1848
 3666SOL     OW22633   0.652   2.501   8.428 -0.1958 -0.0008 -0.0705
 3666SOL    HW122634   0.618   2.429   8.375  0.1694 -0.2386  0.0153
 3666SOL    HW222635   0.670   2.567   8.361 -2.3288  1.6875  1.0068
 3667SOL     OW22636   0.890   4.665   6.108  0.2219 -0.2834 -0.1138
 3667SOL    HW122637   0.919   4.716   6.033 -0.9864  2.3130  1.1882
 3667SOL    HW222638   0.946   4.703   6.176 -0.9164 -0.8739  1.1738
 3668SOL     OW22639   0.081   4.208  17.110 -0.1444  0.4834  0.4983
 3668SOL    HW122640   0.036   4.163  17.038  0.4659  1.6268 -0.6115
 3668SOL    HW222641   0.146   4.255  17.057  0.1510 -1.2205 -0.6742
 3669SOL     OW22642   3.500   1.600   3.730 -0.0253  0.2912  0.1694
 3669SOL    HW122643   3.545   1.538   3.672  0.3108  1.4537 -0.8240
 3669SOL    HW222644   3.475   1.535   3.794  2.2206  1.7206  2.4946
 3670SOL     OW22645   2.930   3.884   1.883 -0.3092 -0.2260  0.5150
 3670SOL    HW122646   2.951   3.884   1.790  1.8487 -0.4574  0.9840
 3670SOL    HW222647   3.018   3.894   1.921  0.3905 -0.4984 -1.0350
 3671SOL     OW22648   3.514   1.258   1.382 -0.5167  0.5193 -0.1295
 3671SOL    HW122649   3.452   1.300   1.442 -0.3844  1.1194 -0.4075
 3671SOL    HW222650   3.587   1.227   1.435  1.0304  0.2176 -2.4303
 3672SOL     OW22651   3.820   3.447   2.558  0.2877 -0.6820  0.3466
 3672SOL    HW122652   3.766   3.451   2.480  1.0775  0.9785 -0.1042
 3672SOL    HW222653   3.845   3.354   2.553  0.5490 -0.4832 -1.9609
 3673SOL     OW22654   1.260   3.758  16.833 -0.6333  0.3798 -0.1870
 3673SOL    HW122655   1.268   3.665  16.853  1.3572  0.5076 -0.3852
 3673SOL    HW222656   1.330   3.769  16.769  2.1577 -1.6988  2.5027
 3674SOL     OW22657   0.710   4.222  13.013 -0.1759 -0.7528 -0.5885
 3674SOL    HW122658   0.797   4.255  13.033 -0.1642 -1.2335  0.1495
 3674SOL    HW222659   0.734   4.132  12.992 -0.1957 -0.4477 -1.9511
 3675SOL     OW22660   3.740   1.843  11.796  0.1600  0.2211 -0.3739
 3675SOL    HW122661   3.756   1.764  11.846 -0.4593  0.9330  0.9400
 3675SOL    HW222662   3.833   1.868  11.793  0.3385 -0.4966 -0.7709
 3676SOL     OW22663   3.200   3.694   1.110  0.0087  0.4426 -0.1631
 3676SOL    HW122664   3.229   3.606   1.088  0.8255  0.7435 -0.3136
 3676SOL    HW222665   3.284   3.740   1.111  0.8109 -1.0151 -0.3163
 3677SOL     OW22666   2.617   4.427   3.489  0.2649  0.1618  0.0444
 3677SOL    HW122667   2.622   4.337   3.457  1.8742 -0.4137  1.9049
 3677SOL    HW222668   2.668   4.478   3.427 -2.0132 -0.3193 -2.2459
 3678SOL     OW22669   1.892   1.729  17.032  0.1262 -0.1502 -0.6339
 3678SOL    HW122670   1.976   1.711  16.989  0.7012  0.4527  0.2260
 3678SOL    HW222671   1.832   1.675  16.981  1.0265 -0.8760 -0.9353
 3679SOL     OW22672   1.489   2.504  15.606 -0.6306  0.0221  0.5279
 3679SOL    HW122673   1.531   2.419  15.616 -0.1961  0.1057 -0.4777
 3679SOL    HW222674   1.561   2.566  15.618 -0.0304 -0.3570 -1.0372
 3680SOL     OW22675   3.158   1.954   1.517  0.5222  0.3885 -0.3123
 3680SOL    HW122676   3.160   2.040   1.476  1.9694  0.0723 -0.9047
 3680SOL    HW222677   3.125   1.967   1.606  2.1624  0.3693  0.2997
 3681SOL     OW22678   2.578   3.763   7.418 -0.6612  0.0228  0.3118
 3681SOL    HW122679   2.501   3.818   7.429  0.0780  0.4367  3.6068
 3681SOL    HW222680   2.553   3.691   7.477  0.5014  0.3599  1.2188
 3682SOL     OW22681   3.317   1.747   3.590  0.0183 -0.1037 -0.1457
 3682SOL    HW122682   3.322   1.727   3.496 -2.1319 -1.7865  0.0998
 3682SOL    HW222683   3.395   1.700   3.619  0.4696  0.1485 -0.9395
 3683SOL     OW22684   3.568   2.474   6.418  0.1985  0.1195  0.2447
 3683SOL    HW122685   3.528   2.560   6.406  1.5239  0.5591 -1.0416
 3683SOL    HW222686   3.504   2.425   6.470  0.8996 -2.4714 -1.3117
 3684SOL     OW22687   4.382   1.024   2.318 -0.0435  0.0223  0.2156
 3684SOL    HW122688   4.305   1.006   2.372 -1.2214  0.4996 -1.3157
 3684SOL    HW222689   4.362   0.957   2.252 -1.4454  0.2109  0.4592
 3685SOL     OW22690   2.667   3.403   7.986  0.4149  0.4284 -0.2692
 3685SOL    HW122691   2.621   3.478   7.947  0.9060  1.4247  1.0768
 3685SOL    HW222692   2.756   3.438   7.978  0.4995  0.5278  1.0792
 3686SOL     OW22693   2.270   0.254  16.051  0.2244  0.7409  0.3268
 3686SOL    HW122694   2.336   0.274  16.117  1.1643 -0.7024 -0.1919
 3686SOL    HW222695   2.191   0.290  16.091  0.7979  0.3257  1.8338
 3687SOL     OW22696   3.779   3.223   1.353 -0.2231  0.2799 -0.5301
 3687SOL    HW122697   3.732   3.280   1.413  1.1329  1.4323 -0.5702
 3687SOL    HW222698   3.821   3.161   1.413  1.8147 -0.4106 -2.6442
 3688SOL     OW22699   1.173   4.046   1.964  0.4836 -0.6437 -0.0762
 3688SOL    HW122700   1.155   4.037   2.057 -1.4877  0.7062 -0.3276
 3688SOL    HW222701   1.082   4.052   1.937  0.5476 -0.8598 -0.3403
 3689SOL     OW22702   0.457   1.424   1.830 -0.3024 -0.2250 -0.6342
 3689SOL    HW122703   0.425   1.514   1.835 -0.1649 -0.2201  0.2086
 3689SOL    HW222704   0.518   1.432   1.903 -1.4819  1.1297  0.1754
 3690SOL     OW22705   0.129   4.144  10.924  0.5399  0.3896 -0.0880
 3690SOL    HW122706   0.091   4.108  11.004  2.0013  1.9893  1.3302
 3690SOL    HW222707   0.093   4.233  10.925  0.8491  0.5224 -0.8185
 3691SOL     OW22708   2.820   3.890  14.646  0.8478 -0.0631 -0.3005
 3691SOL    HW122709   2.880   3.902  14.573 -0.7261  1.6464 -1.2959
 3691SOL    HW222710   2.744   3.860  14.596 -0.1760  0.1529  1.1302
 3692SOL     OW22711   2.085   3.322   9.919  0.7713 -0.0782 -0.0669
 3692SOL    HW122712   2.169   3.276   9.912  0.8353  0.4646 -3.0724
 3692SOL    HW222713   2.056   3.276   9.998  3.2105 -0.8979  0.3569
 3693SOL     OW22714   0.362   2.445   9.742 -0.1480 -0.3313 -0.3448
 3693SOL    HW122715   0.457   2.450   9.755  0.1693 -0.2527 -2.5954
 3693SOL    HW222716   0.347   2.360   9.784 -0.0067  0.7203  1.8184
 3694SOL     OW22717   2.862   3.170  15.135 -0.2892 -0.5187 -0.1066
 3694SOL    HW122718   2.777   3.211  15.114 -0.5835  0.0304  2.1576
 3694SOL    HW222719   2.828   3.083  15.152 -0.1205 -1.0093 -2.2616
 3695SOL     OW22720   3.848   1.784   2.293 -0.2046 -0.0052 -0.1301
 3695SOL    HW122721   3.861   1.877   2.306  0.0176 -0.3123  1.7627
 3695SOL    HW222722   3.896   1.779   2.209 -0.1223 -0.5597 -0.0533
 3696SOL     OW22723   0.975   3.451  12.499  0.5865  1.0495 -0.0174
 3696SOL    HW122724   0.979   3.446  12.404 -0.6529 -2.5336  0.1344
 3696SOL    HW222725   1.065   3.455  12.531  0.5512 -1.8328  0.3741
 3697SOL     OW22726   3.390   2.779  11.261  0.2439  0.0555 -0.0369
 3697SOL    HW122727   3.435   2.705  11.301  0.0303 -0.9157 -1.5734
 3697SOL    HW222728   3.309   2.759  11.308  0.1845 -1.1308 -0.6493
 3698SOL     OW22729   2.946   0.503   3.883  0.4626  0.1548 -0.3353
 3698SOL    HW122730   2.876   0.513   3.819  0.3379  1.0207 -0.0541
 3698SOL    HW222731   3.000   0.430   3.850  1.0480 -0.7427  2.5554
 3699SOL     OW22732   2.450   2.794   9.290 -0.1841 -0.2567 -0.0454
 3699SOL    HW122733   2.476   2.812   9.380  0.6002  1.0071 -0.5219
 3699SOL    HW222734   2.423   2.879   9.255  1.7194  0.5928  0.5156
 3700SOL     OW22735   3.052   0.022   5.828  0.1189  0.5195  0.0939
 3700SOL    HW122736   3.116   0.085   5.795 -3.1311  3.9997  0.4179
 3700SOL    HW222737   3.097   4.732   5.907  2.1565  0.8696 -0.9460
 3701SOL     OW22738   1.228   4.340   1.964 -0.0440 -0.1927  0.3096
 3701SOL    HW122739   1.282   4.270   1.999 -0.2030 -0.2846  0.3692
 3701SOL    HW222740   1.138   4.319   1.989 -1.3625  1.3396 -3.0928
 3702SOL     OW22741   0.575   4.574   1.325 -0.2081  0.1285  0.3675
 3702SOL    HW122742   0.557   4.652   1.378 -1.1593 -0.4088  0.8271
 3702SOL    HW222743   0.539   4.597   1.239 -0.3894 -0.7378  0.2189
 3703SOL     OW22744   4.529   0.140   4.863  0.3302 -0.7891  0.4780
 3703SOL    HW122745   4.556   0.055   4.827 -0.1234  0.1839 -2.1918
 3703SOL    HW222746   4.445   0.116   4.902  0.4418 -1.1788  0.4796
 3704SOL     OW22747   3.303   1.246   3.843  0.1488  0.4226  0.5771
 3704SOL    HW122748   3.282   1.218   3.753  0.7808 -2.0063  1.1878
 3704SOL    HW222749   3.249   1.325   3.847 -0.2350  0.2596 -1.1176
 3705SOL     OW22750   3.476   4.718   8.914  0.0976  0.3596 -0.2321
 3705SOL    HW122751   3.448   4.656   8.982 -3.1189  0.3925 -1.5186
 3705SOL    HW222752   3.498   0.048   8.975 -0.7237  1.0104 -0.6664
 3706SOL     OW22753   4.322   2.817   2.367 -0.1249  0.7482  0.6653
 3706SOL    HW122754   4.353   2.837   2.279 -0.6042  1.3213  0.6226
 3706SOL    HW222755   4.262   2.891   2.380  0.7518  1.1473  2.5072
 3707SOL     OW22756   1.294   1.717   8.997  0.2034 -0.3835 -0.0550
 3707SOL    HW122757   1.328   1.804   8.978  2.5127 -1.4047 -0.5771
 3707SOL    HW222758   1.258   1.691   8.913  0.9694 -0.3095 -0.4063
 3708SOL     OW22759   3.614   4.729   6.792  0.2679 -0.0056  0.6267
 3708SOL    HW122760   3.565   0.062   6.755  0.7751 -0.6401 -1.3358
 3708SOL    HW222761   3.705   0.019   6.791  0.1023  0.4827 -0.8109
 3709SOL     OW22762   3.704   3.351   5.073  0.2943 -0.3516  1.0262
 3709SOL    HW122763   3.695   3.322   4.983 -2.0242  1.1337  0.7571
 3709SOL    HW222764   3.712   3.445   5.058 -1.5537 -0.1458  1.2954
 3710SOL     OW22765   3.962   4.147   5.678  0.5336  0.2352 -0.2573
 3710SOL    HW122766   3.998   4.114   5.760  0.3280  0.8928  0.1039
 3710SOL    HW222767   3.882   4.097   5.666  0.7727  0.0878 -1.2583
 3711SOL     OW22768   2.502   2.599  16.346 -0.2576 -0.5049  0.5209
 3711SOL    HW122769   2.416   2.583  16.384  0.3850  0.8731  2.5930
 3711SOL    HW222770   2.485   2.659  16.273  1.2846 -0.2838  0.3358
 3712SOL     OW22771   3.567   4.352  12.488  0.3779 -0.1802 -0.5163
 3712SOL    HW122772   3.565   4.283  12.422  0.3751 -0.2662 -0.4264
 3712SOL    HW222773   3.508   4.313  12.553  1.0312  0.5892  0.5497
 3713SOL     OW22774   2.144   0.667   3.686  0.0314 -0.9564 -0.6295
 3713SOL    HW122775   2.054   0.690   3.663 -0.0321 -1.2787 -0.7084
 3713SOL    HW222776   2.170   0.608   3.615  1.1142 -1.0363 -0.1687
 3714SOL     OW22777   1.687   2.160  14.575  0.5672  0.2195  0.6514
 3714SOL    HW122778   1.591   2.161  14.572  0.5675 -3.8078  0.2225
 3714SOL    HW222779   1.710   2.076  14.615  3.4871  0.1719 -1.1468
 3715SOL     OW22780   4.204   1.871  17.273 -0.2785 -0.0002 -0.1966
 3715SOL    HW122781   4.242   1.940  17.328 -3.5656  0.1818  1.8381
 3715SOL    HW222782   4.109   1.880  17.275 -0.1951  0.6216  1.7854
 3716SOL     OW22783   3.260   0.403   7.965 -0.3517  0.3796  0.4933
 3716SOL    HW122784   3.178   0.445   7.942 -0.4928  0.2153  0.7003
 3716SOL    HW222785   3.254   0.371   8.055 -3.5727  0.7695  0.3821
 3717SOL     OW22786   4.099   4.623   7.787 -0.6826  0.1116  0.4761
 3717SOL    HW122787   4.033   4.692   7.781  1.2588  1.9635  0.5236
 3717SOL    HW222788   4.171   4.664   7.740  0.5777 -0.1312  2.1864
 3718SOL     OW22789   0.649   4.214   5.351  0.3217 -0.3616 -0.1740
 3718SOL    HW122790   0.603   4.261   5.421  0.3316 -2.8738  1.5046
 3718SOL    HW222791   0.721   4.277   5.345 -0.2430  0.1734 -1.3345
 3719SOL     OW22792   2.461   2.414   9.206 -0.3212  0.1137  0.0698
 3719SOL    HW122793   2.526   2.360   9.161 -2.1743 -3.6624  1.9377
 3719SOL    HW222794   2.469   2.366   9.288  2.4308  1.7757  0.7631
 3720SOL     OW22795   2.406   4.683  10.717 -0.4661 -0.1985  0.3516
 3720SOL    HW122796   2.375   4.674  10.627  0.8340 -1.5365  0.0376
 3720SOL    HW222797   2.416   4.589  10.732  2.5021  0.1097  0.2506
 3721SOL     OW22798   3.265   4.370   7.190 -0.5677 -0.0357 -0.0888
 3721SOL    HW122799   3.212   4.439   7.229  0.0889  0.4730 -0.0966
 3721SOL    HW222800   3.246   4.381   7.097 -0.6962  1.2931  0.0938
 3722SOL     OW22801   2.048   1.212   3.487 -0.3435 -0.9702 -0.1229
 3722SOL    HW122802   2.034   1.122   3.517 -3.3976 -0.9218 -1.3271
 3722SOL    HW222803   2.142   1.223   3.479 -0.6692  1.4525 -0.6816
 3723SOL     OW22804   1.255   1.039   1.649 -0.8391  0.5054 -0.2492
 3723SOL    HW122805   1.283   1.093   1.575  1.3183  0.2985  0.4256
 3723SOL    HW222806   1.329   0.980   1.661 -0.8200  0.2669 -1.5474
 3724SOL     OW22807   1.540   2.425   2.744 -0.3117 -0.0186  0.0587
 3724SOL    HW122808   1.454   2.419   2.703 -0.5428  0.3757  0.4831
 3724SOL    HW222809   1.536   2.362   2.816  1.1359  2.6270  2.4613
 3725SOL     OW22810   3.034   1.979   7.663 -0.0269  0.3753 -0.0169
 3725SOL    HW122811   2.991   2.065   7.672 -3.9075 -1.7186  1.7083
 3725SOL    HW222812   3.109   2.002   7.609  1.0264 -2.0897  0.4078
 3726SOL     OW22813   2.745   1.059   8.509  0.2467 -0.1319 -0.3899
 3726SOL    HW122814   2.697   1.142   8.512  2.8931  1.4238 -0.6438
 3726SOL    HW222815   2.680   1.012   8.560  0.7726 -1.0664 -0.5882
 3727SOL     OW22816   0.305   4.031   8.042  0.1054  0.0648 -0.1022
 3727SOL    HW122817   0.297   3.973   8.118  1.4088  0.0824  0.0572
 3727SOL    HW222818   0.220   4.075   8.042 -0.5777 -1.2596 -0.5690
 3728SOL     OW22819   2.805   0.706   1.243 -0.0482 -0.3195  0.0460
 3728SOL    HW122820   2.830   0.735   1.156 -0.8634 -0.7139 -0.3234
 3728SOL    HW222821   2.776   0.785   1.288 -1.8175 -0.3067 -1.1301
 3729SOL     OW22822   0.911   4.226   7.246  0.2991  0.2110  0.4841
 3729SOL    HW122823   0.893   4.314   7.280 -0.7997  0.6482 -1.2052
 3729SOL    HW222824   0.826   4.192   7.218  0.6586 -2.1136  2.1818
 3730SOL     OW22825   4.701   3.297   4.672 -0.2639  0.0546 -0.3320
 3730SOL    HW122826   4.703   3.269   4.763 -0.3171 -0.0676 -0.3683
 3730SOL    HW222827   0.035   3.358   4.674 -0.3268  0.1494 -0.6958
 3731SOL     OW22828   0.795   4.087   4.931 -0.8406 -0.4647  0.4367
 3731SOL    HW122829   0.728   4.064   4.867  1.2493 -2.4170 -1.0138
 3731SOL    HW222830   0.778   4.181   4.933 -0.8949 -0.4570 -0.6323
 3732SOL     OW22831   4.288   0.231   2.426  0.2243 -0.0560  0.3381
 3732SOL    HW122832   4.234   0.220   2.504 -0.4572 -3.0942 -0.5734
 3732SOL    HW222833   4.318   0.143   2.401 -1.4995 -0.8097  0.9605
 3733SOL     OW22834   3.251   2.593   8.090 -0.7040  0.1077  0.3407
 3733SOL    HW122835   3.284   2.589   8.000  0.7135  1.5732  0.7945
 3733SOL    HW222836   3.271   2.684   8.115 -1.4288  0.7649 -1.5252
 3734SOL     OW22837   2.437   1.912  15.703 -0.0580  0.0994  0.5873
 3734SOL    HW122838   2.478   1.953  15.626  0.2184  1.8553  1.6788
 3734SOL    HW222839   2.474   1.975  15.765  1.4036  1.5618 -1.7646
 3735SOL     OW22840   4.187   4.635   6.774  0.1120 -0.1593  0.1651
 3735SOL    HW122841   4.151   4.553   6.738  1.2819 -0.6107  0.0398
 3735SOL    HW222842   4.280   4.619   6.758  0.3690  0.8576  0.6645
 3736SOL     OW22843   1.269   3.590   7.280 -0.4321  0.1158  0.1615
 3736SOL    HW122844   1.288   3.562   7.190 -0.5900 -2.0801  0.8252
 3736SOL    HW222845   1.280   3.684   7.265  2.5120 -0.1075  0.9605
 3737SOL     OW22846   1.514   0.918   6.472 -0.2230  0.3346  0.7976
 3737SOL    HW122847   1.559   0.972   6.537  1.0304 -0.5691  0.6783
 3737SOL    HW222848   1.539   0.969   6.395  0.0998 -1.7202 -0.4689
 3738SOL     OW22849   1.042   1.759  10.729  0.5838  0.3054  0.2008
 3738SOL    HW122850   1.093   1.756  10.810 -0.2675 -0.6690  0.7046
 3738SOL    HW222851   1.116   1.752  10.670  0.4945 -1.7050  0.3484
 3739SOL     OW22852   2.139   3.589   9.889  0.0487  0.2200  0.2701
 3739SOL    HW122853   2.230   3.585   9.918  0.1588 -2.8246 -0.4360
 3739SOL    HW222854   2.108   3.504   9.922 -0.0322 -0.3287 -1.2190
 3740SOL     OW22855   3.427   1.579   9.897  0.6090  0.2651 -0.6535
 3740SOL    HW122856   3.489   1.527   9.846  1.1066  0.1501  0.0735
 3740SOL    HW222857   3.346   1.580   9.845 -0.6673  1.6339  1.3226
 3741SOL     OW22858   2.104   1.882   0.538  0.5010 -0.2032 -0.7939
 3741SOL    HW122859   2.156   1.883   0.619 -1.1227  1.6188  0.2225
 3741SOL    HW222860   2.053   1.962   0.546 -0.5897 -1.0803  1.2003
 3742SOL     OW22861   1.584   1.078   8.607  0.0617  0.6911  0.0390
 3742SOL    HW122862   1.673   1.111   8.592  0.4099  0.5260  1.7256
 3742SOL    HW222863   1.566   1.118   8.692 -1.4858 -0.0401  0.0553
 3743SOL     OW22864   2.641   2.208   5.541 -0.2446 -0.7783  0.1071
 3743SOL    HW122865   2.675   2.240   5.458 -0.2517 -0.6296  0.1612
 3743SOL    HW222866   2.629   2.292   5.586  1.7014 -0.5983  0.3053
 3744SOL     OW22867   0.298   3.752   9.031  0.5647  0.5585 -0.2131
 3744SOL    HW122868   0.364   3.683   9.020 -1.0006 -1.4003  2.8664
 3744SOL    HW222869   0.339   3.789   9.109 -0.6305  1.9202 -0.2290
 3745SOL     OW22870   3.192   2.881   5.403  0.0016 -0.3616 -0.8626
 3745SOL    HW122871   3.221   2.962   5.447 -3.4995 -0.2781  1.2453
 3745SOL    HW222872   3.132   2.909   5.334 -2.1487 -0.3438  1.0404
 3746SOL     OW22873   0.179   1.971  14.365 -0.4274  0.1570 -0.0941
 3746SOL    HW122874   0.173   2.063  14.390 -0.5033  0.7475 -2.2799
 3746SOL    HW222875   0.191   1.981  14.271 -1.5239 -2.1912 -0.4825
 3747SOL     OW22876   2.487   0.933   1.751 -0.1563  0.9097  0.1758
 3747SOL    HW122877   2.476   0.946   1.657 -0.9483  4.1593  0.7385
 3747SOL    HW222878   2.565   0.979   1.782  0.8901 -0.5153 -0.3101
 3748SOL     OW22879   1.198   0.084   7.257 -0.4550 -0.4357  0.0168
 3748SOL    HW122880   1.187   0.147   7.185 -2.9181 -0.6699  0.1969
 3748SOL    HW222881   1.144   0.134   7.318  0.0028 -1.6976  1.4634
 3749SOL     OW22882   2.352   0.830   4.601 -0.3500 -0.2096 -0.0674
 3749SOL    HW122883   2.353   0.925   4.619 -1.1767  0.1585 -1.9554
 3749SOL    HW222884   2.385   0.833   4.511  0.3820 -1.8660  0.1599
 3750SOL     OW22885   2.937   4.190  17.261  0.1839 -0.2310  0.2525
 3750SOL    HW122886   2.910   4.276  17.227  1.6441  0.2010  0.2100
 3750SOL    HW222887   2.852   4.146  17.265  0.5967 -0.9824  0.5836
 3751SOL     OW22888   1.773   2.849  11.195 -0.3752  0.1944 -0.2301
 3751SOL    HW122889   1.711   2.785  11.229  0.8036 -1.1833 -0.6986
 3751SOL    HW222890   1.844   2.848  11.259 -1.3357 -0.4164  0.8324
 3752SOL     OW22891   4.531   1.362   8.061  0.4402 -0.1307  0.3632
 3752SOL    HW122892   4.487   1.327   8.138 -0.5948 -0.2168 -0.2604
 3752SOL    HW222893   4.580   1.288   8.025 -2.0396 -1.4488 -0.3055
 3753SOL     OW22894   2.617   3.106   7.740 -0.7491  1.0635  1.3190
 3753SOL    HW122895   2.675   3.092   7.815  1.0875  0.5263 -0.2240
 3753SOL    HW222896   2.643   3.193   7.710 -0.8731  0.9757  0.9619
 3754SOL     OW22897   3.150   1.300  12.227 -0.0576  0.3299 -0.4728
 3754SOL    HW122898   3.131   1.392  12.208 -2.3519  0.0381  0.3947
 3754SOL    HW222899   3.114   1.256  12.150 -0.5500  1.1973 -0.7402
 3755SOL     OW22900   3.652   4.586   5.017 -0.4583 -0.1374 -0.1501
 3755SOL    HW122901   3.725   4.602   5.077 -0.4976  2.3455 -0.7699
 3755SOL    HW222902   3.683   4.511   4.967  0.9485  1.3550 -1.4869
 3756SOL     OW22903   4.428   4.574   3.529  0.6111  0.7930  0.0852
 3756SOL    HW122904   4.369   4.642   3.560 -0.8855  0.7029 -2.5264
 3756SOL    HW222905   4.476   4.561   3.610  0.8350 -1.0744 -0.3401
 3757SOL     OW22906   3.489   4.385   4.146 -0.2632 -0.1944 -0.3890
 3757SOL    HW122907   3.396   4.370   4.133 -0.3116  0.2784 -0.5732
 3757SOL    HW222908   3.505   4.381   4.241  0.3253  0.3570 -0.4661
 3758SOL     OW22909   0.740   1.371   4.798  0.2991 -0.1604  0.4411
 3758SOL    HW122910   0.824   1.325   4.808  0.0887 -0.6343 -0.0003
 3758SOL    HW222911   0.757   1.447   4.854 -2.5647 -0.2839  1.4955
 3759SOL     OW22912   1.236   4.321   0.612  0.5518  0.2085 -0.0116
 3759SOL    HW122913   1.285   4.345   0.534  0.9087 -0.2189  0.0840
 3759SOL    HW222914   1.313   4.303   0.666  1.2057  0.5491 -0.8235
 3760SOL     OW22915   0.820   3.626  12.660 -0.7996  0.1161  0.3315
 3760SOL    HW122916   0.887   3.607  12.594  0.2452  1.1514  1.0930
 3760SOL    HW222917   0.777   3.541  12.671 -0.9580  0.1032 -0.4026
 3761SOL     OW22918   1.153   3.259   9.161  0.5799 -0.3619  0.3115
 3761SOL    HW122919   1.197   3.181   9.196 -1.3947 -1.1460  1.0553
 3761SOL    HW222920   1.073   3.223   9.124 -0.6992  0.8556  1.8926
 3762SOL     OW22921   4.372   2.659   9.445  0.8041 -0.7858  0.5508
 3762SOL    HW122922   4.335   2.631   9.529 -1.2484 -1.8001 -0.6697
 3762SOL    HW222923   4.461   2.625   9.454  0.8471 -0.7429  0.3091
 3763SOL     OW22924   2.842   1.793   7.654  0.1547 -0.1913 -0.1191
 3763SOL    HW122925   2.916   1.851   7.670  0.7926 -0.5096 -1.8489
 3763SOL    HW222926   2.884   1.716   7.693 -0.9210 -0.3588  0.6939
 3764SOL     OW22927   3.866   2.598   7.245  0.4165 -0.3316 -0.0927
 3764SOL    HW122928   3.825   2.559   7.323  1.1768  1.0254  0.9863
 3764SOL    HW222929   3.839   2.689   7.255  0.4151 -0.2800 -0.5755
 3765SOL     OW22930   1.049   4.480  10.090  0.2040 -0.3025  0.2145
 3765SOL    HW122931   0.978   4.514  10.144  1.2441 -2.0284  2.6391
 3765SOL    HW222932   1.069   4.401  10.138 -3.5223 -1.0065  0.5608
 3766SOL     OW22933   3.795   4.281   6.017 -0.0091 -0.4338 -0.3907
 3766SOL    HW122934   3.700   4.295   6.026  0.0702 -1.1595  1.6563
 3766SOL    HW222935   3.816   4.298   6.109 -3.2533 -1.2061  0.5039
 3767SOL     OW22936   0.008   4.615   0.210  0.3970  0.2889 -0.0466
 3767SOL    HW122937   0.042   4.692   0.257  0.7357  0.5962 -0.7951
 3767SOL    HW222938   0.091   4.576   0.183  0.6240  2.0731 -1.9735
 3768SOL     OW22939   0.569   2.004   4.856 -0.4999  0.1318  0.3098
 3768SOL    HW122940   0.634   2.030   4.791  1.1463  1.0688  2.3114
 3768SOL    HW222941   0.494   1.984   4.800 -0.9979  1.3648  0.5464
 3769SOL     OW22942   3.484   4.129   8.752  0.3354 -0.1560  0.2568
 3769SOL    HW122943   3.462   4.182   8.675 -1.0299  1.3262  1.6811
 3769SOL    HW222944   3.412   4.143   8.813  0.1856  0.7103 -0.1121
 3770SOL     OW22945   2.182   1.874   1.286  0.4125  0.2575  0.0353
 3770SOL    HW122946   2.225   1.949   1.244  1.7254 -0.8522 -0.5575
 3770SOL    HW222947   2.229   1.794   1.265 -2.2337 -1.0350 -1.0254
 3771SOL     OW22948   3.750   4.557   2.261  0.2271 -0.6002  0.1041
 3771SOL    HW122949   3.740   4.478   2.314  0.9650 -0.8483 -0.1201
 3771SOL    HW222950   3.659   4.582   2.248  1.0642  2.9599  1.2010
 3772SOL     OW22951   3.628   4.134  14.724 -0.4294  0.0394 -0.4318
 3772SOL    HW122952   3.551   4.081  14.706  0.9593 -2.3928  0.7760
 3772SOL    HW222953   3.653   4.152  14.633  1.3438 -0.0481  0.0303
 3773SOL     OW22954   2.616   4.604   2.908 -0.2294  0.0498 -0.2718
 3773SOL    HW122955   2.657   4.519   2.891  1.7483  1.5622 -3.2751
 3773SOL    HW222956   2.527   4.575   2.927 -0.2868  0.7349  0.5153
 3774SOL     OW22957   1.965   0.724   8.500 -0.4966  0.0808  0.3744
 3774SOL    HW122958   1.943   0.634   8.525 -2.1668  0.1338 -0.9583
 3774SOL    HW222959   2.037   0.710   8.439  1.1025  2.0582  1.8046
 3775SOL     OW22960   1.804   3.315   8.669 -0.2157  0.5643 -0.5767
 3775SOL    HW122961   1.855   3.278   8.597  0.1784  1.9651 -1.0269
 3775SOL    HW222962   1.722   3.330   8.623  0.5159  2.2147 -1.3519
 3776SOL     OW22963   2.398   1.720   4.606 -0.4490 -0.1160 -0.3942
 3776SOL    HW122964   2.339   1.793   4.624  0.3877  0.0985  1.4763
 3776SOL    HW222965   2.379   1.726   4.513  2.8261 -0.1512 -1.0810
 3777SOL     OW22966   3.696   1.375   2.335 -0.3495  0.4678 -0.5799
 3777SOL    HW122967   3.781   1.352   2.372  0.1174  2.2822 -0.5202
 3777SOL    HW222968   3.647   1.294   2.343  2.4389 -0.8870  2.6911
 3778SOL     OW22969   3.789   1.024   4.132 -0.6767 -0.0496 -0.5161
 3778SOL    HW122970   3.732   1.101   4.126 -0.8226 -0.0854  0.4425
 3778SOL    HW222971   3.721   0.963   4.104 -1.0383  0.3466 -0.5055
 3779SOL     OW22972   3.174   0.995   5.408 -0.2362 -0.3225  0.2484
 3779SOL    HW122973   3.159   1.089   5.403 -0.7077 -0.4390 -0.5999
 3779SOL    HW222974   3.227   0.998   5.488 -0.0248 -0.9490  0.1298
 3780SOL     OW22975   1.502   3.957   4.222  0.5566  0.0850  0.1880
 3780SOL    HW122976   1.484   4.050   4.208  1.8433  0.1884 -0.8123
 3780SOL    HW222977   1.530   3.945   4.131  0.1228 -2.5136  0.3969
 3781SOL     OW22978   1.606   3.799   5.401  0.3550 -0.4014  0.7207
 3781SOL    HW122979   1.696   3.818   5.374 -0.3584  0.2538 -1.2432
 3781SOL    HW222980   1.567   3.806   5.314  1.1657  1.6912  0.5116
 3782SOL     OW22981   1.880   3.752   5.324  0.6312 -0.5884  0.1949
 3782SOL    HW122982   1.860   3.670   5.277  0.7700 -0.8642  0.6181
 3782SOL    HW222983   1.954   3.725   5.377  2.4015  0.5316 -1.6878
 3783SOL     OW22984   1.913   0.192  14.359  0.0565 -0.2091  0.5050
 3783SOL    HW122985   1.914   0.277  14.315  0.3706 -0.2932  0.3478
 3783SOL    HW222986   1.897   0.138  14.282 -1.4895  1.0202 -0.0204
 3784SOL     OW22987   1.069   1.131   5.443  0.6012  0.4767  0.2231
 3784SOL    HW122988   1.086   1.045   5.479  0.9494  0.6754  0.5227
 3784SOL    HW222989   1.025   1.110   5.360 -0.7267 -0.3555  1.1373
 3785SOL     OW22990   3.191   0.465  14.848 -0.3827 -0.1252  0.5491
 3785SOL    HW122991   3.178   0.452  14.754  0.3028  3.0508  0.0087
 3785SOL    HW222992   3.182   0.560  14.849 -1.5647 -0.2336  1.8419
 3786SOL     OW22993   2.739   0.184   4.747 -0.1109 -0.2717  0.4965
 3786SOL    HW122994   2.812   0.200   4.687  0.2359 -1.7140  0.5261
 3786SOL    HW222995   2.743   0.265   4.798 -1.9995  0.2231 -0.1727
 3787SOL     OW22996   1.879   0.864   2.919 -0.1203  0.4320 -0.0566
 3787SOL    HW122997   1.838   0.949   2.939  0.5789  0.6032  0.6518
 3787SOL    HW222998   1.899   0.821   3.002  4.1661  1.3396 -0.6241
 3788SOL     OW22999   4.451   2.788   7.315 -0.3728  0.2484 -0.0848
 3788SOL    HW123000   4.443   2.810   7.222 -0.1165 -1.4938 -0.5081
 3788SOL    HW223001   4.462   2.873   7.358  0.1889  0.0008  0.2514
 3789SOL     OW23002   0.090   1.387   8.899 -0.2578  0.0364 -0.2595
 3789SOL    HW123003   0.076   1.348   8.813 -1.3809  1.8621 -0.8960
 3789SOL    HW223004   0.177   1.360   8.929 -0.2163 -0.4399 -0.8026
 3790SOL     OW23005   3.014   2.939   8.552  0.5687  0.3820  0.0073
 3790SOL    HW123006   3.066   2.916   8.475 -0.9918  1.2824 -1.3079
 3790SOL    HW223007   3.040   3.031   8.559  0.3047  0.5599 -1.3315
 3791SOL     OW23008   4.463   0.986   5.493  0.2803  0.3118 -0.1068
 3791SOL    HW123009   4.543   0.948   5.531  0.0687  1.5236  1.5509
 3791SOL    HW223010   4.397   0.927   5.529  0.6658 -0.1775 -0.1994
 3792SOL     OW23011   3.938   1.172   3.770 -0.8885 -0.1771  0.8429
 3792SOL    HW123012   3.953   1.259   3.806  0.7960 -0.9745  2.0883
 3792SOL    HW223013   3.918   1.193   3.679  0.0602  0.1354  0.7114
 3793SOL     OW23014   2.789   1.080   2.089  0.8206  0.2528  0.3269
 3793SOL    HW123015   2.771   1.172   2.109  0.4330  0.2985 -0.2495
 3793SOL    HW223016   2.803   1.046   2.178 -2.8292 -1.2393  0.3594
 3794SOL     OW23017   1.953   4.276  16.358  0.4236  0.2889  0.1774
 3794SOL    HW123018   1.955   4.372  16.365  1.5745  0.2389  0.3755
 3794SOL    HW223019   2.039   4.259  16.321  0.2222 -0.2362 -0.0472
 3795SOL     OW23020   3.828   2.213   4.810 -0.0005  0.2109  0.5360
 3795SOL    HW123021   3.913   2.170   4.799  0.0426  0.4608 -0.1181
 3795SOL    HW223022   3.833   2.230   4.904 -0.4323  2.7504  0.1228
 3796SOL     OW23023   2.896   3.698   1.564 -1.0439 -0.4134 -0.0974
 3796SOL    HW123024   2.952   3.765   1.603 -1.1528 -0.1319 -0.4187
 3796SOL    HW223025   2.840   3.675   1.638 -1.1677 -1.1271 -0.4111
 3797SOL     OW23026   4.368   3.299   6.630 -0.3493  0.7707 -0.0995
 3797SOL    HW123027   4.414   3.342   6.557 -0.1808 -0.7463 -0.8993
 3797SOL    HW223028   4.443   3.269   6.682 -0.3572  0.0471 -0.5094
 3798SOL     OW23029   2.786   3.014  11.685  0.2094 -0.1364  0.3897
 3798SOL    HW123030   2.725   3.009  11.612  0.2419 -2.8802  0.5496
 3798SOL    HW223031   2.832   2.932  11.667  0.1546 -0.0281 -0.2447
 3799SOL     OW23032   2.377   4.242  12.869  0.1365 -0.1883  0.7241
 3799SOL    HW123033   2.445   4.282  12.815 -0.1354  1.8032  1.8488
 3799SOL    HW223034   2.432   4.178  12.913 -0.6098  1.0151  3.3954
 3800SOL     OW23035   4.668   0.826   5.989  0.0870  0.0805 -0.7762
 3800SOL    HW123036   4.596   0.785   6.037  0.1485 -0.6715 -1.3167
 3800SOL    HW223037   4.726   0.751   5.972 -0.2981  0.3726 -3.4819
 3801SOL     OW23038   0.529   0.498   6.148 -0.1435 -0.0908  0.0186
 3801SOL    HW123039   0.543   0.503   6.053  1.7772  0.4213  0.3502
 3801SOL    HW223040   0.584   0.423   6.171 -1.6983 -1.2561 -0.0144
 3802SOL     OW23041   2.869   0.668   4.825  0.0393 -0.0454  0.1685
 3802SOL    HW123042   2.835   0.592   4.776 -0.7954 -0.4348  1.3604
 3802SOL    HW223043   2.789   0.719   4.842  0.0627  0.2411 -0.5807
 3803SOL     OW23044   2.570   2.206   6.682  0.7110  0.0260  0.3234
 3803SOL    HW123045   2.549   2.255   6.761 -0.4689 -0.6380  0.4257
 3803SOL    HW223046   2.485   2.162   6.674  0.5861 -0.2331  3.1144
 3804SOL     OW23047   0.159   3.633   8.261 -0.4459 -0.6139 -0.3585
 3804SOL    HW123048   0.142   3.587   8.179  0.4236 -0.0005 -0.8712
 3804SOL    HW223049   0.090   3.700   8.264 -0.4125 -0.5994  0.0708
 3805SOL     OW23050   1.153   1.421   5.045  0.1778 -0.4588 -0.0328
 3805SOL    HW123051   1.070   1.384   5.015 -1.6084  1.8527  1.9617
 3805SOL    HW223052   1.206   1.342   5.045  0.4208 -0.2973  0.4914
 3806SOL     OW23053   0.843   1.501   2.026  0.4568  0.3858  0.0812
 3806SOL    HW123054   0.877   1.573   2.079  1.7862  0.2644 -0.6082
 3806SOL    HW223055   0.909   1.434   2.043  0.6555  1.0449  1.9176
 3807SOL     OW23056   4.405   1.951  10.293  0.6217  0.0828  0.2084
 3807SOL    HW123057   4.367   2.039  10.285  2.0225  0.7401  0.8471
 3807SOL    HW223058   4.498   1.970  10.300  1.2687 -1.7818 -3.4517
 3808SOL     OW23059   1.573   3.137  16.452  0.4517  0.3766 -0.6888
 3808SOL    HW123060   1.516   3.214  16.461 -0.4624 -0.4341  0.5661
 3808SOL    HW223061   1.617   3.127  16.536 -0.4330  1.4307 -0.0834
 3809SOL     OW23062   2.831   4.695  17.749 -0.0695  0.3157  0.4928
 3809SOL    HW123063   2.786   0.036  17.725 -1.0171  0.0411  1.3619
 3809SOL    HW223064   2.772   4.625  17.721  0.6003  0.3084 -0.8648
 3810SOL     OW23065   0.682   0.114  11.579 -0.5473 -0.2381 -0.1926
 3810SOL    HW123066   0.620   0.163  11.634 -1.8305 -1.8339 -0.2164
 3810SOL    HW223067   0.698   0.033  11.628  0.8767 -0.4996 -1.0883
 3811SOL     OW23068   3.560   1.871   4.215 -0.0806 -0.1368  0.1503
 3811SOL    HW123069   3.619   1.928   4.264  1.8542 -2.7420  0.7952
 3811SOL    HW223070   3.532   1.926   4.142  2.4407 -0.0375 -0.7395
 3812SOL     OW23071   0.667   3.001   9.808  0.1404  0.4750  0.3170
 3812SOL    HW123072   0.578   2.975   9.787  0.2990  0.1956 -0.0140
 3812SOL    HW223073   0.654   3.093   9.786  1.7154  0.3452 -1.1991
 3813SOL     OW23074   1.916   1.359   6.703  0.3928  0.0405  0.0123
 3813SOL    HW123075   1.878   1.433   6.656  1.3357  0.8329  0.4749
 3813SOL    HW223076   1.871   1.367   6.787 -0.1439 -0.7590 -0.2047
 3814SOL     OW23077   3.177   1.755   0.306  0.7113  0.4635  0.0881
 3814SOL    HW123078   3.179   1.815   0.232 -0.5186  1.2551  0.7057
 3814SOL    HW223079   3.185   1.821   0.375 -1.0481  2.5735 -1.7479
 3815SOL     OW23080   2.312   0.741   0.767  0.4986  0.2379 -0.1346
 3815SOL    HW123081   2.230   0.694   0.755  0.3323  1.0619 -2.1707
 3815SOL    HW223082   2.285   0.832   0.779 -2.2027 -0.7165  1.1347
 3816SOL     OW23083   0.451   4.348  10.948 -0.2661 -0.3499  0.3643
 3816SOL    HW123084   0.396   4.339  10.870  3.0838  0.7352 -2.1421
 3816SOL    HW223085   0.401   4.414  10.997 -1.9608  1.4689 -3.7870
 3817SOL     OW23086   1.206   1.076   7.180  0.3609  0.2123 -0.1470
 3817SOL    HW123087   1.184   1.051   7.270 -0.3556 -3.0685 -1.2613
 3817SOL    HW223088   1.297   1.103   7.197  0.3311 -0.0316  0.4220
 3818SOL     OW23089   1.752   3.817   4.272 -0.3933  0.0595  0.3796
 3818SOL    HW123090   1.658   3.834   4.272 -0.1920  1.2324  0.9388
 3818SOL    HW223091   1.780   3.876   4.342 -2.1730  2.3216 -0.7904
 3819SOL     OW23092   3.777   3.903  12.059  0.0581  0.2036 -0.1429
 3819SOL    HW123093   3.804   3.978  12.113 -0.3706 -1.5686  2.5452
 3819SOL    HW223094   3.862   3.865  12.036 -0.4454 -2.9778  3.1114
 3820SOL     OW23095   2.815   2.945  13.961 -0.6547 -0.1858  0.5252
 3820SOL    HW123096   2.777   2.888  13.893 -0.7389  0.3261  0.1467
 3820SOL    HW223097   2.759   3.020  13.944 -1.9689 -1.0618  0.9425
 3821SOL     OW23098   1.180   0.089  15.579  0.2740  0.0964 -0.2486
 3821SOL    HW123099   1.209   0.092  15.487  2.1579  2.3515  0.4004
 3821SOL    HW223100   1.233   0.160  15.616 -0.9699  0.1393  1.4439
 3822SOL     OW23101   2.025   1.637   0.786 -0.0325 -0.2555 -0.0422
 3822SOL    HW123102   2.088   1.681   0.842  2.4242 -1.1915 -2.0617
 3822SOL    HW223103   1.973   1.711   0.757  1.7025  0.9092 -0.1921
 3823SOL     OW23104   1.274   2.735   1.794  0.3794  0.5063  0.0582
 3823SOL    HW123105   1.181   2.758   1.785  0.6865  0.9725 -1.8367
 3823SOL    HW223106   1.269   2.696   1.707  0.9784 -0.8512  0.6264
 3824SOL     OW23107   3.803   0.542   6.291  0.3083  0.0488 -0.3285
 3824SOL    HW123108   3.890   0.517   6.323  0.2536 -0.7869 -0.8298
 3824SOL    HW223109   3.786   0.604   6.361 -0.1933  0.6126 -0.9490
 3825SOL     OW23110   1.740   1.522  16.935  0.2009  0.0265 -0.6213
 3825SOL    HW123111   1.768   1.493  16.848 -0.4891 -2.9866  0.1626
 3825SOL    HW223112   1.664   1.577  16.918  0.0684 -0.0119 -0.1468
 3826SOL     OW23113   2.281   4.491   1.455  0.1667 -0.3259 -0.3761
 3826SOL    HW123114   2.216   4.561   1.462  0.9353  0.1915  1.6007
 3826SOL    HW223115   2.297   4.497   1.360 -1.1083  1.1502 -0.4956
 3827SOL     OW23116   4.554   0.139   0.266 -0.5174  0.9247  0.3237
 3827SOL    HW123117   4.557   0.044   0.267 -1.4657  0.8974  0.5048
 3827SOL    HW223118   4.459   0.132   0.265 -0.2965 -2.0732  1.3395
 3828SOL     OW23119   2.695   2.918  15.530 -0.6322  0.4854  0.0392
 3828SOL    HW123120   2.772   2.908  15.475 -2.0482  0.5525 -1.9382
 3828SOL    HW223121   2.665   3.007  15.510  0.6774  1.2177  1.3050
 3829SOL     OW23122   3.215   3.469   8.129  0.4969 -0.3670  0.0841
 3829SOL    HW123123   3.242   3.389   8.174  0.2783 -0.5459 -0.1026
 3829SOL    HW223124   3.281   3.498   8.067 -0.2281 -1.0414 -0.9954
 3830SOL     OW23125   2.591   0.715   6.147 -0.0404  0.5746 -0.2936
 3830SOL    HW123126   2.553   0.679   6.067 -0.8298  2.6581 -0.8534
 3830SOL    HW223127   2.684   0.733   6.134  0.7082 -2.9679  0.0501
 3831SOL     OW23128   0.674   3.809   3.076  0.2907  0.0648  0.3155
 3831SOL    HW123129   0.660   3.715   3.060  0.6108  0.3823 -1.8947
 3831SOL    HW223130   0.615   3.819   3.150  0.8700  4.3774  0.1689
 3832SOL     OW23131   1.893   0.091   6.553  0.2966  0.0339  0.0934
 3832SOL    HW123132   1.932   0.174   6.524 -0.3500  0.2451 -0.1539
 3832SOL    HW223133   1.960   0.033   6.518 -0.7499 -1.1658  0.0895
 3833SOL     OW23134   2.493   2.266   8.793 -0.1913  0.1411  0.4222
 3833SOL    HW123135   2.544   2.323   8.850  1.0619  0.6694 -1.2452
 3833SOL    HW223136   2.503   2.303   8.706 -1.0067 -0.2381  0.1648
 3834SOL     OW23137   4.488   3.854   5.383  0.0085 -0.0139 -0.4797
 3834SOL    HW123138   4.405   3.857   5.429 -0.0238 -0.5313 -0.5074
 3834SOL    HW223139   4.464   3.923   5.322 -0.5879  0.4471  0.2682
 3835SOL     OW23140   0.423   0.133  17.111  0.0757 -0.3651  0.8335
 3835SOL    HW123141   0.443   0.102  17.199 -0.4152  0.1919  1.1430
 3835SOL    HW223142   0.389   0.219  17.137 -0.1422 -0.1183 -0.2580
 3836SOL     OW23143   0.062   2.945   2.305  0.2928  0.1884  0.5911
 3836SOL    HW123144   4.726   2.975   2.255 -0.8634  0.6875  2.6796
 3836SOL    HW223145   0.123   3.010   2.269  0.8084 -1.2493 -1.1504
 3837SOL     OW23146   1.241   4.281   4.492 -0.2042 -0.2793 -0.0787
 3837SOL    HW123147   1.201   4.355   4.539 -1.7698 -0.0503 -1.7767
 3837SOL    HW223148   1.298   4.334   4.437  2.0358 -2.5863  0.0402
 3838SOL     OW23149   4.094   2.280   8.322  0.5877 -0.1531 -0.6316
 3838SOL    HW123150   4.107   2.308   8.413  0.3845 -0.7597 -0.4144
 3838SOL    HW223151   4.033   2.348   8.294 -0.1628 -0.9908 -1.0335
 3839SOL     OW23152   1.518   3.327   7.420 -0.3722 -0.7313 -0.2116
 3839SOL    HW123153   1.540   3.366   7.505  0.9837 -1.0275 -0.4337
 3839SOL    HW223154   1.586   3.371   7.369 -0.2691 -0.6630 -0.0144
 3840SOL     OW23155   1.632   1.791  12.482  0.0730 -0.5471  0.6453
 3840SOL    HW123156   1.677   1.847  12.546  1.6197 -1.1101  0.0202
 3840SOL    HW223157   1.619   1.704  12.518 -1.4468 -0.8650 -0.6563
 3841SOL     OW23158   2.786   2.227  16.959  0.0314 -0.0656 -0.0085
 3841SOL    HW123159   2.755   2.297  17.016 -1.8446 -1.2981  0.4971
 3841SOL    HW223160   2.845   2.179  17.016  0.4368  1.3046  0.7127
 3842SOL     OW23161   0.013   2.576  14.540  0.0790  0.3231  0.1966
 3842SOL    HW123162   0.106   2.570  14.563  0.8103 -0.1637 -2.8955
 3842SOL    HW223163   4.728   2.642  14.605  1.2003 -1.0423  2.0233
 3843SOL     OW23164   3.241   3.624   6.591  0.6517  0.0488  0.5219
 3843SOL    HW123165   3.260   3.619   6.498 -1.3897 -2.1383  0.2231
 3843SOL    HW223166   3.152   3.659   6.599 -0.2149 -2.2137  0.8121
 3844SOL     OW23167   3.698   3.736   8.226 -0.5900 -0.3005  0.0027
 3844SOL    HW123168   3.644   3.686   8.286  0.1560 -0.4625  0.5442
 3844SOL    HW223169   3.706   3.812   8.284 -2.9769 -0.7204  0.8625
 3845SOL     OW23170   3.154   0.260   3.215 -0.2350  0.5433 -0.6564
 3845SOL    HW123171   3.075   0.225   3.173  0.1352 -1.8809  0.6448
 3845SOL    HW223172   3.137   0.354   3.222  2.3353  1.0484 -1.2103
 3846SOL     OW23173   0.300   4.647   3.000 -0.5757  0.3092  0.1442
 3846SOL    HW123174   0.336   4.729   2.965  1.8267 -0.9740 -0.3969
 3846SOL    HW223175   0.347   4.584   2.946  1.3648 -0.0861  2.2883
 3847SOL     OW23176   2.071   3.899   7.196 -0.0671  0.1414 -0.3299
 3847SOL    HW123177   2.149   3.954   7.196 -0.3877  0.5855  2.0422
 3847SOL    HW223178   2.006   3.967   7.180  1.3340  1.0189 -2.2688
 3848SOL     OW23179   1.071   1.424   1.795 -0.6494 -0.3881 -0.2565
 3848SOL    HW123180   1.032   1.363   1.857  2.1892 -1.3681  0.5868
 3848SOL    HW223181   1.090   1.493   1.858  1.0448 -0.6284 -0.5094
 3849SOL     OW23182   3.791   2.326   5.951  0.0423 -0.1366  0.6772
 3849SOL    HW123183   3.728   2.253   5.944  0.6757 -0.7522  1.3748
 3849SOL    HW223184   3.746   2.375   6.019 -1.2746  1.6915 -1.5344
 3850SOL     OW23185   4.325   0.850   7.147  0.1177  0.0530 -0.2082
 3850SOL    HW123186   4.343   0.805   7.065 -1.5552 -3.2276  1.2214
 3850SOL    HW223187   4.294   0.777   7.200 -4.1996  1.2065 -1.1446
 3851SOL     OW23188   4.328   4.585   4.805 -0.5374 -0.4153 -0.1343
 3851SOL    HW123189   4.337   4.614   4.714 -3.6631 -0.0514 -0.3229
 3851SOL    HW223190   4.422   4.583   4.821 -0.3029  0.6670 -1.3323
 3852SOL     OW23191   1.645   4.505   3.635 -0.5864  0.1775  0.5398
 3852SOL    HW123192   1.719   4.498   3.575 -0.7328 -1.3067  0.5368
 3852SOL    HW223193   1.647   4.417   3.673 -1.7003 -0.4830 -0.9418
 3853SOL     OW23194   0.959   2.174   2.869 -0.2357  0.6209 -0.4151
 3853SOL    HW123195   0.947   2.263   2.835  0.1062  1.0038  0.4618
 3853SOL    HW223196   0.868   2.142   2.868 -0.0990  0.1825  1.3528
 3854SOL     OW23197   0.329   1.206   0.917  0.1579  0.2210 -0.2192
 3854SOL    HW123198   0.266   1.134   0.917 -1.5713  1.7090 -1.4909
 3854SOL    HW223199   0.333   1.228   1.010  1.3910 -3.4958  0.5968
 3855SOL     OW23200   2.278   3.518   8.583 -0.3992 -0.2803  0.1717
 3855SOL    HW123201   2.214   3.531   8.513  0.7549 -0.7898 -0.9781
 3855SOL    HW223202   2.222   3.488   8.655  0.6217 -0.2707  0.9665
 3856SOL     OW23203   3.874   0.293  12.572  0.4836  0.4825  0.1001
 3856SOL    HW123204   3.913   0.301  12.485  0.8535  0.1718  0.2346
 3856SOL    HW223205   3.949   0.284  12.631 -0.4843 -1.2480  1.0630
 3857SOL     OW23206   4.313   2.832   8.187  0.3675  0.6384  0.7570
 3857SOL    HW123207   4.387   2.861   8.241  1.6000  0.7613 -1.0151
 3857SOL    HW223208   4.348   2.836   8.098  1.6737  1.7388  1.3256
 3858SOL     OW23209   4.124   3.392   6.712 -0.5346  0.3858  0.2249
 3858SOL    HW123210   4.203   3.338   6.706 -1.1139 -0.3058 -1.2233
 3858SOL    HW223211   4.118   3.424   6.622  2.1386  1.0475  0.2771
 3859SOL     OW23212   3.211   4.308  15.807 -0.0493  0.2847  0.9000
 3859SOL    HW123213   3.253   4.290  15.724  2.1258 -0.5884  2.2040
 3859SOL    HW223214   3.127   4.263  15.804 -0.5145  1.3621 -2.5746
 3860SOL     OW23215   1.589   2.493  10.877 -0.1983 -0.1667 -0.1126
 3860SOL    HW123216   1.547   2.552  10.814  0.6272 -0.1233 -0.6198
 3860SOL    HW223217   1.572   2.527  10.965  2.7355  1.5260 -0.1853
 3861SOL     OW23218   4.614   0.741   2.833  0.2878  0.1328  0.0026
 3861SOL    HW123219   4.593   0.728   2.740 -1.7368  0.3847  0.4343
 3861SOL    HW223220   4.702   0.705   2.820  0.0007 -0.5168 -0.1142
 3862SOL     OW23221   0.502   2.205   7.330  0.0294 -0.4158 -0.1737
 3862SOL    HW123222   0.482   2.183   7.421 -1.0417 -1.8174 -0.7548
 3862SOL    HW223223   0.575   2.147   7.306 -0.3021 -0.3072 -1.4401
 3863SOL     OW23224   0.899   3.339   6.514 -0.1390  0.2124  0.2635
 3863SOL    HW123225   0.833   3.295   6.568  0.1634  0.1780  0.5981
 3863SOL    HW223226   0.856   3.417   6.478 -2.3211  0.1338  2.6890
 3864SOL     OW23227   3.802   2.247   6.234 -0.9576 -0.0152 -0.1124
 3864SOL    HW123228   3.859   2.198   6.174 -2.1057  0.2105 -1.3658
 3864SOL    HW223229   3.745   2.176   6.264  0.4734 -0.8831  0.5853
 3865SOL     OW23230   0.697   1.804   8.363  0.6522 -0.0705 -0.0951
 3865SOL    HW123231   0.617   1.800   8.414  0.4141  2.2131 -0.2773
 3865SOL    HW223232   0.667   1.777   8.276  0.2206 -0.0938  0.0646
 3866SOL     OW23233   0.603   2.573   2.665  0.6178  0.0195 -0.2650
 3866SOL    HW123234   0.569   2.553   2.752 -2.8262  2.9077 -0.9316
 3866SOL    HW223235   0.561   2.658   2.652 -1.5272 -1.2663 -1.6599
 3867SOL     OW23236   3.244   0.209   5.733 -0.2228  0.1885 -0.0402
 3867SOL    HW123237   3.339   0.197   5.727 -0.2097  0.4083 -0.2541
 3867SOL    HW223238   3.222   0.277   5.669 -0.6801  1.2671  1.2654
 3868SOL     OW23239   3.940   4.582   8.498  0.6359  0.0722 -0.0812
 3868SOL    HW123240   3.975   4.535   8.422  0.6630  1.8779 -1.1893
 3868SOL    HW223241   4.008   4.648   8.514 -0.3956  0.8697  0.9195
 3869SOL     OW23242   4.705   3.018   6.019  0.3965  0.0809 -0.1959
 3869SOL    HW123243   4.727   3.048   6.107  0.3414 -2.1923  0.6078
 3869SOL    HW223244   4.612   3.041   6.013  0.0151 -1.3984 -0.0314
 3870SOL     OW23245   3.902   1.279   5.108  0.2510  0.0484 -0.6505
 3870SOL    HW123246   3.880   1.190   5.080  1.4899  0.0619 -1.6740
 3870SOL    HW223247   3.980   1.288   5.054 -0.2541 -0.3183 -1.4388
 3871SOL     OW23248   0.318   4.432   2.265 -0.1845 -0.2962  0.0818
 3871SOL    HW123249   0.302   4.371   2.193 -0.3295 -0.1339 -0.0236
 3871SOL    HW223250   0.408   4.412   2.290  0.4779 -1.6347 -3.3851
 3872SOL     OW23251   2.040   0.514   6.767  0.2524  0.0395 -0.1871
 3872SOL    HW123252   1.953   0.520   6.727 -0.4732 -1.3718  1.1663
 3872SOL    HW223253   2.048   0.422   6.794  0.4295 -0.1936 -1.0411
 3873SOL     OW23254   2.889   1.386   2.212 -0.1243 -0.3535  0.3026
 3873SOL    HW123255   2.935   1.465   2.239 -0.2907 -1.2594  3.2078
 3873SOL    HW223256   2.909   1.400   2.119  0.8922 -0.2657  0.5266
 3874SOL     OW23257   1.134   2.733   4.629  0.1721  0.7955 -0.0480
 3874SOL    HW123258   1.187   2.813   4.636  0.4668  0.6638 -0.8399
 3874SOL    HW223259   1.207   2.674   4.612 -0.5071 -0.1484  0.3493
 3875SOL     OW23260   0.202   3.540  11.505  0.0418 -0.2176  0.3148
 3875SOL    HW123261   0.241   3.509  11.424  1.8349  0.9335  0.7318
 3875SOL    HW223262   0.154   3.618  11.479  0.5952 -0.4155 -1.2584
 3876SOL     OW23263   2.363   3.237  15.124  0.3162  0.0504  0.4013
 3876SOL    HW123264   2.397   3.148  15.127  0.5615  0.0859 -1.9579
 3876SOL    HW223265   2.281   3.224  15.077  1.4557 -1.0957 -1.2521
 3877SOL     OW23266   1.732   0.715   4.555 -0.0914 -0.1053 -0.0247
 3877SOL    HW123267   1.656   0.664   4.583  1.1682 -0.8840  1.9971
 3877SOL    HW223268   1.764   0.663   4.481 -3.2027 -2.2629  0.1451
 3878SOL     OW23269   0.818   1.067   4.553  0.0892  0.1501 -0.5453
 3878SOL    HW123270   0.758   1.024   4.492 -0.9599 -0.3453  0.8298
 3878SOL    HW223271   0.772   1.076   4.637 -1.9899 -2.5647 -1.3673
 3879SOL     OW23272   1.150   1.795  12.685 -0.4687  0.8186 -0.5765
 3879SOL    HW123273   1.176   1.747  12.764  1.0567 -0.3303 -1.7766
 3879SOL    HW223274   1.173   1.723  12.627 -0.7525  0.0758  0.2337
 3880SOL     OW23275   0.369   4.399   3.199  0.3659  0.5583 -0.5313
 3880SOL    HW123276   0.391   4.372   3.288  0.0306 -0.0799 -0.6452
 3880SOL    HW223277   0.453   4.380   3.157  0.8371  0.5361  0.4133
 3881SOL     OW23278   2.929   4.115   9.117  0.7244  0.3171  0.1019
 3881SOL    HW123279   2.982   4.100   9.039 -1.4805 -0.2587 -1.3095
 3881SOL    HW223280   2.866   4.175   9.078 -1.1664 -1.2530  0.7082
 3882SOL     OW23281   0.415   0.809  13.132 -0.1055  0.2220 -0.0771
 3882SOL    HW123282   0.446   0.744  13.068 -1.1027  1.1874 -1.5329
 3882SOL    HW223283   0.355   0.759  13.187 -2.4366  2.0206 -0.9919
 3883SOL     OW23284   1.353   4.682   1.863 -0.0962  0.0148 -0.1734
 3883SOL    HW123285   1.432   4.631   1.880  0.5628  1.0890 -0.0371
 3883SOL    HW223286   1.319   4.639   1.785 -0.9525  0.0501  0.1799
 3884SOL     OW23287   4.587   1.227   6.335  0.4245  0.3717  0.1168
 3884SOL    HW123288   4.563   1.312   6.297 -0.8553 -0.3747 -0.7718
 3884SOL    HW223289   4.654   1.190   6.278 -0.2074  0.6461 -0.8133
 3885SOL     OW23290   0.006   4.417  11.809  0.2414  0.0422 -0.1627
 3885SOL    HW123291   0.007   4.489  11.745 -1.4927 -0.1134 -0.3724
 3885SOL    HW223292   4.738   4.473  11.885 -1.9090  1.6717 -1.5849
 3886SOL     OW23293   1.844   2.339  10.108  0.4990  0.5354  0.0810
 3886SOL    HW123294   1.753   2.314  10.091  0.4241  0.1044  1.1066
 3886SOL    HW223295   1.831   2.354  10.202 -1.7442 -3.2775  0.3982
 3887SOL     OW23296   3.358   3.282   8.257  0.4117 -0.0520 -0.1269
 3887SOL    HW123297   3.443   3.324   8.244  0.3541 -0.4617 -1.8077
 3887SOL    HW223298   3.367   3.248   8.347 -1.5736 -2.4173 -0.8108
 3888SOL     OW23299   2.521   1.954   6.520  0.5887  0.5209  0.2618
 3888SOL    HW123300   2.545   1.937   6.611  2.9749 -0.8439 -0.6390
 3888SOL    HW223301   2.567   1.883   6.476 -1.7673 -0.1145 -1.1511
 3889SOL     OW23302   0.950   0.614   0.609 -0.0270  0.2705 -0.3070
 3889SOL    HW123303   1.008   0.543   0.580 -3.4054 -2.5377 -0.0946
 3889SOL    HW223304   0.974   0.614   0.701 -0.9879  0.1411 -0.0618
 3890SOL     OW23305   3.425   1.464  17.566 -0.3356  0.4085 -0.6573
 3890SOL    HW123306   3.499   1.426  17.615  0.8314  2.1658 -1.0561
 3890SOL    HW223307   3.356   1.427  17.621 -1.0121  2.2121 -0.3246
 3891SOL     OW23308   3.835   3.790   2.552  0.4477  0.5175  0.1954
 3891SOL    HW123309   3.880   3.827   2.628 -1.1078 -0.2001  1.4710
 3891SOL    HW223310   3.903   3.746   2.501  1.9204 -0.0069  2.6092
 3892SOL     OW23311   3.008   1.636   2.336 -0.1257  0.2918  0.2302
 3892SOL    HW123312   3.068   1.656   2.408  1.7976  0.1641 -1.3349
 3892SOL    HW223313   3.069   1.656   2.265 -1.0942 -0.6459 -0.8585
 3893SOL     OW23314   0.770   2.366   3.467 -0.9592 -0.3362 -0.1407
 3893SOL    HW123315   0.860   2.387   3.445 -1.3703  0.7732 -0.7760
 3893SOL    HW223316   0.741   2.329   3.384 -1.0541 -0.3143 -0.1178
 3894SOL     OW23317   2.769   3.736   6.425  0.1705  0.4202 -0.3385
 3894SOL    HW123318   2.830   3.700   6.489  0.2791 -0.4174 -0.9242
 3894SOL    HW223319   2.712   3.666   6.395 -0.2305 -0.1862  1.8404
 3895SOL     OW23320   3.539   4.253   0.942 -0.3559 -0.1590 -0.0102
 3895SOL    HW123321   3.479   4.205   1.000  0.8080 -2.6320 -0.8180
 3895SOL    HW223322   3.482   4.272   0.867 -1.6632  1.5665  1.4262
 3896SOL     OW23323   1.710   0.751  13.879 -0.0491  0.1154  0.0016
 3896SOL    HW123324   1.689   0.819  13.943 -1.9014 -0.7442  0.3127
 3896SOL    HW223325   1.621   0.730  13.849  0.2200 -2.2535  0.8812
 3897SOL     OW23326   2.412   0.260   8.009  0.0642 -0.6908  0.1952
 3897SOL    HW123327   2.365   0.271   8.091  1.9436 -0.7317  1.2668
 3897SOL    HW223328   2.348   0.214   7.954 -0.3055 -0.0398  0.0744
 3898SOL     OW23329   2.275   4.080   2.718 -0.0126  0.0334 -0.3040
 3898SOL    HW123330   2.270   4.098   2.812  1.2441 -1.9137  0.1151
 3898SOL    HW223331   2.260   3.987   2.707 -0.4484  0.2036 -1.1735
 3899SOL     OW23332   1.386   4.285   8.196  0.1838 -0.1284  0.2926
 3899SOL    HW123333   1.293   4.295   8.177 -0.1101  0.5137  2.0152
 3899SOL    HW223334   1.408   4.360   8.252 -0.9091  0.7404 -0.4526
 3900SOL     OW23335   3.422   1.875   3.248 -0.1960  0.3168 -0.6556
 3900SOL    HW123336   3.376   1.940   3.302  0.8646 -0.2261  0.8870
 3900SOL    HW223337   3.501   1.926   3.233  1.9095 -3.1916 -1.4009
 3901SOL     OW23338   0.728   2.482  16.639  0.4173  0.0277  0.1374
 3901SOL    HW123339   0.726   2.561  16.586  0.4447  0.1293  0.2875
 3901SOL    HW223340   0.691   2.508  16.723 -0.9698  2.0988 -1.1147
 3902SOL     OW23341   4.643   2.071   4.011  0.2692 -0.0144  0.0732
 3902SOL    HW123342   4.684   1.990   4.041 -1.8823 -0.9151  0.5986
 3902SOL    HW223343   4.654   2.122   4.092  3.1129  0.9106 -0.9024
 3903SOL     OW23344   3.994   3.035   2.646  0.4946 -0.8062 -0.0993
 3903SOL    HW123345   3.987   2.954   2.696 -1.4798  0.0831  1.1213
 3903SOL    HW223346   3.952   3.011   2.564  0.8163 -1.9640  0.0841
 3904SOL     OW23347   0.964   0.907  16.689 -0.4136  0.3217  0.0317
 3904SOL    HW123348   0.875   0.932  16.665 -0.3313  1.3642  0.7724
 3904SOL    HW223349   1.010   0.957  16.621  0.2338 -1.4623 -0.8479
 3905SOL     OW23350   2.384   4.266   1.586  0.3067  0.7351 -0.2047
 3905SOL    HW123351   2.343   4.271   1.672  2.9960 -0.9828  1.1655
 3905SOL    HW223352   2.351   4.349   1.550 -2.9802 -0.1184  0.7881
 3906SOL     OW23353   3.803   0.293   0.387  0.9030  0.2187 -0.2124
 3906SOL    HW123354   3.728   0.264   0.438  1.3355  0.7072  0.7115
 3906SOL    HW223355   3.802   0.237   0.309  1.9721  0.5417 -0.4718
 3907SOL     OW23356   3.964   3.165   5.098  0.1426  0.2622  0.1899
 3907SOL    HW123357   4.012   3.173   5.015 -0.9310 -1.7128 -0.6309
 3907SOL    HW223358   3.890   3.225   5.086  0.0160  0.3101  1.1878
 3908SOL     OW23359   2.557   0.260   6.620 -0.4951  0.0009  0.4361
 3908SOL    HW123360   2.550   0.310   6.701  1.7539  0.9024  0.0792
 3908SOL    HW223361   2.546   0.330   6.555 -1.9120 -0.2748  0.3900
 3909SOL     OW23362   0.262   2.687   2.591  0.3425  0.0448 -0.4855
 3909SOL    HW123363   0.198   2.701   2.661  0.4625 -1.4255 -0.0813
 3909SOL    HW223364   0.322   2.761   2.602  0.4222 -0.0682 -0.1486
 3910SOL     OW23365   0.625   3.600   8.681 -0.1424  0.5363  0.3619
 3910SOL    HW123366   0.602   3.526   8.624  1.1085  0.2987  0.1684
 3910SOL    HW223367   0.623   3.672   8.618  1.3069 -0.0888 -0.4013
 3911SOL     OW23368   3.243   1.224   7.572  0.1037  1.1266  0.3186
 3911SOL    HW123369   3.162   1.223   7.622 -0.3843 -1.0370 -0.5263
 3911SOL    HW223370   3.304   1.181   7.633  0.5788  1.4371  0.0612
 3912SOL     OW23371   2.229   0.072   2.668 -0.7319 -0.2854 -0.0064
 3912SOL    HW123372   2.179   0.152   2.650 -0.7417  0.3640  2.7729
 3912SOL    HW223373   2.292   0.069   2.597 -0.3395  1.1696  0.2767
 3913SOL     OW23374   4.469   3.653  11.131  0.9041 -0.1419 -0.0351
 3913SOL    HW123375   4.495   3.587  11.195 -0.3106  0.0497  0.6422
 3913SOL    HW223376   4.484   3.607  11.048 -0.5687 -0.5507 -0.0673
 3914SOL     OW23377   2.608   2.088   2.855  0.8042 -0.2557  0.1812
 3914SOL    HW123378   2.702   2.103   2.845  0.3154  1.9293 -1.0875
 3914SOL    HW223379   2.606   2.009   2.801  3.4090 -0.1511 -0.0222
 3915SOL     OW23380   2.661   0.838  13.937  0.0920  0.0409  0.0050
 3915SOL    HW123381   2.753   0.839  13.911  0.2773  1.9018  0.6881
 3915SOL    HW223382   2.668   0.857  14.030 -0.7987 -0.6324  0.2044
 3916SOL     OW23383   2.313   4.360  11.868 -0.2048 -0.2794 -0.6809
 3916SOL    HW123384   2.395   4.406  11.884 -0.5653  0.8420 -1.9403
 3916SOL    HW223385   2.296   4.313  11.949 -0.1675 -0.1282 -0.5845
 3917SOL     OW23386   0.407   1.085  12.718  0.6777  0.2502  0.4759
 3917SOL    HW123387   0.451   1.166  12.744 -0.7351  1.3612 -0.5427
 3917SOL    HW223388   0.474   1.041  12.665 -1.1292 -1.3777 -0.4711
 3918SOL     OW23389   1.940   1.521  13.407  0.2159  0.2223  0.2700
 3918SOL    HW123390   2.031   1.490  13.411 -0.5661 -2.0127  0.6588
 3918SOL    HW223391   1.963   1.589  13.344 -0.4289 -1.5061 -1.8469
 3919SOL     OW23392   1.154   2.180  10.885  0.1113  0.2261 -0.7295
 3919SOL    HW123393   1.236   2.219  10.854  0.3789  0.1594 -0.0963
 3919SOL    HW223394   1.087   2.243  10.858 -0.9221 -0.5300  0.0494
 3920SOL     OW23395   0.227   4.262   2.797  0.1874 -0.6223 -0.4962
 3920SOL    HW123396   0.155   4.325   2.803  0.7395  0.0054 -0.4140
 3920SOL    HW223397   0.301   4.321   2.780 -1.2489  1.1227 -0.7616
 3921SOL     OW23398   2.536   2.126   4.159  0.8121  0.0983 -0.3684
 3921SOL    HW123399   2.460   2.182   4.172  0.5234 -0.2921 -0.3640
 3921SOL    HW223400   2.498   2.043   4.129  0.9832  0.2381 -0.9562
 3922SOL     OW23401   1.767   0.398  17.358  0.5911 -0.5993 -0.6168
 3922SOL    HW123402   1.837   0.366  17.414  1.3204 -0.0197 -1.1866
 3922SOL    HW223403   1.812   0.386  17.274  0.0250 -0.9749 -0.8599
 3923SOL     OW23404   1.725   1.342  10.319  0.2382  0.3165 -0.0665
 3923SOL    HW123405   1.741   1.431  10.289 -0.7804  0.1814 -0.9959
 3923SOL    HW223406   1.764   1.298  10.243 -1.1476 -0.5909 -0.2432
 3924SOL     OW23407   4.733   3.672   3.647  0.5443  0.3237 -0.1032
 3924SOL    HW123408   0.080   3.660   3.686  0.2621  0.4318  0.5500
 3924SOL    HW223409   0.016   3.711   3.563  0.9034 -1.6143 -0.9237
 3925SOL     OW23410   3.606   2.100   4.671  0.0798  0.5939  0.2451
 3925SOL    HW123411   3.666   2.145   4.730 -0.6143  1.6838  0.1138
 3925SOL    HW223412   3.653   2.108   4.588 -1.4324 -1.1557 -0.7820
 3926SOL     OW23413   0.270   0.793   1.545  0.1140  0.2665 -0.3585
 3926SOL    HW123414   0.176   0.812   1.544  0.2447  0.9272  0.4778
 3926SOL    HW223415   0.303   0.845   1.618 -0.0161 -1.8801  1.2302
 3927SOL     OW23416   1.689   2.684   9.921  0.0590 -0.2332  0.4096
 3927SOL    HW123417   1.737   2.635   9.853 -2.0031 -1.3928 -0.1958
 3927SOL    HW223418   1.647   2.747   9.863 -1.1032  0.6628  2.2282
 3928SOL     OW23419   0.952   0.754   8.101  0.1828  0.0082 -0.2893
 3928SOL    HW123420   0.884   0.817   8.125 -0.3841 -0.9448  0.6544
 3928SOL    HW223421   0.915   0.722   8.018  3.4740 -2.8286 -0.6564
 3929SOL     OW23422   0.976   3.130  15.101 -0.4471 -0.3791  0.0715
 3929SOL    HW123423   0.991   3.139  15.007  0.1225 -3.2932 -0.1129
 3929SOL    HW223424   0.911   3.060  15.108 -0.9026  0.0276 -0.1509
 3930SOL     OW23425   0.679   0.009   1.572 -0.8468 -0.3660  0.2620
 3930SOL    HW123426   0.640   0.095   1.587 -1.8219 -0.4619 -1.7234
 3930SOL    HW223427   0.733   4.736   1.650 -0.2955 -0.2582 -0.1017
 3931SOL     OW23428   1.318   2.440  14.829 -0.4905 -0.1729  0.2289
 3931SOL    HW123429   1.270   2.359  14.814 -1.7398  0.3648  1.3550
 3931SOL    HW223430   1.317   2.490  14.748 -0.9409 -1.4143 -0.5290
 3932SOL     OW23431   3.242   4.642   1.662 -0.3412  0.1345  0.3771
 3932SOL    HW123432   3.274   4.688   1.584  0.2179 -2.3764 -0.8756
 3932SOL    HW223433   3.207   4.704   1.725 -0.6034  0.3563  0.0139
 3933SOL     OW23434   0.013   4.006   3.895  0.0856 -0.2291  0.1095
 3933SOL    HW123435   4.695   4.078   3.919  2.0960  1.7637 -1.0202
 3933SOL    HW223436   0.082   4.038   3.836  0.6841 -0.5849  0.6121
 3934SOL     OW23437   2.445   0.698   2.351  0.2863  0.4277  0.4582
 3934SOL    HW123438   2.483   0.765   2.295  0.0739 -0.7275 -1.0672
 3934SOL    HW223439   2.498   0.714   2.429  1.2064  1.3763 -0.3647
 3935SOL     OW23440   0.786   0.788   2.242  0.4731  0.5412 -0.1902
 3935SOL    HW123441   0.791   0.753   2.331 -0.3020  0.5780 -0.1289
 3935SOL    HW223442   0.806   0.714   2.184 -1.9493  0.6927 -1.2460
 3936SOL     OW23443   1.530   2.638   5.633 -0.7351 -0.3931  0.2329
 3936SOL    HW123444   1.562   2.555   5.670  0.0173  0.2538  1.0225
 3936SOL    HW223445   1.541   2.693   5.710 -1.1025 -1.5795  1.1361
 3937SOL     OW23446   1.255   0.972   8.735  0.8075  0.3359  0.0723
 3937SOL    HW123447   1.283   1.009   8.819 -1.9900  2.1366  0.2409
 3937SOL    HW223448   1.168   0.937   8.755  0.1756  1.8123 -0.0905
 3938SOL     OW23449   3.571   4.480   6.906 -0.4379  0.8940  0.9684
 3938SOL    HW123450   3.567   4.561   6.856 -0.2723  0.7257  0.6767
 3938SOL    HW223451   3.633   4.497   6.976 -1.5667  0.0161  2.1830
 3939SOL     OW23452   4.356   2.704  15.830 -0.5146 -0.2348 -0.4536
 3939SOL    HW123453   4.416   2.651  15.777  1.1762 -1.7734  2.9380
 3939SOL    HW223454   4.380   2.685  15.921 -0.6867  1.4460 -0.0603
 3940SOL     OW23455   2.537   1.750   7.922  0.1896 -0.2380  0.1993
 3940SOL    HW123456   2.501   1.670   7.886 -1.4624 -0.5270  2.5111
 3940SOL    HW223457   2.464   1.809   7.940  0.5913  0.0181  0.9797
 3941SOL     OW23458   2.068   2.192  16.209 -0.2246  0.3840  0.0339
 3941SOL    HW123459   2.097   2.186  16.300  2.1996  1.7518 -0.6292
 3941SOL    HW223460   2.101   2.111  16.169 -1.0372  0.4125 -0.7072
 3942SOL     OW23461   2.770   3.263   2.452 -0.1078  0.3309 -0.1127
 3942SOL    HW123462   2.812   3.177   2.448 -0.4090  0.1279  1.2095
 3942SOL    HW223463   2.712   3.252   2.527  2.3592  0.1936  1.7688
 3943SOL     OW23464   4.048   1.750   2.479  0.2077  0.1696  0.4490
 3943SOL    HW123465   4.097   1.818   2.433  0.9128  0.6286  1.8825
 3943SOL    HW223466   3.986   1.720   2.412  1.6967 -0.1090 -0.7806
 3944SOL     OW23467   2.779   1.452   4.268  0.0089  0.8198 -0.1929
 3944SOL    HW123468   2.748   1.382   4.326 -0.9644 -1.0866 -3.0622
 3944SOL    HW223469   2.765   1.524   4.330  1.3525  1.4967 -0.6632
 3945SOL     OW23470   0.981   0.572  13.638  0.3806 -0.3822 -0.5324
 3945SOL    HW123471   1.044   0.547  13.706 -0.3007 -0.0437  0.2195
 3945SOL    HW223472   0.944   0.652  13.675 -1.4271 -0.6494 -1.7971
 3946SOL     OW23473   3.053   0.914   4.783  0.1499  0.1843 -0.0110
 3946SOL    HW123474   2.989   0.843   4.784  0.9049 -0.4801  1.1224
 3946SOL    HW223475   3.130   0.861   4.804 -1.0112 -2.2523 -1.9783
 3947SOL     OW23476   1.583   4.267   4.181  0.6174  0.1978  0.2525
 3947SOL    HW123477   1.637   4.201   4.223  0.2728 -0.3079 -0.0908
 3947SOL    HW223478   1.555   4.315   4.258  1.4570  0.7950  0.1887
 3948SOL     OW23479   0.360   2.063  10.317  0.1290 -0.1133 -0.5965
 3948SOL    HW123480   0.362   1.996  10.384 -0.1267  0.6644  0.1887
 3948SOL    HW223481   0.322   2.018  10.242 -0.2221 -0.2682 -0.3225
 3949SOL     OW23482   3.104   0.872   9.723 -0.1182 -0.0500 -0.5764
 3949SOL    HW123483   3.148   0.952   9.693 -0.8664  1.0100  1.1667
 3949SOL    HW223484   3.179   0.837   9.771 -0.2156  0.7643  0.1777
 3950SOL     OW23485   2.355   2.508   2.336  0.4755  0.0833  0.1867
 3950SOL    HW123486   2.296   2.547   2.272 -0.1925 -0.5378  0.4221
 3950SOL    HW223487   2.297   2.433   2.349  0.7207 -0.6055 -2.7069
 3951SOL     OW23488   3.458   2.447   7.785  0.1281 -0.1734 -0.0201
 3951SOL    HW123489   3.418   2.393   7.717 -0.9418  1.9112 -1.0526
 3951SOL    HW223490   3.383   2.496   7.817  0.5122 -0.1590  0.8531
 3952SOL     OW23491   1.738   2.045   1.649  0.4072 -0.1104 -0.4547
 3952SOL    HW123492   1.715   1.964   1.696  2.2827 -0.4499 -0.1471
 3952SOL    HW223493   1.652   2.083   1.630  0.3247  0.0374  0.2006
 3953SOL     OW23494   1.929   0.258   3.585 -0.1660  0.2038 -0.3256
 3953SOL    HW123495   1.906   0.175   3.542 -0.8310  1.0643 -1.6540
 3953SOL    HW223496   1.847   0.295   3.619 -0.4302  0.2022 -0.9607
 3954SOL     OW23497   1.332   4.233  11.752  0.1482  0.0778 -0.4127
 3954SOL    HW123498   1.308   4.141  11.757  1.4985 -0.1887  0.9031
 3954SOL    HW223499   1.315   4.254  11.844 -0.2909 -0.2273 -0.4252
 3955SOL     OW23500   1.266   2.718   1.510  0.5435 -0.1845 -0.4929
 3955SOL    HW123501   1.224   2.789   1.462 -0.1930 -0.5680 -0.4172
 3955SOL    HW223502   1.351   2.718   1.466  2.0787  1.2923  2.5235
 3956SOL     OW23503   2.117   4.249   2.904 -0.8130 -0.0425  0.3135
 3956SOL    HW123504   2.120   4.248   2.808 -1.4559  2.1906  0.2729
 3956SOL    HW223505   2.036   4.200   2.920  0.2703 -1.3212  1.8389
 3957SOL     OW23506   0.287   3.478  11.795  0.0254  1.0588  0.0600
 3957SOL    HW123507   0.194   3.476  11.772 -0.3056  0.2560  1.4474
 3957SOL    HW223508   0.316   3.392  11.766 -4.6305 -0.0591 -1.3156
 3958SOL     OW23509   2.295   0.474   4.742  0.5476 -0.3352 -0.0351
 3958SOL    HW123510   2.380   0.433   4.726  0.7828 -0.5955  1.9141
 3958SOL    HW223511   2.263   0.426   4.819 -0.2887  1.0142  0.4711
 3959SOL     OW23512   1.682   1.286  10.604  0.0169  0.0088  0.1101
 3959SOL    HW123513   1.694   1.314  10.513  1.4982  1.1198  0.6507
 3959SOL    HW223514   1.593   1.268  10.634 -0.5770  1.5503 -0.7288
 3960SOL     OW23515   0.082   2.984   3.057 -0.6981 -0.5985  0.2779
 3960SOL    HW123516   0.158   2.934   3.087 -0.4218 -0.1890  0.2753
 3960SOL    HW223517   0.105   3.007   2.967 -1.5960 -1.0783 -0.0774
 3961SOL     OW23518   1.405   1.445  10.357  0.4797 -0.2282 -0.0686
 3961SOL    HW123519   1.333   1.382  10.363  0.4840 -0.3810 -1.6478
 3961SOL    HW223520   1.473   1.397  10.310 -0.8184 -0.9703 -1.2000
 3962SOL     OW23521   4.037   0.253  15.237 -0.6082  0.0691  0.3641
 3962SOL    HW123522   4.090   0.174  15.242 -1.4127 -0.4332  0.8739
 3962SOL    HW223523   4.097   0.316  15.278  1.6193 -2.0157  0.2812
 3963SOL     OW23524   1.457   1.379  10.037 -0.0185  0.1067 -0.3518
 3963SOL    HW123525   1.546   1.414  10.037 -0.6099  1.5859  2.2129
 3963SOL    HW223526   1.411   1.464  10.036 -1.3119 -0.5778  1.4923
 3964SOL     OW23527   1.212   3.986  11.835  0.3144 -0.1284 -0.5316
 3964SOL    HW123528   1.136   3.972  11.779  0.4815 -0.8132 -0.5860
 3964SOL    HW223529   1.191   3.922  11.903 -1.3418  0.1119 -0.8187
 3965SOL     OW23530   0.592   4.183  16.451 -0.4136 -0.5250  0.4532
 3965SOL    HW123531   0.667   4.136  16.413 -0.9376 -1.3496  0.4475
 3965SOL    HW223532   0.518   4.137  16.414 -0.4591 -2.0400  2.4046
 3966SOL     OW23533   2.585   4.590   8.037 -0.0768 -0.1087  0.0207
 3966SOL    HW123534   2.497   4.577   8.072  0.2818  0.6134  1.1830
 3966SOL    HW223535   2.642   4.583   8.114 -1.1551 -0.9083  0.7438
 3967SOL     OW23536   0.829   1.504  10.302  0.2288 -0.0096 -0.0403
 3967SOL    HW123537   0.878   1.566  10.356  0.8147  0.9080 -1.6211
 3967SOL    HW223538   0.767   1.560  10.256 -0.2228 -0.2966  0.2165
 3968SOL     OW23539   1.929   2.910   5.033  0.5811  0.0798 -0.4908
 3968SOL    HW123540   1.914   3.005   5.031  1.2167  0.1928  0.2062
 3968SOL    HW223541   1.974   2.906   5.117  2.4150  1.3433 -1.4189
 3969SOL     OW23542   2.061   4.471  11.840 -0.3260  0.1287 -0.0064
 3969SOL    HW123543   2.144   4.436  11.808  0.5519 -0.0572  2.4780
 3969SOL    HW223544   2.082   4.560  11.866  0.4441 -0.3751  1.0839
 3970SOL     OW23545   0.812   0.562   3.612  0.3919 -0.3274  0.3897
 3970SOL    HW123546   0.735   0.537   3.560 -0.2719  3.6918 -0.5066
 3970SOL    HW223547   0.848   0.630   3.556  1.7121  1.2578  3.1739
 3971SOL     OW23548   4.659   2.021   6.996  0.2210 -0.1764  0.1008
 3971SOL    HW123549   0.005   2.005   6.958  0.7574  1.7430  0.5056
 3971SOL    HW223550   4.605   1.975   6.932 -3.6911  1.8508  1.9291
 3972SOL     OW23551   3.875   4.190   8.452  0.1083  0.7125 -0.2045
 3972SOL    HW123552   3.842   4.151   8.533 -2.7570  0.0511 -1.6925
 3972SOL    HW223553   3.946   4.242   8.488 -0.8342 -0.0998  2.8606
 3973SOL     OW23554   3.897   0.805   0.783  0.2426 -0.5258 -0.2308
 3973SOL    HW123555   3.975   0.841   0.826  2.3729 -1.4758 -3.2845
 3973SOL    HW223556   3.838   0.869   0.824  0.6088  1.3048 -2.5581
 3974SOL     OW23557   3.913   4.519   1.900 -0.3441  0.1635 -0.0018
 3974SOL    HW123558   3.991   4.549   1.853 -0.1815  0.0497  0.1985
 3974SOL    HW223559   3.890   4.601   1.942  1.0472  0.9170 -0.7020
 3975SOL     OW23560   3.607   2.963   2.189  0.0514  0.1133 -0.5667
 3975SOL    HW123561   3.595   2.988   2.097  0.1203  0.1717 -0.5599
 3975SOL    HW223562   3.623   3.046   2.235 -1.3396 -1.1554  2.2034
 3976SOL     OW23563   2.248   1.652   3.940 -0.1888  0.1412 -0.1554
 3976SOL    HW123564   2.268   1.618   4.027 -2.5235  2.6293  1.3797
 3976SOL    HW223565   2.187   1.723   3.959  0.9472  0.8340  0.8472
 3977SOL     OW23566   1.503   0.569   4.600  0.5035  0.2216  0.1955
 3977SOL    HW123567   1.413   0.586   4.629  0.3298 -3.5256  1.8572
 3977SOL    HW223568   1.486   0.482   4.564  0.9152 -0.4171  1.5273
 3978SOL     OW23569   0.433   1.130   2.861 -0.3053  0.9523 -0.3530
 3978SOL    HW123570   0.528   1.130   2.864 -0.3041  3.1604 -0.3760
 3978SOL    HW223571   0.413   1.044   2.897  0.9476  0.4882 -0.7955
 3979SOL     OW23572   1.938   0.087   1.684  0.0916  0.5607 -0.0366
 3979SOL    HW123573   1.845   0.106   1.668  0.5665  0.9983 -2.3270
 3979SOL    HW223574   1.962   0.171   1.724 -0.2879 -0.1468  1.6918
 3980SOL     OW23575   1.595   0.163   7.034  0.4321  0.1156  0.2411
 3980SOL    HW123576   1.577   0.207   7.117  0.1803  1.0762 -0.3265
 3980SOL    HW223577   1.651   0.092   7.065 -0.4251 -0.6499  0.0363
 3981SOL     OW23578   2.189   4.359   7.574 -0.4408 -0.3372  0.7745
 3981SOL    HW123579   2.170   4.326   7.662 -1.0362 -0.8757  0.4365
 3981SOL    HW223580   2.215   4.277   7.534 -0.3737 -0.1897  0.5154
 3982SOL     OW23581   0.241   1.796  10.245  0.3457  0.5521 -0.6635
 3982SOL    HW123582   0.261   1.769  10.155  3.0291  1.4409 -0.3386
 3982SOL    HW223583   0.304   1.735  10.283 -0.8995 -1.6705 -2.1713
 3983SOL     OW23584   2.492   2.139   5.173  0.1470 -0.2988  0.0490
 3983SOL    HW123585   2.534   2.157   5.088 -0.4253  1.9205  0.2234
 3983SOL    HW223586   2.444   2.058   5.157  1.4981 -1.0414 -0.2823
 3984SOL     OW23587   0.132   0.908   2.530  0.0952 -0.0348  0.9159
 3984SOL    HW123588   0.189   0.970   2.485  1.0124  1.1639  3.6801
 3984SOL    HW223589   0.045   0.938   2.503  0.8209  0.0977 -1.2292
 3985SOL     OW23590   4.411   2.668  11.153  0.0001  0.0752  0.1285
 3985SOL    HW123591   4.419   2.675  11.249 -1.2498 -3.1808  0.4586
 3985SOL    HW223592   4.359   2.589  11.137  1.2138 -0.6576 -0.1292
 3986SOL     OW23593   1.205   4.671   2.631 -0.2450 -0.0380  0.2029
 3986SOL    HW123594   1.276   4.733   2.614 -2.4970  2.2963 -0.7460
 3986SOL    HW223595   1.199   4.628   2.545 -2.5979  0.8213 -0.0754
 3987SOL     OW23596   3.969   2.943  11.902 -0.1831 -0.1647  0.5114
 3987SOL    HW123597   4.012   3.020  11.941  0.8732 -1.2484  1.4738
 3987SOL    HW223598   3.887   2.989  11.883 -0.4185  0.6620  3.5777
 3988SOL     OW23599   4.249   3.952  10.586  0.3471 -0.2126 -0.4756
 3988SOL    HW123600   4.168   3.961  10.636  0.2712 -0.8295 -0.4865
 3988SOL    HW223601   4.227   3.942  10.493 -0.3096  0.0883 -0.3496
 3989SOL     OW23602   0.978   2.728   4.388 -0.2394  0.4811  0.2896
 3989SOL    HW123603   0.942   2.644   4.361  2.5592 -1.2705  1.9597
 3989SOL    HW223604   0.994   2.712   4.481  0.1692  1.3501  0.3704
 3990SOL     OW23605   0.435   2.389   3.120  0.2213 -0.3241  0.0260
 3990SOL    HW123606   0.347   2.422   3.135  0.7242  0.4794  1.2572
 3990SOL    HW223607   0.475   2.349   3.197  2.8983 -1.3019 -1.8495
 3991SOL     OW23608   0.032   0.521   4.937 -0.0184 -0.2144 -0.0503
 3991SOL    HW123609   0.060   0.532   4.846 -0.8117 -1.6462 -0.4587
 3991SOL    HW223610   0.039   0.426   4.935 -0.5274 -0.2764  1.3644
 3992SOL     OW23611   4.036   1.030   8.356 -0.3263  0.1168  0.0874
 3992SOL    HW123612   3.985   1.006   8.278 -0.9090  1.9603 -0.1025
 3992SOL    HW223613   3.969   1.030   8.424 -1.7186 -0.2756 -1.3063
 3993SOL     OW23614   2.937   4.657  12.062  0.3979  0.0223 -0.2472
 3993SOL    HW123615   2.852   4.614  12.065  0.2467  0.3103 -0.4640
 3993SOL    HW223616   2.980   4.583  12.018  1.1362  0.3667 -0.1042
 3994SOL     OW23617   0.800   4.438   6.783 -0.3580  0.1592 -0.8386
 3994SOL    HW123618   0.771   4.417   6.871  2.3233 -0.3426 -0.0771
 3994SOL    HW223619   0.787   4.533   6.780  0.3761  0.2366 -1.6927
 3995SOL     OW23620   1.162   1.836  15.144 -0.2568  0.2100 -0.0959
 3995SOL    HW123621   1.251   1.802  15.154 -0.8713 -1.3653  0.0222
 3995SOL    HW223622   1.185   1.926  15.120  0.6997  0.3454  1.3291
 3996SOL     OW23623   3.195   1.510   0.762  0.7414  0.2147 -0.0030
 3996SOL    HW123624   3.124   1.551   0.812  0.7171  0.1588  0.0092
 3996SOL    HW223625   3.245   1.491   0.841  0.5711  0.7224  0.2213
 3997SOL     OW23626   4.052   3.777  14.804  0.0940  0.1686 -0.1010
 3997SOL    HW123627   4.130   3.747  14.757  0.5223  0.6289  0.3169
 3997SOL    HW223628   4.008   3.822  14.732  2.1256 -2.2244 -2.8710
 3998SOL     OW23629   0.041   0.200  12.483  0.0323  0.1700 -0.4214
 3998SOL    HW123630   0.048   0.274  12.543  4.2008 -0.9211  0.4630
 3998SOL    HW223631   0.098   0.225  12.409  0.1806 -0.8200 -0.6482
 3999SOL     OW23632   2.270   2.720   7.197 -0.0744  0.0085  0.3858
 3999SOL    HW123633   2.178   2.740   7.208  0.1017 -0.4034  2.6087
 3999SOL    HW223634   2.313   2.806   7.194  2.8164 -1.4161  0.3582
 4000SOL     OW23635   2.526   1.514   7.606 -0.5076 -0.4822  0.2488
 4000SOL    HW123636   2.480   1.496   7.688 -1.3461  2.1806  0.3729
 4000SOL    HW223637   2.527   1.610   7.603 -1.6056 -0.3490  3.6971
 4001SOL     OW23638   1.293   0.299   2.442 -0.0345  0.0748 -0.6658
 4001SOL    HW123639   1.233   0.243   2.393 -2.4969  0.2823  2.1071
 4001SOL    HW223640   1.301   0.364   2.373  1.8221  0.5139 -0.0441
 4002SOL     OW23641   2.051   3.614  16.499 -0.2770 -0.1398 -0.2935
 4002SOL    HW123642   2.029   3.672  16.572  0.4526 -0.0041 -0.1876
 4002SOL    HW223643   2.142   3.589  16.515 -0.0283  1.4921  0.8361
 4003SOL     OW23644   3.638   0.801  15.611  0.0037  0.0346 -0.1154
 4003SOL    HW123645   3.727   0.765  15.620  0.5879  1.5996  0.3437
 4003SOL    HW223646   3.577   0.739  15.651  1.0785 -1.3040 -0.5297
 4004SOL     OW23647   2.129   2.730   7.600 -0.2105 -0.0052 -0.2730
 4004SOL    HW123648   2.093   2.793   7.538  0.1525  0.2025 -0.2709
 4004SOL    HW223649   2.129   2.658   7.538  1.9456  0.0030 -0.2756
 4005SOL     OW23650   0.738   1.489   3.503  0.0679  0.3989  0.4371
 4005SOL    HW123651   0.828   1.462   3.483  0.9056  1.6359  2.6119
 4005SOL    HW223652   0.712   1.421   3.565  1.2814 -1.7266 -1.3593
 4006SOL     OW23653   0.625   3.867  11.674 -0.4644  0.5144  0.0239
 4006SOL    HW123654   0.583   3.782  11.663  0.0361 -0.1490  3.3730
 4006SOL    HW223655   0.564   3.905  11.738 -0.7187  0.0052  0.0848
 4007SOL     OW23656   2.580   3.109   1.427 -0.3621 -0.4096  0.4203
 4007SOL    HW123657   2.488   3.128   1.444  0.5656  4.1061  0.4058
 4007SOL    HW223658   2.588   3.014   1.439 -1.1663 -0.5129  0.1195
 4008SOL     OW23659   0.725   0.446   0.612  0.2795 -0.7038 -0.6022
 4008SOL    HW123660   0.803   0.500   0.605 -0.7145  0.8279  0.3028
 4008SOL    HW223661   0.674   0.453   0.531 -0.7733 -2.7360 -0.1231
 4009SOL     OW23662   1.227   1.805  14.443  0.1902  0.3093 -0.3506
 4009SOL    HW123663   1.131   1.812  14.446  0.1206 -0.4715 -0.7763
 4009SOL    HW223664   1.244   1.727  14.392  0.5428  0.9027 -1.1285
 4010SOL     OW23665   3.880   4.713   0.365  0.3940  0.4652 -0.2627
 4010SOL    HW123666   3.969   4.679   0.354  0.0484  0.4513 -2.9656
 4010SOL    HW223667   3.875   0.006   0.275  1.9014  0.1914 -0.4573
 4011SOL     OW23668   2.670   2.904   5.839  0.3747 -0.2554 -0.1072
 4011SOL    HW123669   2.756   2.915   5.879 -0.3280 -0.0883  1.3548
 4011SOL    HW223670   2.632   2.854   5.911 -1.9082  1.0113 -0.4284
 4012SOL     OW23671   0.125   3.189   1.929 -0.2256  0.1143  0.1982
 4012SOL    HW123672   0.099   3.261   1.871  0.6908 -0.8046 -1.3519
 4012SOL    HW223673   0.171   3.136   1.864 -2.2120  2.1122 -2.8085
 4013SOL     OW23674   4.475   0.475   3.880  0.3212 -0.3951  0.0153
 4013SOL    HW123675   4.562   0.507   3.856  1.4160 -2.8440  0.7614
 4013SOL    HW223676   4.447   0.540   3.945 -1.7007  0.2574 -1.5079
 4014SOL     OW23677   3.935   1.911   7.386 -0.3318 -0.6210  0.3217
 4014SOL    HW123678   3.985   1.958   7.319 -0.1540  1.3316  1.8244
 4014SOL    HW223679   3.887   1.847   7.333  0.1282 -0.2613 -0.5369
 4015SOL     OW23680   2.899   3.451   5.275 -0.2837 -0.0156  0.0215
 4015SOL    HW123681   2.932   3.489   5.357 -0.6455 -0.4076  0.3481
 4015SOL    HW223682   2.845   3.382   5.315 -2.5955  0.8550 -1.5775
 4016SOL     OW23683   1.216   2.331   5.257 -0.1003  0.6897  0.3490
 4016SOL    HW123684   1.123   2.350   5.246 -0.3111 -0.6553 -0.1974
 4016SOL    HW223685   1.222   2.238   5.235  0.6553  0.8766 -0.2315
 4017SOL     OW23686   0.542   3.574   3.578  0.5098  0.1568 -0.5779
 4017SOL    HW123687   0.521   3.502   3.638  0.3913 -1.2476 -2.2956
 4017SOL    HW223688   0.527   3.523   3.498  0.9494  2.8606 -2.3900
 4018SOL     OW23689   4.361   1.928   6.916  0.4193 -0.6409 -0.0012
 4018SOL    HW123690   4.270   1.953   6.930  1.2264  1.3989  1.5624
 4018SOL    HW223691   4.408   2.005   6.884  1.3515 -0.0638  2.7935
 4019SOL     OW23692   2.052   2.026   8.402 -0.1646 -0.3274 -0.6695
 4019SOL    HW123693   2.091   1.938   8.404  0.5492 -0.0183 -1.1518
 4019SOL    HW223694   2.108   2.077   8.344 -0.7616  0.5540 -0.4766
 4020SOL     OW23695   1.659   4.683   6.534 -0.1626 -0.6317 -0.7645
 4020SOL    HW123696   1.716   4.613   6.502  0.1471 -0.9440  0.4480
 4020SOL    HW223697   1.730   0.006   6.545  0.2071 -1.3164  0.8161
 4021SOL     OW23698   4.419   4.019   3.265 -0.2734 -0.3808 -0.5047
 4021SOL    HW123699   4.405   4.010   3.359 -0.5537 -0.5870 -0.5649
 4021SOL    HW223700   4.403   4.113   3.258 -1.6792 -0.5859 -0.0855
 4022SOL     OW23701   3.950   4.267   1.209 -0.5621 -0.1729  0.2066
 4022SOL    HW123702   3.969   4.361   1.216  0.0182 -0.1624 -1.4138
 4022SOL    HW223703   3.890   4.279   1.135  1.0381 -2.5196 -1.4816
 4023SOL     OW23704   3.605   3.281  16.038  0.5710 -0.0387  0.2529
 4023SOL    HW123705   3.573   3.199  16.000 -0.6193  0.5794 -0.0915
 4023SOL    HW223706   3.527   3.292  16.092 -0.8274 -2.8008 -1.1844
 4024SOL     OW23707   1.142   4.226   3.777  0.4313  0.2275 -0.1389
 4024SOL    HW123708   1.051   4.248   3.797  0.5025 -0.3370  0.7781
 4024SOL    HW223709   1.155   4.132   3.782 -0.0746  0.0066 -2.7143
 4025SOL     OW23710   3.599   2.522  12.545 -0.2092 -0.0979  0.2209
 4025SOL    HW123711   3.626   2.438  12.583 -3.5224 -1.1010  0.4098
 4025SOL    HW223712   3.675   2.576  12.563 -0.3257  0.1776 -0.1100
 4026SOL     OW23713   0.700   3.922   8.542 -0.4426  0.2129 -0.0963
 4026SOL    HW123714   0.757   3.922   8.618 -0.9647  1.2565  0.2898
 4026SOL    HW223715   0.726   4.003   8.497  0.6069 -0.7107 -1.1444
 4027SOL     OW23716   4.668   2.906   1.421 -0.3292 -0.0340  0.0701
 4027SOL    HW123717   4.733   2.875   1.484 -1.4197 -0.2558  1.0944
 4027SOL    HW223718   4.714   2.973   1.371  2.4190 -0.2765  2.2816
 4028SOL     OW23719   2.112   4.633   8.161  0.0825  0.2781 -0.0996
 4028SOL    HW123720   2.040   4.578   8.129  0.7727 -1.0003  0.5485
 4028SOL    HW223721   2.185   4.575   8.140  0.5879  1.3318 -1.2120
 4029SOL     OW23722   3.564   2.310   3.026  0.3267 -0.2053  0.7578
 4029SOL    HW123723   3.543   2.220   3.004  0.9746 -0.5295  1.4977
 4029SOL    HW223724   3.658   2.309   3.010  0.1065  3.5842 -1.0022
 4030SOL     OW23725   1.597   0.672  15.655 -0.6383 -0.6125  0.2738
 4030SOL    HW123726   1.626   0.739  15.593 -0.3128  0.2667  1.3552
 4030SOL    HW223727   1.676   0.655  15.708 -1.1134  0.4277  1.3312
 4031SOL     OW23728   0.618   3.148   0.987  0.1441  0.5718  0.3216
 4031SOL    HW123729   0.588   3.074   1.039 -0.5325  0.4777 -0.2132
 4031SOL    HW223730   0.574   3.124   0.906 -1.2560  2.7124  0.4269
 4032SOL     OW23731   0.716   0.686   8.587  0.3058 -0.5999 -0.2297
 4032SOL    HW123732   0.724   0.635   8.506  0.4936 -0.7424 -0.1219
 4032SOL    HW223733   0.625   0.677   8.614  0.0971 -3.7951 -2.0756
 4033SOL     OW23734   3.028   1.165  12.024 -0.7406 -0.2151 -0.0807
 4033SOL    HW123735   2.968   1.123  12.086  0.0572 -1.7067 -0.3412
 4033SOL    HW223736   3.070   1.085  11.995 -0.0731  0.4432 -0.9364
 4034SOL     OW23737   1.552   2.153   9.637 -0.9536  0.1648  0.2173
 4034SOL    HW123738   1.576   2.101   9.714 -1.6780  0.9758  0.9762
 4034SOL    HW223739   1.534   2.088   9.569  2.5687 -0.3403 -0.2588
 4035SOL     OW23740   1.727   0.254   4.840  0.4212  0.4586 -0.0640
 4035SOL    HW123741   1.769   0.337   4.817 -0.0885  0.7412  0.0277
 4035SOL    HW223742   1.718   0.206   4.758 -1.6249  0.9092 -0.0975
 4036SOL     OW23743   2.607   3.912  13.236 -0.0422 -0.3759  0.7018
 4036SOL    HW123744   2.527   3.913  13.289 -0.8913 -1.6482 -0.5477
 4036SOL    HW223745   2.676   3.952  13.288  0.6180  0.0103 -0.4597
 4037SOL     OW23746   0.881   3.436   1.875 -0.1330 -0.2037  0.0629
 4037SOL    HW123747   0.808   3.404   1.929 -1.1378  0.8967 -0.6683
 4037SOL    HW223748   0.932   3.354   1.879  0.7699  0.4032  1.0660
 4038SOL     OW23749   2.206   2.004   1.637 -0.3256  0.2385  0.1418
 4038SOL    HW123750   2.143   2.042   1.698 -1.2235 -2.4752  0.9157
 4038SOL    HW223751   2.287   2.047   1.666  0.4242 -1.9732  1.2948
 4039SOL     OW23752   0.610   3.480   9.678  0.1771  0.0571 -0.2004
 4039SOL    HW123753   0.588   3.571   9.696 -0.5715  0.1536 -1.6437
 4039SOL    HW223754   0.530   3.442   9.642 -0.2400  0.5190  0.2454
 4040SOL     OW23755   2.543   2.510   9.781  0.3321  0.0910 -0.1302
 4040SOL    HW123756   2.528   2.434   9.724 -0.2289  0.5477 -0.6033
 4040SOL    HW223757   2.588   2.569   9.721 -0.8904  1.0538 -0.1188
 4041SOL     OW23758   4.363   0.708   2.359  0.2397  0.0633 -0.5845
 4041SOL    HW123759   4.339   0.765   2.285 -0.9638  0.4314  0.0936
 4041SOL    HW223760   4.412   0.643   2.308 -1.5846 -0.8828 -1.1336
 4042SOL     OW23761   0.726   4.673  11.321 -0.2404 -0.1131 -0.5309
 4042SOL    HW123762   0.707   0.015  11.367 -0.4842 -0.2825 -0.3315
 4042SOL    HW223763   0.741   4.611  11.393  0.8577  1.6427  0.7489
 4043SOL     OW23764   3.359   4.514   4.878  0.1850 -0.2291 -0.6493
 4043SOL    HW123765   3.327   4.603   4.868  1.0838  0.1061 -0.4998
 4043SOL    HW223766   3.396   4.516   4.966 -0.3236  3.3386 -0.5557
 4044SOL     OW23767   3.353   3.251  11.065 -0.2607 -0.4380  0.0119
 4044SOL    HW123768   3.268   3.292  11.079  0.1537  0.1144  0.9177
 4044SOL    HW223769   3.371   3.275  10.974 -0.0084 -0.3124  0.0976
 4045SOL     OW23770   0.087   1.754   1.894  0.3763 -0.2835  0.3371
 4045SOL    HW123771   0.049   1.758   1.806  0.7788  1.5206  0.2361
 4045SOL    HW223772   0.076   1.844   1.926  1.0597 -1.7076  4.5021
 4046SOL     OW23773   1.280   4.114   1.657  0.3637 -0.5052  0.3098
 4046SOL    HW123774   1.366   4.104   1.698  0.6396  0.8734  0.0594
 4046SOL    HW223775   1.230   4.080   1.731 -0.4223  0.4571  0.2290
 4047SOL     OW23776   0.928   2.202  16.367 -0.0119  0.5633  0.3728
 4047SOL    HW123777   0.910   2.253  16.288  1.5544  1.7762  0.7950
 4047SOL    HW223778   0.952   2.272  16.427  0.2166  1.5096 -0.8183
 4048SOL     OW23779   1.950   2.339  10.948 -0.0077 -0.1813 -0.8273
 4048SOL    HW123780   1.893   2.379  11.014 -0.1298 -3.7491  1.2336
 4048SOL    HW223781   1.902   2.267  10.907 -0.0024 -1.1599  0.8614
 4049SOL     OW23782   2.215   2.335   6.257 -0.5774  0.1063 -0.6240
 4049SOL    HW123783   2.251   2.328   6.168 -2.1942 -0.6248 -1.2036
 4049SOL    HW223784   2.238   2.250   6.294  1.5048  1.3243  0.8807
 4050SOL     OW23785   0.798   0.388   5.112 -0.0408 -0.0177  0.3074
 4050SOL    HW123786   0.739   0.313   5.100 -1.5779  0.8102  2.6704
 4050SOL    HW223787   0.851   0.379   5.033 -0.8027 -0.3228 -0.1722
 4051SOL     OW23788   2.260   2.539   6.876  0.3916  0.2422 -0.9193
 4051SOL    HW123789   2.198   2.554   6.948 -0.9450 -3.5658 -1.3108
 4051SOL    HW223790   2.208   2.563   6.799 -0.2374  0.2731 -0.4818
 4052SOL     OW23791   3.737   2.682   5.126 -0.6487 -0.6647 -0.8727
 4052SOL    HW123792   3.729   2.609   5.188 -0.8793  1.4988  1.6182
 4052SOL    HW223793   3.701   2.756   5.176 -1.0043  0.1486 -2.3358
 4053SOL     OW23794   0.202   2.124  13.087  0.1483  0.0703  0.1018
 4053SOL    HW123795   0.173   2.142  13.177 -1.1935 -1.8839  0.0810
 4053SOL    HW223796   0.275   2.184  13.076 -0.3154  0.1913 -2.1534
 4054SOL     OW23797   2.831   4.664   6.782 -0.6025  0.3493  0.3155
 4054SOL    HW123798   2.758   4.625   6.830 -0.4172  2.6348  2.4352
 4054SOL    HW223799   2.887   4.618   6.844  1.1507  2.0230 -0.0337
 4055SOL     OW23800   0.042   3.014   8.100 -0.5441  0.4123  0.1441
 4055SOL    HW123801   0.010   3.091   8.147 -0.6256  0.3664  0.1622
 4055SOL    HW223802   0.086   3.060   8.029  0.7562  0.9006  1.2592
 4056SOL     OW23803   0.878   0.281   7.957  0.5324  0.5609  0.5349
 4056SOL    HW123804   0.810   0.306   8.018 -0.5799 -0.0804 -0.4475
 4056SOL    HW223805   0.840   0.300   7.871 -0.8750  1.3990  1.3461
 4057SOL     OW23806   3.181   4.066   0.611 -0.3774 -0.4328  0.2679
 4057SOL    HW123807   3.141   4.030   0.690 -0.1290 -0.4553  0.3831
 4057SOL    HW223808   3.233   4.131   0.658 -3.0953  2.1458 -0.2871
 4058SOL     OW23809   1.404   0.851  13.215  0.5270 -0.3094  0.2289
 4058SOL    HW123810   1.400   0.777  13.154 -2.2018 -0.8184  1.0603
 4058SOL    HW223811   1.435   0.922  13.158 -2.2282  2.1350  1.7965
 4059SOL     OW23812   3.174   2.612   5.993  0.6153 -0.1948 -0.5497
 4059SOL    HW123813   3.216   2.527   6.005  2.2356  0.6168 -0.5125
 4059SOL    HW223814   3.218   2.647   5.916 -0.8502  1.1077 -0.8068
 4060SOL     OW23815   1.061   1.028  10.326 -0.0288  0.2872 -0.5673
 4060SOL    HW123816   0.992   0.969  10.354 -0.2891  1.2394  0.8099
 4060SOL    HW223817   1.015   1.110  10.305  1.2103  1.2251  0.3695
 4061SOL     OW23818   3.915   4.404   7.743 -0.1425 -0.6172  0.2514
 4061SOL    HW123819   3.997   4.453   7.750 -1.0199  1.0212 -0.9844
 4061SOL    HW223820   3.855   4.478   7.742 -2.2567 -2.3142  3.4121
 4062SOL     OW23821   1.267   1.662  12.890 -0.7039 -0.3102 -0.3418
 4062SOL    HW123822   1.337   1.612  12.847 -0.4310  0.1884 -0.4722
 4062SOL    HW223823   1.317   1.730  12.935 -1.6417  0.2868 -0.2180
 4063SOL     OW23824   0.637   2.402   8.898  0.0036 -0.0037 -0.5153
 4063SOL    HW123825   0.701   2.377   8.832  0.9409  0.5373  0.1869
 4063SOL    HW223826   0.559   2.355   8.869 -1.3795  1.8687  0.1152
 4064SOL     OW23827   4.223   2.117   5.954 -0.0884  0.2875  0.3288
 4064SOL    HW123828   4.277   2.180   5.906  0.7441 -1.2888 -0.8233
 4064SOL    HW223829   4.295   2.059   5.980  0.6773  1.2696  0.3987
 4065SOL     OW23830   0.543   2.448   5.346 -0.5002 -0.0118  0.4720
 4065SOL    HW123831   0.602   2.463   5.420  0.1549  2.0794 -0.4689
 4065SOL    HW223832   0.542   2.538   5.314  0.4633  0.8427  2.8351
 4066SOL     OW23833   0.268   2.685  14.194 -0.1286  0.1616  0.3346
 4066SOL    HW123834   0.285   2.645  14.109  0.0733  1.7415 -0.3612
 4066SOL    HW223835   0.350   2.731  14.209  0.7190 -1.2898  0.1264
 4067SOL     OW23836   3.986   0.132   7.514  0.0123  0.2296  0.1007
 4067SOL    HW123837   3.892   0.118   7.503 -0.4593  2.0018  1.7731
 4067SOL    HW223838   3.987   0.185   7.594 -0.7611 -0.1976  0.3947
 4068SOL     OW23839   1.367   1.449  14.697  0.2763  0.5731 -0.0770
 4068SOL    HW123840   1.399   1.379  14.640  2.4019 -0.0749  1.8712
 4068SOL    HW223841   1.304   1.489  14.638 -1.0033 -1.3224  0.0303
 4069SOL     OW23842   0.255   2.376   5.266  0.0248  0.3280 -0.5690
 4069SOL    HW123843   0.344   2.406   5.283  0.2525  0.1411 -1.4223
 4069SOL    HW223844   0.267   2.284   5.288 -2.7632 -0.2653 -1.5429
 4070SOL     OW23845   4.370   2.168   4.863 -0.1980  0.3292 -0.5507
 4070SOL    HW123846   4.454   2.215   4.868 -0.3282  0.6920 -1.6707
 4070SOL    HW223847   4.377   2.117   4.782 -1.3822  1.4509 -1.3645
 4071SOL     OW23848   2.524   4.201   6.757 -0.9908 -0.0190  0.0530
 4071SOL    HW123849   2.582   4.269   6.722 -3.0842  0.0085 -3.4002
 4071SOL    HW223850   2.571   4.170   6.834 -1.3275 -2.3380 -0.6799
 4072SOL     OW23851   2.806   4.432   5.933 -0.1182 -0.1931 -0.0226
 4072SOL    HW123852   2.846   4.423   6.019 -0.0804 -1.8151 -0.1971
 4072SOL    HW223853   2.746   4.506   5.939 -1.3516 -1.0989 -1.0925
 4073SOL     OW23854   2.649   1.268  16.272  0.5567  0.4356 -0.2149
 4073SOL    HW123855   2.706   1.201  16.232  0.9037 -0.3234  1.5615
 4073SOL    HW223856   2.565   1.224  16.278  1.4385 -1.1027  0.9139
 4074SOL     OW23857   3.534   1.100   3.880 -0.2625 -0.0209 -0.1303
 4074SOL    HW123858   3.463   1.161   3.860  0.7175  0.9087 -0.7669
 4074SOL    HW223859   3.579   1.161   3.939  0.2400 -0.0218 -0.5138
 4075SOL     OW23860   3.573   3.676   4.582  0.1218  0.0209  0.2429
 4075SOL    HW123861   3.614   3.760   4.560  0.9741 -0.6506 -0.7370
 4075SOL    HW223862   3.530   3.676   4.496  1.1346 -0.6501 -0.2631
 4076SOL     OW23863   1.739   1.964  13.839 -0.0180  0.0363 -0.0823
 4076SOL    HW123864   1.693   1.882  13.825  1.0097 -0.3361 -1.2456
 4076SOL    HW223865   1.680   2.003  13.904 -2.4057 -1.7442 -1.2510
 4077SOL     OW23866   0.057   2.046  12.510 -0.0530  0.3145  0.2887
 4077SOL    HW123867   0.140   2.006  12.534 -0.0925  0.6608  1.0028
 4077SOL    HW223868   0.023   2.064  12.598  1.7420  3.9657  0.2361
 4078SOL     OW23869   3.650   4.731   3.225  0.2677  0.0653 -0.4042
 4078SOL    HW123870   3.637   0.044   3.146 -1.0917  1.2742  0.6335
 4078SOL    HW223871   3.661   4.648   3.179 -0.3647 -0.0929 -0.2634
 4079SOL     OW23872   1.588   0.149   8.679  0.4567  0.0164  0.4047
 4079SOL    HW123873   1.516   0.210   8.661  0.9740  1.2236  2.4096
 4079SOL    HW223874   1.662   0.191   8.635 -0.9641  0.8039 -1.2200
 4080SOL     OW23875   3.039   4.566   3.319 -0.1066  0.4158  0.0622
 4080SOL    HW123876   3.059   4.645   3.369  0.5239 -0.0632  0.5773
 4080SOL    HW223877   3.061   4.607   3.236 -0.6115 -1.4053 -0.9740
 4081SOL     OW23878   4.351   2.004   9.672 -0.1419  0.0555  0.1673
 4081SOL    HW123879   4.369   1.923   9.719 -0.6042  0.1011  0.4251
 4081SOL    HW223880   4.271   1.980   9.625 -1.6102 -0.3531  2.8199
 4082SOL     OW23881   4.372   1.021   8.385 -0.4454  0.4117  0.0955
 4082SOL    HW123882   4.364   1.031   8.479  0.2632 -1.4601  0.3655
 4082SOL    HW223883   4.316   0.944   8.375 -1.5174  1.0378  1.3162
 4083SOL     OW23884   0.224   4.368   3.805  0.1908  0.4807  0.0286
 4083SOL    HW123885   0.138   4.325   3.799 -0.1952  1.2584 -0.0640
 4083SOL    HW223886   0.283   4.315   3.753 -0.3133 -0.2335  0.1767
 4084SOL     OW23887   2.406   4.635   4.596 -0.9146 -0.9385  0.4074
 4084SOL    HW123888   2.484   4.625   4.652 -0.9242 -2.9220  0.0726
 4084SOL    HW223889   2.419   4.719   4.553  4.1393 -1.1661  1.4096
 4085SOL     OW23890   1.974   1.610   3.680  0.1297 -0.3274  0.1961
 4085SOL    HW123891   1.968   1.579   3.589 -0.5939 -1.2059  0.5433
 4085SOL    HW223892   2.023   1.537   3.718 -0.3350  0.1893  1.7856
 4086SOL     OW23893   2.865   2.727  14.616  0.4016 -0.8481 -0.0892
 4086SOL    HW123894   2.918   2.806  14.610  0.4792 -0.7178  2.1604
 4086SOL    HW223895   2.833   2.726  14.707  0.1099 -1.3256 -0.1973
 4087SOL     OW23896   4.592   2.179   5.945 -0.6898  0.0383  0.0059
 4087SOL    HW123897   4.678   2.206   5.977 -1.2546  1.7382  0.0898
 4087SOL    HW223898   4.609   2.086   5.935  0.4601  0.4297 -1.7561
 4088SOL     OW23899   1.541   0.180  11.069 -0.3633  0.9469 -0.0951
 4088SOL    HW123900   1.502   0.162  10.984  1.7479 -1.2067 -0.6017
 4088SOL    HW223901   1.613   0.243  11.064 -0.6321  1.3215  0.7539
 4089SOL     OW23902   3.081   2.976   4.412 -0.1935  0.1648  0.1636
 4089SOL    HW123903   3.071   3.034   4.488  0.0762 -0.3840  0.6213
 4089SOL    HW223904   3.142   2.909   4.444 -2.5134 -1.5733  0.9215
 4090SOL     OW23905   4.640   1.103  10.206 -0.1840 -0.1478  0.7146
 4090SOL    HW123906   4.683   1.017  10.208 -1.6732 -0.9244 -0.3938
 4090SOL    HW223907   4.565   1.084  10.149  0.2444  2.1527 -0.6061
 4091SOL     OW23908   4.470   0.444   8.704  0.4758  0.0843  0.1740
 4091SOL    HW123909   4.406   0.514   8.717  2.4698  2.1344 -1.1169
 4091SOL    HW223910   4.416   0.371   8.674  1.3380 -1.3038  1.9412
 4092SOL     OW23911   3.010   1.011   7.153 -0.3894 -0.7364  0.5980
 4092SOL    HW123912   3.029   0.953   7.227 -1.4052  0.9313  2.1526
 4092SOL    HW223913   2.965   0.953   7.090  0.0090 -0.1175 -0.2535
 4093SOL     OW23914   2.985   1.500   5.468  0.3315  0.2080  0.0056
 4093SOL    HW123915   2.955   1.434   5.530  0.7771 -0.3168 -0.3375
 4093SOL    HW223916   2.911   1.503   5.408  0.6397  1.6004 -0.3136
 4094SOL     OW23917   3.278   3.692   9.083  0.2977 -0.1621 -0.4381
 4094SOL    HW123918   3.237   3.606   9.079  0.5406 -0.4661  3.3706
 4094SOL    HW223919   3.360   3.672   9.038  0.3066 -0.8380 -0.1115
 4095SOL     OW23920   1.428   0.627   7.879  0.4700  0.6386  0.5715
 4095SOL    HW123921   1.334   0.641   7.881  0.5282  1.0528  0.4347
 4095SOL    HW223922   1.440   0.653   7.788 -0.2373 -0.7016  0.0961
 4096SOL     OW23923   3.570   3.034   0.914  0.3833  0.1746 -1.1336
 4096SOL    HW123924   3.584   3.031   1.008  0.0302  1.3491 -1.0483
 4096SOL    HW223925   3.585   3.129   0.911 -0.9276  0.3324 -2.4837
 4097SOL     OW23926   0.426   3.385   9.485  0.4679  0.0475 -0.5862
 4097SOL    HW123927   0.445   3.408   9.394  1.6542  1.5156  0.0329
 4097SOL    HW223928   0.340   3.425   9.491 -0.0004 -0.9098 -0.9321
 4098SOL     OW23929   3.732   1.270  13.682 -0.4180  0.2803  0.4657
 4098SOL    HW123930   3.683   1.350  13.699 -1.3014  0.2026 -1.8007
 4098SOL    HW223931   3.809   1.310  13.641 -1.0168 -0.9202 -1.8046
 4099SOL     OW23932   4.660   4.570   8.665  0.0793  0.1171  0.0851
 4099SOL    HW123933   4.652   4.661   8.694  0.7216  0.7219 -1.5933
 4099SOL    HW223934   4.645   4.567   8.570  1.1497 -0.2084 -0.0800
 4100SOL     OW23935   0.447   2.259  14.176  0.4333 -0.3998 -0.2255
 4100SOL    HW123936   0.507   2.333  14.180  1.1064 -0.9821  0.4740
 4100SOL    HW223937   0.382   2.284  14.241  0.4138 -2.5399  0.5924
 4101SOL     OW23938   1.173   2.427   5.589 -0.4788 -0.4613 -0.4240
 4101SOL    HW123939   1.237   2.408   5.658 -0.5025 -4.7803 -1.5724
 4101SOL    HW223940   1.201   2.355   5.532 -0.1267  0.7050 -1.7070
 4102SOL     OW23941   1.374   4.071  12.354  0.1141  0.3935 -0.3472
 4102SOL    HW123942   1.371   4.167  12.356 -0.2485  0.3822 -0.1740
 4102SOL    HW223943   1.283   4.051  12.330  0.5392 -0.4396 -1.2633
 4103SOL     OW23944   0.357   3.984  12.789 -0.2405  0.4676  0.1385
 4103SOL    HW123945   0.261   3.986  12.784 -0.1609 -0.2939 -1.5836
 4103SOL    HW223946   0.396   3.989  12.702 -1.5378 -2.7036 -0.6037
 4104SOL     OW23947   1.971   3.414   5.882  0.1610  0.8268 -0.4686
 4104SOL    HW123948   1.896   3.468   5.907 -0.0909  0.0482  0.4888
 4104SOL    HW223949   1.924   3.333   5.863  1.9082 -0.0983 -0.7602
 4105SOL     OW23950   0.574   1.813   3.866  0.2972  0.4030 -0.3274
 4105SOL    HW123951   0.562   1.907   3.881  0.8999  0.0654  2.0695
 4105SOL    HW223952   0.537   1.800   3.778 -1.4026  3.5611 -0.1067
 4106SOL     OW23953   2.284   2.929  10.648 -0.0795  0.4352  0.1323
 4106SOL    HW123954   2.236   2.924  10.566  1.0490 -1.7661 -0.3832
 4106SOL    HW223955   2.221   2.884  10.705  0.1001  2.7503  2.1546
 4107SOL     OW23956   0.043   3.775   3.414  0.3169  0.5591  0.3609
 4107SOL    HW123957   0.007   3.816   3.335  0.8780  0.0160 -0.1739
 4107SOL    HW223958   0.091   3.707   3.366  0.7730 -0.2877  2.0284
 4108SOL     OW23959   2.301   3.145  12.421  0.0920  0.3139 -0.6811
 4108SOL    HW123960   2.212   3.174  12.403  0.2592  0.2845 -1.5233
 4108SOL    HW223961   2.289   3.122  12.514  1.3152  2.7247  0.0857
 4109SOL     OW23962   1.420   4.285   5.991  0.1368  0.5162 -0.8238
 4109SOL    HW123963   1.449   4.200   6.023 -0.3593  0.4017 -0.6773
 4109SOL    HW223964   1.481   4.343   6.036  0.8415  0.4360 -1.6838
 4110SOL     OW23965   1.252   2.205   2.831  0.0394 -0.2648  0.0641
 4110SOL    HW123966   1.159   2.216   2.847  0.2180  1.8744 -0.3789
 4110SOL    HW223967   1.291   2.225   2.916  3.3926  2.5875 -2.1205
 4111SOL     OW23968   3.268   2.176  15.512 -0.2144  0.1018  0.0514
 4111SOL    HW123969   3.346   2.143  15.468 -0.9443  0.3816 -1.4332
 4111SOL    HW223970   3.304   2.240  15.574  0.8108  0.5164 -0.9630
 4112SOL     OW23971   3.631   0.082  10.116  0.5654  0.0520  0.2756
 4112SOL    HW123972   3.655   0.086  10.023 -1.6247  0.1039 -0.2835
 4112SOL    HW223973   3.676   0.156  10.155  0.9817  0.4852 -1.0138
 4113SOL     OW23974   3.911   1.270   8.120 -0.0634  0.8378 -0.0395
 4113SOL    HW123975   3.874   1.292   8.035 -2.0421 -1.4725  0.2241
 4113SOL    HW223976   3.855   1.198   8.148  0.7322  0.6639  1.1202
 4114SOL     OW23977   4.658   4.606  14.730 -0.0233 -0.1084 -0.2351
 4114SOL    HW123978   4.659   4.627  14.824 -1.5708 -0.2257 -0.1962
 4114SOL    HW223979   4.734   4.548  14.722 -0.3552 -0.8130  1.6139
 4115SOL     OW23980   3.528   1.056   7.026  0.2352  0.5058 -0.1162
 4115SOL    HW123981   3.570   1.088   6.946  0.5483  0.3293 -0.0240
 4115SOL    HW223982   3.499   0.970   6.997 -1.9137  1.1018  0.2732
 4116SOL     OW23983   1.298   3.267   6.860  0.8585 -0.1447 -0.4103
 4116SOL    HW123984   1.321   3.310   6.942  0.3520  1.7146 -1.2323
 4116SOL    HW223985   1.247   3.331   6.810  1.0306  1.5719  1.6439
 4117SOL     OW23986   4.038   2.751   9.672  0.0504 -0.2667 -0.3338
 4117SOL    HW123987   4.037   2.829   9.616  1.6118  0.7649  1.0732
 4117SOL    HW223988   4.128   2.720   9.681  0.2085  0.6898  1.4331
 4118SOL     OW23989   3.988   0.149   6.119  0.3343  0.0757  0.0109
 4118SOL    HW123990   3.947   0.160   6.204 -0.9182  3.0950 -0.9939
 4118SOL    HW223991   4.080   0.160   6.144  0.3764  1.9758 -1.0222
 4119SOL     OW23992   4.093   3.370  13.293  0.2559 -0.6461  0.2481
 4119SOL    HW123993   4.076   3.451  13.341 -0.9965 -0.5447 -0.3671
 4119SOL    HW223994   4.049   3.302  13.344 -1.8141 -0.1710 -0.8916
 4120SOL     OW23995   3.070   4.365   7.562 -0.3007 -0.4901 -0.0387
 4120SOL    HW123996   3.053   4.458   7.573  0.9989  0.0038 -2.3000
 4120SOL    HW223997   3.130   4.337   7.632 -0.0694 -0.1758 -0.1127
 4121SOL     OW23998   2.842   2.358   1.295 -0.0468  0.5058 -0.5292
 4121SOL    HW123999   2.894   2.278   1.288 -0.2237  0.3191  0.2516
 4121SOL    HW224000   2.763   2.324   1.338 -0.8292  1.5487 -1.1331
 4122SOL     OW24001   1.132   2.995   7.437 -0.1857  0.3918 -0.2516
 4122SOL    HW124002   1.226   2.976   7.433  0.3521  2.3078  3.6852
 4122SOL    HW224003   1.122   3.015   7.530  2.2793  0.2185  0.0444
 4123SOL     OW24004   0.238   4.055   3.743 -0.0112  0.1094 -0.1632
 4123SOL    HW124005   0.265   3.972   3.703 -0.9917 -0.8777  1.1898
 4123SOL    HW224006   0.271   4.046   3.833  3.1681 -0.8777 -1.4309
 4124SOL     OW24007   2.999   1.102   6.144 -0.3192  0.2809  0.3172
 4124SOL    HW124008   2.911   1.093   6.180 -0.2316  0.0789  0.4813
 4124SOL    HW224009   2.976   1.168   6.078 -1.7171  0.4195  0.9276
 4125SOL     OW24010   3.576   3.697   2.536  0.6640 -0.3204 -0.1409
 4125SOL    HW124011   3.661   3.740   2.541  0.7931 -0.8909  2.1716
 4125SOL    HW224012   3.531   3.753   2.472 -0.9563  0.4144  1.6674
 4126SOL     OW24013   2.562   3.840   2.896  0.1794  0.4907  0.3814
 4126SOL    HW124014   2.643   3.847   2.946  0.4770  2.7691 -0.4262
 4126SOL    HW224015   2.607   3.794   2.824 -0.5589  1.4383 -0.6871
 4127SOL     OW24016   2.019   0.288   8.050  0.3374  0.7989  0.1653
 4127SOL    HW124017   2.026   0.354   7.981  0.3336  0.0356 -0.5500
 4127SOL    HW224018   1.941   0.310   8.102  1.1160  0.0304  1.6798
 4128SOL     OW24019   3.261   2.514   6.862 -0.6020  0.1723  0.0589
 4128SOL    HW124020   3.280   2.421   6.874  3.6814  1.0017 -0.2612
 4128SOL    HW224021   3.291   2.557   6.941  1.1675 -0.5339 -0.2337
 4129SOL     OW24022   3.053   0.755   4.324  0.3134  0.6859 -0.5290
 4129SOL    HW124023   3.086   0.837   4.287 -0.7983  0.7976 -1.2796
 4129SOL    HW224024   2.992   0.736   4.253 -2.1785  2.2878  1.1594
 4130SOL     OW24025   2.565   0.644   4.998 -0.3739  0.2965  0.0297
 4130SOL    HW124026   2.505   0.708   4.960 -0.4950  1.4036  2.0868
 4130SOL    HW224027   2.626   0.703   5.043  0.2481  2.8354 -4.1697
 4131SOL     OW24028   0.636   1.611  12.764  0.7728  0.7814  0.2528
 4131SOL    HW124029   0.702   1.573  12.822  0.4327 -1.0313 -0.5654
 4131SOL    HW224030   0.562   1.617  12.825  0.7551 -0.3462  0.3400
 4132SOL     OW24031   0.733   2.629   3.621  0.5339 -0.0819  0.2414
 4132SOL    HW124032   0.749   2.550   3.569  1.9814  0.1132  0.3957
 4132SOL    HW224033   0.646   2.606   3.655  0.0956 -1.3452 -1.7199
 4133SOL     OW24034   0.137   3.129  11.886 -0.5801 -0.1826  0.2655
 4133SOL    HW124035   0.051   3.169  11.877 -0.7885 -0.7832 -0.3637
 4133SOL    HW224036   0.184   3.146  11.804 -0.8687  1.1597  0.3769
 4134SOL     OW24037   3.649   3.037   8.237  0.2632  0.0694 -0.0295
 4134SOL    HW124038   3.734   3.002   8.210  0.4452  0.9176 -0.5234
 4134SOL    HW224039   3.642   2.998   8.324  1.1545  2.8160  1.2763
 4135SOL     OW24040   3.555   4.003   3.559 -0.1854  0.4386 -0.0656
 4135SOL    HW124041   3.498   4.077   3.539 -0.9681 -0.0405  0.4007
 4135SOL    HW224042   3.568   4.025   3.651 -1.7121  1.0043  0.0191
 4136SOL     OW24043   1.536   1.004   7.736  0.5883 -0.0883 -0.0006
 4136SOL    HW124044   1.466   0.973   7.794  0.2229  0.8685  0.0640
 4136SOL    HW224045   1.608   0.952   7.771 -1.0246 -1.6746  0.9974
 4137SOL     OW24046   1.946   2.576  11.732 -0.0518 -0.8089  0.0976
 4137SOL    HW124047   2.006   2.649  11.714 -0.4860 -1.2591 -3.2046
 4137SOL    HW224048   2.003   2.507  11.764 -0.3655 -1.5708 -0.9630
 4138SOL     OW24049   1.242   0.521   4.630 -0.1555  0.3628 -0.1061
 4138SOL    HW124050   1.157   0.482   4.645  0.8873 -2.4588 -1.5128
 4138SOL    HW224051   1.209   0.608   4.651 -1.1550  0.4402 -1.9980
 4139SOL     OW24052   1.679   1.948  16.817 -0.1327  0.1477 -0.3590
 4139SOL    HW124053   1.725   1.996  16.886  0.9560 -0.5621 -0.5926
 4139SOL    HW224054   1.601   2.003  16.810  0.8483  1.2850 -2.2674
 4140SOL     OW24055   1.940   3.109   3.796  0.3223 -0.2726  0.2584
 4140SOL    HW124056   1.909   3.126   3.885 -2.3049 -1.1279 -0.4767
 4140SOL    HW224057   2.003   3.180   3.782  1.3561 -0.7382  2.5560
 4141SOL     OW24058   1.263   1.809   5.234 -0.4676 -0.3625 -0.4911
 4141SOL    HW124059   1.354   1.799   5.206  0.2297  0.9103  1.2984
 4141SOL    HW224060   1.264   1.843   5.323  2.3202  0.4135 -0.8180
 4142SOL     OW24061   3.120   3.818  16.040 -0.1370  0.0946 -0.5143
 4142SOL    HW124062   3.194   3.770  16.077  0.2977  0.4613 -0.9206
 4142SOL    HW224063   3.064   3.831  16.117  1.0596  0.1948  0.3423
 4143SOL     OW24064   0.262   1.071   4.859  0.9103  0.2247  0.0123
 4143SOL    HW124065   0.258   1.008   4.786 -0.8025 -1.2542  1.3775
 4143SOL    HW224066   0.170   1.070   4.884  1.6105  0.7005  2.5309
 4144SOL     OW24067   1.839   3.415   3.778  0.4086 -0.2307  0.0905
 4144SOL    HW124068   1.917   3.363   3.798 -0.7558 -1.5748  1.1766
 4144SOL    HW224069   1.880   3.497   3.752  0.5549 -0.6329 -0.9892
 4145SOL     OW24070   0.548   4.370  14.784 -0.6347 -0.6492 -0.1962
 4145SOL    HW124071   0.638   4.403  14.785 -0.5907 -0.7617 -0.8290
 4145SOL    HW224072   0.523   4.417  14.864  0.1913  0.9300 -0.8740
 4146SOL     OW24073   4.277   0.275   3.154  0.3253 -0.1963  0.2980
 4146SOL    HW124074   4.260   0.369   3.162  0.6144  0.2015 -3.5631
 4146SOL    HW224075   4.358   0.279   3.204  0.2194  0.4904  0.4194
 4147SOL     OW24076   3.975   3.460  14.167 -0.2365 -0.5167 -0.2689
 4147SOL    HW124077   3.900   3.431  14.219 -0.4794  2.7218  1.2282
 4147SOL    HW224078   3.973   3.555  14.178  1.2129 -0.9250  3.4420
 4148SOL     OW24079   1.980   3.243   8.476 -0.2143 -0.5027 -0.3928
 4148SOL    HW124080   2.035   3.171   8.448  0.4508 -0.0887 -0.1501
 4148SOL    HW224081   1.998   3.304   8.404 -1.1174  1.7749  1.2831
 4149SOL     OW24082   2.978   1.890   3.030 -0.2981  0.0822  0.4965
 4149SOL    HW124083   2.896   1.863   3.070  0.8255 -1.3976  1.8479
 4149SOL    HW224084   2.950   1.948   2.959 -0.2917 -0.4526  0.0530
 4150SOL     OW24085   1.020   3.150   9.799 -0.1262  0.2959 -0.2518
 4150SOL    HW124086   0.944   3.204   9.776  0.1362  1.1157  0.8177
 4150SOL    HW224087   1.018   3.169   9.892 -0.5425 -0.9459 -0.0041
 4151SOL     OW24088   1.399   4.595  12.354 -0.2129  0.1028 -0.5500
 4151SOL    HW124089   1.403   4.628  12.444  0.2614 -1.4112 -0.0057
 4151SOL    HW224090   1.400   4.504  12.383  2.4064  0.0727 -0.7568
 4152SOL     OW24091   4.691   3.817   6.022  0.0220 -0.5131 -0.0171
 4152SOL    HW124092   4.689   3.869   5.942  1.1389  0.1968  0.4149
 4152SOL    HW224093   4.668   3.884   6.087 -0.6932  0.3321 -1.1477
 4153SOL     OW24094   3.848   2.898   1.287  0.3525  0.0035 -0.1553
 4153SOL    HW124095   3.851   2.932   1.197 -0.5750  2.9988  0.9532
 4153SOL    HW224096   3.771   2.844   1.270  0.2123 -1.1167  4.0468
 4154SOL     OW24097   0.095   3.557  11.120  0.5000 -0.4233  0.4122
 4154SOL    HW124098   0.119   3.559  11.027 -0.4022 -2.1488  0.1390
 4154SOL    HW224099   0.182   3.572  11.156  0.3846 -0.3715  0.6660
 4155SOL     OW24100   2.267   2.771   6.374 -0.1237 -0.2800  0.3679
 4155SOL    HW124101   2.361   2.766   6.388 -0.2675  0.7798  1.7257
 4155SOL    HW224102   2.246   2.732   6.290 -0.7791  2.8531 -0.9184
 4156SOL     OW24103   1.150   3.423   8.621  0.0455 -0.1824 -0.1661
 4156SOL    HW124104   1.157   3.407   8.715 -4.3952 -1.0457 -0.0041
 4156SOL    HW224105   1.062   3.397   8.596 -0.1428  1.4261 -1.1641
 4157SOL     OW24106   0.430   4.040   3.447  0.2076  0.1874  0.0178
 4157SOL    HW124107   0.513   4.066   3.487 -0.0226 -1.5511  1.6025
 4157SOL    HW224108   0.405   3.969   3.507  0.3430  0.8984  0.9277
 4158SOL     OW24109   2.060   0.164   5.628 -0.3333 -0.3210  0.1950
 4158SOL    HW124110   2.085   0.085   5.677 -0.1427  0.0663  0.7227
 4158SOL    HW224111   1.965   0.159   5.616 -0.1554 -1.3734 -0.8607
 4159SOL     OW24112   4.191   3.541   5.190  0.3002  0.2794 -0.4661
 4159SOL    HW124113   4.181   3.469   5.253  1.7509  0.6991  0.2487
 4159SOL    HW224114   4.228   3.616   5.237 -0.3181 -1.2779  2.4814
 4160SOL     OW24115   4.326   4.723  15.552  0.2625 -0.2144  0.2125
 4160SOL    HW124116   4.313   0.027  15.468  1.3311 -0.6263 -0.1694
 4160SOL    HW224117   4.370   4.648  15.511  2.0079  0.9895 -0.1439
 4161SOL     OW24118   1.785   3.763   4.744  0.2763  0.3193  0.1908
 4161SOL    HW124119   1.826   3.687   4.785  1.6456  1.3695  0.7665
 4161SOL    HW224120   1.718   3.731   4.683  2.5395 -0.6692 -1.7613
 4162SOL     OW24121   4.569   0.682  12.680 -0.7132 -0.1194 -0.3332
 4162SOL    HW124122   4.622   0.762  12.691 -0.7811  0.1091 -1.7326
 4162SOL    HW224123   4.487   0.713  12.717 -1.5370 -0.5233 -1.8368
 4163SOL     OW24124   4.092   0.175   5.651 -0.1230 -0.3477  0.1779
 4163SOL    HW124125   4.014   0.225   5.676  0.3982  0.2228  0.6415
 4163SOL    HW224126   4.165   0.224   5.687  0.2503 -0.2045 -0.7735
 4164SOL     OW24127   0.992   4.512   7.612  0.0497 -0.3032  0.1219
 4164SOL    HW124128   0.939   4.433   7.624 -0.2859 -0.2574 -1.0247
 4164SOL    HW224129   1.053   4.488   7.543 -1.5281 -1.9179 -0.7294
 4165SOL     OW24130   1.500   4.141   4.530 -0.4393 -0.2193  0.0060
 4165SOL    HW124131   1.521   4.204   4.600 -1.1643  1.4316 -1.2542
 4165SOL    HW224132   1.408   4.116   4.537 -0.6862  0.4293 -0.9293
 4166SOL     OW24133   0.100   1.893   3.242 -0.5142 -0.4973 -0.3125
 4166SOL    HW124134   0.084   1.880   3.336  2.4218  0.2665  0.3008
 4166SOL    HW224135   0.009   1.871   3.223  0.0727 -0.6349 -2.9592
 4167SOL     OW24136   3.424   1.421   4.350 -0.2032 -0.0734 -0.4147
 4167SOL    HW124137   3.397   1.508   4.379 -0.0071  0.7048 -2.5341
 4167SOL    HW224138   3.361   1.412   4.278 -0.4350 -2.3070  0.0950
 4168SOL     OW24139   2.917   3.948   2.651 -0.0332 -0.0044 -0.6777
 4168SOL    HW124140   2.877   3.958   2.564 -0.1347  1.6228 -0.4476
 4168SOL    HW224141   3.004   3.973   2.621  1.4344 -1.2037  2.6365
 4169SOL     OW24142   3.972   0.446  17.485  0.5803  0.6133 -0.8876
 4169SOL    HW124143   3.894   0.396  17.509 -0.0977  1.5160 -1.1925
 4169SOL    HW224144   3.970   0.443  17.389 -1.9248  0.5014 -0.8392
 4170SOL     OW24145   3.850   4.546   6.939  0.0518 -0.0978 -0.2037
 4170SOL    HW124146   3.816   4.608   6.875 -2.0207 -1.1012 -0.0749
 4170SOL    HW224147   3.914   4.492   6.893  1.0405 -0.4658  1.6176
 4171SOL     OW24148   3.273   1.242  11.116  0.4108 -0.2841 -0.3059
 4171SOL    HW124149   3.270   1.177  11.045  1.9605  1.8448 -2.3485
 4171SOL    HW224150   3.258   1.328  11.077  0.4245 -0.3204 -0.3925
 4172SOL     OW24151   3.860   2.520   6.168 -0.3584  0.4755  0.7392
 4172SOL    HW124152   3.853   2.433   6.208  2.4954  0.4036  1.0610
 4172SOL    HW224153   3.942   2.502   6.123 -1.8143  1.3194 -2.2579
 4173SOL     OW24154   2.393   2.708  14.681 -0.2047  0.7549 -0.0489
 4173SOL    HW124155   2.428   2.745  14.761 -2.9391  0.5291  1.2481
 4173SOL    HW224156   2.450   2.756  14.620  0.8180 -0.5000 -0.0872
 4174SOL     OW24157   0.033   4.214   2.307  0.8975 -0.7548 -0.2935
 4174SOL    HW124158   0.002   4.268   2.234 -0.2360 -0.6332  0.2776
 4174SOL    HW224159   0.001   4.269   2.379 -0.4569 -0.7945 -0.8789
 4175SOL     OW24160   4.221   4.531   1.445  0.2305  0.1977 -0.5663
 4175SOL    HW124161   4.144   4.542   1.390 -0.3274  1.0900  0.4085
 4175SOL    HW224162   4.176   4.487   1.516 -0.7996  1.9802 -0.1284
 4176SOL     OW24163   2.829   0.814  16.645 -0.0773 -0.3317  0.1815
 4176SOL    HW124164   2.836   0.727  16.606 -3.1016 -0.4749 -0.0972
 4176SOL    HW224165   2.911   0.818  16.694  0.7484  2.0909 -1.4115
 4177SOL     OW24166   3.141   1.312   3.333  0.6355  0.3431  0.1686
 4177SOL    HW124167   3.189   1.310   3.416  0.3251 -1.9858  0.2863
 4177SOL    HW224168   3.147   1.405   3.310  1.1467 -0.6435 -3.6508
 4178SOL     OW24169   3.525   3.949   9.061  0.4133 -0.1508  1.1664
 4178SOL    HW124170   3.432   3.944   9.041  0.6681 -2.4255  0.4562
 4178SOL    HW224171   3.557   4.009   8.993  1.6857 -0.1423  1.7618
 4179SOL     OW24172   3.653   4.306   6.305  0.0388  0.0867 -0.0115
 4179SOL    HW124173   3.683   4.262   6.385 -2.1308 -0.5164  0.4574
 4179SOL    HW224174   3.608   4.240   6.253 -0.7986  0.9864 -0.4329
 4180SOL     OW24175   2.477   1.381  12.953  0.2599 -0.2521 -0.1379
 4180SOL    HW124176   2.399   1.341  12.992  0.9110  0.7478  2.1657
 4180SOL    HW224177   2.440   1.455  12.905 -1.0937 -1.2326 -0.6359
 4181SOL     OW24178   2.741   2.664   6.824 -0.2386 -1.1413  0.3065
 4181SOL    HW124179   2.659   2.672   6.774  0.5064 -1.6787 -0.9983
 4181SOL    HW224180   2.716   2.620   6.905 -0.0066 -1.5209  0.1709
 4182SOL     OW24181   4.413   4.415   8.219  0.2456  0.3328  0.3969
 4182SOL    HW124182   4.358   4.373   8.154 -1.1660  2.0343  0.4981
 4182SOL    HW224183   4.498   4.389   8.182 -0.5054 -1.1807 -0.2384
 4183SOL     OW24184   0.239   3.880   7.658  0.8419 -0.4905  0.1449
 4183SOL    HW124185   0.239   3.784   7.656  0.1467 -0.4627 -1.0670
 4183SOL    HW224186   0.287   3.896   7.577 -0.9823  0.9396 -0.6497
 4184SOL     OW24187   0.646   3.480   4.549 -0.3330 -0.3670  0.4631
 4184SOL    HW124188   0.628   3.395   4.589  1.0018 -0.1253  1.5782
 4184SOL    HW224189   0.641   3.539   4.624  0.1466  1.6678 -1.1139
 4185SOL     OW24190   2.632   2.479   8.902  0.4180  0.5258 -0.0857
 4185SOL    HW124191   2.726   2.473   8.919  0.2059  0.9421  1.1603
 4185SOL    HW224192   2.627   2.560   8.951  0.2333  0.3019  0.2614
 4186SOL     OW24193   0.311   1.884  15.785 -0.0882  0.0644  0.0876
 4186SOL    HW124194   0.330   1.861  15.876  0.2029  0.2514  0.0731
 4186SOL    HW224195   0.390   1.934  15.767  0.6773 -0.5538  1.6886
 4187SOL     OW24196   4.052   0.389   8.700  0.0427  0.1916  0.1036
 4187SOL    HW124197   3.961   0.417   8.705  0.8649  2.5723  1.4125
 4187SOL    HW224198   4.060   0.337   8.620 -2.0373 -0.4674  0.3316
 4188SOL     OW24199   3.912   3.888  15.037  0.5159 -0.1966  0.6022
 4188SOL    HW124200   3.930   3.829  14.964 -1.7566 -0.1091 -0.0373
 4188SOL    HW224201   3.889   3.971  14.995  1.1377 -0.8731 -1.0562
 4189SOL     OW24202   4.147   1.588   4.647 -0.0884  0.0642  0.0609
 4189SOL    HW124203   4.113   1.613   4.560  3.5584  0.8452 -1.1419
 4189SOL    HW224204   4.216   1.529   4.618  0.2694 -0.4054  1.8898
 4190SOL     OW24205   0.122   3.248   6.610 -0.6040 -0.3916 -0.2943
 4190SOL    HW124206   0.132   3.209   6.697 -0.3997  1.5853  0.5669
 4190SOL    HW224207   0.076   3.327   6.635 -2.4745 -2.1385  1.8265
 4191SOL     OW24208   1.778   2.839   5.784 -0.2772  0.2857  0.7672
 4191SOL    HW124209   1.776   2.744   5.772  0.6275  0.4995 -1.1586
 4191SOL    HW224210   1.793   2.847   5.878  2.3203  2.6443  0.1678
 4192SOL     OW24211   4.561   1.490   6.223  0.1436  0.1617  0.3604
 4192SOL    HW124212   4.557   1.585   6.235  2.5210  0.2687  0.2546
 4192SOL    HW224213   4.529   1.490   6.133 -3.0271  2.0598  1.4889
 4193SOL     OW24214   2.094   3.876   4.847  0.2232 -0.0465  0.4890
 4193SOL    HW124215   2.050   3.791   4.839 -0.1747  0.4172 -2.3293
 4193SOL    HW224216   2.031   3.930   4.895 -1.7745 -0.3570 -1.7354
 4194SOL     OW24217   1.391   2.610   7.824 -0.4882  0.6678 -0.5629
 4194SOL    HW124218   1.367   2.688   7.874  0.0480 -0.2193  1.0866
 4194SOL    HW224219   1.469   2.569   7.863 -0.3715  0.6200 -0.8475
 4195SOL     OW24220   0.443   3.868   8.547 -0.0100  0.2658  0.1750
 4195SOL    HW124221   0.538   3.876   8.545  0.0261 -0.5920 -1.7080
 4195SOL    HW224222   0.418   3.925   8.619  0.7772  2.0663 -0.9592
 4196SOL     OW24223   4.246   0.040   5.433  0.3611  0.8032 -0.0316
 4196SOL    HW124224   4.198   0.045   5.350  2.5470  1.6098 -1.2580
 4196SOL    HW224225   4.176   0.055   5.495  0.9192  2.2374  0.2601
 4197SOL     OW24226   3.411   2.686   6.456  0.2689  0.5213 -0.3670
 4197SOL    HW124227   3.328   2.729   6.439  0.5177  0.6359 -1.3060
 4197SOL    HW224228   3.401   2.685   6.551 -2.4037 -0.3721 -0.6648
 4198SOL     OW24229   0.092   1.122  14.624  0.5262 -0.1528  0.1440
 4198SOL    HW124230   0.063   1.039  14.662  3.1411 -0.5410  1.2845
 4198SOL    HW224231   0.109   1.179  14.700  1.6384  2.4936 -2.0967
 4199SOL     OW24232   4.153   3.735   5.365 -0.2593  0.2453 -0.1932
 4199SOL    HW124233   4.168   3.725   5.459  0.8031  1.1977 -0.2628
 4199SOL    HW224234   4.058   3.731   5.360 -0.3480  2.8273 -0.3539
 4200SOL     OW24235   3.209   2.451   2.075  0.4771  0.1703  0.3458
 4200SOL    HW124236   3.212   2.476   2.167 -0.7160  1.5757  0.0084
 4200SOL    HW224237   3.303   2.459   2.057 -0.1292  2.3943 -1.8377
 4201SOL     OW24238   4.091   3.960  12.712  0.5901  0.0318 -0.4377
 4201SOL    HW124239   4.096   4.010  12.631  0.5255  3.2584  1.5275
 4201SOL    HW224240   4.052   3.877  12.686  1.1780 -0.0325 -1.1159
 4202SOL     OW24241   0.976   3.403   1.584 -0.3750 -0.0011  0.3812
 4202SOL    HW124242   0.963   3.442   1.671  0.3087 -4.0641  2.3467
 4202SOL    HW224243   0.950   3.478   1.531  0.6627 -0.0745 -0.2290
 4203SOL     OW24244   0.292   3.851  16.905 -0.2330  0.1586 -0.1717
 4203SOL    HW124245   0.317   3.770  16.949 -2.1507 -0.5270 -0.3301
 4203SOL    HW224246   0.198   3.835  16.892  0.0476 -2.4478  1.1616
 4204SOL     OW24247   1.227   3.109   6.092 -0.4073  0.0996  0.2877
 4204SOL    HW124248   1.185   3.195   6.099  1.5642  1.1067 -0.4852
 4204SOL    HW224249   1.170   3.066   6.028 -0.7182  0.1203  0.5496
 4205SOL     OW24250   1.041   0.135   8.598 -0.2949  0.4896  0.3967
 4205SOL    HW124251   0.957   0.106   8.634 -1.3056  1.5045 -1.1931
 4205SOL    HW224252   1.099   0.120   8.673 -0.9039 -0.0036  0.7688
 4206SOL     OW24253   4.494   2.069   9.926  0.4323  0.1465  0.2663
 4206SOL    HW124254   4.464   1.983   9.954 -0.4232  0.9884  1.9567
 4206SOL    HW224255   4.448   2.076   9.843 -0.6233  0.1957  0.8557
 4207SOL     OW24256   4.564   2.838  14.140 -0.0660  0.0983  0.0741
 4207SOL    HW124257   4.479   2.867  14.107  0.3586  0.5067 -0.6574
 4207SOL    HW224258   4.610   2.920  14.119  0.3230 -0.5000 -1.3835
 4208SOL     OW24259   2.935   2.969   2.718 -0.2006  0.0717  0.6134
 4208SOL    HW124260   2.857   3.017   2.743 -2.0742 -3.3681  1.3845
 4208SOL    HW224261   2.980   2.972   2.802 -0.2949  3.2100  0.5355
 4209SOL     OW24262   2.361   1.484   3.244  0.3487 -0.2876 -0.3219
 4209SOL    HW124263   2.348   1.424   3.170  1.1594  0.7742 -1.3390
 4209SOL    HW224264   2.431   1.445   3.296  1.1112  1.2875 -0.1671
 4210SOL     OW24265   0.191   4.257  16.041 -0.4870  0.3762 -0.2834
 4210SOL    HW124266   0.225   4.199  15.972  0.8765  0.4206  0.3633
 4210SOL    HW224267   0.126   4.302  15.986  0.9781  0.4694 -1.9251
 4211SOL     OW24268   0.779   1.620  12.538  0.0291  0.2859  0.3190
 4211SOL    HW124269   0.740   1.637  12.624 -0.8306  0.2364 -0.0588
 4211SOL    HW224270   0.724   1.550  12.503 -1.0624  0.9588  0.6605
 4212SOL     OW24271   0.951   2.008   2.331  0.3691  0.2826 -0.0269
 4212SOL    HW124272   0.876   1.994   2.273 -0.6185  1.8943  0.8623
 4212SOL    HW224273   0.941   2.102   2.348 -1.0709 -0.1454  1.5187
 4213SOL     OW24274   2.387   0.290  14.648  0.0252 -0.0956  0.0550
 4213SOL    HW124275   2.345   0.304  14.563 -0.8388  0.8419  0.6493
 4213SOL    HW224276   2.371   0.197  14.662  1.3273 -0.4754 -0.8960
 4214SOL     OW24277   3.601   1.520   3.297  0.2890 -0.3676  0.6133
 4214SOL    HW124278   3.615   1.531   3.203  1.2578 -3.2285  0.4309
 4214SOL    HW224279   3.515   1.561   3.311  0.0489 -0.3280 -0.8715
 4215SOL     OW24280   2.752   0.587   5.923  0.1817 -0.2251 -0.6893
 4215SOL    HW124281   2.820   0.648   5.953 -3.2630  2.2316  2.0481
 4215SOL    HW224282   2.793   0.567   5.839 -1.0163 -1.1705 -1.0497
 4216SOL     OW24283   4.647   4.264   2.979 -0.2411 -0.3147 -0.1230
 4216SOL    HW124284   4.648   4.319   3.058  0.5366 -1.5462  0.7288
 4216SOL    HW224285   4.706   4.326   2.935  1.1582 -2.0958 -0.7925
 4217SOL     OW24286   3.186   3.875   4.252  0.2368 -0.1977 -0.0002
 4217SOL    HW124287   3.248   3.928   4.302 -0.4727  0.2765  0.3778
 4217SOL    HW224288   3.190   3.917   4.166 -0.7500  1.5884  0.8213
 4218SOL     OW24289   3.023   2.513  14.703 -0.7812 -0.9595 -0.0847
 4218SOL    HW124290   3.055   2.582  14.761  0.3825 -1.2159 -0.4243
 4218SOL    HW224291   2.949   2.558  14.662  0.6679  2.4371  1.0429
 4219SOL     OW24292   3.162   1.590   5.172  0.6712  0.5228  0.1568
 4219SOL    HW124293   3.175   1.622   5.261  0.6276 -3.3091  1.5460
 4219SOL    HW224294   3.228   1.627   5.113 -0.1017  0.4200 -0.7696
 4220SOL     OW24295   1.385   1.913   8.848  0.4425  0.2745  0.5428
 4220SOL    HW124296   1.357   1.948   8.763  0.0039  1.3010  1.1108
 4220SOL    HW224297   1.452   1.848   8.827  0.5346  0.7917 -0.7688
 4221SOL     OW24298   0.118   3.228  16.383 -0.3025  0.0245 -0.5728
 4221SOL    HW124299   0.087   3.235  16.473 -0.9890 -2.3700 -0.6060
 4221SOL    HW224300   0.157   3.314  16.367 -0.3137  0.0804 -0.2873
 4222SOL     OW24301   2.028   2.832   3.865 -0.1586  0.0578 -0.0497
 4222SOL    HW124302   1.947   2.801   3.906  0.1668  0.2848  0.7685
 4222SOL    HW224303   2.003   2.912   3.820  0.3611  0.4024  0.2680
 4223SOL     OW24304   1.448   1.105   3.751 -0.8734  0.4276 -0.5171
 4223SOL    HW124305   1.365   1.059   3.735 -0.9178  0.1414  0.5634
 4223SOL    HW224306   1.398   1.185   3.768  0.6437  0.9446  1.4709
 4224SOL     OW24307   2.309   2.585  10.430 -0.1815 -0.3877  0.0941
 4224SOL    HW124308   2.386   2.636  10.407 -0.4654 -0.8325 -1.8364
 4224SOL    HW224309   2.347   2.501  10.405  1.2247  1.1620 -3.0679
 4225SOL     OW24310   3.864   0.826   7.191 -0.2468  0.2060  0.2408
 4225SOL    HW124311   3.936   0.784   7.237 -0.5168  1.7098  2.0291
 4225SOL    HW224312   3.811   0.855   7.266 -2.3602  0.2017 -1.2336
 4226SOL     OW24313   2.764   3.147  14.530  0.2696  0.7032  0.3042
 4226SOL    HW124314   2.839   3.202  14.552  1.4459  0.5763 -3.4172
 4226SOL    HW224315   2.709   3.211  14.486  1.9040  1.2097 -1.0385
 4227SOL     OW24316   2.871   4.304  12.550  0.3413  0.5270 -0.1361
 4227SOL    HW124317   2.949   4.322  12.498  0.4211  1.8586  0.4386
 4227SOL    HW224318   2.890   4.376  12.609  2.6903  0.2281 -0.5309
 4228SOL     OW24319   1.094   1.968   1.238  0.4157 -0.1741 -0.1759
 4228SOL    HW124320   1.057   1.880   1.224  1.3447 -0.7577  0.9996
 4228SOL    HW224321   1.099   1.960   1.333  1.2717 -1.4832 -0.3193
 4229SOL     OW24322   1.347   0.474   2.262  0.1382 -0.0006  0.2104
 4229SOL    HW124323   1.344   0.562   2.300  0.6810 -0.1697  0.6420
 4229SOL    HW224324   1.442   0.472   2.249  0.4990 -1.3585  3.0592
 4230SOL     OW24325   3.769   0.367   4.779 -0.2387 -0.0868  0.2207
 4230SOL    HW124326   3.716   0.433   4.823 -0.3141 -0.5694  0.8531
 4230SOL    HW224327   3.753   0.396   4.689  0.4391 -0.2716  0.0412
 4231SOL     OW24328   0.025   3.240   4.064  0.0002 -0.3859 -0.0533
 4231SOL    HW124329   4.697   3.240   4.132 -2.4895 -2.7646 -2.5329
 4231SOL    HW224330   0.018   3.150   4.033 -1.0790 -0.9815  1.9388
 4232SOL     OW24331   0.492   2.530   3.741 -0.0019 -0.3825 -0.7969
 4232SOL    HW124332   0.398   2.547   3.737  0.0028  0.0852  1.2385
 4232SOL    HW224333   0.489   2.457   3.803 -3.0091 -1.3195 -2.0150
 4233SOL     OW24334   1.127   4.611   2.369 -0.0899 -0.9432 -0.1791
 4233SOL    HW124335   1.061   4.544   2.350  0.7456 -1.6775 -0.4907
 4233SOL    HW224336   1.184   4.595   2.293  3.1673  3.8859  1.2985
 4234SOL     OW24337   0.520   2.045   4.409 -0.1052 -0.0087  0.6906
 4234SOL    HW124338   0.537   2.012   4.321  1.3542 -1.4752  1.5066
 4234SOL    HW224339   0.541   1.968   4.463 -1.6534 -2.7870 -2.6647
 4235SOL     OW24340   1.467   0.892   4.251  0.2452 -0.1622  0.3712
 4235SOL    HW124341   1.445   0.802   4.229  2.2229 -0.6837  0.5740
 4235SOL    HW224342   1.397   0.946   4.214 -0.9366 -0.8240  1.6280
 4236SOL     OW24343   4.249   0.480   6.915 -0.3398 -0.1454 -0.1674
 4236SOL    HW124344   4.275   0.392   6.941 -0.6702  0.1082  1.0395
 4236SOL    HW224345   4.221   0.465   6.825 -1.4996  3.4004 -0.4123
 4237SOL     OW24346   1.246   0.591   7.447  0.6829  0.1081 -0.2953
 4237SOL    HW124347   1.187   0.661   7.420  0.4267 -0.5970 -1.5504
 4237SOL    HW224348   1.226   0.526   7.379 -0.2065 -0.6305  0.6699
 4238SOL     OW24349   0.707   2.503   3.184  0.0303  0.7991 -0.0858
 4238SOL    HW124350   0.695   2.415   3.150  2.0632  0.5288 -0.0732
 4238SOL    HW224351   0.795   2.482   3.217 -0.3543 -0.9233 -0.1488
 4239SOL     OW24352   4.325   3.298  12.079 -0.2031 -0.0440 -0.2118
 4239SOL    HW124353   4.299   3.359  12.148  0.4459  0.9335 -0.8331
 4239SOL    HW224354   4.420   3.307  12.072  0.1862 -3.9897 -0.2329
 4240SOL     OW24355   3.335   1.815   7.159 -0.4441  0.3486  0.4709
 4240SOL    HW124356   3.293   1.734   7.185  0.0093  0.4633  1.5648
 4240SOL    HW224357   3.284   1.880   7.207 -0.7884  0.9277 -0.6647
 4241SOL     OW24358   2.604   1.674   7.038 -0.1965 -0.1934  0.0738
 4241SOL    HW124359   2.619   1.761   7.075 -0.4404  0.5450 -1.5500
 4241SOL    HW224360   2.692   1.637   7.037  0.0945  0.5526 -1.2849
 4242SOL     OW24361   3.024   2.603   7.097 -0.7842  0.3710 -0.0006
 4242SOL    HW124362   2.954   2.542   7.072  0.8425 -1.8309  0.8090
 4242SOL    HW224363   3.002   2.604   7.190  1.9225  0.5011  0.6448
 4243SOL     OW24364   1.116   1.108   7.832  0.0864 -0.0694  0.1039
 4243SOL    HW124365   1.176   1.180   7.810 -0.3690  0.1645 -0.3600
 4243SOL    HW224366   1.043   1.133   7.776 -0.8455 -0.6509  1.0415
 4244SOL     OW24367   0.860   3.443   3.399 -0.1846 -0.3498  0.3604
 4244SOL    HW124368   0.857   3.391   3.480 -3.3579 -0.0547  0.4231
 4244SOL    HW224369   0.795   3.402   3.342 -1.6503  1.9935  0.3538
 4245SOL     OW24370   0.503   0.750   8.337 -0.7368  0.3403  0.2530
 4245SOL    HW124371   0.498   0.842   8.311  4.1731  1.0836  1.8583
 4245SOL    HW224372   0.424   0.742   8.391 -3.1285 -1.4422 -3.5497
 4246SOL     OW24373   1.445   0.693   7.608 -0.2264 -0.3818 -0.4755
 4246SOL    HW124374   1.478   0.772   7.566 -1.3648  0.7647  0.7471
 4246SOL    HW224375   1.379   0.660   7.548 -0.4200  0.6510 -0.8401
 4247SOL     OW24376   1.978   0.455  11.614 -0.3271  0.2815 -0.1976
 4247SOL    HW124377   2.044   0.394  11.646 -0.5663  0.7433  1.1664
 4247SOL    HW224378   1.905   0.434  11.672 -1.1620 -3.4033 -2.5706
 4248SOL     OW24379   4.730   0.491   1.612 -0.0059 -1.1687 -0.4554
 4248SOL    HW124380   4.712   0.532   1.528  1.1775  1.8589  0.7739
 4248SOL    HW224381   4.638   0.472   1.630 -0.0836 -0.8287 -0.4981
 4249SOL     OW24382   0.625   4.523   2.259 -0.3660  0.5546  0.0431
 4249SOL    HW124383   0.592   4.450   2.311  2.2189 -0.6374 -0.0332
 4249SOL    HW224384   0.579   4.506   2.177  1.9921  0.0642 -1.1634
 4250SOL     OW24385   0.089   2.961   4.021 -0.0263 -0.4219 -0.1200
 4250SOL    HW124386   0.030   2.969   3.946  0.8422 -0.9037 -0.8434
 4250SOL    HW224387   0.159   2.904   3.989  1.3903  3.0993 -3.3858
 4251SOL     OW24388   1.583   2.703   8.712  0.2338  0.2448 -0.2309
 4251SOL    HW124389   1.631   2.637   8.763  0.7055  1.3753  0.7858
 4251SOL    HW224390   1.589   2.679   8.620 -0.2929 -0.4942 -0.0761
 4252SOL     OW24391   0.327   1.926  10.556  0.0778 -0.5597  0.0865
 4252SOL    HW124392   0.413   1.885  10.569  0.1757 -0.8574 -1.4609
 4252SOL    HW224393   0.345   2.007  10.603  0.5342 -1.6355  1.7758
 4253SOL     OW24394   0.634   3.326   1.993  0.0508 -0.4604 -0.7610
 4253SOL    HW124395   0.626   3.335   1.898 -2.4595 -0.2611 -0.5285
 4253SOL    HW224396   0.553   3.371   2.017 -0.3663 -0.1320 -2.7687
 4254SOL     OW24397   3.003   3.411  11.306  0.6689  0.4571 -0.0217
 4254SOL    HW124398   3.015   3.337  11.365 -0.3326 -0.4187 -0.9102
 4254SOL    HW224399   2.938   3.461  11.356 -0.5791 -1.0226 -0.1501
 4255SOL     OW24400   2.998   1.056   3.260 -0.0720  0.2001 -0.0465
 4255SOL    HW124401   3.035   1.144   3.267  0.1713  0.0049  1.1568
 4255SOL    HW224402   2.906   1.081   3.254  0.4922  1.6228 -2.8084
 4256SOL     OW24403   1.529   2.434   8.023 -0.1550  0.4565 -0.5763
 4256SOL    HW124404   1.617   2.437   8.060 -1.2332  1.3647  1.9315
 4256SOL    HW224405   1.473   2.412   8.097  0.8144  2.4165  0.7534
 4257SOL     OW24406   4.351   3.894   6.223  0.6528 -0.1097  0.1419
 4257SOL    HW124407   4.272   3.940   6.193 -0.9349 -2.8173  0.2210
 4257SOL    HW224408   4.414   3.966   6.227 -1.7507  2.0601 -0.1077
 4258SOL     OW24409   3.318   1.464   6.349  0.1135  0.4924 -0.1281
 4258SOL    HW124410   3.282   1.376   6.335  0.6207 -0.3953  4.0371
 4258SOL    HW224411   3.232   1.506   6.358  0.4085  1.3332 -1.1748
 4259SOL     OW24412   1.185   3.399  12.760  0.0396  0.1386 -0.3273
 4259SOL    HW124413   1.166   3.489  12.735 -0.1731 -0.1565 -1.2081
 4259SOL    HW224414   1.137   3.394  12.843  0.9445  2.4620  0.3271
 4260SOL     OW24415   3.108   4.694   3.091 -0.1582 -0.2277 -0.0622
 4260SOL    HW124416   3.101   0.034   3.038  1.6922 -0.6354 -0.8951
 4260SOL    HW224417   3.139   4.640   3.018 -0.0103 -0.9034  0.4987
 4261SOL     OW24418   4.659   3.495  11.587 -0.1168  0.4298 -0.2554
 4261SOL    HW124419   0.013   3.480  11.577 -0.0358  0.1964  0.8557
 4261SOL    HW224420   4.635   3.503  11.495 -0.4937  0.6763 -0.1372
 4262SOL     OW24421   1.566   3.382   2.745 -0.4286  0.7213 -0.7652
 4262SOL    HW124422   1.518   3.369   2.826  0.5985 -0.6338 -0.3793
 4262SOL    HW224423   1.653   3.385   2.784  0.2163  1.6035 -2.2554
 4263SOL     OW24424   2.538   4.734  17.441 -0.4666 -0.5271  0.3585
 4263SOL    HW124425   2.603   4.668  17.419 -0.6495 -0.5589 -0.0860
 4263SOL    HW224426   2.467   4.673  17.464  0.7440 -1.7825  0.7367
 4264SOL     OW24427   3.687   3.762  15.604  0.0553  0.5498 -0.2628
 4264SOL    HW124428   3.658   3.678  15.641  2.9520 -0.1234  0.5124
 4264SOL    HW224429   3.602   3.804  15.589 -0.1843 -0.4556 -1.6906
 4265SOL     OW24430   0.971   2.424  16.527 -0.6626 -0.3136  0.1398
 4265SOL    HW124431   1.018   2.426  16.610  1.9328 -0.6972 -1.3379
 4265SOL    HW224432   0.881   2.415  16.559  0.0556  1.0381  2.5073
 4266SOL     OW24433   3.277   0.106   8.172 -0.1734 -0.4293  0.0357
 4266SOL    HW124434   3.277   0.201   8.178 -0.4990 -0.4226 -0.0697
 4266SOL    HW224435   3.229   0.085   8.092  0.3523 -0.6569 -0.2210
 4267SOL     OW24436   1.823   2.173   2.455  0.3872 -0.0057  0.4105
 4267SOL    HW124437   1.764   2.242   2.424 -0.2609 -1.3332 -1.2689
 4267SOL    HW224438   1.822   2.108   2.385  2.6171 -0.5034  0.8248
 4268SOL     OW24439   3.943   0.579   5.514 -0.1374  0.4495 -0.1365
 4268SOL    HW124440   3.985   0.553   5.433 -0.2840 -1.1535  0.3072
 4268SOL    HW224441   4.023   0.598   5.563 -0.3534  1.0020  0.0116
 4269SOL     OW24442   2.340   2.153  17.271 -0.5884 -0.7864 -0.2084
 4269SOL    HW124443   2.313   2.159  17.363 -0.8060 -0.2094 -0.3113
 4269SOL    HW224444   2.262   2.186  17.227  1.7468  2.6961 -1.7928
 4270SOL     OW24445   1.872   4.145  10.961  0.2833 -0.2362 -0.3030
 4270SOL    HW124446   1.913   4.108  10.882  0.9055  1.0898 -0.6012
 4270SOL    HW224447   1.910   4.082  11.022 -0.5306  0.0354  0.4671
 4271SOL     OW24448   3.212   3.966   1.275  0.1104  0.2362 -0.0175
 4271SOL    HW124449   3.235   3.899   1.340 -1.7153  0.2054  0.5850
 4271SOL    HW224450   3.137   4.009   1.316  0.8165  1.4698 -0.0236
 4272SOL     OW24451   0.803   0.220   6.005 -0.4781  0.2701  0.2168
 4272SOL    HW124452   0.870   0.222   5.938  1.2262  0.1644  1.9169
 4272SOL    HW224453   0.729   0.247   5.950  2.3519  2.3868 -2.5251
 4273SOL     OW24454   2.532   2.721   6.423  0.6319 -0.4590  0.4352
 4273SOL    HW124455   2.594   2.787   6.391  1.0518 -1.2946 -0.4966
 4273SOL    HW224456   2.537   2.657   6.352 -1.6676  1.5051 -1.5217
 4274SOL     OW24457   0.666   1.266  11.502 -0.2913  0.1722  0.6359
 4274SOL    HW124458   0.703   1.187  11.543 -0.1794 -0.4109 -0.5887
 4274SOL    HW224459   0.597   1.270  11.569 -0.7725 -1.7866  0.2690
 4275SOL     OW24460   2.954   4.615   1.147  0.6992  0.6165 -0.1689
 4275SOL    HW124461   2.973   4.637   1.238 -3.3875  1.2699  0.5552
 4275SOL    HW224462   2.859   4.626   1.140  0.5792 -0.7992 -0.8019
 4276SOL     OW24463   0.446   3.532   5.853  0.0998  0.5332  0.1800
 4276SOL    HW124464   0.477   3.522   5.943  1.3343  0.3270 -0.2572
 4276SOL    HW224465   0.429   3.626   5.846  0.3082  0.4518 -1.4655
 4277SOL     OW24466   0.201   1.644   5.229 -0.1582 -0.3729 -0.1642
 4277SOL    HW124467   0.239   1.731   5.234 -0.2179 -0.4781  2.0435
 4277SOL    HW224468   0.109   1.668   5.216 -0.2448  0.2602  1.6352
 4278SOL     OW24469   2.319   2.416   3.681 -0.3653  0.0206  0.0309
 4278SOL    HW124470   2.316   2.422   3.586 -0.0317 -0.3488 -0.0011
 4278SOL    HW224471   2.307   2.508   3.703  1.6769 -0.2968  2.5159
 4279SOL     OW24472   4.045   2.178   0.486  0.1408 -0.1841  0.0584
 4279SOL    HW124473   4.075   2.179   0.577 -0.9765 -0.1631  0.4319
 4279SOL    HW224474   4.063   2.270   0.464 -1.6236 -0.0365 -0.8096
 4280SOL     OW24475   0.230   1.665   4.076 -0.5816 -0.1076 -0.3246
 4280SOL    HW124476   0.248   1.608   4.001  3.6179  0.1853  0.4253
 4280SOL    HW224477   0.302   1.656   4.139  0.4924  2.2197 -1.2122
 4281SOL     OW24478   4.649   0.914   3.051  0.3316  0.1680 -0.7483
 4281SOL    HW124479   0.005   0.909   3.060  0.3595  0.1911 -1.0197
 4281SOL    HW224480   4.643   0.880   2.962 -0.3232 -3.5018  0.7007
 4282SOL     OW24481   0.906   1.996  10.858 -0.0918 -0.1591 -0.4099
 4282SOL    HW124482   0.994   2.033  10.856  0.1382 -0.6262  1.0104
 4282SOL    HW224483   0.910   1.917  10.803  0.1982 -1.2531  1.1834
 4283SOL     OW24484   0.026   4.405  15.206 -0.5222 -0.1680  0.2537
 4283SOL    HW124485   0.087   4.444  15.143 -0.4588 -1.6207 -0.5865
 4283SOL    HW224486   4.696   4.467  15.185 -1.5653 -2.0934 -2.0125
 4284SOL     OW24487   3.617   2.043  14.035 -0.2372  0.0750  0.7249
 4284SOL    HW124488   3.523   2.025  14.042 -0.9087  3.8031  1.2821
 4284SOL    HW224489   3.626   2.031  13.941 -1.4262  0.4344  0.5695
 4285SOL     OW24490   2.081   0.272   7.629  0.2229 -0.1993 -0.8155
 4285SOL    HW124491   2.043   0.214   7.695 -2.5735 -0.9409 -3.0868
 4285SOL    HW224492   2.062   0.219   7.552  0.3837 -1.4472  0.0167
 4286SOL     OW24493   2.644   2.005   4.885 -0.4909 -0.4673  0.9025
 4286SOL    HW124494   2.701   1.958   4.824 -0.3850 -1.1084  1.4969
 4286SOL    HW224495   2.639   1.934   4.949  0.1239  1.5140  3.1341
 4287SOL     OW24496   1.976   0.423   5.089 -0.3655  0.5048 -0.1769
 4287SOL    HW124497   1.942   0.333   5.093  0.1857  0.3400  0.7580
 4287SOL    HW224498   1.965   0.450   4.998  0.4393  1.5427  0.0385
 4288SOL     OW24499   4.308   0.652  17.494 -0.0511 -0.3752 -0.0531
 4288SOL    HW124500   4.233   0.665  17.551 -0.4204 -1.2703 -0.3283
 4288SOL    HW224501   4.264   0.643  17.410  0.5404  1.6907 -0.5830
 4289SOL     OW24502   3.819   1.101   3.470  0.0487 -0.0684 -0.0705
 4289SOL    HW124503   3.864   1.179   3.439  0.1563 -0.8768 -1.9381
 4289SOL    HW224504   3.765   1.082   3.393  2.8946 -1.1175 -1.8066
 4290SOL     OW24505   3.493   0.641   7.326 -0.3990 -0.8537 -0.3483
 4290SOL    HW124506   3.502   0.617   7.234 -3.7383 -2.4147 -0.2637
 4290SOL    HW224507   3.584   0.638   7.354 -1.0374 -0.3790  1.7437
 4291SOL     OW24508   1.410   0.094  15.221 -0.8240  0.1098  0.0234
 4291SOL    HW124509   1.394   0.002  15.243  1.3503 -0.9110 -2.6295
 4291SOL    HW224510   1.461   0.129  15.294 -1.0873  2.3913 -0.8912
 4292SOL     OW24511   0.527   2.388   3.995  0.1550  0.3157  0.1390
 4292SOL    HW124512   0.568   2.332   4.060  0.9109 -1.2570 -1.6852
 4292SOL    HW224513   0.436   2.365   4.013  0.4832 -1.3184 -0.3452
 4293SOL     OW24514   2.917   2.684   5.891  0.3322  0.1313 -0.4477
 4293SOL    HW124515   2.985   2.660   5.954  1.8914 -1.1032 -2.5851
 4293SOL    HW224516   2.940   2.774   5.870 -1.4456  0.1057 -2.4585
 4294SOL     OW24517   3.023   0.533   1.314  0.1073  0.0626 -0.1001
 4294SOL    HW124518   2.977   0.617   1.307 -1.9827 -1.0054  0.8666
 4294SOL    HW224519   3.014   0.493   1.227  1.0235 -1.1962  0.3761
 4295SOL     OW24520   1.585   2.032   4.829  0.1506 -0.7171 -0.6155
 4295SOL    HW124521   1.497   2.035   4.865  0.1949  1.7590 -0.7103
 4295SOL    HW224522   1.628   1.977   4.894  0.2802  0.5172  0.3517
 4296SOL     OW24523   3.720   0.645   7.542  0.3495 -0.6096 -0.2540
 4296SOL    HW124524   3.730   0.720   7.484  1.4287 -1.1704 -0.7928
 4296SOL    HW224525   3.743   0.682   7.628 -0.4574 -0.6106 -0.0411
 4297SOL     OW24526   4.431   2.427   5.542 -0.8319 -0.0472  0.8243
 4297SOL    HW124527   4.503   2.482   5.512 -0.7237 -0.8607 -0.4352
 4297SOL    HW224528   4.398   2.498   5.597  0.4906 -0.3305  1.9851
 4298SOL     OW24529   4.189   0.893   8.126  1.2769 -0.0664  0.1292
 4298SOL    HW124530   4.114   0.844   8.092 -1.8763  2.6572  3.1555
 4298SOL    HW224531   4.164   0.897   8.219 -0.4957 -1.8488 -0.2689
 4299SOL     OW24532   2.748   3.234  14.255 -0.0847  0.1413 -0.4843
 4299SOL    HW124533   2.838   3.202  14.250 -0.1991  0.1003 -2.2766
 4299SOL    HW224534   2.694   3.163  14.289  0.2022  0.3169  0.3673
 4300SOL     OW24535   1.294   4.077   6.522  0.4718  0.2105 -0.6973
 4300SOL    HW124536   1.285   4.154   6.579  1.1036 -0.3749  0.1790
 4300SOL    HW224537   1.378   4.083   6.477  1.2756 -0.2033  0.7580
 4301SOL     OW24538   1.941   0.368   2.903 -0.6548  0.0219  0.1758
 4301SOL    HW124539   1.858   0.413   2.919 -0.8571 -0.4216  0.3773
 4301SOL    HW224540   1.907   0.279   2.912  0.9603 -0.5629  0.4792
 4302SOL     OW24541   1.460   4.030   6.245 -0.3480  0.0673  0.3876
 4302SOL    HW124542   1.483   4.047   6.153 -0.6267  1.3852  0.5716
 4302SOL    HW224543   1.540   4.057   6.291 -0.2460 -3.2155  2.1478
 4303SOL     OW24544   4.179   0.037   3.187 -0.6306 -0.7458 -0.4795
 4303SOL    HW124545   4.206   0.124   3.157 -0.0420 -1.3341 -1.6538
 4303SOL    HW224546   4.133   0.060   3.268 -1.1553  0.2557 -1.0494
 4304SOL     OW24547   0.045   0.234   4.936 -0.0664  0.0523  0.8996
 4304SOL    HW124548   4.692   0.218   4.919  0.0657 -0.5146  0.7336
 4304SOL    HW224549   0.047   0.226   5.032  1.1005  0.7957  0.9350
 4305SOL     OW24550   0.497   1.353   0.383 -0.2997 -0.2245 -0.3542
 4305SOL    HW124551   0.556   1.278   0.377  0.2414  0.3167 -1.6189
 4305SOL    HW224552   0.431   1.306   0.434  0.5872 -0.1679  0.8543
 4306SOL     OW24553   2.431   0.865   4.895 -0.6554 -0.0413  0.7383
 4306SOL    HW124554   2.347   0.832   4.927 -0.4331  0.3061  1.6897
 4306SOL    HW224555   2.408   0.953   4.863 -0.7355  0.2625  1.6409
 4307SOL     OW24556   4.150   1.959   6.311  0.3771 -0.4946 -0.4495
 4307SOL    HW124557   4.223   1.942   6.371 -1.0372 -1.5317  0.9891
 4307SOL    HW224558   4.133   1.878   6.263 -1.2598 -0.2177 -0.3375
 4308SOL     OW24559   2.080   0.755   6.379 -0.3417 -0.7371 -0.6590
 4308SOL    HW124560   2.165   0.739   6.419 -1.1742  0.3326  1.5121
 4308SOL    HW224561   2.095   0.729   6.288  0.6031 -1.6721 -0.2214
 4309SOL     OW24562   3.184   2.219   7.596  0.5511  0.1264 -0.3759
 4309SOL    HW124563   3.175   2.299   7.545  1.4141 -0.3351 -1.2494
 4309SOL    HW224564   3.189   2.261   7.682 -1.1475 -2.2182  0.9036
 4310SOL     OW24565   2.920   4.044   6.247  0.2735  0.3948 -0.3501
 4310SOL    HW124566   2.909   3.956   6.211 -0.2801  1.8094 -3.6446
 4310SOL    HW224567   2.916   4.028   6.341 -0.0300 -0.1070 -0.4491
 4311SOL     OW24568   4.405   4.542   6.474  0.0445 -0.2188 -0.4733
 4311SOL    HW124569   4.477   4.601   6.498  0.9151 -0.9983 -1.1268
 4311SOL    HW224570   4.364   4.590   6.402 -0.3657  0.4474  0.2060
 4312SOL     OW24571   0.107   0.254   8.462 -0.0417  0.0133 -0.5562
 4312SOL    HW124572   0.131   0.306   8.386  1.3687  0.1825 -0.0040
 4312SOL    HW224573   0.023   0.288   8.492 -0.5857 -2.2850  0.5285
 4313SOL     OW24574   3.151   1.134  17.306 -0.0717 -0.7865  0.2495
 4313SOL    HW124575   3.180   1.064  17.365 -0.2207 -0.2548  0.9567
 4313SOL    HW224576   3.059   1.114  17.290 -0.8528  3.5884 -0.4795
 4314SOL     OW24577   0.536   0.048   6.534  0.0736 -0.3992  0.3147
 4314SOL    HW124578   0.466   0.105   6.563 -0.5007 -0.7945 -0.2754
 4314SOL    HW224579   0.605   0.091   6.583  0.0171  0.8514 -0.7134
 4315SOL     OW24580   3.786   1.208  17.418  0.4888 -0.5223  0.1765
 4315SOL    HW124581   3.704   1.242  17.381  0.9280  0.8042  0.4182
 4315SOL    HW224582   3.763   1.128  17.465  1.4400  0.8715  3.0107
 4316SOL     OW24583   2.216   0.651   8.328 -0.6130 -0.0318 -0.0740
 4316SOL    HW124584   2.301   0.634   8.370 -0.2862  2.2259  0.1526
 4316SOL    HW224585   2.247   0.668   8.239  1.5602  2.8774  1.2215
 4317SOL     OW24586   0.168   1.945   8.882  0.6262 -0.5367  0.5480
 4317SOL    HW124587   0.245   1.998   8.902 -0.0578  0.2736  1.0432
 4317SOL    HW224588   0.107   1.964   8.953 -1.1469  1.5803 -1.5168
 4318SOL     OW24589   1.360   3.957  10.984 -0.0918 -0.0720 -0.4141
 4318SOL    HW124590   1.270   3.990  10.983 -0.0812 -0.0383 -0.2898
 4318SOL    HW224591   1.409   4.040  10.983 -1.1493  0.5757  1.0361
 4319SOL     OW24592   2.814   3.568   2.050  0.0211  0.2659  0.2089
 4319SOL    HW124593   2.742   3.511   2.020 -0.0329 -0.7578  2.2743
 4319SOL    HW224594   2.833   3.539   2.139  0.0037 -1.7113 -0.4291
 4320SOL     OW24595   0.067   3.810  16.735  0.4062  0.1215 -0.4547
 4320SOL    HW124596   0.044   3.747  16.667 -0.5366  0.7756 -0.7517
 4320SOL    HW224597   4.729   3.858  16.765  0.1003  0.3653 -1.6658
 4321SOL     OW24598   4.411   0.006  16.478 -0.1724 -0.1816  0.2689
 4321SOL    HW124599   4.403   0.033  16.386  1.0290  1.1880  0.5661
 4321SOL    HW224600   4.323   4.711  16.491  0.4881 -0.7296  3.2398
 4322SOL     OW24601   4.263   0.886  12.439  0.0284 -0.1631  0.5359
 4322SOL    HW124602   4.213   0.843  12.369  0.0887 -1.8418  1.5280
 4322SOL    HW224603   4.334   0.929  12.392 -0.8618  0.7324  0.0134
 4323SOL     OW24604   2.623   1.917   1.964  0.3313 -0.4635 -0.2108
 4323SOL    HW124605   2.702   1.970   1.978 -2.3987  3.6468 -0.4857
 4323SOL    HW224606   2.646   1.849   2.028 -1.5956 -1.6387 -0.8009
 4324SOL     OW24607   2.484   2.543   8.024  0.3216 -0.2845 -0.7378
 4324SOL    HW124608   2.476   2.572   8.114 -1.3178  1.7301 -1.5311
 4324SOL    HW224609   2.412   2.482   8.009 -0.0525  0.0219 -0.1633
 4325SOL     OW24610   1.049   0.384   3.163 -0.0821 -0.0380  0.3272
 4325SOL    HW124611   1.029   0.303   3.115  0.2230 -0.0263  0.1798
 4325SOL    HW224612   1.032   0.359   3.253 -0.0595  1.3822  0.7232
 4326SOL     OW24613   2.051   3.264   5.388  0.6857  0.5347  0.7551
 4326SOL    HW124614   2.100   3.309   5.458  0.8439  2.1791 -0.4065
 4326SOL    HW224615   1.961   3.262   5.421  0.7857  0.4752  1.0203
 4327SOL     OW24616   1.087   2.928   6.657 -0.2007 -0.1093  0.5596
 4327SOL    HW124617   1.038   2.847   6.671 -1.2287  0.6154  1.2357
 4327SOL    HW224618   1.101   2.948   6.750 -3.8660 -0.9532  1.2898
 4328SOL     OW24619   0.530   1.050   3.168 -0.3737 -0.2851  0.0638
 4328SOL    HW124620   0.578   1.128   3.197  2.1522 -1.9507  0.3702
 4328SOL    HW224621   0.594   0.997   3.121 -0.7613 -1.2349  0.6117
 4329SOL     OW24622   1.673   2.957   4.029  0.0539 -0.0817 -0.4326
 4329SOL    HW124623   1.724   3.034   4.007 -0.5592 -0.1972 -2.2046
 4329SOL    HW224624   1.586   2.987   4.003 -0.1486 -0.5424 -0.2840
 4330SOL     OW24625   2.827   2.100   6.645 -0.3918  0.4650  0.8378
 4330SOL    HW124626   2.742   2.143   6.650  0.6843  2.8190 -1.0942
 4330SOL    HW224627   2.858   2.134   6.561 -0.8342  1.4955  1.0935
 4331SOL     OW24628   2.610   0.655   4.633 -0.5151  0.2939 -0.1035
 4331SOL    HW124629   2.516   0.649   4.617 -0.4367  1.9573 -1.1937
 4331SOL    HW224630   2.643   0.619   4.551  0.8008  1.2354  0.0092
 4332SOL     OW24631   1.814   1.758  10.224 -0.0589 -0.1920 -0.1573
 4332SOL    HW124632   1.774   1.779  10.308  2.4803 -0.9719  1.2395
 4332SOL    HW224633   1.883   1.823  10.235 -1.6373  1.4416  0.0145
 4333SOL     OW24634   3.761   4.228   9.285  0.7491  0.2730 -0.8283
 4333SOL    HW124635   3.800   4.249   9.370 -1.3716  3.8429 -0.7268
 4333SOL    HW224636   3.711   4.307   9.263 -1.9648 -1.4418 -0.7935
 4334SOL     OW24637   4.629   3.504  11.310  0.3437  0.0807 -0.0586
 4334SOL    HW124638   4.711   3.532  11.268  0.7200 -2.7452 -1.2063
 4334SOL    HW224639   4.621   3.418  11.270  2.6640 -0.2629  0.1861
 4335SOL     OW24640   3.411   3.858   0.862 -0.3651  0.1145 -0.0878
 4335SOL    HW124641   3.483   3.794   0.868  0.7435  1.2521 -1.2676
 4335SOL    HW224642   3.390   3.894   0.948 -0.3240 -1.5865  0.6344
 4336SOL     OW24643   3.469   0.514  16.325  0.2232 -0.8786  0.0727
 4336SOL    HW124644   3.505   0.536  16.410 -0.6536 -0.9413  0.4620
 4336SOL    HW224645   3.382   0.554  16.331  0.5533 -0.3496  1.2968
 4337SOL     OW24646   2.371   2.452   5.790 -0.8109 -0.5784 -0.3346
 4337SOL    HW124647   2.348   2.537   5.827 -0.4297 -0.4675 -0.3524
 4337SOL    HW224648   2.425   2.484   5.717 -2.2290 -0.3048 -1.2711
 4338SOL     OW24649   4.125   1.675   6.649 -0.1888  0.2828 -0.5324
 4338SOL    HW124650   4.177   1.744   6.690 -0.6178 -0.2594  0.9048
 4338SOL    HW224651   4.039   1.699   6.683 -1.2419 -1.9726 -1.5773
 4339SOL     OW24652   1.022   2.737  13.084  0.2374 -0.5448 -0.0561
 4339SOL    HW124653   1.071   2.709  13.007 -0.7212 -0.3420 -0.7488
 4339SOL    HW224654   0.939   2.777  13.056 -0.8689 -0.3682  3.4817
 4340SOL     OW24655   1.132   1.946   1.541  0.0442 -0.0927 -1.3250
 4340SOL    HW124656   1.055   1.942   1.598  1.5933 -0.0433  0.7763
 4340SOL    HW224657   1.201   1.943   1.607 -1.2107 -1.8268 -0.0998
 4341SOL     OW24658   1.128   0.611   3.013  0.7006  0.2221 -0.1813
 4341SOL    HW124659   1.212   0.621   3.057  0.2660 -1.0687  0.9482
 4341SOL    HW224660   1.089   0.532   3.050  0.6575  0.8561  1.1329
 4342SOL     OW24661   1.932   2.456   9.493 -0.6002 -0.2922 -0.2487
 4342SOL    HW124662   1.974   2.422   9.414 -0.1507  0.6905 -0.4245
 4342SOL    HW224663   1.889   2.375   9.519 -1.1339  0.0000 -0.2189
 4343SOL     OW24664   3.936   3.984   4.973  0.0385  0.0197 -0.2947
 4343SOL    HW124665   3.994   4.018   4.905  1.0136 -0.3337  0.3587
 4343SOL    HW224666   3.997   3.974   5.045 -0.5701 -0.5744  0.1381
 4344SOL     OW24667   1.504   3.461  16.445  0.4571  0.1109 -0.3571
 4344SOL    HW124668   1.559   3.530  16.408 -1.2174  2.3500  1.2921
 4344SOL    HW224669   1.533   3.452  16.536 -0.3965 -0.4188 -0.1325
 4345SOL     OW24670   2.462   2.243   3.807 -0.0900  0.5739  0.4148
 4345SOL    HW124671   2.386   2.198   3.844 -2.3633  3.5063 -0.6642
 4345SOL    HW224672   2.419   2.305   3.748  2.9903  1.0134 -1.3677
 4346SOL     OW24673   0.334   0.138   5.983 -0.1143 -0.3067  0.2005
 4346SOL    HW124674   0.346   0.064   6.041  3.1095 -0.1486 -0.2564
 4346SOL    HW224675   0.263   0.119   5.921 -0.3366  0.1161  0.3265
 4347SOL     OW24676   1.921   2.699   1.234  0.0330  0.3184 -0.2152
 4347SOL    HW124677   1.937   2.669   1.323 -2.8181 -0.8839 -0.1042
 4347SOL    HW224678   1.876   2.621   1.202 -1.3958  0.9243  0.3454
 4348SOL     OW24679   0.035   2.062   3.452  0.2104 -0.2740  0.0264
 4348SOL    HW124680   0.002   2.087   3.366 -0.8450 -0.7565  0.2874
 4348SOL    HW224681   0.055   2.150   3.484 -2.5036  1.1509 -2.1551
 4349SOL     OW24682   4.569   1.693  13.751 -0.3952  0.2351 -1.3540
 4349SOL    HW124683   4.637   1.743  13.795 -0.4723 -0.7327 -0.1390
 4349SOL    HW224684   4.608   1.606  13.752 -0.2615  0.3119  0.3931
 4350SOL     OW24685   4.289   2.807  13.336 -0.1328 -0.2180  0.2818
 4350SOL    HW124686   4.277   2.754  13.415 -0.0301  0.2033  0.5747
 4350SOL    HW224687   4.383   2.822  13.348  0.3207 -0.8217 -2.3275
 4351SOL     OW24688   2.220   2.261   6.963 -0.3823 -0.4655 -0.6585
 4351SOL    HW124689   2.178   2.343   6.936  0.6081  0.3285  0.2034
 4351SOL    HW224690   2.310   2.286   6.945  0.3399 -2.4253  0.1882
 4352SOL     OW24691   0.077   3.770   1.437 -0.5674 -0.5568 -0.5020
 4352SOL    HW124692   0.044   3.687   1.471 -0.4874 -1.3458 -2.3897
 4352SOL    HW224693   0.096   3.752   1.345  1.2056  0.4472 -0.3311
 4353SOL     OW24694   3.317   1.394   3.552 -0.2591  0.2107 -0.2456
 4353SOL    HW124695   3.347   1.472   3.505 -1.0629  0.7808  0.1747
 4353SOL    HW224696   3.315   1.432   3.640  1.5690  2.3204 -1.0971
 4354SOL     OW24697   1.599   1.456   4.854  0.1795 -0.1347 -0.0131
 4354SOL    HW124698   1.607   1.544   4.817 -0.2064  0.1041  0.4615
 4354SOL    HW224699   1.511   1.427   4.828  0.5870 -0.4853 -0.9632
 4355SOL     OW24700   0.490   0.283   0.299 -0.0725 -0.0679 -0.2349
 4355SOL    HW124701   0.558   0.350   0.295  1.4678 -1.6608 -0.5933
 4355SOL    HW224702   0.492   0.247   0.210  1.5354 -1.2333  0.2735
 4356SOL     OW24703   4.646   3.496   2.736  0.0399 -0.3808  0.1847
 4356SOL    HW124704   4.552   3.488   2.750  0.0081  1.3644  1.0568
 4356SOL    HW224705   4.663   3.590   2.730  2.4266 -0.6832  2.0699
 4357SOL     OW24706   1.443   1.589   2.878 -0.0698  0.0605  1.0467
 4357SOL    HW124707   1.373   1.614   2.937 -0.3738  0.8904  0.3451
 4357SOL    HW224708   1.521   1.630   2.915  0.4801  0.7190 -0.7980
 4358SOL     OW24709   4.612   2.735   1.719 -0.2297  0.1793 -0.4351
 4358SOL    HW124710   4.559   2.808   1.751 -1.7557 -0.6502 -1.0816
 4358SOL    HW224711   4.677   2.743   1.789 -0.2042  0.9768 -0.5524
 4359SOL     OW24712   1.403   2.158   6.698  0.2570 -1.0378  0.5998
 4359SOL    HW124713   1.366   2.074   6.671  0.6963 -0.7899 -0.7282
 4359SOL    HW224714   1.341   2.172   6.770 -0.9418 -1.0500 -0.4281
 4360SOL     OW24715   0.800   4.153   4.502  0.6759  0.1097 -0.0202
 4360SOL    HW124716   0.838   4.197   4.425 -0.4818  0.1560 -0.5590
 4360SOL    HW224717   0.750   4.085   4.458 -0.8103  0.3151  1.3627
 4361SOL     OW24718   0.266   3.525   6.903  0.5722  0.3399  0.0739
 4361SOL    HW124719   0.298   3.549   6.816 -0.2492  0.3396 -0.2222
 4361SOL    HW224720   0.310   3.443   6.927 -2.1263 -0.4300  2.3464
 4362SOL     OW24721   0.472   2.335   6.851  0.5927  0.6989  0.0467
 4362SOL    HW124722   0.559   2.296   6.864  0.1558  0.1381  1.2048
 4362SOL    HW224723   0.484   2.394   6.776 -2.0180 -1.5017 -2.0889
 4363SOL     OW24724   2.538   1.723  14.717  0.2774 -0.1488  0.0196
 4363SOL    HW124725   2.498   1.734  14.631 -1.3118  1.3274  0.9490
 4363SOL    HW224726   2.554   1.629  14.710 -0.8291 -0.2830 -0.7119
 4364SOL     OW24727   3.144   1.971  12.566 -0.2365  0.5988 -0.5978
 4364SOL    HW124728   3.105   2.000  12.483 -0.2192  0.7228 -0.5623
 4364SOL    HW224729   3.229   1.956  12.525  0.2110  1.0197  0.1800
 4365SOL     OW24730   1.407   4.256   2.512  0.0707  0.5038  0.1859
 4365SOL    HW124731   1.312   4.251   2.527  0.0273 -1.2223 -0.6943
 4365SOL    HW224732   1.414   4.309   2.432 -0.1339  0.6641  0.2732
 4366SOL     OW24733   0.401   0.795   3.519 -0.4491 -1.1030 -0.0810
 4366SOL    HW124734   0.306   0.807   3.517 -0.0364  1.8582 -1.3094
 4366SOL    HW224735   0.401   0.725   3.585  0.6112  0.5834  1.7342
 4367SOL     OW24736   4.093   1.999   0.054 -0.6163  0.1770  0.5068
 4367SOL    HW124737   4.141   1.922   0.026 -2.1299 -0.9976  1.1643
 4367SOL    HW224738   4.082   1.974   0.146  0.3287  1.6637  1.0254
 4368SOL     OW24739   3.953   1.853   1.983 -0.2040 -0.3168 -0.2398
 4368SOL    HW124740   4.047   1.835   1.993 -0.2619  0.4834  1.7017
 4368SOL    HW224741   3.958   1.931   1.928  1.1494  1.9649  3.1322
 4369SOL     OW24742   3.396   4.242   6.537 -0.0777  0.2393 -0.0387
 4369SOL    HW124743   3.385   4.147   6.550  1.6624 -0.2060 -1.6867
 4369SOL    HW224744   3.491   4.252   6.526 -0.1282  3.1851  2.4388
 4370SOL     OW24745   2.247   2.322   1.893 -0.0022  0.2745  0.5933
 4370SOL    HW124746   2.270   2.258   1.825 -0.9685  0.5772 -0.0207
 4370SOL    HW224747   2.281   2.276   1.969  0.4088 -0.6417 -0.1412
 4371SOL     OW24748   3.189   2.894   8.346  0.0710 -0.0927 -0.7199
 4371SOL    HW124749   3.234   2.812   8.364  1.2226  0.8252  0.6032
 4371SOL    HW224750   3.266   2.936   8.308 -0.4341  0.2372 -1.3881
 4372SOL     OW24751   4.333   4.128   7.212  0.3290 -0.0464 -0.5031
 4372SOL    HW124752   4.379   4.211   7.221 -0.7371  0.6393 -1.4101
 4372SOL    HW224753   4.373   4.101   7.294 -1.2846  1.1056  0.6545
 4373SOL     OW24754   4.178   3.114  12.388  0.1479  0.2482 -0.1810
 4373SOL    HW124755   4.213   3.067  12.463  0.4256  0.6785 -0.0384
 4373SOL    HW224756   4.123   3.177  12.435  1.1528  1.0966 -0.1530
 4374SOL     OW24757   1.205   3.486   5.372 -0.2117 -0.5625 -0.5171
 4374SOL    HW124758   1.153   3.443   5.304 -0.3318  0.0475 -0.8085
 4374SOL    HW224759   1.187   3.580   5.364 -1.0569 -0.6440  0.4842
 4375SOL     OW24760   2.487   1.785   8.836  0.1324  0.4483  0.4306
 4375SOL    HW124761   2.488   1.878   8.856  0.6620  0.5723 -0.1853
 4375SOL    HW224762   2.565   1.784   8.780  0.0475  2.1996  0.3028
 4376SOL     OW24763   0.025   3.016   7.490  0.5332 -0.4619 -0.4490
 4376SOL    HW124764   4.678   3.031   7.453  0.8783  0.5966 -0.8414
 4376SOL    HW224765   0.041   3.097   7.539  1.6172 -0.9319 -0.0366
 4377SOL     OW24766   3.473   1.569   6.986  0.3788  0.2612 -0.7423
 4377SOL    HW124767   3.396   1.606   7.028  0.5009 -1.0538  0.6241
 4377SOL    HW224768   3.524   1.532   7.058 -0.8761  1.2789  0.6619
 4378SOL     OW24769   2.110   3.117   4.680  0.3477  0.0265  0.4952
 4378SOL    HW124770   2.142   3.180   4.744  2.7662 -0.7365  0.0416
 4378SOL    HW224771   2.128   3.032   4.719  1.2996  0.1030  0.2104
 4379SOL     OW24772   0.183   2.408   3.468  0.6488  0.0141  0.0713
 4379SOL    HW124773   0.123   2.430   3.396  0.8650 -0.7985 -0.3536
 4379SOL    HW224774   0.125   2.369   3.533 -0.0830 -3.2192 -2.5110
 4380SOL     OW24775   0.954   1.629  15.165  0.2558  0.2394 -0.5500
 4380SOL    HW124776   0.993   1.715  15.184 -0.3473  0.3018  0.4182
 4380SOL    HW224777   0.901   1.609  15.242  1.4649  0.5437  0.3729
 4381SOL     OW24778   3.968   3.003  10.751 -0.1219 -0.2316  0.0926
 4381SOL    HW124779   4.021   2.935  10.792  2.5389  1.1889 -1.0343
 4381SOL    HW224780   3.879   2.966  10.751 -0.4723  0.6185 -1.1785
 4382SOL     OW24781   1.088   3.911  10.570  0.1733  0.0813 -0.3536
 4382SOL    HW124782   1.175   3.887  10.603 -0.3605 -1.0301  0.2448
 4382SOL    HW224783   1.080   3.999  10.607 -2.4171 -1.0388  1.6813
 4383SOL     OW24784   0.298   2.493  14.872  0.4982 -0.2746 -0.2183
 4383SOL    HW124785   0.216   2.539  14.894  0.4797 -1.1932  1.6003
 4383SOL    HW224786   0.357   2.514  14.944  0.0345 -1.9743  0.6692
 4384SOL     OW24787   3.301   1.847   7.906 -0.2403  0.3080  0.5380
 4384SOL    HW124788   3.291   1.936   7.874  0.2592 -1.1216 -3.5901
 4384SOL    HW224789   3.207   1.830   7.905 -0.4674  1.5653 -0.0962
 4385SOL     OW24790   1.396   2.873  10.141 -0.6285 -0.3521  0.1006
 4385SOL    HW124791   1.407   2.941  10.207  3.9105  1.5756 -2.7117
 4385SOL    HW224792   1.447   2.910  10.070 -1.4473 -0.9330 -0.7830
 4386SOL     OW24793   1.459   2.968   6.122  0.5121  0.8120 -0.2788
 4386SOL    HW124794   1.366   2.989   6.123  0.3609 -0.0035  1.2746
 4386SOL    HW224795   1.485   2.964   6.214 -0.7169 -0.2513  0.0100
 4387SOL     OW24796   0.937   0.169   2.513 -0.3362  0.0484 -0.1058
 4387SOL    HW124797   0.911   0.260   2.499  0.9618  0.2211 -1.4089
 4387SOL    HW224798   0.875   0.118   2.462 -0.5726  0.7012 -0.4715
 4388SOL     OW24799   1.824   0.632  13.645 -0.3576 -0.0997 -1.2155
 4388SOL    HW124800   1.807   0.672  13.730  3.6361  1.1206 -0.9722
 4388SOL    HW224801   1.740   0.590  13.628 -0.8458  1.0238 -1.5250
 4389SOL     OW24802   2.359   2.666   5.196  0.5638 -0.0852  0.2458
 4389SOL    HW124803   2.370   2.573   5.175  0.7681 -0.1025  0.4345
 4389SOL    HW224804   2.264   2.669   5.203  0.4525 -1.1013 -0.7710
 4390SOL     OW24805   1.777   1.258   5.177  0.2221  1.0589 -0.2666
 4390SOL    HW124806   1.871   1.258   5.195  0.3153  0.8704 -0.7567
 4390SOL    HW224807   1.745   1.220   5.259  0.8504  1.9918  0.4128
 4391SOL     OW24808   1.430   1.457   6.704 -0.4652  0.1664  0.7991
 4391SOL    HW124809   1.342   1.421   6.714 -0.1719 -0.6414  0.4435
 4391SOL    HW224810   1.473   1.417   6.779  0.1525 -1.0726 -0.2064
 4392SOL     OW24811   4.493   1.751   6.554  0.2200  0.1648 -0.0747
 4392SOL    HW124812   4.526   1.761   6.644  1.3514 -3.5836 -0.0888
 4392SOL    HW224813   4.492   1.656   6.555  1.5324  0.1412 -0.4625
 4393SOL     OW24814   2.291   0.420   7.658  0.1438 -0.3969 -0.2369
 4393SOL    HW124815   2.293   0.482   7.585  0.1813  3.5384  3.0550
 4393SOL    HW224816   2.239   0.345   7.631 -0.3832  0.0363 -0.4135
 4394SOL     OW24817   0.684   2.920  10.505  0.1855  0.0808  0.1758
 4394SOL    HW124818   0.694   2.949  10.414 -0.4547 -0.7029 -0.1411
 4394SOL    HW224819   0.592   2.896  10.495  0.6330 -1.3463 -0.6190
 4395SOL     OW24820   3.568   1.709  17.551  0.1020  0.3188  0.0321
 4395SOL    HW124821   3.494   1.650  17.540 -0.9319  1.3101  1.7319
 4395SOL    HW224822   3.620   1.698  17.471  1.5122 -0.6959  1.0849
 4396SOL     OW24823   2.921   3.253  17.206  0.1228  0.2156  0.7401
 4396SOL    HW124824   2.847   3.303  17.171  0.0458 -1.3041 -1.2676
 4396SOL    HW224825   2.981   3.275  17.134 -1.1576  0.8006 -0.1490
 4397SOL     OW24826   4.265   3.942   5.547 -0.0959  0.0798  0.2799
 4397SOL    HW124827   4.189   3.902   5.591 -1.9956  1.5313 -1.7071
 4397SOL    HW224828   4.301   3.987   5.624  0.9802 -2.3409  1.2068
 4398SOL     OW24829   0.826   1.943   6.083  0.2394  0.0404 -0.3279
 4398SOL    HW124830   0.749   1.931   6.028  0.9803 -2.4063 -0.8667
 4398SOL    HW224831   0.816   1.884   6.159 -0.6945  0.0555 -0.4483
 4399SOL     OW24832   0.716   2.633  14.368  0.1429  0.6431  0.0837
 4399SOL    HW124833   0.777   2.592  14.430  1.4361  0.9977 -0.9502
 4399SOL    HW224834   0.783   2.670  14.311 -0.6313  1.4891 -0.2668
 4400SOL     OW24835   0.527   3.371   8.194  0.1944 -0.2126  0.1657
 4400SOL    HW124836   0.477   3.390   8.274 -0.9535 -2.4378 -0.0120
 4400SOL    HW224837   0.482   3.293   8.161 -0.3016  0.2783 -0.3347
 4401SOL     OW24838   3.112   2.942   9.381  0.3181 -0.6371 -0.0969
 4401SOL    HW124839   3.187   2.999   9.398  0.4246 -0.5832 -0.7666
 4401SOL    HW224840   3.156   2.859   9.397 -0.1554 -0.6732  1.0879
 4402SOL     OW24841   1.132   1.609   2.016  0.0114  0.6724 -0.4023
 4402SOL    HW124842   1.120   1.699   1.985 -0.4386  0.7460 -0.0140
 4402SOL    HW224843   1.187   1.619   2.094 -0.5707  2.6390 -0.2364
 4403SOL     OW24844   4.189   2.137   5.397 -0.2686  0.1882  0.2747
 4403SOL    HW124845   4.164   2.179   5.315 -1.3872  0.8058  0.9422
 4403SOL    HW224846   4.150   2.051   5.381  3.0204 -1.2035 -0.3039
 4404SOL     OW24847   4.704   0.128   6.936  0.5067 -0.1997 -0.0250
 4404SOL    HW124848   4.623   0.092   6.900  0.0710 -0.0076  0.7794
 4404SOL    HW224849   4.697   0.108   7.029 -0.6506  1.5864  0.2633
 4405SOL     OW24850   0.132   0.253  12.216  0.1065  0.0786 -0.1844
 4405SOL    HW124851   0.046   0.289  12.236  0.7955  1.5750  0.0696
 4405SOL    HW224852   0.161   0.314  12.148  1.1181 -1.2970 -0.9951
 4406SOL     OW24853   1.161   1.439  15.252  0.3930 -0.0922  1.0859
 4406SOL    HW124854   1.212   1.442  15.171  1.3601 -0.5927  1.6648
 4406SOL    HW224855   1.089   1.494  15.223  1.7777  1.4594  0.5568
 4407SOL     OW24856   1.937   1.627   3.367 -0.7702 -0.2423 -0.2795
 4407SOL    HW124857   2.031   1.628   3.383 -1.0379 -0.8871  1.3151
 4407SOL    HW224858   1.910   1.545   3.409  0.5638 -0.5136  0.0256
 4408SOL     OW24859   4.543   1.439   1.967 -0.0634 -0.3402  0.5165
 4408SOL    HW124860   4.462   1.490   1.975 -1.6292 -2.7194 -0.0523
 4408SOL    HW224861   4.502   1.352   1.971  0.8563 -0.7788  0.4234
 4409SOL     OW24862   0.002   2.399  13.878 -0.6011  0.1811  0.5419
 4409SOL    HW124863   4.703   2.447  13.950 -2.5710 -0.1223 -0.3177
 4409SOL    HW224864   0.087   2.442  13.870 -0.2735 -0.2550  1.6824
 4410SOL     OW24865   4.714   1.809  15.884  0.6593 -0.4066  0.2931
 4410SOL    HW124866   4.665   1.783  15.963  2.9426  0.0423  1.8668
 4410SOL    HW224867   0.009   1.724  15.859 -0.0226 -0.7471  0.5121
 4411SOL     OW24868   0.094   0.103   7.506 -1.3183 -0.0227 -0.0715
 4411SOL    HW124869   0.001   0.127   7.506 -0.8256  1.9145 -1.2542
 4411SOL    HW224870   0.143   0.182   7.526 -0.7567 -0.4485  0.2256
 4412SOL     OW24871   4.538   0.421   2.536 -0.8932  0.0370 -0.1879
 4412SOL    HW124872   4.557   0.375   2.617  2.9948  1.6856 -0.1688
 4412SOL    HW224873   4.474   0.357   2.504 -2.2736  0.1601  2.3664
 4413SOL     OW24874   3.101   0.940   1.522 -0.1482  0.3335 -0.2702
 4413SOL    HW124875   3.006   0.942   1.510 -0.1842  1.5850  0.1515
 4413SOL    HW224876   3.114   1.035   1.529 -1.0836  0.4384  0.0520
 4414SOL     OW24877   2.854   2.782   3.627  0.1377 -0.4062  0.1648
 4414SOL    HW124878   2.822   2.691   3.627 -0.0813 -0.3250  1.8609
 4414SOL    HW224879   2.924   2.784   3.692  0.6557  0.3139 -0.4125
 4415SOL     OW24880   2.402   1.074   2.994 -0.4883 -0.0016  0.7972
 4415SOL    HW124881   2.478   1.032   3.034 -1.4384 -0.6898  1.8732
 4415SOL    HW224882   2.352   1.011   2.944 -0.4866 -0.8006  1.8061
 4416SOL     OW24883   3.222   3.544   5.932 -0.3677 -0.0652 -0.3834
 4416SOL    HW124884   3.135   3.544   5.971  0.8530  0.7016  2.3837
 4416SOL    HW224885   3.219   3.457   5.894 -0.2350 -0.1416 -0.2213
 4417SOL     OW24886   0.533   0.316   8.704 -0.5597  0.1213 -0.0029
 4417SOL    HW124887   0.528   0.384   8.771  1.1586  0.8373 -0.6098
 4417SOL    HW224888   0.483   0.351   8.630  1.5061  1.4967 -0.7442
 4418SOL     OW24889   0.492   1.384   2.854 -0.5623 -0.0390  0.2919
 4418SOL    HW124890   0.426   1.419   2.915 -1.7880  0.0303 -1.0750
 4418SOL    HW224891   0.466   1.293   2.843 -1.2305  0.3727 -1.5400
 4419SOL     OW24892   2.987   0.560   2.721  0.0576 -0.5309 -0.4133
 4419SOL    HW124893   2.922   0.630   2.720 -1.2362 -1.7408 -0.6171
 4419SOL    HW224894   3.002   0.559   2.816  1.8015 -0.7945 -0.6870
 4420SOL     OW24895   0.570   4.499   8.000 -0.0015 -0.3582 -0.1365
 4420SOL    HW124896   0.573   4.439   8.074 -1.3555  0.2820  0.4458
 4420SOL    HW224897   0.570   4.583   8.045  0.9424 -0.5460  0.2025
 4421SOL     OW24898   3.454   1.934  11.933  0.1008 -0.0203  0.0699
 4421SOL    HW124899   3.389   1.926  11.863  1.3635 -1.3940 -0.9427
 4421SOL    HW224900   3.538   1.906  11.896 -1.2893 -2.5710 -1.1977
 4422SOL     OW24901   2.453   1.263   7.241  0.3328 -0.5338 -0.7400
 4422SOL    HW124902   2.525   1.299   7.189  0.5082  3.0914  2.0426
 4422SOL    HW224903   2.387   1.246   7.174  0.4731  0.3256 -1.1011
 4423SOL     OW24904   0.509   3.617   8.922  0.8222 -0.3332 -0.1990
 4423SOL    HW124905   0.515   3.596   8.829 -1.2673 -2.3131  0.1075
 4423SOL    HW224906   0.562   3.696   8.930 -1.2758  1.0893 -0.7027
 4424SOL     OW24907   2.621   0.771   2.547 -0.3811  0.0654 -0.2966
 4424SOL    HW124908   2.567   0.803   2.619  0.6916 -0.2227  0.6301
 4424SOL    HW224909   2.706   0.769   2.591 -1.4059  0.6772  1.6900
 4425SOL     OW24910   0.909   3.323   8.491  0.3888  0.6247 -0.0884
 4425SOL    HW124911   0.861   3.396   8.452  1.5672  0.5049 -1.7672
 4425SOL    HW224912   0.869   3.243   8.455 -2.8668  1.3786  1.8601
 4426SOL     OW24913   2.667   2.616   1.819  0.3079 -0.2256 -0.3401
 4426SOL    HW124914   2.663   2.639   1.726  1.8167 -1.2934 -0.6571
 4426SOL    HW224915   2.759   2.627   1.844 -0.0541  0.3761  0.7558
 4427SOL     OW24916   4.726   0.468   6.160  0.8549  0.2878  0.2189
 4427SOL    HW124917   0.049   0.403   6.127  0.0025 -1.7220  2.5303
 4427SOL    HW224918   0.028   0.551   6.138  0.7999  0.3550  0.3709
 4428SOL     OW24919   3.558   4.651   7.418  0.1363  0.6755  0.2478
 4428SOL    HW124920   3.489   4.714   7.399 -0.6809  0.3548  2.2529
 4428SOL    HW224921   3.559   4.608   7.332 -1.3655 -0.0371  0.5828
 4429SOL     OW24922   2.556   2.200   8.465  0.0299  0.2248 -0.6279
 4429SOL    HW124923   2.526   2.281   8.507  1.0728 -0.3313  1.2046
 4429SOL    HW224924   2.550   2.229   8.374 -3.2609 -2.6259 -1.2900
 4430SOL     OW24925   1.619   2.209   5.864  0.9338 -0.2897  0.6748
 4430SOL    HW124926   1.643   2.281   5.807  0.2954 -0.7625 -0.1857
 4430SOL    HW224927   1.697   2.167   5.902  2.2362  2.5146  1.0841
 4431SOL     OW24928   0.465   2.488  11.857 -0.1780  0.1097 -0.2840
 4431SOL    HW124929   0.411   2.563  11.833 -1.1289 -1.0513 -1.7605
 4431SOL    HW224930   0.414   2.456  11.932  0.7077 -1.3154 -0.2957
 4432SOL     OW24931   2.395   4.021   5.330  0.0020 -0.1672  0.4721
 4432SOL    HW124932   2.413   4.031   5.424 -1.6723 -1.2675  0.8887
 4432SOL    HW224933   2.347   4.103   5.318 -0.4855 -0.9600 -2.8951
 4433SOL     OW24934   2.753   1.153  14.046  0.0207 -0.4150 -0.2264
 4433SOL    HW124935   2.786   1.066  14.069  0.5126 -0.3392 -0.6420
 4433SOL    HW224936   2.682   1.158  14.110 -1.5497 -0.1150 -1.9647
 4434SOL     OW24937   0.645   1.565  13.437  0.2972 -0.3090  0.1552
 4434SOL    HW124938   0.650   1.562  13.342  1.9271 -2.1080  0.2802
 4434SOL    HW224939   0.552   1.545  13.450  0.3346  0.0390  0.9574
 4435SOL     OW24940   1.656   0.786  15.210  0.0645  0.6821 -0.3300
 4435SOL    HW124941   1.751   0.796  15.220  0.2115 -0.1064 -0.9533
 4435SOL    HW224942   1.626   0.801  15.300 -1.8256  0.5120 -0.9298
 4436SOL     OW24943   1.365   1.620  12.560  0.1988 -0.1273 -0.4128
 4436SOL    HW124944   1.409   1.602  12.476  1.4302  1.4552 -0.1128
 4436SOL    HW224945   1.310   1.541  12.558 -0.3610  0.2559  0.1517
 4437SOL     OW24946   0.927   4.441  13.197 -0.2791 -0.4356 -0.3547
 4437SOL    HW124947   0.905   4.525  13.157 -2.0699 -0.7161  0.0352
 4437SOL    HW224948   0.935   4.393  13.115 -1.2209 -3.2184  1.1862
 4438SOL     OW24949   4.616   4.573   6.716  0.4896  0.4074  0.3476
 4438SOL    HW124950   4.694   4.607   6.670 -0.8505  2.9715 -0.0174
 4438SOL    HW224951   4.654   4.494   6.753 -0.7234 -1.0976 -1.6007
 4439SOL     OW24952   0.125   2.139   1.137 -0.1211  0.5546  0.5987
 4439SOL    HW124953   0.146   2.086   1.214 -0.3440 -1.3314 -0.6191
 4439SOL    HW224954   0.210   2.165   1.103 -0.7023  1.1160 -0.4154
 4440SOL     OW24955   1.113   0.778  13.366 -0.2512  0.7871 -0.3357
 4440SOL    HW124956   1.081   0.824  13.288  0.2765  1.2438 -0.2795
 4440SOL    HW224957   1.205   0.767  13.342 -0.3816  1.4662 -1.1290
 4441SOL     OW24958   1.240   4.084  14.843  0.4095 -0.4736  0.5063
 4441SOL    HW124959   1.214   3.992  14.841 -0.7781 -0.1558  1.2606
 4441SOL    HW224960   1.202   4.116  14.925 -0.3472  1.4605 -0.5795
 4442SOL     OW24961   3.338   3.886   7.460 -0.4969  0.5932 -0.1294
 4442SOL    HW124962   3.413   3.928   7.417  1.9211 -2.5807  1.0290
 4442SOL    HW224963   3.324   3.807   7.409 -2.4183  0.9887 -0.2094
 4443SOL     OW24964   1.835   3.379   2.844 -0.0905 -0.3548  0.2989
 4443SOL    HW124965   1.914   3.390   2.897 -1.3645  0.3708  2.0716
 4443SOL    HW224966   1.847   3.299   2.793 -0.3120 -1.9195  2.6727
 4444SOL     OW24967   0.131   1.030   0.894 -0.1460  0.0731 -0.8749
 4444SOL    HW124968   0.047   1.056   0.934  0.9246  3.0560 -0.5664
 4444SOL    HW224969   0.105   1.006   0.805  1.5715 -5.1718  0.0498
 4445SOL     OW24970   4.537   3.001   5.180 -0.0429 -0.9560 -0.2788
 4445SOL    HW124971   4.522   3.093   5.200  0.1496 -0.7883 -0.8862
 4445SOL    HW224972   4.558   3.005   5.086 -3.2138  1.6355 -0.8788
 4446SOL     OW24973   1.675   0.507  16.425  0.1006 -0.0327 -0.0178
 4446SOL    HW124974   1.608   0.552  16.476 -0.4919  0.8394 -1.5464
 4446SOL    HW224975   1.665   0.563  16.348 -0.8342 -1.5110 -0.9845
 4447SOL     OW24976   1.563   1.568   5.373 -0.4025  0.0508 -0.3446
 4447SOL    HW124977   1.615   1.492   5.397 -1.8256 -0.0170  2.5327
 4447SOL    HW224978   1.485   1.528   5.335 -0.5279  1.8122 -1.9214
 4448SOL     OW24979   0.405   2.630   5.703  0.5871 -0.5525  0.1210
 4448SOL    HW124980   0.354   2.684   5.762  0.0423 -2.2313  1.1809
 4448SOL    HW224981   0.494   2.625   5.737  0.1463 -0.2374  1.3023
 4449SOL     OW24982   1.955   1.580   8.469 -0.3888  0.3467  0.1586
 4449SOL    HW124983   1.973   1.531   8.549 -0.4588 -0.3786 -0.2700
 4449SOL    HW224984   1.968   1.669   8.502 -2.4874  0.1296  1.5584
 4450SOL     OW24985   3.519   4.525   6.272  0.0753  0.0555  0.2536
 4450SOL    HW124986   3.459   4.497   6.341  0.6008 -2.5461 -0.3282
 4450SOL    HW224987   3.591   4.464   6.291  2.1918  1.5648 -3.0270
 4451SOL     OW24988   1.870   2.389   1.627 -0.0797  0.5155 -0.0554
 4451SOL    HW124989   1.778   2.390   1.654  0.5441  0.9979  2.0442
 4451SOL    HW224990   1.918   2.389   1.710 -0.3242  0.2269  0.0854
 4452SOL     OW24991   2.881   4.524   4.841  0.3719  0.1841  0.5382
 4452SOL    HW124992   2.948   4.592   4.849 -0.0545  1.0438 -3.1053
 4452SOL    HW224993   2.932   4.470   4.780 -0.9674 -1.4889  0.8894
 4453SOL     OW24994   0.938   4.321   3.172 -0.5531 -0.0000  0.2743
 4453SOL    HW124995   1.013   4.301   3.116 -1.4506 -0.2160 -0.8470
 4453SOL    HW224996   0.955   4.261   3.245 -1.7899 -1.0479 -0.3020
 4454SOL     OW24997   2.397   3.655   6.805  0.0106 -0.1386  0.1133
 4454SOL    HW124998   2.482   3.691   6.829 -0.1121  1.1948 -1.4993
 4454SOL    HW224999   2.339   3.702   6.865 -1.2381 -2.6567  0.8977
 4455SOL     OW25000   0.069   0.899  13.529  0.2724 -0.4121 -0.5444
 4455SOL    HW125001   0.066   0.816  13.481  0.2812 -0.1521 -0.9945
 4455SOL    HW225002   4.715   0.916  13.541  0.1225 -1.2782 -0.4989
 4456SOL     OW25003   3.192   0.503   0.889 -0.5214 -0.3818  0.4468
 4456SOL    HW125004   3.190   0.587   0.936  1.3480  1.1259 -2.2031
 4456SOL    HW225005   3.112   0.465   0.925 -0.3376  0.5916  1.8930
 4457SOL     OW25006   0.320   3.221   2.938 -0.7944  0.7702  0.0149
 4457SOL    HW125007   0.359   3.197   2.854  3.3845  0.1521  2.1650
 4457SOL    HW225008   0.258   3.290   2.913 -0.1551  1.2460 -0.2406
 4458SOL     OW25009   2.484   1.627  16.024  0.1121 -0.2050  0.5052
 4458SOL    HW125010   2.539   1.703  16.002  1.4755  0.2486  5.4820
 4458SOL    HW225011   2.542   1.596  16.094  0.9324  1.4449  0.5771
 4459SOL     OW25012   1.051   4.375   6.909 -0.5135 -0.1758  0.3143
 4459SOL    HW125013   0.965   4.371   6.868 -1.0201 -1.3175  1.4848
 4459SOL    HW225014   1.057   4.469   6.928  2.1135 -0.2740  0.0065
 4460SOL     OW25015   2.621   2.858   9.934 -0.2775 -0.1312  0.1051
 4460SOL    HW125016   2.688   2.906   9.981 -0.1492  1.5937 -1.8433
 4460SOL    HW225017   2.572   2.801   9.993  0.5844  0.1117  1.0498
 4461SOL     OW25018   1.937   3.522  10.783  0.3883 -0.2028  0.8269
 4461SOL    HW125019   1.886   3.488  10.710 -2.0072 -1.0571  2.8922
 4461SOL    HW225020   1.998   3.449  10.791 -1.1405 -1.5000  0.7171
 4462SOL     OW25021   1.591   2.417   1.666  0.4546  0.8289  0.1511
 4462SOL    HW125022   1.545   2.448   1.744  0.8578  0.9911  0.3237
 4462SOL    HW225023   1.512   2.381   1.625  0.3251  2.0676 -0.6669
 4463SOL     OW25024   2.109   3.837   6.545  0.3656 -0.0104  0.3901
 4463SOL    HW125025   2.094   3.769   6.611  2.4537 -1.2478 -0.3857
 4463SOL    HW225026   2.119   3.784   6.465  2.1533  0.7895  0.0933
 4464SOL     OW25027   0.856   2.255  17.691 -0.1583 -0.2532  0.1369
 4464SOL    HW125028   0.847   2.340  17.647  3.1270  1.2662  2.4084
 4464SOL    HW225029   0.931   2.215  17.647  0.8359  1.1672  0.5386
 4465SOL     OW25030   3.703   2.889   7.871 -0.0826  0.3180 -0.6365
 4465SOL    HW125031   3.796   2.869   7.864 -0.1100 -0.4144  1.1083
 4465SOL    HW225032   3.702   2.982   7.891 -0.3034  0.0662  0.5250
 4466SOL     OW25033   3.774   3.275  10.436 -0.2442 -0.1804 -0.1512
 4466SOL    HW125034   3.695   3.222  10.431  0.1052 -0.5318 -1.9187
 4466SOL    HW225035   3.811   3.264  10.349  1.2453 -2.1277  0.7436
 4467SOL     OW25036   0.499   0.928   8.839  0.6493  0.4246  0.6145
 4467SOL    HW125037   0.566   0.997   8.831 -1.4268  2.2218 -1.3400
 4467SOL    HW225038   0.559   0.861   8.872  1.0146 -0.0961 -1.1436
 4468SOL     OW25039   2.811   2.088   3.290  0.3069  0.6204  0.3273
 4468SOL    HW125040   2.733   2.042   3.259 -0.3709  0.5358  2.0968
 4468SOL    HW225041   2.784   2.106   3.381  0.0823 -1.6099  0.7115
 4469SOL     OW25042   3.544   3.702  13.783  0.4380 -0.0605 -0.1796
 4469SOL    HW125043   3.468   3.722  13.728  0.5068 -1.3704 -0.7607
 4469SOL    HW225044   3.503   3.648  13.851  0.1140 -2.9962 -2.6897
 4470SOL     OW25045   2.662   3.828   2.383  0.1581  0.2366  0.8822
 4470SOL    HW125046   2.629   3.738   2.379 -0.8033  0.6133  0.4703
 4470SOL    HW225047   2.681   3.837   2.290  1.1650  1.5314  1.2153
 4471SOL     OW25048   1.045   2.706   8.272  0.5553 -0.1230  0.3315
 4471SOL    HW125049   1.078   2.616   8.267  0.0331 -0.2683 -0.3951
 4471SOL    HW225050   1.101   2.752   8.209 -1.0663  2.1677  0.5558
 4472SOL     OW25051   2.542   3.984  10.558 -0.1087  0.6276  0.2750
 4472SOL    HW125052   2.560   4.029  10.641 -0.8978  2.8280 -0.7584
 4472SOL    HW225053   2.507   4.058  10.508  0.4442 -0.5604 -1.8478
 4473SOL     OW25054   4.491   2.453   7.189 -0.0884  0.1561  0.1322
 4473SOL    HW125055   4.563   2.490   7.137  0.3306 -2.0557 -0.8437
 4473SOL    HW225056   4.525   2.365   7.203  0.9236  0.3147 -1.2857
 4474SOL     OW25057   0.152   2.873   9.001 -0.2130 -0.3448  0.3413
 4474SOL    HW125058   0.216   2.899   9.067  0.4884 -0.5992 -0.2505
 4474SOL    HW225059   0.068   2.866   9.047  0.7518 -0.8084  2.0360
 4475SOL     OW25060   2.350   4.110   1.867  0.1564 -0.5112 -0.0461
 4475SOL    HW125061   2.286   4.053   1.908 -0.6603  2.2978  2.6024
 4475SOL    HW225062   2.306   4.194   1.856 -0.7655 -0.8406  1.2071
 4476SOL     OW25063   0.636   4.390   2.724  0.2110  0.2928 -0.2332
 4476SOL    HW125064   0.657   4.315   2.780 -1.4040  0.4911  0.6472
 4476SOL    HW225065   0.707   4.452   2.740 -0.5672  0.6508  1.7996
 4477SOL     OW25066   3.763   0.978   0.074 -0.0678  0.3691  0.1342
 4477SOL    HW125067   3.848   1.019   0.068 -1.0671  2.4148  0.0241
 4477SOL    HW225068   3.707   1.043   0.031  0.5660  1.0820  0.3990
 4478SOL     OW25069   0.032   3.027   3.478 -0.0425 -0.0723  0.3067
 4478SOL    HW125070   4.692   3.006   3.431  0.3273  0.0101 -0.3616
 4478SOL    HW225071   0.060   3.106   3.431 -1.0347  0.9967  1.5220
 4479SOL     OW25072   1.391   1.834  14.172  0.2830  0.2570 -0.4694
 4479SOL    HW125073   1.345   1.903  14.219 -0.9080  1.0022 -2.7335
 4479SOL    HW225074   1.318   1.795  14.124  1.3764 -1.7596 -0.4698
 4480SOL     OW25075   4.086   4.199   2.452 -0.0212  0.2665  0.1762
 4480SOL    HW125076   4.041   4.114   2.448  0.2831  0.0563  1.2728
 4480SOL    HW225077   4.159   4.188   2.390 -0.9969  1.2483 -1.1458
 4481SOL     OW25078   1.406   3.737   7.650 -0.4352  0.3751  0.2796
 4481SOL    HW125079   1.469   3.809   7.652 -0.3691  0.3624 -1.4555
 4481SOL    HW225080   1.348   3.765   7.580  0.3239 -1.1190 -0.9354
 4482SOL     OW25081   4.666   2.556   2.894  0.6169 -0.4729 -0.4191
 4482SOL    HW125082   4.656   2.538   2.801  2.5331  2.2335 -1.1520
 4482SOL    HW225083   4.599   2.495   2.925  0.0806 -1.0865 -2.7918
 4483SOL     OW25084   1.940   2.642  10.470  0.0868  0.0808  0.6836
 4483SOL    HW125085   1.845   2.645  10.476  0.1966 -1.0084  3.1409
 4483SOL    HW225086   1.961   2.642  10.377 -1.0068  1.5407  0.4423
 4484SOL     OW25087   2.495   2.300   2.984  0.4164  0.0911 -0.0718
 4484SOL    HW125088   2.503   2.216   2.940  0.0285 -1.0554  2.0115
 4484SOL    HW225089   2.471   2.352   2.908 -1.2942 -0.6014 -0.0092
 4485SOL     OW25090   0.730   3.908  15.666 -0.0683  0.6835 -0.2508
 4485SOL    HW125091   0.715   3.878  15.576  0.5426  0.9362 -0.4332
 4485SOL    HW225092   0.751   4.001  15.657  0.1661  0.7629  1.2287
 4486SOL     OW25093   0.368   2.105   8.954 -0.0871  0.1842  0.0868
 4486SOL    HW125094   0.410   2.159   9.021  0.4806 -0.6913  0.4378
 4486SOL    HW225095   0.450   2.067   8.920 -0.2270 -0.0915  0.0564
 4487SOL     OW25096   4.437   2.816   4.275 -0.4740  0.4104  0.0846
 4487SOL    HW125097   4.502   2.771   4.329 -0.7437 -1.7045 -1.3741
 4487SOL    HW225098   4.385   2.854   4.346  0.2598 -0.0187  0.8456
 4488SOL     OW25099   3.245   2.174   2.948  0.5729  0.0009 -0.0322
 4488SOL    HW125100   3.310   2.148   3.013 -1.3881 -1.6100  1.2552
 4488SOL    HW225101   3.187   2.229   3.000  0.9623  1.8186 -1.4878
 4489SOL     OW25102   1.947   0.263  17.513 -0.4244  0.1980 -0.1799
 4489SOL    HW125103   2.000   0.339  17.538 -1.6037  0.9206  0.1017
 4489SOL    HW225104   1.908   0.221  17.590 -2.9467  2.9866  0.0843
 4490SOL     OW25105   3.365   3.065   3.183 -0.4893  0.4113  0.5460
 4490SOL    HW125106   3.315   3.063   3.265 -1.8296  3.1141 -0.1982
 4490SOL    HW225107   3.332   3.144   3.140  0.1085  0.0125 -0.6362
 4491SOL     OW25108   1.264   2.646   6.993 -0.1069 -0.6359 -0.5152
 4491SOL    HW125109   1.245   2.716   7.056  0.8057 -0.7328 -0.1403
 4491SOL    HW225110   1.357   2.664   6.982 -0.0383 -2.0032 -2.1783
 4492SOL     OW25111   0.965   3.440  14.915 -0.1580  0.0784  0.0620
 4492SOL    HW125112   0.994   3.349  14.923 -1.2571 -0.2903 -0.1290
 4492SOL    HW225113   0.978   3.468  15.005  3.1493  0.3029 -0.4785
 4493SOL     OW25114   1.126   4.221   2.971  0.3062 -0.0555 -0.5107
 4493SOL    HW125115   1.214   4.257   2.959  0.2266 -0.7252 -3.2978
 4493SOL    HW225116   1.153   4.144   3.021 -0.6194 -1.3946 -2.0423
 4494SOL     OW25117   3.206   0.447   6.282  0.2104 -0.5344  0.0538
 4494SOL    HW125118   3.153   0.434   6.361  0.0615  0.6992  0.1503
 4494SOL    HW225119   3.189   0.368   6.231  1.4304 -0.3741 -0.6062
 4495SOL     OW25120   2.447   3.250  12.061  0.1356  0.2928  0.0878
 4495SOL    HW125121   2.400   3.332  12.046  2.2574  1.6416  0.8690
 4495SOL    HW225122   2.537   3.280  12.048  0.1492 -0.4494 -1.6346
 4496SOL     OW25123   1.289   3.216  10.087 -0.0460  0.5525 -0.6540
 4496SOL    HW125124   1.345   3.255  10.154  0.8504 -1.7126 -0.0779
 4496SOL    HW225125   1.308   3.271  10.011 -0.4093  2.6583  0.7821
 4497SOL     OW25126   1.157   1.695   4.998 -0.3411 -0.2643 -0.2332
 4497SOL    HW125127   1.140   1.601   4.992 -1.8897 -0.1377  1.9051
 4497SOL    HW225128   1.192   1.700   5.087 -0.7671  1.8984 -0.1815
 4498SOL     OW25129   0.416   2.959   2.316  0.3802 -0.2167 -0.0024
 4498SOL    HW125130   0.333   3.004   2.330  1.0403  0.8923  0.3568
 4498SOL    HW225131   0.448   3.008   2.240 -0.5700  1.8994  0.9495
 4499SOL     OW25132   2.456   4.211   1.155  0.5192  0.0598 -0.4999
 4499SOL    HW125133   2.425   4.170   1.236 -1.4466  0.2998 -1.1422
 4499SOL    HW225134   2.497   4.293   1.185 -2.4006  1.2100  0.3622
 4500SOL     OW25135   0.133   4.730   8.898  0.3605  0.2656 -0.2947
 4500SOL    HW125136   0.224   4.738   8.871  0.0160  0.8181 -1.3129
 4500SOL    HW225137   0.122   4.636   8.908 -0.3667  0.4193  0.4280
 4501SOL     OW25138   3.707   3.176   9.276  0.2689 -0.4132 -0.4728
 4501SOL    HW125139   3.778   3.189   9.339 -0.7900  2.1883  0.1962
 4501SOL    HW225140   3.710   3.084   9.249 -2.2330 -0.3961 -0.8107
 4502SOL     OW25141   3.594   2.410   6.954 -0.2338  0.1371 -0.3803
 4502SOL    HW125142   3.624   2.320   6.967 -1.4840 -0.3029 -0.5854
 4502SOL    HW225143   3.658   2.438   6.889 -1.1350  2.6595 -0.1921
 4503SOL     OW25144   0.173   0.228  15.262  0.2532  0.1638 -0.4082
 4503SOL    HW125145   0.163   0.270  15.347 -0.3878 -0.0483 -0.3736
 4503SOL    HW225146   0.113   0.274  15.203 -2.0730  0.1667  1.9261
 4504SOL     OW25147   0.060   2.646   2.208  0.3123 -0.2706  0.0199
 4504SOL    HW125148   0.020   2.709   2.148 -1.5476 -0.2849  1.2270
 4504SOL    HW225149   0.096   2.714   2.265  2.2378 -1.0252 -0.3010
 4505SOL     OW25150   0.588   4.393   7.758 -0.9811 -0.2763  0.3533
 4505SOL    HW125151   0.581   4.444   7.839  0.6428  1.3364 -0.5490
 4505SOL    HW225152   0.683   4.383   7.765 -1.0765  0.7501  3.3568
 4506SOL     OW25153   3.246   2.449  15.357  0.2995  0.1483  0.2699
 4506SOL    HW125154   3.176   2.426  15.296  0.6367  1.3880 -0.5711
 4506SOL    HW225155   3.218   2.392  15.429  0.9066  1.7215  1.7506
 4507SOL     OW25156   0.871   1.624   5.416 -0.1443  0.0943  0.0579
 4507SOL    HW125157   0.948   1.567   5.417 -1.4259 -1.5833  2.6759
 4507SOL    HW225158   0.796   1.565   5.417  0.2058 -0.3532 -0.4538
 4508SOL     OW25159   4.690   2.645  15.206  0.3720  0.4024  0.4218
 4508SOL    HW125160   4.694   2.691  15.290  0.0219 -0.9571  1.1759
 4508SOL    HW225161   4.614   2.595  15.233 -0.0592  1.1701  0.6226
 4509SOL     OW25162   2.301   1.002  10.269  0.7312 -0.1241  0.5484
 4509SOL    HW125163   2.270   1.056  10.342 -0.1353  0.1249 -0.0004
 4509SOL    HW225164   2.320   0.911  10.293  1.7675 -0.1637 -0.4303
 4510SOL     OW25165   0.579   1.420   2.074  0.4814 -0.0803 -0.4915
 4510SOL    HW125166   0.558   1.376   2.157 -1.6297  1.8729  0.0187
 4510SOL    HW225167   0.674   1.422   2.064  0.3918  0.0773 -1.2570
 4511SOL     OW25168   1.570   2.565   7.052  0.2167 -0.6890 -0.2370
 4511SOL    HW125169   1.610   2.556   7.139  1.3254  0.9477 -0.5677
 4511SOL    HW225170   1.630   2.632   7.020 -1.2495  0.1874 -1.1616
 4512SOL     OW25171   4.293   4.243   3.834  0.5688  0.3172 -0.2922
 4512SOL    HW125172   4.295   4.337   3.817 -2.6707  1.0447  3.2234
 4512SOL    HW225173   4.355   4.231   3.907  0.2842 -0.7994 -0.2370
 4513SOL     OW25174   4.165   3.928   5.141 -0.4376 -0.6515  0.1632
 4513SOL    HW125175   4.200   3.988   5.208  0.3781  1.5994 -2.2913
 4513SOL    HW225176   4.135   3.852   5.191  0.6703 -0.8301  0.5735
 4514SOL     OW25177   2.940   4.703   4.467  0.0597  0.4205  0.6263
 4514SOL    HW125178   2.939   0.054   4.437  0.3047  0.9302  2.1242
 4514SOL    HW225179   2.845   4.688   4.471 -0.0174  0.7213 -0.1460
 4515SOL     OW25180   1.789   2.683   7.491 -0.4559  0.1461 -0.0457
 4515SOL    HW125181   1.878   2.649   7.495 -0.2041  0.8501  0.4830
 4515SOL    HW225182   1.790   2.777   7.473  1.0424  0.2777  0.6749
 4516SOL     OW25183   1.482   4.678   6.297 -0.0452 -0.4516  0.7185
 4516SOL    HW125184   1.442   4.592   6.307  1.4865 -1.0357  1.7890
 4516SOL    HW225185   1.527   4.676   6.381  3.0142  0.3806 -0.8848
 4517SOL     OW25186   4.427   0.655   6.049  0.1889  0.2902  0.1054
 4517SOL    HW125187   4.345   0.607   6.062 -0.6649  2.1855  1.8475
 4517SOL    HW225188   4.448   0.668   6.142  1.3523  0.0393 -0.1326
 4518SOL     OW25189   2.005   0.868   9.180  0.3454 -0.0863 -0.3193
 4518SOL    HW125190   2.070   0.798   9.190 -0.5226 -0.7337  0.7582
 4518SOL    HW225191   1.931   0.812   9.159  1.5101 -0.8453 -2.3818
 4519SOL     OW25192   1.669   0.014   7.292  0.0015  0.5570  0.2572
 4519SOL    HW125193   1.720   0.035   7.371 -0.5967 -0.6065  0.9568
 4519SOL    HW225194   1.732   4.714   7.233  0.0827  0.7262  0.2306
 4520SOL     OW25195   4.262   3.591   9.506 -0.0337 -0.8291 -0.4096
 4520SOL    HW125196   4.233   3.667   9.556 -3.1299 -1.2431 -1.6116
 4520SOL    HW225197   4.271   3.628   9.419 -1.9919  1.1144  0.2310
 4521SOL     OW25198   2.717   3.937  11.267 -0.0348 -0.8543 -0.3909
 4521SOL    HW125199   2.694   4.028  11.287  1.7254 -0.7082  0.9480
 4521SOL    HW225200   2.672   3.930  11.182  0.9139 -0.8549 -0.8979
 4522SOL     OW25201   3.647   2.262   2.535 -0.0382 -0.1990  0.4207
 4522SOL    HW125202   3.683   2.281   2.448 -1.7054  0.8330 -0.0247
 4522SOL    HW225203   3.718   2.230   2.591 -0.5221  0.0229  1.1473
 4523SOL     OW25204   3.773   4.180  12.202  0.1317  0.3407  0.8289
 4523SOL    HW125205   3.688   4.201  12.240 -0.3840 -1.2376  0.5748
 4523SOL    HW225206   3.820   4.170  12.285  1.4698  1.7257  0.2352
 4524SOL     OW25207   2.609   1.646   4.758 -0.1239  0.0859 -0.2938
 4524SOL    HW125208   2.525   1.685   4.735 -0.4354 -1.2299 -1.3480
 4524SOL    HW225209   2.660   1.650   4.677 -0.9014  1.2355 -0.7404
 4525SOL     OW25210   3.467   3.263   6.295  0.3103 -0.4732  0.1989
 4525SOL    HW125211   3.458   3.351   6.259  0.5014  0.3055  2.0954
 4525SOL    HW225212   3.480   3.278   6.388 -0.5579 -0.3359  0.3010
 4526SOL     OW25213   1.396   3.564   4.012  0.4347 -0.5079  0.1643
 4526SOL    HW125214   1.419   3.589   4.101 -0.8186 -0.0088  0.3583
 4526SOL    HW225215   1.363   3.651   3.988 -1.1848 -1.2636 -0.3809
 4527SOL     OW25216   2.185   0.077  12.708  0.1345  0.0781 -0.2439
 4527SOL    HW125217   2.213   0.009  12.769  1.4234  0.7783 -0.0532
 4527SOL    HW225218   2.152   0.137  12.775 -2.1133  1.0280 -2.2151
 4528SOL     OW25219   1.978   4.287   8.899  0.5193 -0.0665 -0.6949
 4528SOL    HW125220   1.908   4.222   8.903  0.7648 -0.1981  1.4491
 4528SOL    HW225221   1.932   4.363   8.863 -0.7094 -1.5293 -2.1993
 4529SOL     OW25222   2.150   2.305   2.315 -0.0866 -0.7294 -0.1045
 4529SOL    HW125223   2.063   2.335   2.287  0.1024 -0.9467 -0.9084
 4529SOL    HW225224   2.113   2.226   2.352  0.9528 -1.5959 -0.9234
 4530SOL     OW25225   4.475   1.285  11.688  0.1183  0.5865  0.3099
 4530SOL    HW125226   4.540   1.348  11.717  0.0159  1.5438 -1.5081
 4530SOL    HW225227   4.525   1.206  11.665 -0.7446 -0.4562  2.0124
 4531SOL     OW25228   3.914   3.623   8.117 -0.5833  0.0833  0.1039
 4531SOL    HW125229   3.847   3.652   8.180 -4.4397  0.4993 -4.1710
 4531SOL    HW225230   3.969   3.701   8.121 -1.5714  0.7795  0.2175
 4532SOL     OW25231   3.961   4.533   1.151 -0.0627  0.2977  0.6921
 4532SOL    HW125232   3.953   4.628   1.152  0.9865  0.3816  1.0442
 4532SOL    HW225233   3.881   4.507   1.104  0.9540 -3.2485  0.9645
 4533SOL     OW25234   4.726   1.666  17.489  0.3059 -0.8808 -1.0315
 4533SOL    HW125235   0.013   1.687  17.578 -0.5734  0.6315 -1.1299
 4533SOL    HW225236   4.639   1.704  17.477  0.7954  1.4999  3.0024
 4534SOL     OW25237   2.573   3.500   6.368 -0.5412 -0.1003 -0.0137
 4534SOL    HW125238   2.531   3.508   6.453 -0.7799 -0.9308 -0.0522
 4534SOL    HW225239   2.499   3.528   6.314 -0.8415 -0.4015  0.2432
 4535SOL     OW25240   2.988   3.701   0.638 -0.2325  0.8557  0.3578
 4535SOL    HW125241   2.961   3.646   0.711 -1.9535  0.5085 -0.5402
 4535SOL    HW225242   3.082   3.710   0.653 -0.0426 -0.6548  0.0120
 4536SOL     OW25243   1.151   4.477   4.648 -0.5990 -0.0476  0.3213
 4536SOL    HW125244   1.070   4.526   4.632 -1.4730 -1.4421  0.4588
 4536SOL    HW225245   1.122   4.427   4.724  2.0968  1.3383  2.2762
 4537SOL     OW25246   1.816   0.782   8.261 -0.3413  0.3566  0.3342
 4537SOL    HW125247   1.815   0.788   8.356  0.5893 -1.7802  0.4854
 4537SOL    HW225248   1.764   0.702   8.260  0.5116 -0.1733 -0.7170
 4538SOL     OW25249   3.152   2.195   3.535 -0.1897  0.1241  0.0550
 4538SOL    HW125250   3.224   2.131   3.529 -0.0803  0.2292  0.2608
 4538SOL    HW225251   3.091   2.121   3.529  0.3157 -0.2118 -1.0319
 4539SOL     OW25252   3.071   3.213   6.846  0.1637 -0.3083  0.1650
 4539SOL    HW125253   3.143   3.257   6.801 -0.3273 -1.4260 -1.7227
 4539SOL    HW225254   3.061   3.276   6.917  0.4506  0.0622 -0.1273
 4540SOL     OW25255   0.575   1.789   7.263 -1.0795  0.1369 -0.3586
 4540SOL    HW125256   0.511   1.718   7.264 -1.9082  0.8997  0.5228
 4540SOL    HW225257   0.659   1.749   7.242  0.5267  2.3501  1.7746
 4541SOL     OW25258   3.538   0.492   1.824  0.3776  0.3010 -0.3479
 4541SOL    HW125259   3.534   0.557   1.754  3.7495  0.2324 -0.5928
 4541SOL    HW225260   3.521   0.549   1.899 -0.2035  1.4118 -1.3146
 4542SOL     OW25261   0.193   3.210  10.961 -0.1442  0.6137 -0.2373
 4542SOL    HW125262   0.110   3.253  10.942  0.4227  1.2237 -1.3042
 4542SOL    HW225263   0.247   3.289  10.967  0.0486  0.3008  2.2544
 4543SOL     OW25264   1.609   1.577   0.907  0.3023 -0.3504 -0.1634
 4543SOL    HW125265   1.650   1.545   0.827  0.7111  1.3687 -0.6361
 4543SOL    HW225266   1.527   1.613   0.873  0.2560 -0.8217 -0.5412
 4544SOL     OW25267   2.323   2.980   5.767 -0.1006 -0.1859 -0.1078
 4544SOL    HW125268   2.229   2.996   5.771 -0.2469 -0.5983 -1.7801
 4544SOL    HW225269   2.351   3.019   5.850  0.8866 -2.1598  0.4903
 4545SOL     OW25270   1.173   1.448   7.065  0.4071 -0.2865  0.2246
 4545SOL    HW125271   1.210   1.518   7.119  1.0997 -0.9391  0.6008
 4545SOL    HW225272   1.153   1.503   6.989  1.5281 -0.9858 -0.5840
 4546SOL     OW25273   0.152   4.565  13.002 -1.2248 -0.3763  0.2006
 4546SOL    HW125274   0.206   4.490  13.026  1.9921  1.7041 -0.5857
 4546SOL    HW225275   0.197   4.631  13.054  0.9430 -0.6189 -1.3843
 4547SOL     OW25276   1.090   3.745   1.571 -0.1020 -0.2517 -0.0316
 4547SOL    HW125277   1.083   3.783   1.659 -0.9628  1.9704 -1.0607
 4547SOL    HW225278   0.998   3.753   1.545  0.1484  1.0591 -0.4665
 4548SOL     OW25279   0.023   0.464  12.612  0.3233  0.0255 -0.0530
 4548SOL    HW125280   4.719   0.546  12.635  2.7959  0.8448  1.7661
 4548SOL    HW225281   4.691   0.406  12.637  0.7853  0.5357  2.4824
 4549SOL     OW25282   1.594   2.829   1.575 -0.4850 -0.7116 -1.0135
 4549SOL    HW125283   1.606   2.891   1.503 -1.1550 -0.6520 -1.0791
 4549SOL    HW225284   1.584   2.752   1.520 -1.1666  0.5813 -2.6975
 4550SOL     OW25285   4.626   4.693  15.254  0.4760 -0.3808  0.1701
 4550SOL    HW125286   4.536   4.663  15.267 -0.3858  0.7229 -3.1457
 4550SOL    HW225287   4.641   0.008  15.331 -1.6033 -0.2884  0.5110
 4551SOL     OW25288   2.729   4.443   2.153  0.1409  0.2381 -0.6618
 4551SOL    HW125289   2.668   4.516   2.146 -3.3223 -2.6927 -1.1713
 4551SOL    HW225290   2.777   4.452   2.236 -0.0522 -0.6604 -0.4547
 4552SOL     OW25291   3.109   4.534   6.096  0.2070  0.2918  0.3441
 4552SOL    HW125292   3.028   4.585   6.099  0.8983  1.3884  0.6700
 4552SOL    HW225293   3.067   4.453   6.126  2.4094 -1.0632 -0.2714
 4553SOL     OW25294   3.671   3.431  14.771  0.3943 -0.4011  0.0711
 4553SOL    HW125295   3.747   3.457  14.823  0.1813 -0.8204  0.5970
 4553SOL    HW225296   3.718   3.439  14.688 -0.7147  1.4652 -0.3806
 4554SOL     OW25297   1.334   1.858  12.387  0.5133 -0.0079 -0.1435
 4554SOL    HW125298   1.371   1.771  12.374 -0.1628 -0.5026  1.2512
 4554SOL    HW225299   1.393   1.877  12.460  0.2223 -0.4734  0.2144
 4555SOL     OW25300   4.690   0.230   6.594 -0.5522  0.0708  0.0915
 4555SOL    HW125301   4.717   0.290   6.526 -0.9644 -2.2857 -2.1557
 4555SOL    HW225302   4.693   0.290   6.669 -1.6225  0.8846 -0.5130
 4556SOL     OW25303   2.327   0.457   2.444  0.0672  0.3933  0.4452
 4556SOL    HW125304   2.383   0.403   2.390 -2.6406 -0.8398 -1.1562
 4556SOL    HW225305   2.359   0.542   2.412 -2.4955  0.2879 -2.4922
 4557SOL     OW25306   1.473   3.165   8.011 -0.0052  0.1008  0.0743
 4557SOL    HW125307   1.430   3.122   8.085  2.0511 -0.2212  1.0892
 4557SOL    HW225308   1.405   3.230   7.997 -0.9865 -0.2255  3.2147
 4558SOL     OW25309   3.690   2.502   4.311 -0.0002  0.5243 -0.1901
 4558SOL    HW125310   3.741   2.520   4.391  3.7053 -1.0632 -2.1955
 4558SOL    HW225311   3.762   2.490   4.249  0.2359 -0.1534  0.2183
 4559SOL     OW25312   2.712   3.253   5.356 -0.0925  0.2058  0.5965
 4559SOL    HW125313   2.634   3.274   5.406 -0.6379 -1.2136  0.3489
 4559SOL    HW225314   2.675   3.242   5.268  3.6930 -0.4744 -0.9132
 4560SOL     OW25315   2.227   3.584  13.305  0.5178 -0.0758  0.5063
 4560SOL    HW125316   2.144   3.548  13.337  0.9061 -1.5107 -0.0964
 4560SOL    HW225317   2.234   3.666  13.354 -1.5217 -0.1822  0.9825
 4561SOL     OW25318   4.658   1.928   0.237  0.1358  0.7029  0.0974
 4561SOL    HW125319   4.668   2.020   0.261 -3.1956  1.2733 -0.6639
 4561SOL    HW225320   4.643   1.889   0.323  2.1141 -0.7869 -0.2226
 4562SOL     OW25321   0.133   1.646   8.980  0.2963 -0.1741 -0.5082
 4562SOL    HW125322   0.100   1.685   8.899 -1.3243  3.2588  1.8332
 4562SOL    HW225323   0.099   1.557   8.969 -2.1102  0.8335 -1.0636
 4563SOL     OW25324   1.011   1.675   6.511 -0.1202  0.1360  0.4437
 4563SOL    HW125325   1.075   1.682   6.581  0.4989 -0.5888 -0.0512
 4563SOL    HW225326   0.942   1.635   6.565 -0.6172 -1.3241 -1.2806
 4564SOL     OW25327   1.977   2.591   1.500 -0.1155 -0.4465  0.0237
 4564SOL    HW125328   2.030   2.521   1.462  0.3215 -0.8434  1.3250
 4564SOL    HW225329   1.918   2.532   1.546 -0.2252 -0.2507  0.1345
 4565SOL     OW25330   1.107   2.572  16.364  0.1085 -0.0435  0.0345
 4565SOL    HW125331   1.050   2.525  16.426 -0.4902 -0.2584 -0.6779
 4565SOL    HW225332   1.161   2.497  16.340  1.4791  0.5100  1.3764
 4566SOL     OW25333   3.231   1.823   5.668 -0.4953 -0.0111  0.4570
 4566SOL    HW125334   3.312   1.776   5.684  0.5956  1.6386 -0.1820
 4566SOL    HW225335   3.268   1.909   5.649 -0.7758 -0.1321 -0.6015
 4567SOL     OW25336   1.952   1.064   6.910  0.2935  0.1922 -0.2700
 4567SOL    HW125337   1.924   1.034   6.997  0.0567 -1.5213 -0.9320
 4567SOL    HW225338   1.917   1.152   6.902 -1.5884 -0.0667  4.8699
 4568SOL     OW25339   1.686   0.980   3.853 -0.1083 -0.1545 -0.1465
 4568SOL    HW125340   1.672   0.924   3.930  0.4925  0.4598  0.4175
 4568SOL    HW225341   1.594   0.983   3.825 -0.9060  0.6719  2.4908
 4569SOL     OW25342   4.618   1.109   7.511 -0.4910  0.7990  0.7415
 4569SOL    HW125343   4.689   1.047   7.525  1.4122  3.0210  0.9202
 4569SOL    HW225344   4.568   1.107   7.592 -1.2832 -0.3416  0.2262
 4570SOL     OW25345   1.038   0.749  14.812 -0.0765  0.0202 -0.2310
 4570SOL    HW125346   0.982   0.673  14.797  1.8263 -1.2609 -0.8902
 4570SOL    HW225347   1.113   0.726  14.866 -0.9474 -0.4370  0.7648
 4571SOL     OW25348   2.939   0.836   6.956 -0.5976  0.3442  0.2346
 4571SOL    HW125349   2.978   0.878   6.879  0.3045 -0.6158  0.1695
 4571SOL    HW225350   2.920   0.749   6.922  1.3384 -0.4902  1.3191
 4572SOL     OW25351   4.571   0.528  12.955  0.1273 -0.1055 -0.4678
 4572SOL    HW125352   4.597   0.445  12.915  0.8495 -0.5343  0.8829
 4572SOL    HW225353   4.484   0.503  12.986  0.0105  2.0044  0.9678
 4573SOL     OW25354   4.401   2.759   7.914  0.6947 -0.1163 -0.0707
 4573SOL    HW125355   4.432   2.675   7.880 -0.2755 -1.0441  1.3645
 4573SOL    HW225356   4.315   2.782   7.878  0.9601  0.3726 -0.4046
 4574SOL     OW25357   0.583   4.333   2.457  0.2350  0.0079  0.1040
 4574SOL    HW125358   0.640   4.257   2.448  0.6886  0.5439 -1.4002
 4574SOL    HW225359   0.577   4.349   2.552  2.5463  4.0717 -0.4076
 4575SOL     OW25360   0.156   2.226   7.314 -0.1970 -0.3277  0.0654
 4575SOL    HW125361   0.080   2.259   7.266 -1.6978 -3.5613  0.1946
 4575SOL    HW225362   0.221   2.294   7.295  0.0380 -0.4055  0.5903
 4576SOL     OW25363   0.810   1.125   9.233  0.3176 -0.5880 -0.8150
 4576SOL    HW125364   0.842   1.194   9.174 -1.1436  0.3881 -0.4614
 4576SOL    HW225365   0.798   1.166   9.318  2.6864 -0.5175 -0.5094
 4577SOL     OW25366   2.702   0.440   5.455  0.1510  0.0796  0.2174
 4577SOL    HW125367   2.757   0.480   5.523  1.6093 -1.0036 -0.3232
 4577SOL    HW225368   2.736   0.485   5.378  2.1158 -1.2980  0.2722
 4578SOL     OW25369   2.752   2.685   6.227  0.3593 -0.3870 -0.3441
 4578SOL    HW125370   2.829   2.705   6.174  0.4838 -0.8825 -0.3455
 4578SOL    HW225371   2.792   2.642   6.303 -2.8170 -1.9899  0.4162
 4579SOL     OW25372   3.744   4.684  17.640 -0.0764  0.0674 -0.2269
 4579SOL    HW125373   3.653   4.709  17.651  0.0320  0.1286  0.5476
 4579SOL    HW225374   3.728   4.596  17.676  0.0461  0.0166 -0.2948
 4580SOL     OW25375   2.569   1.630  15.028 -0.2093 -0.0999  0.8931
 4580SOL    HW125376   2.652   1.645  14.982 -0.7986  0.7867  0.1071
 4580SOL    HW225377   2.514   1.602  14.956  0.5284 -1.1649  0.7508
 4581SOL     OW25378   3.300   3.838   8.837  0.3000 -0.3500 -0.0095
 4581SOL    HW125379   3.230   3.774   8.828 -0.2347 -0.0482  2.0923
 4581SOL    HW225380   3.360   3.780   8.885  2.1533 -1.4084 -3.5205
 4582SOL     OW25381   3.121   4.013  14.567 -0.0532 -0.7481 -0.0627
 4582SOL    HW125382   3.065   3.969  14.504 -0.8424 -0.3612  0.3780
 4582SOL    HW225383   3.059   4.074  14.606  1.1759 -0.6220  1.7345
 4583SOL     OW25384   4.466   0.906   6.619 -0.0653 -0.6750  0.2324
 4583SOL    HW125385   4.398   0.960   6.579  1.5869  0.8025 -0.5825
 4583SOL    HW225386   4.535   0.970   6.631 -1.7093  1.0202  0.6338
 4584SOL     OW25387   1.040   1.912  12.471 -0.2594 -0.2194  0.4637
 4584SOL    HW125388   1.128   1.895  12.439 -1.9647 -4.2999 -2.0891
 4584SOL    HW225389   1.065   1.895  12.561  2.8854 -0.2342 -0.4044
 4585SOL     OW25390   0.487   3.306  11.677  0.1415 -0.0676  0.7894
 4585SOL    HW125391   0.560   3.296  11.616 -0.0321  0.2550  0.5311
 4585SOL    HW225392   0.538   3.331  11.754  0.5770  2.7031 -0.4190
 4586SOL     OW25393   0.228   0.510   6.578 -0.3061  0.1262 -0.0840
 4586SOL    HW125394   0.135   0.500   6.601 -0.2014  1.5013  0.9330
 4586SOL    HW225395   0.236   0.547   6.490  1.0792  1.5439  0.6316
 4587SOL     OW25396   0.096   1.212   5.785  0.5209  0.0210  0.4990
 4587SOL    HW125397   0.093   1.234   5.691  1.0093 -1.0769  0.2275
 4587SOL    HW225398   0.017   1.263   5.803  0.5893 -0.1992  1.4184
 4588SOL     OW25399   1.744   3.599   5.869  0.0806  0.3678 -0.1024
 4588SOL    HW125400   1.680   3.626   5.803  0.8062  5.7004  1.4579
 4588SOL    HW225401   1.683   3.545   5.919  0.2246 -0.3199 -0.6630
 4589SOL     OW25402   0.967   3.872  15.097 -0.0211  0.1837  0.5906
 4589SOL    HW125403   1.035   3.855  15.032 -0.5356  0.5725 -0.0580
 4589SOL    HW225404   0.999   3.818  15.168 -1.1571  1.6694  2.2258
 4590SOL     OW25405   3.280   3.545   5.597  0.1109 -0.0532  0.5065
 4590SOL    HW125406   3.240   3.467   5.636 -1.6099  0.3654 -0.4118
 4590SOL    HW225407   3.277   3.520   5.505 -0.9395  2.7626 -0.1993
 4591SOL     OW25408   2.800   1.157   4.832 -0.2191  0.1961 -0.2172
 4591SOL    HW125409   2.749   1.080   4.807  0.2040 -1.0822  2.8580
 4591SOL    HW225410   2.845   1.165   4.748  0.7903  0.0671  0.3176
 4592SOL     OW25411   2.599   2.018   3.746 -0.5377 -0.2970 -0.5649
 4592SOL    HW125412   2.554   2.088   3.793 -2.4539 -2.0084  0.1338
 4592SOL    HW225413   2.529   1.953   3.751 -0.1282 -0.6931 -0.0164
 4593SOL     OW25414   0.648   1.756   6.672  0.1959 -0.3450  0.6334
 4593SOL    HW125415   0.556   1.784   6.665 -0.4798 -2.7206  0.0648
 4593SOL    HW225416   0.638   1.674   6.721  0.4965 -0.8374 -0.1379
 4594SOL     OW25417   3.777   3.550   1.714 -0.0054  0.0406 -0.2099
 4594SOL    HW125418   3.825   3.619   1.761  1.7167 -0.2961 -1.5115
 4594SOL    HW225419   3.831   3.536   1.637  2.6102 -1.9634  2.0213
 4595SOL     OW25420   3.185   1.584   2.126  0.1472  0.0926  0.0506
 4595SOL    HW125421   3.239   1.562   2.202 -0.5979  0.5353  0.7133
 4595SOL    HW225422   3.234   1.658   2.090  1.4420  0.0414  1.6952
 4596SOL     OW25423   2.176   4.456  16.407  0.9211 -0.1549 -0.5045
 4596SOL    HW125424   2.263   4.464  16.368  0.6527 -2.3089 -1.5330
 4596SOL    HW225425   2.127   4.520  16.355  2.0960  0.1413 -1.2502
 4597SOL     OW25426   0.569   2.974   4.848  0.2206  0.0843 -0.3125
 4597SOL    HW125427   0.636   2.970   4.915  0.5042 -0.6097 -0.6420
 4597SOL    HW225428   0.526   2.889   4.847 -0.9953  0.6978 -0.4738
 4598SOL     OW25429   4.192   0.924   4.810 -0.3247  0.3693  0.0293
 4598SOL    HW125430   4.274   0.930   4.859  0.0680  1.2658 -0.7445
 4598SOL    HW225431   4.165   0.832   4.816  2.0722 -0.3522 -0.1585
 4599SOL     OW25432   2.534   1.419   5.625  0.3051 -0.0192  0.5047
 4599SOL    HW125433   2.572   1.502   5.651  1.3757 -0.0495 -0.9705
 4599SOL    HW225434   2.504   1.431   5.534  0.9543  0.3129  0.3391
 4600SOL     OW25435   3.331   0.394   2.083  0.7200 -0.1876 -0.0709
 4600SOL    HW125436   3.292   0.467   2.035  1.7885 -1.1326 -2.3736
 4600SOL    HW225437   3.362   0.429   2.166 -1.9939 -0.7710  1.2071
 4601SOL     OW25438   3.769   3.973  10.845  0.3747  0.1637  0.0674
 4601SOL    HW125439   3.733   4.054  10.811  1.8980 -0.8245 -3.9215
 4601SOL    HW225440   3.752   3.971  10.939 -2.3326 -1.7458 -0.4408
 4602SOL     OW25441   0.616   3.397   1.727  0.4473 -0.0494 -0.0956
 4602SOL    HW125442   0.620   3.329   1.660  0.6180  0.4964 -0.6440
 4602SOL    HW225443   0.521   3.396   1.738  0.5520  1.2196  1.0003
 4603SOL     OW25444   0.132   2.925   4.636  0.6056 -0.4159  0.2793
 4603SOL    HW125445   0.219   2.951   4.608  1.1015  0.2455  2.4343
 4603SOL    HW225446   0.141   2.904   4.729 -1.0243  0.1827  0.5841
 4604SOL     OW25447   0.320   0.255   7.454 -0.0919  0.2208  0.2436
 4604SOL    HW125448   0.388   0.256   7.521  1.9390  1.4094 -1.8358
 4604SOL    HW225449   0.366   0.280   7.374 -1.6436  2.4889  0.0586
 4605SOL     OW25450   0.969   0.137   6.788  0.1141  0.3169 -0.6795
 4605SOL    HW125451   1.046   0.191   6.768  2.2289 -2.4664 -0.1527
 4605SOL    HW225452   0.914   0.164   6.715 -1.0293 -0.3842 -0.0769
 4606SOL     OW25453   3.670   0.708   8.477 -0.2869  0.4348 -0.3563
 4606SOL    HW125454   3.740   0.725   8.540  0.3433 -1.6251 -0.4939
 4606SOL    HW225455   3.592   0.742   8.519 -0.9530 -2.9648  1.1430
 4607SOL     OW25456   3.312   3.501  17.233  0.1066  0.1764  0.3976
 4607SOL    HW125457   3.271   3.563  17.293 -1.1352 -1.3928  1.1608
 4607SOL    HW225458   3.378   3.458  17.288  1.2482 -0.4044 -1.4226
 4608SOL     OW25459   2.335   2.704  11.847 -0.0166 -0.2156 -0.3290
 4608SOL    HW125460   2.326   2.650  11.925 -0.7674  0.7739  0.2548
 4608SOL    HW225461   2.381   2.638  11.795 -2.0883 -2.2521  0.4528
 4609SOL     OW25462   0.541   0.410   2.829 -0.1286  0.5407  0.2041
 4609SOL    HW125463   0.531   0.327   2.875  0.4168  0.3407 -0.0364
 4609SOL    HW225464   0.464   0.461   2.854  0.0117 -0.5311  2.7705
 4610SOL     OW25465   0.708   3.987   0.905 -0.4103 -0.3744  0.5567
 4610SOL    HW125466   0.650   4.029   0.969 -2.4883 -0.2215 -1.4374
 4610SOL    HW225467   0.790   3.985   0.954 -0.0642  1.9384  0.0566
 4611SOL     OW25468   4.586   3.106   4.246  0.6570 -0.0715 -0.3951
 4611SOL    HW125469   4.551   3.179   4.297 -1.8441 -1.4159 -0.1919
 4611SOL    HW225470   4.535   3.033   4.282  2.0534 -0.7819  0.1540
 4612SOL     OW25471   4.724   4.635  11.981 -0.4686  0.0830 -0.2630
 4612SOL    HW125472   4.711   4.618  12.074  0.5332  2.8908  0.3995
 4612SOL    HW225473   4.654   4.698  11.964 -0.8688 -1.1131 -3.0360
 4613SOL     OW25474   4.633   2.937   6.675  0.2295  0.5493 -0.4709
 4613SOL    HW125475   4.635   2.908   6.766 -1.3697  0.5192 -0.4366
 4613SOL    HW225476   4.727   2.955   6.672 -0.0524  2.2558  0.6638
 4614SOL     OW25477   0.653   1.836   5.373  0.0927  0.2121 -0.4021
 4614SOL    HW125478   0.732   1.806   5.328  0.7059  0.0647  0.7539
 4614SOL    HW225479   0.606   1.873   5.299  0.2049 -1.3282 -1.2474
 4615SOL     OW25480   2.446   2.798   3.696 -0.4828  0.9742  0.2918
 4615SOL    HW125481   2.497   2.776   3.774  0.2417 -1.3164 -0.8448
 4615SOL    HW225482   2.369   2.745   3.718 -0.0011  0.4048  0.5766
 4616SOL     OW25483   0.523   2.368   0.572  0.2066  0.3437  0.0548
 4616SOL    HW125484   0.534   2.312   0.495 -2.1309  0.1334 -0.1224
 4616SOL    HW225485   0.475   2.300   0.618 -1.4790  1.3901 -0.1295
 4617SOL     OW25486   4.327   0.718  14.996  0.2159 -0.0746 -0.0736
 4617SOL    HW125487   4.334   0.762  14.912 -0.8912 -0.9216 -0.6089
 4617SOL    HW225488   4.245   0.753  15.030 -1.1780 -2.0738 -1.3923
 4618SOL     OW25489   1.233   2.383  11.328 -0.3450 -0.0766  0.1764
 4618SOL    HW125490   1.231   2.458  11.388 -0.0408 -0.2891  0.4531
 4618SOL    HW225491   1.145   2.366  11.294 -0.4758 -0.5562  0.7531
 4619SOL     OW25492   0.690   0.128  12.428  0.3409 -0.4242 -0.0658
 4619SOL    HW125493   0.616   0.086  12.472 -0.9808 -1.1357 -2.9702
 4619SOL    HW225494   0.765   0.118  12.487 -0.2376  1.4648  0.9601
 4620SOL     OW25495   1.562   2.929   3.612 -0.2586  0.0549 -0.0891
 4620SOL    HW125496   1.488   2.988   3.623 -1.1165 -1.5204  2.6873
 4620SOL    HW225497   1.608   2.943   3.695  0.0848 -0.0333 -0.2634
 4621SOL     OW25498   0.793   3.352   8.130 -0.2665  0.1316  0.2199
 4621SOL    HW125499   0.792   3.433   8.181  2.0021  0.6780 -0.6333
 4621SOL    HW225500   0.711   3.315   8.164 -1.0344  1.1134 -0.5979
 4622SOL     OW25501   1.760   0.526   8.275  0.4722 -0.3742  0.0002
 4622SOL    HW125502   1.701   0.487   8.339  1.1114 -1.6524 -0.1844
 4622SOL    HW225503   1.846   0.502   8.309  0.7922 -1.0202 -1.2495
 4623SOL     OW25504   4.557   3.798   3.821  0.4409 -0.4882 -0.6723
 4623SOL    HW125505   4.603   3.734   3.767 -0.5053 -0.8337 -1.0570
 4623SOL    HW225506   4.623   3.862   3.848  1.6793 -2.1535  0.2212
 4624SOL     OW25507   2.094   0.304   2.494 -0.3095  0.1101  0.3535
 4624SOL    HW125508   2.171   0.361   2.502  0.0825 -0.3701 -0.0148
 4624SOL    HW225509   2.033   0.371   2.527  1.1246  1.2298  0.7298
 4625SOL     OW25510   3.424   2.530  13.137 -0.1858 -0.4117 -0.5245
 4625SOL    HW125511   3.358   2.569  13.080 -2.8429  1.4662  3.8016
 4625SOL    HW225512   3.488   2.510  13.069  1.5547  2.8309  0.1567
 4626SOL     OW25513   0.278   3.974   5.883  0.5412  0.1848 -0.4258
 4626SOL    HW125514   0.270   3.975   5.978 -1.1988 -0.8771 -0.5602
 4626SOL    HW225515   0.354   3.916   5.873  1.3714  1.6170 -2.4229
 4627SOL     OW25516   1.750   1.568   9.826  0.1197 -0.0187  0.0179
 4627SOL    HW125517   1.736   1.516   9.747  0.8294 -0.3531  0.1158
 4627SOL    HW225518   1.750   1.660   9.800  0.2665 -0.0823 -0.2102
 4628SOL     OW25519   2.631   0.940   3.047  0.0597 -0.2013 -0.3333
 4628SOL    HW125520   2.639   0.847   3.070 -1.6457 -0.4100 -0.5402
 4628SOL    HW225521   2.656   0.930   2.956  0.8437  0.2268 -0.1587
 4629SOL     OW25522   4.573   1.385   8.421 -0.3044  0.1507  0.1739
 4629SOL    HW125523   4.515   1.327   8.373 -0.9439  0.1189  0.9950
 4629SOL    HW225524   4.507   1.431   8.473  0.6620  0.4583  1.1189
 4630SOL     OW25525   0.156   1.006   8.837  0.1873  0.7138 -0.3206
 4630SOL    HW125526   0.084   0.942   8.834  0.6138  0.2662 -1.2458
 4630SOL    HW225527   0.152   1.039   8.747 -1.4726 -1.6499 -1.1358
 4631SOL     OW25528   2.095   0.449   5.879 -0.3323 -0.1744 -0.3195
 4631SOL    HW125529   2.150   0.385   5.834 -1.8789 -1.2368 -0.6903
 4631SOL    HW225530   2.118   0.536   5.846  3.2529 -0.4735  1.3778
 4632SOL     OW25531   2.919   2.450   6.756 -0.4939  0.1326  0.4223
 4632SOL    HW125532   2.986   2.497   6.707  0.6162 -1.2690  0.5815
 4632SOL    HW225533   2.865   2.528   6.770  0.3488  0.9668 -0.9671
 4633SOL     OW25534   0.454   4.188   2.036  0.0931 -0.0092  0.3407
 4633SOL    HW125535   0.423   4.143   2.115 -2.3293 -1.1796 -1.2679
 4633SOL    HW225536   0.373   4.208   1.989  0.7142 -2.0290 -1.6204
 4634SOL     OW25537   1.205   2.063  17.339  0.1028  0.5668 -0.4350
 4634SOL    HW125538   1.196   2.137  17.280 -1.4061  0.8843  0.1761
 4634SOL    HW225539   1.135   2.004  17.311 -0.8041  0.9009  1.1156
 4635SOL     OW25540   4.535   2.866   8.353 -0.3642  0.2303 -0.0184
 4635SOL    HW125541   4.575   2.781   8.373 -0.2651  0.6299  1.4411
 4635SOL    HW225542   4.611   2.922   8.337 -0.1692 -0.4465 -1.5384
 4636SOL     OW25543   1.928   2.019   2.931 -0.2612 -0.1297  0.8225
 4636SOL    HW125544   1.886   2.079   2.871  1.8934 -0.3836 -0.9514
 4636SOL    HW225545   1.855   2.012   2.993 -0.8474  1.1661  0.2593
 4637SOL     OW25546   2.606   0.362   5.977  0.4251  0.5225  0.0682
 4637SOL    HW125547   2.527   0.386   6.024  0.2085 -0.8385  0.3958
 4637SOL    HW225548   2.642   0.449   5.959  1.1303 -0.0120 -1.1182
 4638SOL     OW25549   0.133   2.318   8.759 -0.3629 -0.6329  0.2197
 4638SOL    HW125550   0.219   2.308   8.800 -0.8862  0.1005  1.5088
 4638SOL    HW225551   0.074   2.280   8.824  1.2086 -0.6093  1.6812
 4639SOL     OW25552   2.629   4.692   2.389 -0.6057 -0.4285  0.9032
 4639SOL    HW125553   2.581   4.683   2.306  0.2592  0.7318  0.2736
 4639SOL    HW225554   2.683   0.021   2.351 -0.2457 -2.0532 -1.5394
 4640SOL     OW25555   2.454   0.728   3.373 -0.0883  0.7236  0.5650
 4640SOL    HW125556   2.367   0.694   3.352  0.3126  0.2619 -0.3202
 4640SOL    HW225557   2.426   0.816   3.400 -0.6360  0.6805  0.1398
 4641SOL     OW25558   2.950   4.379  17.542 -0.2422 -0.0167  0.4742
 4641SOL    HW125559   2.945   4.295  17.587 -0.5888  0.4479  1.3041
 4641SOL    HW225560   2.860   4.407  17.560 -1.2250 -1.5734 -2.0561
 4642SOL     OW25561   1.586   3.446   9.744  0.1134  0.3283 -0.4019
 4642SOL    HW125562   1.623   3.472   9.660 -0.9865 -2.8378 -1.8585
 4642SOL    HW225563   1.659   3.391   9.773 -1.6285 -1.0947  1.2348
 4643SOL     OW25564   3.340   1.556   4.754 -0.8555 -0.8037  0.1692
 4643SOL    HW125565   3.411   1.620   4.759 -0.8545 -0.7778 -0.2241
 4643SOL    HW225566   3.345   1.522   4.844 -2.7085 -2.0259 -0.2056
 4644SOL     OW25567   0.327   4.363   5.427 -0.2412 -0.0382 -0.0799
 4644SOL    HW125568   0.344   4.420   5.502 -2.1115 -1.8631  1.7283
 4644SOL    HW225569   0.314   4.277   5.467  2.3184 -1.1507 -1.6054
 4645SOL     OW25570   1.255   2.900   5.299 -0.5667  0.1070 -0.5517
 4645SOL    HW125571   1.303   2.964   5.352  0.1767 -0.5007 -0.4846
 4645SOL    HW225572   1.299   2.823   5.334 -0.0694 -0.7924 -3.1993
 4646SOL     OW25573   1.168   1.961   3.020 -0.0416 -0.2994  0.8390
 4646SOL    HW125574   1.168   2.055   3.002 -0.4893 -0.6731 -1.1590
 4646SOL    HW225575   1.080   1.946   3.053 -0.7048  0.7328 -0.4947
 4647SOL     OW25576   4.666   2.039  10.348  0.3779  0.4082  0.1828
 4647SOL    HW125577   4.631   2.100  10.413  0.2326  1.0603 -0.5129
 4647SOL    HW225578   4.710   1.977  10.407 -0.5393  1.4591  1.9774
 4648SOL     OW25579   1.676   0.928   6.748 -0.2046 -0.0185  0.2331
 4648SOL    HW125580   1.582   0.915   6.755 -0.5539  1.0663 -2.2105
 4648SOL    HW225581   1.682   1.016   6.709  0.1699 -0.2053 -0.1401
 4649SOL     OW25582   1.746   1.161   4.248  0.2058  0.2253  0.4245
 4649SOL    HW125583   1.733   1.092   4.314  3.1938 -1.2763 -0.5819
 4649SOL    HW225584   1.756   1.243   4.296  1.2144 -0.6113  1.6305
 4650SOL     OW25585   0.862   2.400  10.113  0.1912 -0.1428  0.5000
 4650SOL    HW125586   0.834   2.491  10.115 -0.0908 -0.1996 -1.1342
 4650SOL    HW225587   0.776   2.358  10.116 -0.5894  1.4037 -0.5245
 4651SOL     OW25588   2.549   0.712  14.479 -0.1144 -0.3984  0.5679
 4651SOL    HW125589   2.476   0.751  14.431 -1.1661 -1.1386  1.5966
 4651SOL    HW225590   2.529   0.620  14.465 -0.0812 -0.2307 -0.6318
 4652SOL     OW25591   0.904   1.573   8.509 -0.7303  0.1314 -0.0594
 4652SOL    HW125592   0.856   1.531   8.581  1.7219 -2.1034  0.2827
 4652SOL    HW225593   0.904   1.494   8.455  1.0001  0.1046 -0.0164
 4653SOL     OW25594   1.635   4.423  17.285 -0.6314 -0.3600  0.3856
 4653SOL    HW125595   1.552   4.434  17.238  0.9849 -0.3360 -2.4580
 4653SOL    HW225596   1.700   4.405  17.217  1.5712 -1.0836  2.7111
 4654SOL     OW25597   0.343   3.582   0.063 -0.5314 -0.1641  0.1044
 4654SOL    HW125598   0.436   3.602   0.075 -0.5466 -0.0559  0.0450
 4654SOL    HW225599   0.351   3.493   0.095  0.7569  0.8700  2.6596
 4655SOL     OW25600   0.172   1.697   9.627 -0.4726  0.0281  0.0873
 4655SOL    HW125601   0.095   1.674   9.680 -0.0947 -0.9710  0.2135
 4655SOL    HW225602   0.153   1.673   9.536  1.0649  1.7599 -0.6839
 4656SOL     OW25603   4.434   1.207  10.767  0.2012  0.9090  0.1888
 4656SOL    HW125604   4.428   1.218  10.862  1.2514 -2.4045  0.6471
 4656SOL    HW225605   4.448   1.299  10.743  0.0094  0.8304 -0.2291
 4657SOL     OW25606   1.368   0.288   8.639 -0.2051 -0.4045  1.0301
 4657SOL    HW125607   1.294   0.261   8.693 -0.5775  0.7354  1.0737
 4657SOL    HW225608   1.316   0.274   8.560  2.4161 -0.6639 -0.6419
 4658SOL     OW25609   3.308   0.789   7.089 -0.4356  0.0819  0.4082
 4658SOL    HW125610   3.403   0.781   7.080 -0.6930  0.6331 -2.8406
 4658SOL    HW225611   3.296   0.882   7.108 -0.4898 -0.0591  1.0630
 4659SOL     OW25612   0.296   2.304  12.237 -0.0794  0.7284 -0.3891
 4659SOL    HW125613   0.217   2.266  12.276  2.2470 -2.0193  1.6781
 4659SOL    HW225614   0.335   2.231  12.188 -0.1524 -0.9067  1.9662
 4660SOL     OW25615   0.913   4.666  13.060  0.3400 -0.2249 -0.2116
 4660SOL    HW125616   0.985   4.713  13.018  0.2966 -0.4287 -0.5089
 4660SOL    HW225617   0.880   4.734  13.118 -1.3961 -0.7546 -0.5908
 4661SOL     OW25618   1.485   2.305   5.384 -0.2109  0.1217  0.2674
 4661SOL    HW125619   1.400   2.322   5.345  0.3713  0.8590 -0.6882
 4661SOL    HW225620   1.536   2.386   5.374 -0.4223  0.0629 -1.3376
 4662SOL     OW25621   2.472   0.458   9.484 -0.0384  0.9892 -0.2541
 4662SOL    HW125622   2.434   0.429   9.401  0.2541 -0.3733  0.0907
 4662SOL    HW225623   2.506   0.545   9.463  1.3048  0.6388  0.4595
 4663SOL     OW25624   1.442   1.120   3.313 -0.5619 -0.5580  0.1937
 4663SOL    HW125625   1.504   1.054   3.343  1.1051  1.2279  0.6861
 4663SOL    HW225626   1.436   1.105   3.219  0.9801 -1.6623  0.2694
 4664SOL     OW25627   3.754   3.256   7.003  0.1390 -0.3024  0.6231
 4664SOL    HW125628   3.770   3.254   7.097 -0.1516 -2.9906  0.6365
 4664SOL    HW225629   3.811   3.327   6.975 -0.8962  0.4496  0.4431
 4665SOL     OW25630   4.568   0.634   1.951  0.8950  0.0343  0.2415
 4665SOL    HW125631   4.476   0.626   1.926  0.6515  2.6978  0.2677
 4665SOL    HW225632   4.597   0.718   1.914 -0.0834 -0.0959 -0.8113
 4666SOL     OW25633   0.877   3.137  17.218  0.5383 -0.0744  0.0797
 4666SOL    HW125634   0.913   3.222  17.191 -0.1538  0.1588 -0.1248
 4666SOL    HW225635   0.805   3.139  17.156 -1.2032 -2.5680  2.0078
 4667SOL     OW25636   0.384   0.021   0.333  0.1105  0.0355  0.4300
 4667SOL    HW125637   0.322   0.018   0.260 -2.5465 -2.0537  2.8099
 4667SOL    HW225638   0.436   0.096   0.303  1.2997 -0.2543  1.7717
 4668SOL     OW25639   4.310   4.700   2.386 -0.2795  0.1238 -0.7643
 4668SOL    HW125640   4.395   4.658   2.394  0.4151  1.4002 -1.5445
 4668SOL    HW225641   4.256   4.624   2.410  1.4829 -0.8132  0.2279
 4669SOL     OW25642   4.016   0.234   3.695  0.0821  0.0808 -0.5134
 4669SOL    HW125643   4.085   0.265   3.636  0.6525 -1.8107 -0.8338
 4669SOL    HW225644   3.999   0.309   3.752 -1.2457  0.2679 -1.1746
 4670SOL     OW25645   3.820   4.142  13.801 -0.2146 -0.3679  0.2502
 4670SOL    HW125646   3.739   4.092  13.806 -0.6217  0.1095 -1.6877
 4670SOL    HW225647   3.792   4.234  13.800  0.7014 -0.0804  0.6888
 4671SOL     OW25648   1.254   1.905   6.966 -0.1272 -0.1941  0.3384
 4671SOL    HW125649   1.261   1.884   6.872  1.9934  0.2897  0.3796
 4671SOL    HW225650   1.264   1.999   6.950  1.4425 -0.4059  0.0647
 4672SOL     OW25651   3.402   1.632   8.835 -0.1265 -0.1238  0.5508
 4672SOL    HW125652   3.310   1.605   8.842 -0.1647  0.1211  1.0124
 4672SOL    HW225653   3.440   1.568   8.776 -1.9103  0.6753 -1.4703
 4673SOL     OW25654   0.068   3.726  17.029  0.1081  0.3700 -0.3972
 4673SOL    HW125655   4.732   3.785  17.024 -0.0043  0.1404 -1.2834
 4673SOL    HW225656   0.023   3.642  17.019  0.3324  0.3258 -1.0401
 4674SOL     OW25657   2.105   2.358   9.228  0.3410  0.2929  0.5111
 4674SOL    HW125658   2.145   2.422   9.286 -0.4363 -0.2000  1.5800
 4674SOL    HW225659   2.148   2.400   9.153  0.2523 -2.0113 -0.8243
 4675SOL     OW25660   0.001   3.488   8.653 -0.0888  0.5888  0.1212
 4675SOL    HW125661   4.735   3.517   8.561  1.1182 -0.0200 -0.1492
 4675SOL    HW225662   4.680   3.414   8.658  2.3971 -1.5350 -0.7663
 4676SOL     OW25663   3.542   1.501  14.162 -0.0624 -0.7250 -0.2192
 4676SOL    HW125664   3.630   1.527  14.134  1.1934 -3.2613  1.3517
 4676SOL    HW225665   3.558   1.417  14.206 -0.4374 -0.0819  1.1367
 4677SOL     OW25666   1.276   2.842  13.471  0.8134  0.7304 -0.5200
 4677SOL    HW125667   1.254   2.793  13.550  3.5071 -0.9032 -0.7868
 4677SOL    HW225668   1.329   2.907  13.517  0.5982  0.6082 -0.1005
 4678SOL     OW25669   1.104   0.053   6.319 -0.5158  0.1195  0.4994
 4678SOL    HW125670   1.087   0.022   6.408 -1.7203 -1.8787 -0.4382
 4678SOL    HW225671   1.057   0.137   6.318 -3.2158 -1.3373  2.7813
 4679SOL     OW25672   2.977   1.724   1.856 -0.0669 -0.1420 -0.3755
 4679SOL    HW125673   2.974   1.769   1.941 -0.5870 -1.4791  0.3134
 4679SOL    HW225674   2.989   1.794   1.792  2.2861 -0.3864 -0.2052
 4680SOL     OW25675   0.481   2.945   7.173 -0.4519 -0.2034 -0.1295
 4680SOL    HW125676   0.553   2.932   7.234  1.5146  2.5671 -1.9174
 4680SOL    HW225677   0.402   2.967   7.224  1.1551 -0.0588  2.2945
 4681SOL     OW25678   4.456   2.614  16.061  0.3846  0.1001  0.2999
 4681SOL    HW125679   4.452   2.548  16.130 -1.8431  2.3443  2.2957
 4681SOL    HW225680   4.486   2.684  16.118 -1.7088  0.0367  1.4521
 4682SOL     OW25681   4.068   2.807   5.450 -0.2444 -0.3632 -0.2761
 4682SOL    HW125682   4.020   2.728   5.475 -1.6433  0.3615 -0.7095
 4682SOL    HW225683   4.011   2.838   5.380 -0.1547 -1.7480 -0.9456
 4683SOL     OW25684   1.116   1.180   2.873 -0.5910 -0.0423 -0.2931
 4683SOL    HW125685   1.099   1.204   2.964  0.1044  3.8413 -1.1759
 4683SOL    HW225686   1.173   1.249   2.840 -0.5613  1.1281  2.2308
 4684SOL     OW25687   0.446   1.283  14.635 -0.2161 -0.0982 -0.6151
 4684SOL    HW125688   0.440   1.311  14.544  1.4618  0.5895 -0.5129
 4684SOL    HW225689   0.505   1.208  14.621 -1.5018 -1.1479 -0.4526
 4685SOL     OW25690   2.332   3.082  13.428  0.1216  0.1521  0.7660
 4685SOL    HW125691   2.326   3.168  13.385 -3.4264 -0.9404 -0.9323
 4685SOL    HW225692   2.386   3.038  13.362  1.9449 -1.6535  3.4436
 4686SOL     OW25693   0.157   2.242  14.438  0.4925 -0.4038  0.5569
 4686SOL    HW125694   0.116   2.262  14.522  0.1235  1.3393 -0.0315
 4686SOL    HW225695   0.214   2.318  14.424  0.5054 -0.6331 -0.6447
 4687SOL     OW25696   4.115   4.369   2.016 -0.3906 -0.3550  0.1164
 4687SOL    HW125697   4.060   4.422   1.957  0.7104  0.4851 -0.1438
 4687SOL    HW225698   4.087   4.405   2.100  0.4204  1.3843 -0.3642
 4688SOL     OW25699   0.696   0.603   2.439  0.2091  0.1698  0.5188
 4688SOL    HW125700   0.617   0.550   2.448 -0.1210  0.3659 -1.3336
 4688SOL    HW225701   0.757   0.544   2.483  1.7030  0.2831 -1.4406
 4689SOL     OW25702   4.177   4.237   0.065  0.1893 -0.2790  0.4106
 4689SOL    HW125703   4.127   4.243  17.741  0.1389  0.0029  0.4616
 4689SOL    HW225704   4.121   4.220   0.141  0.6593 -1.2499  0.5342
 4690SOL     OW25705   0.733   3.529   3.041 -0.5851  0.0785  0.4153
 4690SOL    HW125706   0.720   3.545   2.947 -0.1942 -1.3189  0.1258
 4690SOL    HW225707   0.822   3.493   3.037 -0.1328  1.1976  0.0810
 4691SOL     OW25708   0.554   2.082   3.246 -0.4873  0.2123 -0.3233
 4691SOL    HW125709   0.493   2.064   3.318 -1.4116  0.7259 -0.9649
 4691SOL    HW225710   0.494   2.095   3.172 -1.1194 -0.5798  0.0500
 4692SOL     OW25711   0.042   3.287   7.408 -0.3228  0.5270  0.3538
 4692SOL    HW125712   4.717   3.346   7.446  0.7762  1.0097  1.4810
 4692SOL    HW225713   0.096   3.349   7.358 -0.4214  0.3650  0.0424
 4693SOL     OW25714   4.152   4.556  15.740  0.0179 -0.2341 -0.5582
 4693SOL    HW125715   4.223   4.537  15.678  0.4741 -1.3445  0.3097
 4693SOL    HW225716   4.089   4.497  15.698  0.9390 -2.0409  0.5968
 4694SOL     OW25717   2.161   3.750  13.514 -0.0249 -0.0440  0.1197
 4694SOL    HW125718   2.184   3.678  13.573  0.5784 -0.7070 -0.9263
 4694SOL    HW225719   2.110   3.807  13.571  0.0439 -0.7908  0.9287
 4695SOL     OW25720   3.897   2.718   4.600 -0.0573  0.2209 -0.1520
 4695SOL    HW125721   3.871   2.721   4.692 -1.6156 -3.9329 -0.4551
 4695SOL    HW225722   3.894   2.626   4.574 -1.7204  0.3987 -0.5424
 4696SOL     OW25723   4.370   3.895   3.046  0.2102  0.2028 -0.3982
 4696SOL    HW125724   4.435   3.937   2.989 -0.0978 -0.2253 -1.0706
 4696SOL    HW225725   4.418   3.913   3.126  1.5400  0.8342 -1.3290
 4697SOL     OW25726   2.495   3.359   2.607  0.0968  0.3055  0.3842
 4697SOL    HW125727   2.503   3.404   2.690  0.2889  0.6894  0.1588
 4697SOL    HW225728   2.549   3.286   2.638  2.1930  1.5538 -0.2926
 4698SOL     OW25729   1.003   3.457   7.878 -0.5957  0.2341 -0.2224
 4698SOL    HW125730   0.931   3.519   7.886  0.7731  1.9296 -0.9506
 4698SOL    HW225731   1.028   3.469   7.786  1.2515 -1.0645  0.1026
 4699SOL     OW25732   1.405   0.786  10.432  0.2053  0.6088  0.0466
 4699SOL    HW125733   1.387   0.723  10.502 -1.0742  0.8929 -0.0204
 4699SOL    HW225734   1.456   0.843  10.490  1.1588 -1.4429  1.2297
 4700SOL     OW25735   0.665   4.506   6.066 -0.3881  0.0361  0.2054
 4700SOL    HW125736   0.753   4.545   6.062  0.1427 -1.0805  0.9046
 4700SOL    HW225737   0.621   4.580   6.108 -3.1649 -2.2204  1.2156
 4701SOL     OW25738   3.786   3.193   3.557  0.2898 -0.6343  0.3379
 4701SOL    HW125739   3.880   3.194   3.538 -0.0296  2.3982 -1.0210
 4701SOL    HW225740   3.757   3.104   3.535 -1.9401  0.1324  0.1439
 4702SOL     OW25741   2.576   3.728  11.347  0.3503 -0.0835 -0.0702
 4702SOL    HW125742   2.619   3.807  11.314  0.3013  0.6503  1.5894
 4702SOL    HW225743   2.526   3.764  11.420  0.8198 -2.1814  1.2989
 4703SOL     OW25744   1.581   3.318  13.670  0.1645  0.2051  0.4244
 4703SOL    HW125745   1.667   3.275  13.669  0.3397  0.5822 -0.7647
 4703SOL    HW225746   1.551   3.297  13.582  2.7004  0.5759 -0.5357
 4704SOL     OW25747   2.964   0.185   2.998  0.4533 -0.5578  0.2130
 4704SOL    HW125748   2.896   0.147   2.942 -0.0749  0.9999 -0.2239
 4704SOL    HW225749   2.913   0.199   3.078  0.1968 -1.8790  0.2764
 4705SOL     OW25750   1.438   2.003   1.946 -0.6057  0.2282  0.0797
 4705SOL    HW125751   1.490   2.082   1.934 -0.5508  0.4241  1.6169
 4705SOL    HW225752   1.376   2.012   2.019  1.9795 -1.5539  2.4812
 4706SOL     OW25753   1.666   1.142   2.423 -0.0829  0.4280 -0.0320
 4706SOL    HW125754   1.631   1.136   2.334  3.0969  0.5208 -1.2721
 4706SOL    HW225755   1.680   1.236   2.438  2.3714 -0.1110  1.0011
 4707SOL     OW25756   0.655   0.912  16.703 -0.0160  0.3659 -0.2131
 4707SOL    HW125757   0.564   0.929  16.726  0.3585  2.7348 -0.5030
 4707SOL    HW225758   0.667   0.817  16.697  1.5681  0.6144 -0.9883
 4708SOL     OW25759   1.126   0.436   7.998 -0.0777 -0.6728 -0.6508
 4708SOL    HW125760   1.046   0.386   8.013 -1.0320  1.2505  0.6123
 4708SOL    HW225761   1.180   0.368   8.039  3.0626  1.3535 -1.4142
 4709SOL     OW25762   0.700   4.420  14.287 -0.2586  0.3389 -0.2918
 4709SOL    HW125763   0.645   4.493  14.315  0.1296  0.2589  0.6621
 4709SOL    HW225764   0.756   4.408  14.363 -1.5338 -0.4864  0.5116
 4710SOL     OW25765   2.311   1.651   1.766 -0.5786 -0.3197  0.3450
 4710SOL    HW125766   2.250   1.696   1.707 -0.7545 -0.3006  0.5428
 4710SOL    HW225767   2.353   1.728   1.804 -2.0984  1.9797 -2.6205
 4711SOL     OW25768   2.375   2.893  14.903 -0.2437 -0.8664 -0.4566
 4711SOL    HW125769   2.437   2.921  14.836 -1.4707 -0.0856 -1.2600
 4711SOL    HW225770   2.294   2.930  14.869  0.4081  0.1015 -0.9365
 4712SOL     OW25771   3.091   0.649  17.514 -0.7226 -0.2284 -0.5276
 4712SOL    HW125772   3.021   0.632  17.451 -0.8310  0.6674 -0.6467
 4712SOL    HW225773   3.152   0.585  17.477  1.7073  0.5584  2.1586
 4713SOL     OW25774   3.917   0.702   8.607  0.7468 -0.2598 -0.4611
 4713SOL    HW125775   3.975   0.665   8.541 -0.4277 -0.4549 -1.3815
 4713SOL    HW225776   3.972   0.773   8.640 -1.3741  1.2719 -0.1960
 4714SOL     OW25777   1.327   2.118  12.262  0.5779 -0.6121 -0.5554
 4714SOL    HW125778   1.382   2.100  12.185 -1.4243 -2.0745 -1.6512
 4714SOL    HW225779   1.326   2.027  12.292 -1.2480  0.1536  1.6531
 4715SOL     OW25780   2.463   0.871   6.334  0.1036 -0.3661 -0.2354
 4715SOL    HW125781   2.489   0.848   6.423 -1.5884  0.5629  0.4920
 4715SOL    HW225782   2.529   0.818   6.289  1.0936  0.2894  0.4432
 4716SOL     OW25783   0.743   0.296  13.773  0.1209  0.4387  0.2146
 4716SOL    HW125784   0.790   0.370  13.810  1.2801 -0.8280  1.2875
 4716SOL    HW225785   0.766   0.221  13.827 -1.1217 -0.8621 -1.0294
 4717SOL     OW25786   2.178   0.951   7.138 -0.3216 -0.9087 -0.2591
 4717SOL    HW125787   2.131   1.012   7.081 -0.8294 -0.9941  0.0706
 4717SOL    HW225788   2.253   0.935   7.081 -0.6565 -0.3156 -0.8647
 4718SOL     OW25789   4.274   4.664   2.921  0.6780  0.1992 -0.1674
 4718SOL    HW125790   4.226   4.679   2.840  0.6767 -2.4689 -0.6791
 4718SOL    HW225791   4.217   4.693   2.991  1.7453  1.7070  0.0744
 4719SOL     OW25792   1.909   0.234   9.781  0.2941 -0.0942 -0.6898
 4719SOL    HW125793   1.914   0.154   9.832  0.7105 -0.6300 -1.5702
 4719SOL    HW225794   1.964   0.288   9.837 -0.1155 -1.3735  0.9465
 4720SOL     OW25795   4.554   1.852  12.200 -0.3091  0.1013  0.2042
 4720SOL    HW125796   4.556   1.927  12.140  2.7534  0.6650  0.9763
 4720SOL    HW225797   4.479   1.805  12.165  0.3463 -0.0699 -0.9585
 4721SOL     OW25798   2.415   3.787   9.201  0.3633 -0.0887 -0.5986
 4721SOL    HW125799   2.373   3.808   9.117 -0.1118 -0.6546 -0.4992
 4721SOL    HW225800   2.481   3.857   9.204  1.5248 -1.2510  0.8225
 4722SOL     OW25801   2.144   2.555   2.810 -0.1390 -0.1482  0.2373
 4722SOL    HW125802   2.067   2.499   2.820 -0.5328  0.5323  0.9955
 4722SOL    HW225803   2.148   2.582   2.902 -0.2824  2.2206 -0.4375
 4723SOL     OW25804   0.782   4.468  16.524  0.3195 -0.0563  0.1968
 4723SOL    HW125805   0.858   4.441  16.474 -0.4476 -1.0722 -0.4295
 4723SOL    HW225806   0.706   4.454  16.467 -0.0314  1.2401  0.3631
 4724SOL     OW25807   0.324   0.711   2.002  0.0041 -0.2375 -0.0057
 4724SOL    HW125808   0.336   0.805   1.988 -2.3804  0.1433  0.4800
 4724SOL    HW225809   0.242   0.703   2.052  0.0150 -0.3246 -0.0027
 4725SOL     OW25810   0.708   4.701   5.341 -0.1721 -0.2045  0.3702
 4725SOL    HW125811   0.800   4.710   5.367  0.4475  1.4155 -2.2727
 4725SOL    HW225812   0.702   4.609   5.315 -0.9563 -1.3989  4.8836
 4726SOL     OW25813   0.733   0.899   4.349 -0.0669  0.3025 -0.3839
 4726SOL    HW125814   0.752   0.806   4.348  0.3690  0.4106 -2.6263
 4726SOL    HW225815   0.641   0.897   4.325 -0.0700  1.5587 -0.5009
 4727SOL     OW25816   0.486   2.265   9.136 -0.3876  0.4340 -0.6301
 4727SOL    HW125817   0.521   2.317   9.209 -0.2664  0.1256 -0.4686
 4727SOL    HW225818   0.540   2.187   9.151  0.7825  1.2576 -0.5858
 4728SOL     OW25819   0.658   3.306   6.775  0.0125 -0.1731 -0.7241
 4728SOL    HW125820   0.641   3.217   6.744  0.8933 -0.5234 -0.2009
 4728SOL    HW225821   0.629   3.364   6.704 -1.1794 -0.1332 -0.2087
 4729SOL     OW25822   3.008   3.268   3.436  0.6241 -0.5153  0.1641
 4729SOL    HW125823   2.964   3.185   3.455  0.0328  0.3930  2.8832
 4729SOL    HW225824   3.004   3.303   3.526 -2.9337 -0.3437 -0.0371
 4730SOL     OW25825   0.533   0.638   4.466  0.4383 -0.2886  0.1530
 4730SOL    HW125826   0.618   0.614   4.429  0.6403  0.9488 -0.2173
 4730SOL    HW225827   0.484   0.559   4.488 -2.1636  1.7555  1.7940
 4731SOL     OW25828   2.807   1.395   3.322 -0.3725 -0.5367  0.2192
 4731SOL    HW125829   2.802   1.314   3.271  2.2636 -0.4437 -0.2032
 4731SOL    HW225830   2.813   1.459   3.251  0.8494 -0.7286  0.1467
 4732SOL     OW25831   2.860   1.604  13.159  0.0240 -0.0969 -0.0748
 4732SOL    HW125832   2.860   1.508  13.163 -0.2671 -0.1577 -1.5329
 4732SOL    HW225833   2.922   1.624  13.230  0.5051 -0.2149 -0.4626
 4733SOL     OW25834   0.220   4.467  13.704 -0.4306 -0.4008  0.0203
 4733SOL    HW125835   0.255   4.553  13.677  0.4645 -0.8494 -0.2616
 4733SOL    HW225836   0.146   4.486  13.761 -1.0795 -1.0493 -0.6184
 4734SOL     OW25837   0.893   0.979   8.337 -0.0013  0.5999 -0.1123
 4734SOL    HW125838   0.950   0.982   8.260  0.1788  0.2553  0.0059
 4734SOL    HW225839   0.808   0.975   8.294 -0.0860  0.6456  0.0505
 4735SOL     OW25840   1.328   2.287   9.331  0.5154  0.1209 -0.2014
 4735SOL    HW125841   1.386   2.220   9.294 -1.1513 -1.1724 -0.4838
 4735SOL    HW225842   1.378   2.368   9.322  1.1646 -0.2790 -0.2445
 4736SOL     OW25843   1.099   2.465  13.506 -0.1930 -0.9161 -0.2138
 4736SOL    HW125844   1.193   2.476  13.495 -0.1091 -1.6928 -0.2622
 4736SOL    HW225845   1.071   2.542  13.456  1.3248 -1.3566 -1.7300
 4737SOL     OW25846   3.308   2.134  12.085  0.2811  0.2519  0.3126
 4737SOL    HW125847   3.357   2.068  12.035 -0.5778 -1.8275  2.1965
 4737SOL    HW225848   3.376   2.184  12.130  1.2365  0.2209 -1.1040
 4738SOL     OW25849   0.120   4.538   6.367 -0.1769 -0.2201 -0.4804
 4738SOL    HW125850   0.118   4.600   6.440 -1.8380  0.1544 -0.8398
 4738SOL    HW225851   0.049   4.481   6.397  0.3900 -1.0826 -0.7718
 4739SOL     OW25852   2.639   4.096   2.486  0.0318  0.3273 -0.1562
 4739SOL    HW125853   2.644   4.009   2.447 -2.4291  0.0668  0.0677
 4739SOL    HW225854   2.631   4.081   2.580 -0.1139 -1.1598 -0.4169
 4740SOL     OW25855   1.690   0.616  12.150  0.1203  0.1246  0.0488
 4740SOL    HW125856   1.748   0.658  12.086  0.7987 -0.4125  0.3082
 4740SOL    HW225857   1.726   0.668  12.221  0.8455  1.1236 -1.0556
 4741SOL     OW25858   1.537   4.012   9.452  0.0761  0.2237  0.5482
 4741SOL    HW125859   1.589   3.933   9.462 -1.7262 -1.0031  0.1894
 4741SOL    HW225860   1.599   4.072   9.494 -2.8870  1.9178  2.5024
 4742SOL     OW25861   1.798   0.308   2.178  0.1522 -0.5440  0.7164
 4742SOL    HW125862   1.878   0.360   2.189 -0.8449  0.4227  3.5317
 4742SOL    HW225863   1.802   0.258   2.260 -1.5538 -0.4761  0.8430
 4743SOL     OW25864   0.112   0.791   1.155  0.3576 -0.1111 -0.6663
 4743SOL    HW125865   0.053   0.774   1.082  0.2224 -1.0883 -0.3301
 4743SOL    HW225866   0.194   0.777   1.108  0.5049 -0.2130 -0.3808
 4744SOL     OW25867   0.840   4.074  16.406  0.0582  0.6008  0.6868
 4744SOL    HW125868   0.902   4.001  16.410 -0.8774 -0.2038  0.7319
 4744SOL    HW225869   0.870   4.126  16.480 -0.6768  2.9011 -0.6098
 4745SOL     OW25870   3.049   0.493   7.636  0.1736 -0.3704 -0.7493
 4745SOL    HW125871   3.024   0.403   7.656 -0.0106 -0.0516  0.4555
 4745SOL    HW225872   3.042   0.532   7.723 -1.3708  0.3792 -1.2137
 4746SOL     OW25873   3.256   1.277   1.262 -0.0945  0.0031  0.5271
 4746SOL    HW125874   3.277   1.184   1.256 -0.5775 -0.0231 -0.7913
 4746SOL    HW225875   3.316   1.318   1.324 -0.2630  0.8775  0.1227
 4747SOL     OW25876   3.031   1.595  13.840 -0.0082  0.1116  0.1086
 4747SOL    HW125877   3.081   1.588  13.921  0.0244  2.1728  0.2713
 4747SOL    HW225878   2.971   1.520  13.832  1.1274 -0.6551 -1.2232
 4748SOL     OW25879   3.412   3.771   6.731 -0.0016 -0.2392 -0.9991
 4748SOL    HW125880   3.502   3.745   6.711  0.5559  0.9211 -0.0448
 4748SOL    HW225881   3.364   3.712   6.673 -1.5612 -0.0411  0.0833
 4749SOL     OW25882   4.173   0.771   3.879  0.6526  0.1800  0.9938
 4749SOL    HW125883   4.226   0.843   3.845  0.5877 -0.1021  0.3022
 4749SOL    HW225884   4.097   0.825   3.896 -0.3771 -1.5633  2.0153
 4750SOL     OW25885   3.561   0.207   3.698 -0.2584  0.1091 -0.4134
 4750SOL    HW125886   3.600   0.276   3.751  1.8846 -1.8178  0.5220
 4750SOL    HW225887   3.587   0.234   3.610 -2.6748  0.2438 -1.0846
 4751SOL     OW25888   1.685   4.626   3.890 -0.2162  0.1928  0.5170
 4751SOL    HW125889   1.779   4.623   3.904 -0.4576  1.6642  2.3862
 4751SOL    HW225890   1.676   4.605   3.797 -0.5087  1.3019  0.2999
 4752SOL     OW25891   1.475   1.198   7.544  0.4308 -0.5669 -0.0122
 4752SOL    HW125892   1.447   1.187   7.635 -1.5550  0.8152 -0.4561
 4752SOL    HW225893   1.535   1.124   7.553  3.8818  2.5033  2.1887
 4753SOL     OW25894   4.488   3.406   8.273 -0.1108  0.2597  0.1183
 4753SOL    HW125895   4.472   3.404   8.368  3.6590 -0.0188  0.7617
 4753SOL    HW225896   4.479   3.501   8.269  2.9119  0.4700 -1.5547
 4754SOL     OW25897   2.246   0.661   5.497  0.3701  0.2109  0.4673
 4754SOL    HW125898   2.324   0.611   5.519 -0.3037  0.3190  3.1139
 4754SOL    HW225899   2.192   0.587   5.468  0.8032 -0.7456  2.1290
 4755SOL     OW25900   2.179   4.079   3.190 -0.4319  0.0384 -0.2598
 4755SOL    HW125901   2.125   4.049   3.116 -1.4090  1.7785 -0.2577
 4755SOL    HW225902   2.259   4.043   3.152 -1.6000 -1.7744 -0.9902
 4756SOL     OW25903   0.349   2.689   1.966 -0.1823  0.6404  0.1274
 4756SOL    HW125904   0.302   2.608   1.988 -1.7085  0.6537 -3.2494
 4756SOL    HW225905   0.399   2.696   2.048  1.3912  1.0395 -0.8788
 4757SOL     OW25906   3.499   3.086   6.703 -0.4253 -0.0049  0.2072
 4757SOL    HW125907   3.574   3.144   6.688 -1.9345  2.1706  0.9658
 4757SOL    HW225908   3.481   3.092   6.797 -1.0405  3.0558 -0.1144
 4758SOL     OW25909   3.404   0.511  13.796 -0.4061 -0.0814  0.2307
 4758SOL    HW125910   3.472   0.472  13.851 -0.7284 -0.9810  0.0029
 4758SOL    HW225911   3.445   0.503  13.710  0.5879 -0.2749  0.7181
 4759SOL     OW25912   1.192   4.439  13.302  0.0267 -0.1503  0.1446
 4759SOL    HW125913   1.121   4.503  13.302 -1.9441 -2.3076 -1.7667
 4759SOL    HW225914   1.159   4.349  13.307 -0.6459  0.1129  0.3886
 4760SOL     OW25915   1.819   0.551   4.258  0.9011 -0.3446  0.3429
 4760SOL    HW125916   1.859   0.631   4.226 -3.3591  0.7697 -2.2070
 4760SOL    HW225917   1.898   0.506   4.286  1.2404 -0.4602 -0.8265
 4761SOL     OW25918   2.921   1.618   5.725 -0.6856 -0.2217 -0.3829
 4761SOL    HW125919   2.972   1.537   5.723 -2.6275 -1.4897  1.2010
 4761SOL    HW225920   2.920   1.643   5.633 -1.1218 -0.2841 -0.3959
 4762SOL     OW25921   3.280   2.646   7.808 -0.4822 -0.3056  0.0514
 4762SOL    HW125922   3.297   2.646   7.714  0.3511 -0.0522  0.2063
 4762SOL    HW225923   3.230   2.726   7.827 -1.6384 -1.7718  3.3118
 4763SOL     OW25924   1.959   3.446   1.628 -0.1977 -0.6221  0.1169
 4763SOL    HW125925   2.047   3.441   1.589 -0.7665  2.5953 -1.5435
 4763SOL    HW225926   1.980   3.383   1.697  0.2218 -1.5592 -0.8791
 4764SOL     OW25927   3.467   3.519  11.703  0.6082  0.3859 -0.2348
 4764SOL    HW125928   3.401   3.450  11.708  0.9726  0.1908  1.8221
 4764SOL    HW225929   3.530   3.483  11.640  0.8434  0.0007  0.2226
 4765SOL     OW25930   3.589   0.779   7.094 -0.2983  0.0526 -0.5309
 4765SOL    HW125931   3.621   0.689   7.094  1.9004  0.8326 -1.8293
 4765SOL    HW225932   3.678   0.815   7.100 -0.9431  1.4929  0.3113
 4766SOL     OW25933   3.284   2.371   3.996  0.1044 -0.0281 -0.4814
 4766SOL    HW125934   3.287   2.410   3.908 -0.7626 -0.0299 -0.5077
 4766SOL    HW225935   3.201   2.326   3.988  0.0655  0.0523 -0.5354
 4767SOL     OW25936   0.449   1.717   8.505 -1.1094 -0.1086 -0.6723
 4767SOL    HW125937   0.401   1.737   8.425  2.3289  0.6320 -2.5630
 4767SOL    HW225938   0.399   1.763   8.572 -1.4833  1.2009 -1.8687
 4768SOL     OW25939   2.966   2.800   1.645  0.4232  0.0378  0.2692
 4768SOL    HW125940   3.032   2.764   1.586 -1.3258 -1.7862 -0.5609
 4768SOL    HW225941   2.895   2.804   1.581  0.8277 -1.3241 -0.2444
 4769SOL     OW25942   1.451   1.103   8.227 -0.1992  0.2724  0.0765
 4769SOL    HW125943   1.398   1.096   8.306  0.6579  1.2059  0.7291
 4769SOL    HW225944   1.534   1.059   8.249  0.0569 -0.7128 -2.8521
 4770SOL     OW25945   0.808   1.974   6.683 -0.0409  0.1803  0.6217
 4770SOL    HW125946   0.769   1.887   6.671  0.5584  0.1610 -1.2453
 4770SOL    HW225947   0.837   1.986   6.593 -1.8439  0.3619  0.0667
 4771SOL     OW25948   3.348   1.750   4.991  0.0646 -0.1975 -0.4071
 4771SOL    HW125949   3.412   1.724   4.926 -0.6488 -1.0805 -0.7470
 4771SOL    HW225950   3.388   1.832   5.020 -0.8097  0.3158 -0.6456
 4772SOL     OW25951   1.645   2.994   5.070  0.2572  0.3859  0.4127
 4772SOL    HW125952   1.614   3.062   5.129  0.0396 -0.2621  1.0455
 4772SOL    HW225953   1.644   3.029   4.981  1.8838 -0.1341  0.1866
 4773SOL     OW25954   0.703   4.220   3.478 -0.2400  0.1578  0.3929
 4773SOL    HW125955   0.764   4.293   3.488  1.4742 -1.2622  0.1705
 4773SOL    HW225956   0.726   4.176   3.559 -2.3149 -0.5448  0.6082
 4774SOL     OW25957   0.198   0.149  16.043 -0.0611  0.1394  0.8708
 4774SOL    HW125958   0.220   0.210  16.113  0.7613 -0.3102  1.0165
 4774SOL    HW225959   0.162   0.076  16.095  1.5092  0.1050  1.9275
 4775SOL     OW25960   2.687   2.955   2.107 -0.4266  0.5287  0.0895
 4775SOL    HW125961   2.772   2.939   2.148 -0.8916 -0.1934  0.7757
 4775SOL    HW225962   2.652   2.867   2.119 -0.9772  0.7346 -0.0269
 4776SOL     OW25963   3.780   1.720  14.015  0.1255  0.2951  0.1493
 4776SOL    HW125964   3.686   1.715  13.999 -0.0548  0.3013  1.2088
 4776SOL    HW225965   3.805   1.628  14.020 -1.3452 -0.1851 -1.3453
 4777SOL     OW25966   3.907   1.430   3.090  0.3655  0.0586  0.4979
 4777SOL    HW125967   3.911   1.526   3.091  1.7381  0.0134 -0.1980
 4777SOL    HW225968   4.000   1.412   3.075  0.7745  2.8145 -0.3427
 4778SOL     OW25969   0.322   2.043   0.362 -0.1559 -0.1654 -0.4783
 4778SOL    HW125970   0.409   2.081   0.371 -1.1288  1.8321  0.5530
 4778SOL    HW225971   0.351   1.961   0.320  0.0631 -0.1315 -0.3927
 4779SOL     OW25972   0.533   4.582  12.830  0.6889  0.2804  0.0418
 4779SOL    HW125973   0.479   4.504  12.817  0.4588  0.4406  0.0364
 4779SOL    HW225974   0.612   4.553  12.784 -1.3852 -3.4610 -1.1485
 4780SOL     OW25975   2.832   3.232   0.132 -0.7512  0.2113  0.0563
 4780SOL    HW125976   2.784   3.172   0.075 -3.1891  2.1024  0.1111
 4780SOL    HW225977   2.895   3.264   0.068 -0.5585 -2.2388 -0.9694
 4781SOL     OW25978   3.927   3.233   6.573 -0.8964 -0.0945  0.1007
 4781SOL    HW125979   4.015   3.209   6.542 -0.0368  1.9206  0.9966
 4781SOL    HW225980   3.907   3.297   6.504 -0.4573 -0.3192 -0.2331
 4782SOL     OW25981   3.610   0.393   1.302 -0.3665  0.5827 -0.4880
 4782SOL    HW125982   3.582   0.477   1.264  0.8621 -0.3073 -3.3759
 4782SOL    HW225983   3.639   0.350   1.221  1.0216  0.1243  0.2622
 4783SOL     OW25984   2.835   3.514   2.347 -0.0119  0.8502 -0.0355
 4783SOL    HW125985   2.843   3.432   2.396 -1.6355  1.0570  0.5679
 4783SOL    HW225986   2.890   3.578   2.391 -1.4024  2.7244 -1.0361
 4784SOL     OW25987   1.078   2.169   3.741 -0.7875 -0.7707  0.1382
 4784SOL    HW125988   1.147   2.106   3.722 -0.1214 -0.2633  0.8113
 4784SOL    HW225989   0.996   2.125   3.719 -0.6738 -1.5076  1.1719
 4785SOL     OW25990   1.404   2.244  11.493  0.2076  0.0572 -0.3331
 4785SOL    HW125991   1.350   2.165  11.489  0.6484 -0.1501 -2.1450
 4785SOL    HW225992   1.354   2.307  11.441  0.9144  0.1063 -0.9616
 4786SOL     OW25993   4.231   3.078   7.969 -0.4749  0.4406  0.4363
 4786SOL    HW125994   4.326   3.088   7.974 -0.1257 -2.1737 -0.9337
 4786SOL    HW225995   4.220   2.988   7.937 -0.8777  0.5427  0.2895
 4787SOL     OW25996   0.273   3.704  12.681  0.0173 -1.0093  0.2787
 4787SOL    HW125997   0.321   3.689  12.762 -0.1137 -3.3139 -0.0503
 4787SOL    HW225998   0.344   3.733  12.624  2.0544 -1.4451  2.5786
 4788SOL     OW25999   0.738   1.359   8.954 -0.5076 -0.6077  0.0774
 4788SOL    HW126000   0.677   1.410   9.008 -0.6540 -0.9049  0.1929
 4788SOL    HW226001   0.826   1.365   8.992  0.1991  0.2929 -1.7265
 4789SOL     OW26002   3.563   0.710   6.214 -0.3288  0.3583  1.0077
 4789SOL    HW126003   3.617   0.722   6.136 -0.0596  1.2124  1.3226
 4789SOL    HW226004   3.492   0.658   6.175 -0.6776  1.6622 -0.0976
 4790SOL     OW26005   0.283   0.619   7.129 -0.0985  0.4595  0.2223
 4790SOL    HW126006   0.345   0.628   7.057 -0.4240  0.8095 -0.0170
 4790SOL    HW226007   0.207   0.579   7.087 -0.2985  0.5092  0.5328
 4791SOL     OW26008   0.379   0.734  14.605  0.2185  1.1300  0.0954
 4791SOL    HW126009   0.474   0.737  14.617  0.1859 -0.7195  0.6948
 4791SOL    HW226010   0.360   0.823  14.636 -0.1270  1.5339 -1.2632
 4792SOL     OW26011   2.729   0.294  15.416 -0.3759  0.6413  0.2529
 4792SOL    HW126012   2.811   0.250  15.396 -0.7694  0.0635 -0.0821
 4792SOL    HW226013   2.659   0.228  15.418 -0.4093  0.6618 -0.2489
 4793SOL     OW26014   0.681   0.744   1.512 -0.5928 -0.4088 -0.5767
 4793SOL    HW126015   0.650   0.653   1.507 -1.0452 -0.4385  3.0507
 4793SOL    HW226016   0.660   0.761   1.604  0.3351  0.9817 -0.6231
 4794SOL     OW26017   4.119   1.500  16.117 -0.6741  0.3947 -0.1536
 4794SOL    HW126018   4.168   1.566  16.069 -0.7063 -1.3743 -2.6034
 4794SOL    HW226019   4.039   1.504  16.066 -1.7672 -2.1232  1.3596
 4795SOL     OW26020   0.357   3.902  17.693  0.6697  0.2684  0.1852
 4795SOL    HW126021   0.292   3.872  17.630  0.2867  0.6216  0.4182
 4795SOL    HW226022   0.430   3.923  17.634  1.1285  2.0792  1.4065
 4796SOL     OW26023   0.942   0.360   4.394  0.1928  0.2162  0.0965
 4796SOL    HW126024   0.886   0.310   4.335  2.2855 -1.4761 -0.4617
 4796SOL    HW226025   1.001   0.293   4.430  0.7184  1.1937  1.0556
 4797SOL     OW26026   3.424   1.551  10.939  0.0515  0.5762  0.1303
 4797SOL    HW126027   3.389   1.523  10.854 -0.2841  0.1304  0.4170
 4797SOL    HW226028   3.339   1.584  10.968 -0.0878 -1.1029  1.5802
 4798SOL     OW26029   4.002   0.648  13.686  0.1824 -0.0836  0.1611
 4798SOL    HW126030   4.038   0.576  13.634 -2.5844 -1.0714 -0.4336
 4798SOL    HW226031   4.076   0.708  13.692 -0.2106  0.2030  2.1274
 4799SOL     OW26032   2.709   3.196  15.456 -0.0319 -0.1977 -0.0951
 4799SOL    HW126033   2.706   3.254  15.380  0.0088 -1.9329 -1.4209
 4799SOL    HW226034   2.760   3.243  15.523  0.5936 -0.5252 -0.3422
 4800SOL     OW26035   4.289   3.740   3.339  0.3656 -0.4394  0.2657
 4800SOL    HW126036   4.332   3.727   3.254  1.3214  1.7465  0.4236
 4800SOL    HW226037   4.346   3.808   3.376 -1.2207  0.2627  1.4102
 4801SOL     OW26038   3.007   3.789   6.958 -0.4527 -0.1182  0.1389
 4801SOL    HW126039   3.064   3.736   7.014  0.9195  1.2026  0.0036
 4801SOL    HW226040   2.924   3.769   7.000 -1.4443 -1.7867 -2.6148
 4802SOL     OW26041   3.303   4.375   1.616 -0.4765  0.3135  0.8473
 4802SOL    HW126042   3.294   4.471   1.616 -3.6914  0.0288 -2.2785
 4802SOL    HW226043   3.210   4.350   1.617 -0.5458  0.5713  1.1441
 4803SOL     OW26044   0.063   4.697   1.005  0.0729  0.6817  0.2558
 4803SOL    HW126045   0.062   0.009   1.086 -1.2493  2.2361 -0.7573
 4803SOL    HW226046   0.125   4.626   1.022  0.2492  0.4877 -1.2026
 4804SOL     OW26047   4.261   0.787   7.557  0.9192  0.2655 -0.4388
 4804SOL    HW126048   4.328   0.727   7.523 -2.1055 -2.6273 -1.2969
 4804SOL    HW226049   4.309   0.837   7.622  0.1402 -2.9368  2.5948
 4805SOL     OW26050   3.859   3.510  10.703 -0.1435  0.0420 -0.6605
 4805SOL    HW126051   3.843   3.602  10.721  2.0550 -0.0062  1.4778
 4805SOL    HW226052   3.950   3.510  10.674  0.5046 -0.3489  1.3691
 4806SOL     OW26053   2.150   3.000   5.368 -0.1906  0.3716  0.0376
 4806SOL    HW126054   2.232   3.012   5.321 -0.8060  1.4890 -0.7402
 4806SOL    HW226055   2.096   3.077   5.348 -1.4319 -1.1676 -2.4870
 4807SOL     OW26056   4.079   4.159   0.327 -0.1553  0.2924 -0.4410
 4807SOL    HW126057   4.132   4.100   0.381  0.4767  1.9156  0.7132
 4807SOL    HW226058   3.992   4.155   0.367  0.1085  1.9746  0.3136
 4808SOL     OW26059   2.360   4.047   4.218  0.0211  0.0213  0.1056
 4808SOL    HW126060   2.349   4.129   4.171  0.4368 -0.9756 -1.7439
 4808SOL    HW226061   2.278   4.046   4.268 -0.6092  0.3323 -0.9392
 4809SOL     OW26062   1.465   0.167   5.277 -0.0208 -0.8623 -0.5902
 4809SOL    HW126063   1.560   0.153   5.285  0.0371 -0.1548 -0.0617
 4809SOL    HW226064   1.453   0.197   5.187  0.6659 -1.9196 -1.0384
 4810SOL     OW26065   3.508   3.852   4.149  0.1341 -0.0884 -0.2638
 4810SOL    HW126066   3.463   3.925   4.191  2.2820  1.2480 -0.2798
 4810SOL    HW226067   3.466   3.857   4.063  1.1460  2.9247 -0.5705
 4811SOL     OW26068   3.022   3.254  11.726  0.2049  0.0431 -0.5252
 4811SOL    HW126069   3.001   3.255  11.633  1.1107 -0.9754 -0.7479
 4811SOL    HW226070   3.115   3.278  11.725 -0.0942  1.0857 -1.5301
 4812SOL     OW26071   2.376   2.299   6.043  0.2871 -0.3382 -0.3339
 4812SOL    HW126072   2.383   2.322   5.950 -1.9217  0.4852 -0.2983
 4812SOL    HW226073   2.466   2.266   6.050  0.1780 -0.9743 -2.0049
 4813SOL     OW26074   0.456   3.379  13.320  0.4428  0.7752 -0.3103
 4813SOL    HW126075   0.476   3.451  13.259  1.6909  0.7338  0.0386
 4813SOL    HW226076   0.388   3.334  13.270 -0.3647  3.1834 -1.3725
 4814SOL     OW26077   2.650   2.963   6.137  0.5595  0.1035  0.4043
 4814SOL    HW126078   2.654   3.057   6.154  1.6821  0.6654 -2.9504
 4814SOL    HW226079   2.634   2.923   6.222 -0.4837 -2.1906 -0.8770
 4815SOL     OW26080   0.878   1.835  10.170 -0.1904  0.1497  0.3190
 4815SOL    HW126081   0.946   1.885  10.124 -2.6809  2.5959 -0.6847
 4815SOL    HW226082   0.900   1.852  10.261  4.1090 -0.8147 -0.5314
 4816SOL     OW26083   0.880   4.693   2.906 -0.3480 -0.2261  0.1654
 4816SOL    HW126084   0.922   0.023   2.856  1.7754 -0.8092  1.1540
 4816SOL    HW226085   0.958   4.641   2.926  0.9410  1.1106 -1.4413
 4817SOL     OW26086   3.524   2.530  14.169 -0.1797 -0.0089 -0.1248
 4817SOL    HW126087   3.605   2.576  14.147  0.0193 -0.8547 -1.1606
 4817SOL    HW226088   3.476   2.526  14.086  0.2811  1.3198 -0.4652
 4818SOL     OW26089   0.997   0.833   6.232 -0.0475  0.6875 -0.1180
 4818SOL    HW126090   0.972   0.833   6.324  0.4904 -0.7204  0.0347
 4818SOL    HW226091   1.046   0.915   6.237  3.4226 -1.4153  0.3690
 4819SOL     OW26092   2.955   2.844   9.941  0.5048 -0.5543  0.5050
 4819SOL    HW126093   2.917   2.883  10.020  0.3173  0.6221 -0.1647
 4819SOL    HW226094   2.957   2.751   9.962 -0.5905 -0.4607  1.0822
 4820SOL     OW26095   0.080   0.242   5.216  0.7880 -0.4528  0.5155
 4820SOL    HW126096   0.163   0.210   5.251  1.7827  0.8306 -0.6625
 4820SOL    HW226097   0.096   0.337   5.215  0.1168 -0.3347  1.4079
 4821SOL     OW26098   1.591   2.879   8.366  0.4555 -0.1098  0.3165
 4821SOL    HW126099   1.619   2.939   8.434 -0.7379  0.6091  0.1715
 4821SOL    HW226100   1.536   2.825   8.422 -0.7590  1.2395  0.3988
 4822SOL     OW26101   4.361   2.549   8.589 -0.5324 -0.1102  0.1863
 4822SOL    HW126102   4.404   2.560   8.504 -1.5276 -0.9626 -0.4264
 4822SOL    HW226103   4.434   2.503   8.629 -0.3362 -0.8529 -1.0206
 4823SOL     OW26104   4.663   3.811  15.123 -0.4867 -0.3839 -0.0192
 4823SOL    HW126105   4.600   3.746  15.091  0.4593 -1.8636  1.1072
 4823SOL    HW226106   4.605   3.864  15.177  1.4790  1.3391  0.3790
 4824SOL     OW26107   0.222   0.112   1.582  0.4371  0.4377 -0.4618
 4824SOL    HW126108   0.271   0.170   1.524 -1.8878  0.9513 -1.9133
 4824SOL    HW226109   0.287   0.053   1.620 -3.9155 -3.5668  0.6928
 4825SOL     OW26110   1.454   4.400   2.294  0.2178  0.0749  0.1160
 4825SOL    HW126111   1.547   4.423   2.290  0.4096 -0.3019  2.1747
 4825SOL    HW226112   1.419   4.466   2.235 -1.2387  0.4829  1.4494
 4826SOL     OW26113   1.783   2.191   5.252  0.2096  0.1838 -0.1911
 4826SOL    HW126114   1.822   2.211   5.167 -0.2169 -0.5744 -0.5670
 4826SOL    HW226115   1.692   2.221   5.246 -0.3869 -1.3616  1.0618
 4827SOL     OW26116   1.998   0.948   4.100  0.1663 -0.4047 -0.4901
 4827SOL    HW126117   1.931   0.926   4.166 -1.3081  2.2947 -1.1062
 4827SOL    HW226118   1.977   0.880   4.036  0.6107 -0.2989 -0.7430
 4828SOL     OW26119   2.477   0.845   6.607  0.2347  0.2580 -0.1233
 4828SOL    HW126120   2.401   0.797   6.638 -0.7861  1.6927 -0.4226
 4828SOL    HW226121   2.481   0.920   6.666 -2.0704  1.0821 -1.0005
 4829SOL     OW26122   4.230   3.914   2.603  0.0644 -0.0431  0.6534
 4829SOL    HW126123   4.147   3.930   2.648 -0.4166 -1.3038  0.2292
 4829SOL    HW226124   4.270   3.856   2.667 -1.7628 -1.6992  0.2908
 4830SOL     OW26125   0.388   4.081  12.365 -0.2521  0.1778 -0.0363
 4830SOL    HW126126   0.434   4.135  12.429  1.2523 -0.0136 -0.9676
 4830SOL    HW226127   0.315   4.141  12.374 -0.3168  0.0826  0.0786
 4831SOL     OW26128   1.438   4.490   4.952  0.3251 -0.2553 -0.1073
 4831SOL    HW126129   1.395   4.573   4.970 -0.2212 -0.2269 -1.4961
 4831SOL    HW226130   1.467   4.470   5.041  0.3712 -0.0084 -0.0689
 4832SOL     OW26131   3.665   3.118   4.288  0.5334  0.1542 -0.2392
 4832SOL    HW126132   3.667   3.196   4.232 -1.2688  1.2866  1.2907
 4832SOL    HW226133   3.651   3.055   4.217 -1.8107  0.3402  0.0756
 4833SOL     OW26134   2.471   4.421   3.726 -0.1234 -0.4519  0.1448
 4833SOL    HW126135   2.527   4.418   3.649 -1.2272 -2.4900 -0.5767
 4833SOL    HW226136   2.410   4.490   3.702  0.4617  0.1857  0.5001
 4834SOL     OW26137   4.602   2.681   3.972  0.3108 -0.3203 -0.2826
 4834SOL    HW126138   4.514   2.676   4.011  1.1495 -1.9296  1.3801
 4834SOL    HW226139   4.658   2.676   4.049  0.4775  2.2550 -0.2585
 4835SOL     OW26140   1.458   1.818   7.664  0.2694  0.1142  0.3851
 4835SOL    HW126141   1.421   1.906   7.660  2.0250  0.8477  0.3650
 4835SOL    HW226142   1.548   1.833   7.636 -0.1777  2.2179  0.0336
 4836SOL     OW26143   1.084   2.406   4.941  0.8001  0.4886 -0.2414
 4836SOL    HW126144   1.050   2.491   4.968 -3.1723 -0.8207 -1.0847
 4836SOL    HW226145   1.177   2.426   4.948  1.5438 -2.0155 -2.7211
 4837SOL     OW26146   4.002   0.470   3.844  0.1570  0.5110  0.5410
 4837SOL    HW126147   3.937   0.539   3.831 -0.9216 -0.6353 -0.0432
 4837SOL    HW226148   4.081   0.523   3.834  0.7624 -0.4563  0.1898
 4838SOL     OW26149   4.676   3.026  14.507 -0.4723 -0.7154  0.6377
 4838SOL    HW126150   4.736   3.036  14.581 -2.6593  1.8028  2.0927
 4838SOL    HW226151   4.728   2.954  14.472 -0.1603 -0.6379  0.9390
 4839SOL     OW26152   3.558   0.954   4.681  0.6398 -0.1764 -0.3207
 4839SOL    HW126153   3.598   1.011   4.747  0.7940 -0.8757  0.1784
 4839SOL    HW226154   3.472   0.935   4.719  1.2972  0.8992  1.6883
 4840SOL     OW26155   4.066   3.717   8.784 -0.0851  0.1355 -0.1041
 4840SOL    HW126156   3.998   3.783   8.796 -1.9001 -2.1866  2.3514
 4840SOL    HW226157   4.072   3.680   8.872 -3.6974 -1.9287 -0.7702
 4841SOL     OW26158   1.685   0.952  11.222  0.3814 -0.5110  0.0947
 4841SOL    HW126159   1.707   1.016  11.154  0.6278  0.1769  0.8214
 4841SOL    HW226160   1.720   0.996  11.300  0.9456 -2.2256  0.8105
 4842SOL     OW26161   2.152   0.291  11.143  0.7195 -0.0385 -0.5137
 4842SOL    HW126162   2.208   0.368  11.149 -1.2403  1.1331  2.4497
 4842SOL    HW226163   2.219   0.227  11.168 -0.8817 -0.7942  1.7793
 4843SOL     OW26164   1.634   1.954   2.521  0.5021 -0.1764  0.2102
 4843SOL    HW126165   1.618   1.990   2.608  0.8487  0.5891 -0.0457
 4843SOL    HW226166   1.705   2.004   2.481  0.4267  2.2521  3.1181
 4844SOL     OW26167   1.320   0.936   4.821 -0.2152  0.2166 -0.3515
 4844SOL    HW126168   1.380   0.929   4.895  0.8906  0.8390 -1.2011
 4844SOL    HW226169   1.365   0.907   4.742 -0.9084  3.2972 -1.8861
 4845SOL     OW26170   1.058   2.167   9.360 -0.1260  0.8660  0.1492
 4845SOL    HW126171   1.131   2.209   9.315 -2.3099  2.4455 -1.9638
 4845SOL    HW226172   1.045   2.093   9.301  2.4573  0.6432 -0.1422
 4846SOL     OW26173   1.967   3.608   3.661 -0.0567  0.1160 -0.1896
 4846SOL    HW126174   1.982   3.672   3.593 -0.0001 -1.2628 -1.4803
 4846SOL    HW226175   2.035   3.629   3.725 -0.0162 -0.3802 -0.0674
 4847SOL     OW26176   0.126   1.455   7.311 -0.1164  0.1131  0.2089
 4847SOL    HW126177   0.091   1.420   7.229  3.1722  1.4548 -1.7496
 4847SOL    HW226178   0.068   1.530   7.324 -0.4280 -0.2461  0.9402
 4848SOL     OW26179   3.883   0.738   2.485 -0.1169 -1.0969  0.2254
 4848SOL    HW126180   3.941   0.708   2.555 -2.6506 -1.5561  2.0871
 4848SOL    HW226181   3.795   0.715   2.514  0.0401  0.0585  1.5808
 4849SOL     OW26182   1.704   0.841  15.488  0.5227 -0.1393  0.0907
 4849SOL    HW126183   1.710   0.933  15.513 -0.9546 -0.3938  1.3765
 4849SOL    HW226184   1.791   0.837  15.449  0.9877 -2.4525  1.3476
 4850SOL     OW26185   4.050   1.821   7.897 -0.0317 -0.2099  0.2162
 4850SOL    HW126186   3.989   1.896   7.902 -1.0167 -1.1008  1.6404
 4850SOL    HW226187   4.127   1.865   7.862 -1.6002  1.2742 -1.4428
 4851SOL     OW26188   0.569   1.825   5.633  0.0783  0.3922  0.4650
 4851SOL    HW126189   0.509   1.751   5.622 -1.9962  1.9798  1.1052
 4851SOL    HW226190   0.613   1.819   5.548 -0.5588  0.6651  0.1085
 4852SOL     OW26191   2.820   0.709   4.045 -0.7442 -0.0085 -0.1167
 4852SOL    HW126192   2.841   0.790   3.998  0.4398  0.4366  1.1707
 4852SOL    HW226193   2.873   0.641   4.004 -2.1314 -0.7679 -0.6371
 4853SOL     OW26194   0.972   2.551   0.866  0.6501  0.6334 -0.6190
 4853SOL    HW126195   1.044   2.587   0.813  0.0326 -0.2440 -2.0487
 4853SOL    HW226196   1.021   2.540   0.947  0.1298  0.2330 -0.3595
 4854SOL     OW26197   4.429   2.303  17.415 -0.3308  0.0638  0.2914
 4854SOL    HW126198   4.464   2.379  17.461 -0.3491 -0.6085  1.4231
 4854SOL    HW226199   4.473   2.319  17.332  1.2092 -1.4015  0.8168
 4855SOL     OW26200   2.268   2.006   4.897 -0.1921  0.1582 -0.4075
 4855SOL    HW126201   2.269   2.022   4.803  2.1736  0.1840 -0.3933
 4855SOL    HW226202   2.252   2.091   4.938  1.2270  0.4570 -0.4568
 4856SOL     OW26203   4.403   0.352  15.503 -0.6267 -0.1620  0.0285
 4856SOL    HW126204   4.355   0.409  15.444 -1.0706 -0.0144  0.5402
 4856SOL    HW226205   4.417   0.423  15.566  1.4201 -1.2716  0.8329
 4857SOL     OW26206   0.228   3.555   3.063  0.0693  0.1694 -0.6566
 4857SOL    HW126207   0.266   3.612   2.996  1.0123  0.4872  0.1417
 4857SOL    HW226208   0.182   3.492   3.008 -1.9145  0.4606  0.6533
 4858SOL     OW26209   2.312   2.862   9.560 -0.2666  0.1907 -0.5959
 4858SOL    HW126210   2.243   2.826   9.616  0.1322 -0.2559 -0.3959
 4858SOL    HW226211   2.388   2.845   9.615  0.2902  0.3699 -1.3035
 4859SOL     OW26212   1.884   1.412   3.516 -0.2343 -0.0473 -0.0086
 4859SOL    HW126213   1.945   1.340   3.498  3.3488  2.8133  0.8507
 4859SOL    HW226214   1.811   1.360   3.550 -0.6813  0.0962 -0.7521
 4860SOL     OW26215   3.148   2.042   3.207 -0.7541  0.1310 -0.3348
 4860SOL    HW126216   3.095   2.004   3.277 -1.4843  0.6357 -0.6097
 4860SOL    HW226217   3.123   1.987   3.132 -1.0899 -1.7582  1.1606
 4861SOL     OW26218   1.911   3.975   6.417  0.5658 -0.1886  0.1253
 4861SOL    HW126219   1.972   3.992   6.345 -0.3825  0.0387 -0.6312
 4861SOL    HW226220   1.974   3.927   6.470  2.2234  0.8754 -0.8948
 4862SOL     OW26221   4.072   4.054   1.373  0.2823 -0.2914 -0.0768
 4862SOL    HW126222   4.167   4.054   1.365  0.2790  2.8115  0.0142
 4862SOL    HW226223   4.046   4.140   1.342  2.7447 -0.0497 -1.4959
 4863SOL     OW26224   2.306   4.440   1.193  0.1232 -0.5671  0.1672
 4863SOL    HW126225   2.219   4.455   1.157 -0.1135  0.4357  1.1329
 4863SOL    HW226226   2.326   4.350   1.167 -2.3587 -1.0509 -0.0414
 4864SOL     OW26227   0.994   0.105   1.805 -0.6985  0.0099  0.5483
 4864SOL    HW126228   1.068   0.074   1.858 -0.7654 -1.4760 -0.2382
 4864SOL    HW226229   1.024   0.072   1.721 -1.7967 -0.2493  0.2552
 4865SOL     OW26230   1.588   3.031   4.769 -0.1876  0.4579  0.2614
 4865SOL    HW126231   1.542   3.064   4.692  0.3066 -1.3639 -0.8373
 4865SOL    HW226232   1.622   2.947   4.736  0.4975  0.0429  2.0239
 4866SOL     OW26233   0.337   2.719   3.387 -0.0149 -0.0823  0.1317
 4866SOL    HW126234   0.304   2.777   3.455 -1.5893 -0.5516 -0.2179
 4866SOL    HW226235   0.302   2.633   3.410 -3.4757  0.8262 -1.7062
 4867SOL     OW26236   0.775   0.044  13.908 -0.0472 -0.5201 -0.1299
 4867SOL    HW126237   0.847   0.029  13.846  0.1597  2.9756 -0.7699
 4867SOL    HW226238   0.804   0.025  13.997  0.7462 -0.0407 -0.2832
 4868SOL     OW26239   3.909   3.451   6.899 -0.3481 -0.3792  0.1652
 4868SOL    HW126240   3.957   3.509   6.958 -0.8409  0.0610  0.1275
 4868SOL    HW226241   3.980   3.430   6.838 -0.1328  1.3567 -0.1583
 4869SOL     OW26242   4.104   0.620  17.674 -0.2566 -0.2662  0.0145
 4869SOL    HW126243   4.109   0.557  17.747 -0.3402 -0.0338  0.2199
 4869SOL    HW226244   4.036   0.581  17.619 -2.3347  1.8713  1.0901
 4870SOL     OW26245   4.124   2.854   4.206 -1.3260  0.5841  0.1389
 4870SOL    HW126246   4.150   2.830   4.295  1.6906  1.9515 -0.3710
 4870SOL    HW226247   4.174   2.936   4.198  1.1522 -1.0215 -0.8769
 4871SOL     OW26248   1.716   4.478   2.251 -0.2182 -0.0802 -0.1339
 4871SOL    HW126249   1.790   4.540   2.251 -0.6649  0.4504 -0.5036
 4871SOL    HW226250   1.756   4.418   2.314  1.0131  1.2705  0.3829
 4872SOL     OW26251   3.065   0.204   7.773  0.2193  0.3184 -0.3638
 4872SOL    HW126252   2.992   0.194   7.712  0.6515  0.2732 -0.8702
 4872SOL    HW226253   3.028   0.268   7.835 -1.7332 -0.1681 -1.0348
 4873SOL     OW26254   4.362   0.231   6.969  0.2234  0.1353 -0.4636
 4873SOL    HW126255   4.301   0.175   7.018  0.3360 -0.4852 -1.0274
 4873SOL    HW226256   4.423   0.167   6.933  1.5930 -0.2852  2.6421
 4874SOL     OW26257   2.645   2.071  14.628 -0.3427 -0.2647  0.2208
 4874SOL    HW126258   2.565   2.025  14.603  0.9250 -1.5693 -1.4912
 4874SOL    HW226259   2.652   2.040  14.719 -0.7640 -1.2136 -0.0705
 4875SOL     OW26260   2.069   3.706   2.926  0.0694 -0.1595 -0.1784
 4875SOL    HW126261   2.054   3.613   2.939  2.1080 -0.7269 -2.0550
 4875SOL    HW226262   2.163   3.705   2.944 -0.2319 -2.2658  1.1589
 4876SOL     OW26263   1.219   3.017   9.294  0.4964  0.2908 -0.0965
 4876SOL    HW126264   1.302   3.000   9.339 -0.9987 -0.8153  2.2260
 4876SOL    HW226265   1.169   3.060   9.364  0.7879 -1.4121  1.1527
 4877SOL     OW26266   1.855   1.824   4.820  0.2072  0.2953  1.0244
 4877SOL    HW126267   1.935   1.853   4.777 -0.4165 -0.7761 -0.8525
 4877SOL    HW226268   1.788   1.826   4.751  1.2649 -4.3001 -0.1195
 4878SOL     OW26269   0.775   0.955   8.093 -0.0595 -0.1374 -0.0316
 4878SOL    HW126270   0.779   1.007   8.013 -0.6670 -0.2151 -0.1175
 4878SOL    HW226271   0.688   0.972   8.131 -0.6695 -0.9826 -1.0595
 4879SOL     OW26272   0.726   3.548   5.771  0.6809 -0.4948  0.1082
 4879SOL    HW126273   0.786   3.612   5.808 -1.2193  1.9703 -1.0578
 4879SOL    HW226274   0.643   3.555   5.819  0.1769  2.6015 -1.2286
 4880SOL     OW26275   4.009   0.501   0.410 -0.0740 -0.2265 -0.0477
 4880SOL    HW126276   4.009   0.491   0.505  3.5504  0.3861  0.0095
 4880SOL    HW226277   3.964   0.420   0.388 -0.2976  0.7144 -3.0578
 4881SOL     OW26278   1.179   3.386   8.873  0.4988  0.3780  0.3572
 4881SOL    HW126279   1.091   3.363   8.903  0.1649 -0.4805 -1.2694
 4881SOL    HW226280   1.209   3.425   8.955 -0.3017 -1.7553  1.6456
 4882SOL     OW26281   1.399   1.180  15.816 -0.3105 -0.6491  0.1636
 4882SOL    HW126282   1.328   1.231  15.774  1.3013  1.8675  0.4784
 4882SOL    HW226283   1.382   1.098  15.770  1.4163 -0.3919 -0.9373
 4883SOL     OW26284   2.860   2.828   7.406 -0.3618 -0.3487  0.1292
 4883SOL    HW126285   2.832   2.893   7.342 -2.7910 -0.8809  0.6537
 4883SOL    HW226286   2.789   2.847   7.468  0.1154 -0.3819  0.6874
 4884SOL     OW26287   0.002   0.196  13.862 -0.2934  0.0636 -0.7255
 4884SOL    HW126288   4.690   0.195  13.782  0.0255 -1.5329 -0.8935
 4884SOL    HW226289   0.012   0.290  13.879 -0.2488  0.3253 -2.1829
 4885SOL     OW26290   4.290   2.682   5.654  0.0650 -0.0491  0.7241
 4885SOL    HW126291   4.241   2.687   5.735 -0.5733  2.1263  0.1912
 4885SOL    HW226292   4.225   2.662   5.586 -1.0419  0.1806  1.7244
 4886SOL     OW26293   2.725   3.849  15.402  0.7069  0.4427 -0.3694
 4886SOL    HW126294   2.677   3.926  15.430 -0.1289  0.4373 -1.7496
 4886SOL    HW226295   2.712   3.830  15.309 -0.2530 -1.3184  0.1149
 4887SOL     OW26296   2.431   1.150   2.696  0.0406 -0.0305 -0.5228
 4887SOL    HW126297   2.473   1.233   2.672  1.6719 -0.6944  0.0049
 4887SOL    HW226298   2.339   1.175   2.703 -0.3211 -0.9446 -2.1371
 4888SOL     OW26299   0.209   1.173  12.282  0.1613  0.1967  0.3483
 4888SOL    HW126300   0.205   1.093  12.229  3.1372 -0.5472  1.2292
 4888SOL    HW226301   0.129   1.161  12.334  0.2830 -1.8723  0.0692
 4889SOL     OW26302   1.033   1.323   0.654 -0.2745 -0.3635  0.0710
 4889SOL    HW126303   1.066   1.242   0.693  1.9731  0.4989 -0.0502
 4889SOL    HW226304   0.938   1.316   0.665 -0.6719  1.2244 -2.1974
 4890SOL     OW26305   0.477   2.731   4.856  0.1313 -0.4753  0.0500
 4890SOL    HW126306   0.405   2.679   4.821 -0.1960 -0.5010  0.7531
 4890SOL    HW226307   0.544   2.667   4.880 -0.1308 -0.4738  0.8002
 4891SOL     OW26308   2.351   1.358   9.113  0.1393  0.1001 -0.5247
 4891SOL    HW126309   2.290   1.391   9.179 -2.8613 -0.0615 -3.2786
 4891SOL    HW226310   2.391   1.440   9.084  3.1914 -1.2399 -0.1543
 4892SOL     OW26311   0.077   2.162   3.799  0.0904 -0.5060 -0.1136
 4892SOL    HW126312   0.017   2.124   3.863  1.7446 -1.5715  0.8267
 4892SOL    HW226313   0.142   2.092   3.792 -1.2010 -1.6287 -0.8108
 4893SOL     OW26314   3.963   2.305   7.956 -0.2925 -0.2246  0.2743
 4893SOL    HW126315   3.937   2.381   8.008 -0.2493 -0.3244  0.4424
 4893SOL    HW226316   4.049   2.331   7.925  0.1320 -2.0538 -0.0861
 4894SOL     OW26317   4.211   2.383   2.039  0.3955 -0.3907  0.9201
 4894SOL    HW126318   4.193   2.289   2.031  0.4053 -0.1077 -2.4345
 4894SOL    HW226319   4.120   2.410   2.048  1.7809  4.5075  0.1566
 4895SOL     OW26320   2.538   3.401   4.991 -0.0271  0.4482  0.2351
 4895SOL    HW126321   2.596   3.347   5.044 -1.6850 -0.9647  0.6106
 4895SOL    HW226322   2.473   3.436   5.052 -1.0142  2.7715 -2.1122
 4896SOL     OW26323   1.362   0.581   5.987 -0.1617 -0.0936 -0.0382
 4896SOL    HW126324   1.335   0.493   6.013  0.4139  0.3125  1.8957
 4896SOL    HW226325   1.457   0.568   5.990 -0.1267  0.3027  0.5883
 4897SOL     OW26326   4.254   4.632   6.209  0.0946 -0.3411 -0.2684
 4897SOL    HW126327   4.318   4.609   6.142  0.2557 -0.3539 -0.1109
 4897SOL    HW226328   4.178   4.624   6.152 -0.6476  1.8096  0.3859
 4898SOL     OW26329   0.907   2.791  10.604 -0.0547  0.6297 -0.1650
 4898SOL    HW126330   0.828   2.802  10.551 -0.2534  1.4832  0.3117
 4898SOL    HW226331   0.965   2.832  10.541 -0.8320  0.7638 -0.7989
 4899SOL     OW26332   3.403   4.610  17.491 -0.3485  0.3029 -0.0159
 4899SOL    HW126333   3.311   4.584  17.484  0.5315 -2.6109 -0.6095
 4899SOL    HW226334   3.443   4.523  17.489 -2.8372 -0.8778  0.8964
 4900SOL     OW26335   4.387   3.041   6.843  0.1734 -0.1675  0.2675
 4900SOL    HW126336   4.471   3.007   6.875  0.2322 -0.9225 -0.7078
 4900SOL    HW226337   4.412   3.119   6.794  2.4594 -0.8539  0.3460
 4901SOL     OW26338   0.053   2.866  13.660 -0.2872  0.0939 -0.2417
 4901SOL    HW126339   0.091   2.787  13.622 -0.9574 -1.2917  1.9619
 4901SOL    HW226340   4.705   2.837  13.684 -0.9956  2.0745 -0.4204
 4902SOL     OW26341   1.140   1.980   0.682  0.4596 -0.0235 -0.6473
 4902SOL    HW126342   1.150   1.914   0.750  1.3648  0.9877  0.2017
 4902SOL    HW226343   1.193   1.939   0.615  0.0898  0.6746 -1.3711
 4903SOL     OW26344   1.633   2.644   2.938  0.2427 -0.5440  0.2917
 4903SOL    HW126345   1.580   2.573   2.901 -0.9374  0.2163  0.4993
 4903SOL    HW226346   1.711   2.644   2.884 -0.5118  2.1098 -0.7833
 4904SOL     OW26347   2.334   3.256   2.423  0.4251 -0.7837 -0.3668
 4904SOL    HW126348   2.424   3.231   2.403  1.3353  1.4392  0.9311
 4904SOL    HW226349   2.346   3.315   2.498 -1.6800 -0.8617  0.0234
 4905SOL     OW26350   3.109   0.407   5.565  0.5905  0.3761  0.2210
 4905SOL    HW126351   3.120   0.502   5.551 -0.2677  0.3245 -0.7697
 4905SOL    HW226352   3.171   0.370   5.502 -0.9403 -1.4736 -0.1822
 4906SOL     OW26353   3.269   0.344   1.647  0.1364 -0.3805  0.1259
 4906SOL    HW126354   3.322   0.418   1.678 -0.3467 -1.5279  3.6382
 4906SOL    HW226355   3.299   0.343   1.556 -0.4922  0.1465 -0.0865
 4907SOL     OW26356   2.588   3.400  16.307 -0.3315  0.2500  0.5826
 4907SOL    HW126357   2.494   3.384  16.317 -0.0200 -2.0635 -0.1034
 4907SOL    HW226358   2.605   3.490  16.334  2.0157 -0.9245  3.0588
 4908SOL     OW26359   0.455   3.330  12.687  0.7751 -0.1428 -0.3601
 4908SOL    HW126360   0.495   3.247  12.715  0.1238 -0.2418  0.2783
 4908SOL    HW226361   0.536   3.377  12.670  1.1289  0.2181  2.2587
 4909SOL     OW26362   2.825   3.748   4.248  0.6267  0.3078 -0.1114
 4909SOL    HW126363   2.840   3.831   4.201  1.4972  0.8237  1.0783
 4909SOL    HW226364   2.753   3.765   4.309 -0.6239 -0.2799 -1.4272
 4910SOL     OW26365   3.868   2.240   2.874 -0.2315 -0.0661 -0.2569
 4910SOL    HW126366   3.947   2.253   2.822 -1.4506  1.4028 -1.7432
 4910SOL    HW226367   3.851   2.326   2.912  1.5769  0.0710  0.2254
 4911SOL     OW26368   3.425   3.688   4.368 -0.4968  0.3244  0.3320
 4911SOL    HW126369   3.343   3.651   4.335 -1.5711  2.2461  0.8790
 4911SOL    HW226370   3.439   3.747   4.294 -1.7824  0.5557  0.2771
 4912SOL     OW26371   0.906   2.319   2.074 -0.2371 -0.6788 -0.3867
 4912SOL    HW126372   0.882   2.303   2.165  0.8130  2.5631  0.4547
 4912SOL    HW226373   0.901   2.414   2.079 -2.1457 -0.8133  0.1482
 4913SOL     OW26374   0.679   0.491   6.775 -0.7996 -0.1452  0.4996
 4913SOL    HW126375   0.769   0.499   6.743 -1.2357 -1.5981 -1.0893
 4913SOL    HW226376   0.636   0.454   6.698  2.1630 -2.2723 -0.1210
 4914SOL     OW26377   4.244   0.765   8.381  0.4275 -0.3916  0.3965
 4914SOL    HW126378   4.329   0.724   8.396  1.6479  1.7768 -0.6854
 4914SOL    HW226379   4.202   0.690   8.339  1.6425 -1.2195  0.6475
 4915SOL     OW26380   3.274   3.432   4.668  0.1075  0.7031 -0.0427
 4915SOL    HW126381   3.350   3.374   4.664 -1.5447 -1.3583 -1.0935
 4915SOL    HW226382   3.234   3.435   4.581  0.8772  0.1586 -0.4144
 4916SOL     OW26383   2.320   0.596   7.464  0.3591  0.4305  0.1518
 4916SOL    HW126384   2.404   0.565   7.498  1.2055  0.8525 -1.5300
 4916SOL    HW226385   2.325   0.588   7.369  0.2006  0.8887  0.1054
 4917SOL     OW26386   4.553   1.101   2.700  0.3994 -0.7893 -0.2933
 4917SOL    HW126387   4.619   1.142   2.757  1.5938 -1.6184 -1.0818
 4917SOL    HW226388   4.606   1.095   2.621  0.9447 -1.4362  0.1134
 4918SOL     OW26389   2.789   1.421   8.234 -0.8338 -0.6928 -0.0676
 4918SOL    HW126390   2.774   1.483   8.162  1.2062 -1.0881 -0.8258
 4918SOL    HW226391   2.706   1.431   8.281 -0.3038 -0.6467  0.8519
 4919SOL     OW26392   3.075   2.903  11.098 -0.0697 -0.8623  0.1553
 4919SOL    HW126393   3.159   2.895  11.053  0.5210  0.1582  1.0706
 4919SOL    HW226394   3.062   2.812  11.126  0.4350 -0.7535  0.7405
 4920SOL     OW26395   4.690   3.253   9.630 -0.4653 -0.1182  0.3243
 4920SOL    HW126396   4.622   3.199   9.591  0.9160 -1.2367 -0.5363
 4920SOL    HW226397   0.018   3.191   9.657 -1.7116 -1.1710  1.0438
 4921SOL     OW26398   0.126   2.343   4.661 -0.3239  0.2787  0.4116
 4921SOL    HW126399   0.102   2.265   4.611 -2.3905  1.7889 -0.9690
 4921SOL    HW226400   0.218   2.327   4.679 -0.1168 -0.1246 -1.0166
 4922SOL     OW26401   1.824   0.937   5.516  0.0879 -0.3228  0.2653
 4922SOL    HW126402   1.913   0.962   5.543  0.1440 -1.2366  0.9245
 4922SOL    HW226403   1.768   0.949   5.592 -0.2820 -0.0428 -0.0502
 4923SOL     OW26404   1.607   0.151   9.699 -0.6888  0.3114  0.4268
 4923SOL    HW126405   1.610   0.238   9.660  3.2349 -0.2620 -0.6329
 4923SOL    HW226406   1.700   0.143   9.721 -0.3021  0.0209 -1.2630
 4924SOL     OW26407   1.315   2.438  13.940 -0.5383  0.6155 -0.1491
 4924SOL    HW126408   1.410   2.426  13.934 -0.4892  0.4330  0.9637
 4924SOL    HW226409   1.286   2.435  13.849 -2.8566 -0.8326  0.6431
 4925SOL     OW26410   2.905   2.512   3.093  0.2497  0.0038  0.3502
 4925SOL    HW126411   2.853   2.482   3.167 -0.0045 -0.2066  0.0908
 4925SOL    HW226412   2.944   2.425   3.077  0.6573  0.1752  0.4186
 4926SOL     OW26413   3.464   4.396   7.487 -0.3141  0.2543 -0.1462
 4926SOL    HW126414   3.481   4.489   7.499  0.4627  0.2468 -1.2761
 4926SOL    HW226415   3.370   4.406   7.468 -0.3877  2.3495  1.2607
 4927SOL     OW26416   2.819   4.494   7.845 -0.6573  1.0270  0.5772
 4927SOL    HW126417   2.896   4.468   7.896 -0.9178  4.0589  2.4655
 4927SOL    HW226418   2.756   4.531   7.906 -0.8158  1.0074  0.4270
 4928SOL     OW26419   2.709   0.434  14.676  0.3240  0.0901 -0.1190
 4928SOL    HW126420   2.622   0.456  14.707 -0.9577 -1.1571 -2.8429
 4928SOL    HW226421   2.761   0.510  14.701  0.4750 -0.1918  0.4146
 4929SOL     OW26422   4.659   2.858   9.128 -0.2632 -0.0771  0.0407
 4929SOL    HW126423   4.590   2.890   9.186  0.8200  0.0676  1.2482
 4929SOL    HW226424   4.696   2.785   9.177  1.6362  0.8050 -0.0962
 4930SOL     OW26425   2.639   4.416  16.144 -0.4437  0.0694  0.2707
 4930SOL    HW126426   2.680   4.430  16.058 -1.4107 -0.6871 -0.3057
 4930SOL    HW226427   2.698   4.475  16.191 -0.6879 -0.9958  1.9012
 4931SOL     OW26428   2.213   0.613   3.285 -0.0008 -0.0339 -0.4763
 4931SOL    HW126429   2.223   0.604   3.191 -0.0771  2.2759 -0.7048
 4931SOL    HW226430   2.190   0.528   3.323  3.3765 -1.5402 -1.8757
 4932SOL     OW26431   2.418   2.064   5.462 -0.6354 -0.3029 -0.3322
 4932SOL    HW126432   2.485   2.131   5.475 -1.2520  0.2060  0.1906
 4932SOL    HW226433   2.381   2.057   5.550 -0.9391 -0.6429 -0.4865
 4933SOL     OW26434   1.925   1.349   3.791 -0.6858  0.3489  0.1488
 4933SOL    HW126435   1.867   1.359   3.866 -0.8582 -1.4211  0.2693
 4933SOL    HW226436   1.901   1.259   3.770  2.1679 -0.1803 -0.9470
 4934SOL     OW26437   1.586   0.099   5.689 -0.4963  0.6912 -0.3622
 4934SOL    HW126438   1.521   0.077   5.621  1.2385 -2.4523 -1.0370
 4934SOL    HW226439   1.669   0.088   5.643  0.1455  1.4049  0.6584
 4935SOL     OW26440   1.449   2.816   4.464 -0.0878 -0.5575 -1.7492
 4935SOL    HW126441   1.506   2.796   4.539  1.5427  0.1235 -2.8038
 4935SOL    HW226442   1.512   2.862   4.408  1.7328  0.9347  1.5005
 4936SOL     OW26443   3.769   4.426  16.136  0.7787  0.3310  0.2960
 4936SOL    HW126444   3.678   4.400  16.118  0.2387  2.3249  0.1729
 4936SOL    HW226445   3.753   4.462  16.223 -0.9436  1.9717 -0.7158
 4937SOL     OW26446   1.009   1.800   5.774  0.5194  0.1790  0.1461
 4937SOL    HW126447   1.001   1.846   5.691  1.4450  0.1605  0.0533
 4937SOL    HW226448   1.028   1.707   5.760 -2.8019 -0.4724 -0.1422
 4938SOL     OW26449   0.919   2.913   6.075 -0.4958  0.1235  0.2327
 4938SOL    HW126450   0.924   2.828   6.117 -1.1741  0.4081  0.8824
 4938SOL    HW226451   0.959   2.884   5.993 -0.8848  0.8133 -0.2071
 4939SOL     OW26452   1.394   0.134   8.359 -0.0133 -0.1201 -0.1330
 4939SOL    HW126453   1.362   0.047   8.383  2.4886 -0.4698  1.8714
 4939SOL    HW226454   1.474   0.113   8.312  1.0678  0.8406  1.2777
 4940SOL     OW26455   2.178   1.435   3.755  0.3635 -0.5688 -0.3303
 4940SOL    HW126456   2.095   1.388   3.760  0.1806 -0.2128 -0.0398
 4940SOL    HW226457   2.181   1.505   3.820  1.3721 -1.4739  0.6084
 4941SOL     OW26458   0.532   2.825  14.282  0.1367 -0.2471 -0.0248
 4941SOL    HW126459   0.579   2.749  14.316  0.0165 -1.1913 -1.9913
 4941SOL    HW226460   0.596   2.892  14.259 -1.2359  0.6957 -1.1627
 4942SOL     OW26461   0.533   2.236   9.560 -0.2812 -0.6857  0.5146
 4942SOL    HW126462   0.575   2.287   9.490  0.7382 -1.5391  0.5043
 4942SOL    HW226463   0.553   2.294   9.634  0.7269 -0.1199 -0.1954
 4943SOL     OW26464   4.418   2.992   5.989  0.4447 -0.0305 -0.3975
 4943SOL    HW126465   4.427   2.956   5.901 -0.7738 -1.1018 -0.0878
 4943SOL    HW226466   4.326   3.019   5.996  0.2884 -1.1950  2.1148
 4944SOL     OW26467   2.428   2.121   1.754  0.5213  0.6367 -0.0686
 4944SOL    HW126468   2.501   2.070   1.717  0.9623 -0.6436  2.6128
 4944SOL    HW226469   2.463   2.210   1.758 -0.1110  0.8028  1.6627
 4945SOL     OW26470   4.406   1.106  12.962  0.4997 -0.0170  0.0957
 4945SOL    HW126471   4.459   1.037  13.001  1.6037  1.9725  2.1476
 4945SOL    HW226472   4.416   1.083  12.870 -1.5904  0.4057 -0.2403
 4946SOL     OW26473   2.827   1.319   5.058 -0.0784  0.2070  0.1716
 4946SOL    HW126474   2.922   1.318   5.073  0.2280  0.5008 -1.6397
 4946SOL    HW226475   2.821   1.270   4.976  0.8777  1.2704 -0.5306
 4947SOL     OW26476   3.742   3.926   8.419  0.4489 -0.7413 -0.2337
 4947SOL    HW126477   3.825   3.960   8.454 -0.9314  1.2527  1.0455
 4947SOL    HW226478   3.680   3.912   8.490 -0.8545  0.1443 -1.2021
 4948SOL     OW26479   1.573   1.143   9.674 -0.4784  0.3405  0.0819
 4948SOL    HW126480   1.492   1.101   9.702 -0.0641  0.0691  0.8498
 4948SOL    HW226481   1.622   1.155   9.755  0.5083  0.1073 -0.4745
 4949SOL     OW26482   1.929   2.863  10.639  0.0902  0.2885 -0.0672
 4949SOL    HW126483   1.974   2.833  10.561  1.0301  0.2078  0.5139
 4949SOL    HW226484   1.986   2.822  10.703  0.7478  1.6039  0.2005
 4950SOL     OW26485   2.405   4.090   1.388  0.3301 -0.3481  0.5264
 4950SOL    HW126486   2.398   4.155   1.458  0.7861 -1.0470  1.2208
 4950SOL    HW226487   2.427   4.014   1.443 -1.3386 -1.1825  0.0511
 4951SOL     OW26488   1.009   3.889   1.345 -0.1093  0.0900 -0.4271
 4951SOL    HW126489   1.029   3.802   1.379 -1.9879  0.1800  0.8947
 4951SOL    HW226490   1.074   3.938   1.395  0.7123  0.1984 -1.5862
 4952SOL     OW26491   2.868   1.896   9.614  0.1995 -0.1767  0.0381
 4952SOL    HW126492   2.774   1.896   9.599  0.2356  1.0070 -0.1574
 4952SOL    HW226493   2.884   1.987   9.639  0.7821  0.0805 -1.2959
 4953SOL     OW26494   3.642   4.009   7.871 -0.5455  0.3109 -0.0041
 4953SOL    HW126495   3.689   3.932   7.841 -0.6217  0.1182  0.3717
 4953SOL    HW226496   3.698   4.086   7.857  2.0612 -1.5770  0.1983
 4954SOL     OW26497   3.699   4.067   7.234  0.2061 -0.3083 -0.0959
 4954SOL    HW126498   3.737   3.980   7.227  2.9474  0.7796  1.2565
 4954SOL    HW226499   3.609   4.045   7.211 -0.3016  1.2088  0.4760
 4955SOL     OW26500   1.978   2.636   9.209  0.2641 -0.1505  0.1455
 4955SOL    HW126501   2.068   2.628   9.241  0.1994  0.2142  0.4136
 4955SOL    HW226502   1.968   2.573   9.138  1.1386  1.2563 -1.2216
 4956SOL     OW26503   0.032   3.507   4.233 -0.1934 -0.0159  0.8929
 4956SOL    HW126504   0.088   3.574   4.194 -4.3070  2.5779 -0.6128
 4956SOL    HW226505   4.713   3.487   4.159 -0.1993  0.5557  0.7456
 4957SOL     OW26506   0.048   2.415  11.807 -0.7065 -0.0397  0.6369
 4957SOL    HW126507   0.084   2.502  11.791  2.1101 -0.6733  3.5537
 4957SOL    HW226508   0.127   2.390  11.854 -0.5664 -0.0552  0.3968
 4958SOL     OW26509   1.666   2.234   1.237  0.4779  0.0660 -0.3150
 4958SOL    HW126510   1.696   2.187   1.315  0.6261  1.0630  0.2220
 4958SOL    HW226511   1.582   2.189   1.225  0.9367 -1.0763  0.6876
 4959SOL     OW26512   2.068   1.880  16.450  0.0905 -0.7062  0.0564
 4959SOL    HW126513   2.114   1.964  16.450 -0.4656 -0.4004 -1.3369
 4959SOL    HW226514   2.026   1.872  16.536  0.5562  1.7027  0.5087
 4960SOL     OW26515   3.593   1.410   9.753 -0.3674  0.2614  0.0277
 4960SOL    HW126516   3.570   1.334   9.700 -0.7979  0.5517 -0.2023
 4960SOL    HW226517   3.630   1.367   9.831 -1.9200 -2.1138 -0.5519
 4961SOL     OW26518   2.127   0.121   8.472  0.6471  0.0533  0.0144
 4961SOL    HW126519   2.165   0.172   8.401  0.0887  1.9562  1.0725
 4961SOL    HW226520   2.151   0.180   8.544  0.3716 -0.6290  0.6659
 4962SOL     OW26521   4.177   1.044  17.029 -0.0956  0.4194  0.3497
 4962SOL    HW126522   4.187   0.973  17.091  0.2038  0.0181 -0.1594
 4962SOL    HW226523   4.264   1.084  17.041 -0.7270  2.1723 -0.8632
 4963SOL     OW26524   1.297   3.003  14.343 -0.0206  0.0313  0.2289
 4963SOL    HW126525   1.349   3.071  14.387 -0.6691 -0.4443  1.7339
 4963SOL    HW226526   1.290   3.044  14.257 -0.6606  0.3838  0.4520
 4964SOL     OW26527   1.171   1.853  10.280  0.1569 -0.2218  0.1004
 4964SOL    HW126528   1.160   1.948  10.286 -1.8980 -0.2433 -3.1608
 4964SOL    HW226529   1.235   1.837  10.210 -1.0536 -1.7589 -0.6601
 4965SOL     OW26530   2.172   0.118   6.158 -0.4606 -0.0452 -0.2548
 4965SOL    HW126531   2.117   0.195   6.173  2.3834  2.0539 -0.6279
 4965SOL    HW226532   2.138   0.082   6.076 -0.9584 -0.8758  0.3170
 4966SOL     OW26533   2.320   3.007   1.486 -0.3973 -0.3265  0.3759
 4966SOL    HW126534   2.339   2.929   1.434 -0.4421  0.1014 -0.2920
 4966SOL    HW226535   2.224   3.005   1.482 -0.4188 -1.9815  2.0436
 4967SOL     OW26536   1.720   3.791   7.951  0.0576  0.4136 -0.0408
 4967SOL    HW126537   1.764   3.795   8.036 -0.4425  2.2325  0.1492
 4967SOL    HW226538   1.788   3.819   7.891  0.7546  1.6484  1.3258
 4968SOL     OW26539   0.630   1.481   6.795 -0.3724  0.2328  0.3803
 4968SOL    HW126540   0.670   1.466   6.881  1.5341  1.1098 -0.3574
 4968SOL    HW226541   0.539   1.474   6.824 -0.5464  2.6399  0.3798
 4969SOL     OW26542   2.971   2.988   0.300  0.3104 -0.1563 -0.2178
 4969SOL    HW126543   2.954   3.032   0.384  2.1919 -0.8491  0.5252
 4969SOL    HW226544   2.941   3.051   0.235  3.7637  1.1017 -0.5583
 4970SOL     OW26545   4.040   0.769   5.077 -0.3435 -0.3630  0.1593
 4970SOL    HW126546   4.096   0.789   5.152  2.8450 -3.4916 -1.3700
 4970SOL    HW226547   3.975   0.711   5.117 -1.9272  0.3223 -1.4221
 4971SOL     OW26548   0.195   3.516   7.712 -0.1169 -0.1652 -0.0900
 4971SOL    HW126549   0.286   3.507   7.682  0.2656 -0.2426  1.1113
 4971SOL    HW226550   0.200   3.549   7.801  2.4453  0.9876 -0.6527
 4972SOL     OW26551   4.090   1.280   8.324 -0.2154  0.0385  0.1582
 4972SOL    HW126552   4.085   1.185   8.333  1.7246 -0.0386  0.4558
 4972SOL    HW226553   4.021   1.288   8.258 -0.2425 -0.6072  0.1016
 4973SOL     OW26554   1.559   4.506   6.055  0.0293 -0.3064 -0.4532
 4973SOL    HW126555   1.609   4.534   6.131  0.7972 -2.7461 -0.0781
 4973SOL    HW226556   1.495   4.575   6.035 -0.1181 -0.8238 -1.7639
 4974SOL     OW26557   4.313   1.402   4.529  0.0551  0.0429 -0.6347
 4974SOL    HW126558   4.396   1.363   4.558 -0.2286 -0.0676  0.0356
 4974SOL    HW226559   4.269   1.343   4.468 -0.6171 -2.6132  2.3813
 4975SOL     OW26560   4.299   0.711  13.117 -0.0761 -0.1937  0.6991
 4975SOL    HW126561   4.254   0.767  13.054  0.2824 -1.1026 -0.3695
 4975SOL    HW226562   4.367   0.771  13.148 -0.1531 -0.8359  2.1190
 4976SOL     OW26563   1.452   3.404   3.287  0.1402 -0.0648  0.2022
 4976SOL    HW126564   1.537   3.373   3.254 -0.0473 -0.1963 -0.1609
 4976SOL    HW226565   1.473   3.420   3.379 -1.2632 -0.9136  0.6830
 4977SOL     OW26566   4.638   3.084   5.762 -0.3575 -0.3960 -0.4884
 4977SOL    HW126567   4.667   3.055   5.848  1.0878 -2.1141 -1.5844
 4977SOL    HW226568   4.560   3.030   5.752 -0.8589  0.0566  0.8584
 4978SOL     OW26569   1.781   4.647   6.186 -0.4284  0.1496  0.7746
 4978SOL    HW126570   1.867   4.636   6.147 -1.5986 -0.2550 -1.6960
 4978SOL    HW226571   1.776   4.584   6.258  3.7805 -2.4413 -1.1979
 4979SOL     OW26572   1.299   1.012  13.499 -0.0215 -0.3754 -0.6110
 4979SOL    HW126573   1.242   0.959  13.443  0.6275 -0.2283 -1.4108
 4979SOL    HW226574   1.317   1.089  13.446  1.7291 -0.2792  0.1060
 4980SOL     OW26575   2.209   4.531  12.777  0.2661 -0.3001  0.3899
 4980SOL    HW126576   2.256   4.589  12.717 -1.6327 -0.0318 -0.8230
 4980SOL    HW226577   2.170   4.477  12.708 -0.6208  0.2828  0.4428
 4981SOL     OW26578   4.508   2.561   8.346  0.5106 -0.0316  0.7700
 4981SOL    HW126579   4.476   2.545   8.257 -0.7738  0.9584  1.0510
 4981SOL    HW226580   4.568   2.487   8.351  1.1771  0.4704  0.2023
 4982SOL     OW26581   1.258   1.603   6.021 -0.0127 -0.3172 -0.2641
 4982SOL    HW126582   1.174   1.561   6.041  0.3643 -0.1967  1.5746
 4982SOL    HW226583   1.238   1.695   6.006  0.4855 -0.1729 -0.0409
 4983SOL     OW26584   4.079   4.256  11.638 -0.3582 -0.0066 -0.5946
 4983SOL    HW126585   4.156   4.279  11.691  0.1832  0.4973 -1.5833
 4983SOL    HW226586   4.071   4.163  11.656 -0.8753 -0.1827 -1.7494
 4984SOL     OW26587   0.618   3.171   8.571 -0.4758  0.0570 -0.2564
 4984SOL    HW126588   0.562   3.096   8.592 -0.7860 -0.2110 -2.0381
 4984SOL    HW226589   0.685   3.132   8.515  0.8255 -1.2523  2.1875
 4985SOL     OW26590   0.997   0.384  13.427 -0.5188  0.2494 -0.3819
 4985SOL    HW126591   1.009   0.304  13.477  2.2711 -0.1378 -1.6918
 4985SOL    HW226592   1.009   0.459  13.486 -1.4638 -1.0900  1.4928
 4986SOL     OW26593   3.121   2.367   7.841  0.1082  0.2901 -0.2039
 4986SOL    HW126594   3.156   2.451   7.868  0.5208  0.9827 -2.8530
 4986SOL    HW226595   3.051   2.351   7.905  0.0915  1.0290 -0.0447
 4987SOL     OW26596   1.071   4.379   8.424 -0.0174 -0.2141 -0.0662
 4987SOL    HW126597   1.101   4.291   8.446  0.3396  0.0979  0.6794
 4987SOL    HW226598   1.143   4.436   8.450  0.4429 -1.7909  2.0756
 4988SOL     OW26599   4.658   0.553  10.316 -0.1605 -0.5294  0.1442
 4988SOL    HW126600   4.663   0.513  10.229  0.5653  0.7114 -0.3934
 4988SOL    HW226601   4.731   0.514  10.365  0.5464  0.0209 -0.4548
 4989SOL     OW26602   2.600   2.935   0.130  0.0145 -0.3012 -0.3969
 4989SOL    HW126603   2.605   3.014   0.077  1.2305 -1.2592 -1.7103
 4989SOL    HW226604   2.511   2.898   0.126 -1.1461  2.8358 -3.4626
 4990SOL     OW26605   4.293   0.946   7.846 -0.4129  0.2311 -0.1273
 4990SOL    HW126606   4.201   0.971   7.832 -1.5801 -3.7516  0.2906
 4990SOL    HW226607   4.314   0.980   7.933 -1.9765 -0.2016  0.4219
 4991SOL     OW26608   0.190   3.093   9.415 -0.0113  0.4415 -0.0921
 4991SOL    HW126609   0.190   3.131   9.328  0.6130  0.6026 -0.0253
 4991SOL    HW226610   0.102   3.061   9.433 -0.2891  1.6127  0.6455
 4992SOL     OW26611   1.789   2.197   2.753 -0.1486 -0.0359 -0.3217
 4992SOL    HW126612   1.809   2.223   2.663  1.4428 -0.3568 -0.0598
 4992SOL    HW226613   1.790   2.284   2.794  0.2814  1.0508 -2.6118
 4993SOL     OW26614   2.279   2.109   8.055  0.7060 -0.0033 -0.0857
 4993SOL    HW126615   2.363   2.081   8.092  0.1505 -2.1978 -0.4716
 4993SOL    HW226616   2.266   2.041   7.989  0.2031 -0.1497  0.1571
 4994SOL     OW26617   2.182   3.943   8.700 -0.2419  0.2595 -0.2581
 4994SOL    HW126618   2.232   3.904   8.629  2.3116  0.7228  1.2774
 4994SOL    HW226619   2.098   3.906   8.675  0.7814 -0.8229 -2.0500
 4995SOL     OW26620   1.756   3.799   6.276  0.1975 -0.2269  0.3262
 4995SOL    HW126621   1.810   3.825   6.200 -2.4665  0.8840 -1.1767
 4995SOL    HW226622   1.802   3.848   6.344 -3.7161  1.5879  1.6017
 4996SOL     OW26623   4.238   4.703   9.206 -0.4818  0.0690 -0.8652
 4996SOL    HW126624   4.205   4.639   9.269 -1.5448 -0.1245 -1.6010
 4996SOL    HW226625   4.280   4.643   9.145  1.5369  0.4174  0.1809
 4997SOL     OW26626   1.882   3.263  12.961  0.1966  0.1910 -0.2291
 4997SOL    HW126627   1.827   3.188  12.938 -0.7994  0.7842  0.1950
 4997SOL    HW226628   1.960   3.209  12.953 -0.5311 -1.0594  1.1645
 4998SOL     OW26629   1.502   3.468   7.658  0.1119 -0.1547 -0.3466
 4998SOL    HW126630   1.569   3.469   7.726  0.4458  1.0519 -0.6892
 4998SOL    HW226631   1.483   3.562   7.656 -1.6014 -0.5189 -1.7486
 4999SOL     OW26632   2.035   2.736  13.267 -0.0907 -0.3401  0.1112
 4999SOL    HW126633   2.102   2.720  13.201  1.3420  0.5028  1.3260
 4999SOL    HW226634   2.083   2.795  13.326 -0.2932 -1.1789  1.1145
 5000SOL     OW26635   0.815   0.684  13.341  0.4135  1.3620 -0.0462
 5000SOL    HW126636   0.777   0.671  13.428  0.6184 -1.4628 -0.3866
 5000SOL    HW226637   0.882   0.616  13.349  0.7762  1.5804 -1.3285
 5001SOL     OW26638   4.111   2.184   7.496 -0.8290 -0.1845 -0.2945
 5001SOL    HW126639   4.152   2.233   7.424  0.4598  3.3924  2.8641
 5001SOL    HW226640   4.019   2.177   7.471 -0.7158  0.6439 -0.9682
 5002SOL     OW26641   0.551   1.995   0.038  0.4115 -0.1544 -0.3595
 5002SOL    HW126642   0.470   1.992  17.745  0.2468 -1.4589 -0.0102
 5002SOL    HW226643   0.530   1.951   0.120  0.6970  0.4358  0.0322
 5003SOL     OW26644   3.797   3.789   7.255 -0.0781  0.2055  0.0038
 5003SOL    HW126645   3.755   3.704   7.267 -1.5135  0.9959  0.5555
 5003SOL    HW226646   3.870   3.782   7.317  0.1767 -1.2362 -0.4666
 5004SOL     OW26647   2.637   1.051   6.512  0.2035  0.0457 -0.9862
 5004SOL    HW126648   2.561   1.107   6.524  0.1483  0.2443 -2.3424
 5004SOL    HW226649   2.600   0.963   6.518 -1.4386  0.8856  0.9427
 5005SOL     OW26650   0.065   1.441   1.910  0.3252  0.0208 -0.1703
 5005SOL    HW126651   0.065   1.530   1.873  3.3541 -0.0935 -0.5134
 5005SOL    HW226652   4.719   1.442   1.952 -0.4760 -0.8032 -1.7705
 5006SOL     OW26653   2.615   3.834   5.542  0.4524  0.0422  0.9117
 5006SOL    HW126654   2.600   3.842   5.448 -1.9012 -2.9822  1.0162
 5006SOL    HW226655   2.697   3.884   5.540  0.9050 -0.7258  0.4343
 5007SOL     OW26656   3.224   3.032   7.036  0.2508  0.2919 -0.0528
 5007SOL    HW126657   3.166   3.086   6.982 -1.6757  0.5058  2.2525
 5007SOL    HW226658   3.300   3.030   6.978  1.7835 -1.1634  2.0461
 5008SOL     OW26659   0.431   3.754  11.396 -0.2493 -0.0374 -0.0786
 5008SOL    HW126660   0.337   3.772  11.398 -0.3902 -0.9630  1.6681
 5008SOL    HW226661   0.469   3.834  11.431  1.6731 -1.2404  0.5957
 5009SOL     OW26662   3.105   1.166  13.892  0.2843 -0.3558  0.3953
 5009SOL    HW126663   3.143   1.093  13.940 -0.5725  0.2238  1.9405
 5009SOL    HW226664   3.012   1.142  13.895  0.3411 -0.5232  0.7995
 5010SOL     OW26665   2.581   2.686   2.081 -0.4663 -0.0777 -0.5812
 5010SOL    HW126666   2.593   2.638   1.998 -0.3246  0.0805 -0.6508
 5010SOL    HW226667   2.582   2.613   2.143  0.1122 -1.1843 -1.8744
 5011SOL     OW26668   3.958   3.677  14.349 -0.2797  0.0361 -0.3251
 5011SOL    HW126669   4.048   3.676  14.384  0.5484 -1.9069 -2.5109
 5011SOL    HW226670   3.958   3.762  14.305  1.8351 -0.4556 -1.2652
 5012SOL     OW26671   3.622   1.448   1.910  0.1870  0.0856  0.3243
 5012SOL    HW126672   3.540   1.401   1.894 -0.7134  1.5377  0.7037
 5012SOL    HW226673   3.615   1.457   2.005  1.8410 -0.1555  0.4772
 5013SOL     OW26674   1.772   2.352  10.391 -0.0919  0.2325 -0.4792
 5013SOL    HW126675   1.737   2.434  10.427  2.8835  0.7282  1.2733
 5013SOL    HW226676   1.844   2.348  10.454  0.7647  1.5425 -1.3720
 5014SOL     OW26677   1.345   1.614  17.693  0.1057 -0.0154  0.2153
 5014SOL    HW126678   1.262   1.565  17.691  1.2408 -1.8555 -2.1452
 5014SOL    HW226679   1.404   1.549  17.654 -0.7072 -0.0357 -1.0173
 5015SOL     OW26680   3.337   0.926  17.654  0.0809  0.3163 -0.2663
 5015SOL    HW126681   3.280   0.923  17.577 -0.3399 -1.8241  0.1458
 5015SOL    HW226682   3.283   0.924  17.733 -0.3849 -0.4565 -0.6105
 5016SOL     OW26683   1.545   1.068   6.254 -0.3689  0.0040  0.0101
 5016SOL    HW126684   1.449   1.070   6.255 -0.3720 -0.6994  1.2153
 5016SOL    HW226685   1.557   1.151   6.208  0.3504  0.6651  1.3970
 5017SOL     OW26686   3.864   3.326   7.254  0.2212 -0.0132 -0.0756
 5017SOL    HW126687   3.801   3.398   7.256  0.2225  0.0226 -1.3145
 5017SOL    HW226688   3.892   3.317   7.345  3.4165 -0.9794 -1.1565
 5018SOL     OW26689   0.226   1.039  16.910 -0.0500  0.1441 -0.2040
 5018SOL    HW126690   0.224   0.955  16.864 -0.5227 -1.1034  2.0939
 5018SOL    HW226691   0.132   1.036  16.925  0.2117 -0.7547  1.2992
 5019SOL     OW26692   3.464   1.182  15.317  0.0472  0.2496  0.0628
 5019SOL    HW126693   3.454   1.271  15.284 -0.9944  0.4428  0.8955
 5019SOL    HW226694   3.458   1.122  15.242 -0.7206  0.2171  0.1474
 5020SOL     OW26695   3.461   2.327   5.734  0.3458  0.1377 -0.2903
 5020SOL    HW126696   3.414   2.369   5.806  0.9821  0.9579 -0.3450
 5020SOL    HW226697   3.534   2.388   5.722  0.9792 -0.1578  2.1061
 5021SOL     OW26698   1.867   4.497   6.491  0.0755  0.2054  0.0157
 5021SOL    HW126699   1.957   4.520   6.466 -0.2068  0.2879 -0.8963
 5021SOL    HW226700   1.850   4.429   6.427 -2.3762  0.6115  0.2412
 5022SOL     OW26701   2.618   1.005   5.233 -0.2322  0.0452 -0.4441
 5022SOL    HW126702   2.535   1.046   5.207  0.1426 -0.3510 -2.2524
 5022SOL    HW226703   2.638   1.060   5.309  0.1394  0.1032 -0.5848
 5023SOL     OW26704   1.962   1.153   7.815  0.7617  0.1605 -0.2584
 5023SOL    HW126705   1.906   1.081   7.787 -1.1893  1.2800  0.7297
 5023SOL    HW226706   2.025   1.152   7.744  2.6693  2.7595  1.4034
 5024SOL     OW26707   3.887   0.314   4.363  0.3522  0.3004  0.4738
 5024SOL    HW126708   3.925   0.229   4.385 -1.8434 -0.5685  0.7985
 5024SOL    HW226709   3.969   0.364   4.358 -0.5640  1.7196 -0.3009
 5025SOL     OW26710   1.701   3.283   9.210  0.2197 -0.6271 -0.1162
 5025SOL    HW126711   1.690   3.222   9.137 -0.6543  0.8111 -1.1752
 5025SOL    HW226712   1.781   3.327   9.181  0.3258 -0.7095  0.0489
 5026SOL     OW26713   1.123   1.928  11.857  0.6857  0.6268 -0.5642
 5026SOL    HW126714   1.070   2.006  11.871  0.3811  0.5239 -1.1950
 5026SOL    HW226715   1.060   1.859  11.840 -1.1071  2.2774 -0.6136
 5027SOL     OW26716   4.675   2.258   9.869 -0.4459  0.2146  0.2467
 5027SOL    HW126717   4.624   2.335   9.896  0.0638  0.5502  0.2525
 5027SOL    HW226718   4.615   2.186   9.889 -2.8245  2.1544  0.2549
 5028SOL     OW26719   1.906   4.154   8.035 -0.0469  0.1308  0.3011
 5028SOL    HW126720   1.893   4.126   8.126  2.9558 -0.3115  0.5986
 5028SOL    HW226721   1.833   4.213   8.019 -0.4634 -0.8493 -1.4085
 5029SOL     OW26722   2.851   1.032  13.086  0.3548  0.1763  0.0158
 5029SOL    HW126723   2.895   0.951  13.112 -0.1968 -0.3790 -0.7639
 5029SOL    HW226724   2.794   0.999  13.015  0.3754  0.2509 -0.0345
 5030SOL     OW26725   0.847   0.573   2.078  0.1354  0.1246  0.3093
 5030SOL    HW126726   0.934   0.578   2.119 -0.2994 -0.1174  1.2582
 5030SOL    HW226727   0.859   0.498   2.020  0.9885 -0.2279  0.9362
 5031SOL     OW26728   4.624   2.752  15.530 -0.2337 -0.5931 -0.1013
 5031SOL    HW126729   4.712   2.736  15.497  0.2235 -1.2325  1.4218
 5031SOL    HW226730   4.640   2.771  15.623 -0.6408  2.0626 -0.5747
 5032SOL     OW26731   1.577   4.282   9.029 -0.3305 -0.5344 -0.1910
 5032SOL    HW126732   1.547   4.221   9.096  1.9110 -1.2024  0.1982
 5032SOL    HW226733   1.510   4.347   9.048 -1.3432 -1.6626  0.0682
 5033SOL     OW26734   3.432   0.141   7.353 -0.2782 -0.2756  0.4032
 5033SOL    HW126735   3.373   0.212   7.380  2.4693  2.6719 -1.2276
 5033SOL    HW226736   3.478   0.181   7.279  1.1321 -0.2848  1.2779
 5034SOL     OW26737   4.700   4.204   8.357  0.1761 -0.0587  0.7652
 5034SOL    HW126738   4.709   4.240   8.446  2.7111 -0.7220  0.7596
 5034SOL    HW226739   0.012   4.266   8.307  1.8637 -1.5847  0.6203
 5035SOL     OW26740   3.047   2.859   3.793 -0.0844  0.0612  0.3203
 5035SOL    HW126741   3.072   2.926   3.856  0.2992 -0.9922  1.3098
 5035SOL    HW226742   3.120   2.800   3.814  1.4410  1.8458 -0.0426
 5036SOL     OW26743   1.626   2.060   6.257 -0.1488 -0.0382  0.2733
 5036SOL    HW126744   1.685   1.985   6.255  0.7980  0.6432  2.3522
 5036SOL    HW226745   1.541   2.017   6.258  0.4700 -1.3407 -1.8798
 5037SOL     OW26746   2.811   2.961   5.620  0.8399 -0.6335  0.8442
 5037SOL    HW126747   2.745   2.930   5.682  1.5422 -2.6519  0.5751
 5037SOL    HW226748   2.814   2.892   5.554 -1.9468  2.1978 -2.2604
 5038SOL     OW26749   1.679   0.331  12.214  0.0796  0.0352  0.0009
 5038SOL    HW126750   1.688   0.425  12.198 -1.5541  0.4829  1.6968
 5038SOL    HW226751   1.637   0.309  12.131  0.0779  0.7269 -0.1792
 5039SOL     OW26752   3.371   2.676   5.490 -0.1613  0.1342  0.3454
 5039SOL    HW126753   3.293   2.724   5.464  0.6462  1.3177  0.1180
 5039SOL    HW226754   3.329   2.591   5.503 -2.3362  1.1829  0.1562
 5040SOL     OW26755   4.550   3.095  16.579 -0.3073 -0.5800  0.3970
 5040SOL    HW126756   4.541   3.000  16.575  1.9809 -0.8002  0.7460
 5040SOL    HW226757   4.457   3.119  16.576 -0.4980 -1.1834  1.6115
 5041SOL     OW26758   3.598   4.504   3.655  0.3915 -0.0265  0.5275
 5041SOL    HW126759   3.639   4.578   3.700 -0.3228  0.8843 -0.2960
 5041SOL    HW226760   3.513   4.537   3.624 -0.0263 -0.0390  1.6443
 5042SOL     OW26761   2.557   3.847  17.353  0.4423  0.0047  0.0436
 5042SOL    HW126762   2.526   3.857  17.263 -2.3533 -0.6567  0.9456
 5042SOL    HW226763   2.589   3.760  17.328 -1.3435 -0.2243 -1.3809
 5043SOL     OW26764   0.700   2.668   1.948  0.6048 -0.2990 -0.5637
 5043SOL    HW126765   0.776   2.623   1.986 -0.0370  1.8718  3.2531
 5043SOL    HW226766   0.694   2.744   2.006  0.4276  0.1524 -1.1763
 5044SOL     OW26767   2.773   3.718   8.809 -0.5248 -0.4785  0.6072
 5044SOL    HW126768   2.740   3.649   8.867  1.4964 -0.6128  1.5820
 5044SOL    HW226769   2.701   3.781   8.797  0.8658  1.0901  0.4480
 5045SOL     OW26770   2.106   1.188   1.973 -0.3140 -0.3922 -0.4559
 5045SOL    HW126771   2.157   1.219   1.898 -1.0607 -3.0623 -2.0695
 5045SOL    HW226772   2.022   1.200   1.929  0.2353 -0.3803 -1.5092
 5046SOL     OW26773   2.450   4.237   2.355 -0.0105  0.4507  0.8996
 5046SOL    HW126774   2.463   4.199   2.269  0.3289  0.2126  1.0563
 5046SOL    HW226775   2.525   4.192   2.394  1.7601  0.6748 -2.2595
 5047SOL     OW26776   1.706   2.501   0.926  0.0615  0.0176  0.3013
 5047SOL    HW126777   1.652   2.500   0.847  0.3126  3.2901  0.0589
 5047SOL    HW226778   1.795   2.487   0.893 -0.2184 -0.2210 -0.3565
 5048SOL     OW26779   1.717   3.717   6.724  0.0094 -0.4381  0.2281
 5048SOL    HW126780   1.755   3.800   6.751  2.3180 -1.9016  1.4726
 5048SOL    HW226781   1.794   3.661   6.737  1.4804  1.7309  0.7636
 5049SOL     OW26782   1.952   3.327   7.119 -0.4297  0.6438  0.0585
 5049SOL    HW126783   2.015   3.361   7.183  1.1877  0.6466 -1.5395
 5049SOL    HW226784   1.991   3.348   7.034 -0.2176 -1.2257 -0.3111
 5050SOL     OW26785   3.610   0.038   3.927  0.0621 -0.0542  0.0867
 5050SOL    HW126786   3.587   0.072   3.841 -3.1972 -3.1130 -0.2433
 5050SOL    HW226787   3.528   4.735   3.952 -0.3065 -0.5154 -1.9347
 5051SOL     OW26788   4.715   0.519   2.345 -0.5351 -0.7718  0.2567
 5051SOL    HW126789   4.679   0.497   2.431 -1.5094  1.5563  0.4631
 5051SOL    HW226790   4.630   0.532   2.303  0.0698 -0.1439 -0.7669
 5052SOL     OW26791   0.539   1.280   2.310  0.1480 -0.0308  0.4363
 5052SOL    HW126792   0.563   1.235   2.391  2.1384 -1.1951 -0.7910
 5052SOL    HW226793   0.483   1.348   2.349 -1.2921 -0.6041 -0.6513
 5053SOL     OW26794   4.523   0.108  14.591 -0.0332 -0.0160  0.6536
 5053SOL    HW126795   4.525   0.014  14.610 -0.4654 -0.0567  0.4963
 5053SOL    HW226796   4.550   0.117  14.500  1.5492  0.2459  1.1482
 5054SOL     OW26797   2.383   0.608   7.160 -0.8139 -0.1865  0.2861
 5054SOL    HW126798   2.333   0.628   7.081 -1.8957  0.2208  1.0701
 5054SOL    HW226799   2.430   0.692   7.163 -1.6222  0.2244  1.4710
 5055SOL     OW26800   2.905   4.058   5.101 -0.3391 -0.1244 -0.1390
 5055SOL    HW126801   2.829   4.114   5.084 -0.9485 -1.4665 -1.8201
 5055SOL    HW226802   2.969   4.105   5.047  0.6130 -0.3390  0.7950
 5056SOL     OW26803   0.620   3.637   2.074 -0.0771  0.8902  0.2381
 5056SOL    HW126804   0.571   3.697   2.130 -0.1818  1.1253 -0.1088
 5056SOL    HW226805   0.571   3.555   2.078  0.2245  0.7274  0.5630
 5057SOL     OW26806   2.890   1.904   7.247 -0.1170 -0.0167  0.6540
 5057SOL    HW126807   2.830   1.886   7.174 -1.3200 -0.1181  1.6779
 5057SOL    HW226808   2.822   1.937   7.305 -2.4699 -0.0320 -2.0904
 5058SOL     OW26809   3.698   3.231  10.951  0.6509  0.1959 -0.0878
 5058SOL    HW126810   3.726   3.313  10.992  0.2629  0.9348 -1.3077
 5058SOL    HW226811   3.689   3.267  10.863 -0.5383 -0.6914 -0.3237
 5059SOL     OW26812   3.864   4.264   9.953  0.3576 -0.2137 -0.4690
 5059SOL    HW126813   3.957   4.266   9.930  0.0928 -1.7176 -1.6114
 5059SOL    HW226814   3.865   4.194  10.018 -0.4107 -2.9525 -3.4116
 5060SOL     OW26815   1.838   3.380   4.403 -0.4987 -0.5087 -0.1306
 5060SOL    HW126816   1.905   3.312   4.407 -0.5627 -0.6013 -0.5818
 5060SOL    HW226817   1.867   3.424   4.323  1.0463 -1.1049  0.0880
 5061SOL     OW26818   1.587   3.565   4.247 -0.2289 -0.0271  0.7092
 5061SOL    HW126819   1.674   3.605   4.240 -0.7053  1.2639  2.3712
 5061SOL    HW226820   1.528   3.626   4.290  2.3129  3.7039 -1.1298
 5062SOL     OW26821   1.111   1.348   0.400  0.9508 -0.1754  0.2062
 5062SOL    HW126822   1.033   1.309   0.360  2.0549 -1.2185 -0.9109
 5062SOL    HW226823   1.100   1.338   0.494  0.2207  0.8907  0.2387
 5063SOL     OW26824   2.090   2.337   7.544  0.6082  0.0526 -0.3815
 5063SOL    HW126825   2.105   2.258   7.493  0.9507  0.0398 -0.2580
 5063SOL    HW226826   2.167   2.356   7.598  0.1915 -2.1236  0.9585
 5064SOL     OW26827   0.274   3.510   6.329  0.1248  0.1182  0.0733
 5064SOL    HW126828   0.246   3.578   6.390  1.9516 -0.2302  1.3118
 5064SOL    HW226829   0.234   3.524   6.243  2.9046  0.5943 -1.1626
 5065SOL     OW26830   4.643   0.920  12.758 -0.4312  0.0414 -0.0171
 5065SOL    HW126831   4.680   0.950  12.841 -1.1612  0.3220  0.2125
 5065SOL    HW226832   4.704   0.976  12.709 -1.0222  1.4511  0.8485
 5066SOL     OW26833   0.219   3.051  12.148  0.1560  0.5464  0.5501
 5066SOL    HW126834   0.274   2.973  12.142  2.1071  1.9756  0.0267
 5066SOL    HW226835   0.204   3.060  12.053  2.0676 -1.2784  0.0660
 5067SOL     OW26836   1.002   3.633  14.730  0.0500 -0.3728  0.1787
 5067SOL    HW126837   0.991   3.562  14.794 -0.1594 -2.8027 -2.5392
 5067SOL    HW226838   1.001   3.581  14.650  0.3646  1.7370 -1.1665
 5068SOL     OW26839   3.461   2.887  14.178 -0.1189  0.4613 -0.0040
 5068SOL    HW126840   3.390   2.951  14.183  1.1575  1.8780 -0.2888
 5068SOL    HW226841   3.433   2.843  14.097 -1.9723  0.0580  0.8593
 5069SOL     OW26842   3.460   2.988   7.633 -0.6892  0.1812 -0.1415
 5069SOL    HW126843   3.447   3.031   7.718 -1.9856  0.6881 -0.5911
 5069SOL    HW226844   3.382   2.933   7.625  0.2057 -0.6075 -3.2637
 5070SOL     OW26845   4.479   3.660  14.951  0.9400  0.4233  0.6841
 5070SOL    HW126846   4.460   3.614  14.869  0.4700  3.1110 -0.7198
 5070SOL    HW226847   4.390   3.667  14.984  0.6670 -0.0935  0.0544
 5071SOL     OW26848   1.195   0.404   7.264 -0.1926  0.2505 -0.6558
 5071SOL    HW126849   1.220   0.369   7.179 -2.0479  0.0148 -1.1187
 5071SOL    HW226850   1.099   0.401   7.266 -0.2078  0.6322 -0.9571
 5072SOL     OW26851   4.682   2.488   7.670 -0.2742 -0.2235  0.2635
 5072SOL    HW126852   4.655   2.404   7.633 -1.6233 -0.6976  2.3184
 5072SOL    HW226853   4.672   2.546   7.594  1.8212  2.6351  2.2065
 5073SOL     OW26854   1.743   0.080   7.695  0.1916  0.2014 -0.2818
 5073SOL    HW126855   1.815   0.090   7.758  0.5338 -1.2291 -0.4394
 5073SOL    HW226856   1.795   0.082   7.614 -1.3971 -1.1506 -1.3378
 5074SOL     OW26857   1.344   3.379   7.852 -0.7381  0.2504 -0.3820
 5074SOL    HW126858   1.298   3.462   7.866 -2.7388 -1.0648  0.8310
 5074SOL    HW226859   1.383   3.400   7.767  1.7634 -0.1749  0.6359
 5075SOL     OW26860   0.296   1.378  15.434 -0.1360  0.1917  0.0492
 5075SOL    HW126861   0.307   1.416  15.347  0.7372  0.3743  0.2334
 5075SOL    HW226862   0.283   1.290  15.399  0.6123 -0.1562  0.6352
 5076SOL     OW26863   4.600   0.260  11.951 -0.0810  0.3515  0.1306
 5076SOL    HW126864   4.571   0.196  12.015  1.2259 -1.4740 -1.0855
 5076SOL    HW226865   4.595   0.202  11.874  0.0708  1.6520 -0.8643
 5077SOL     OW26866   3.684   4.065   2.784  0.4126  0.1914  0.4015
 5077SOL    HW126867   3.627   4.138   2.804 -0.4043 -0.5822  0.8954
 5077SOL    HW226868   3.727   4.048   2.868  1.0959  0.7037  0.1486
 5078SOL     OW26869   1.330   0.618   0.614 -0.0853  0.3279  0.1439
 5078SOL    HW126870   1.349   0.538   0.565  1.0626  0.9615 -0.4527
 5078SOL    HW226871   1.234   0.611   0.617 -0.1423  0.4723 -1.0900
 5079SOL     OW26872   2.632   0.793  10.071  0.3785 -0.2746 -0.0655
 5079SOL    HW126873   2.615   0.829   9.984 -1.2693  1.5300  0.9753
 5079SOL    HW226874   2.711   0.741  10.065  1.2263  0.9896  0.1465
 5080SOL     OW26875   3.787   4.061   1.777 -0.0868 -0.2009  0.4482
 5080SOL    HW126876   3.812   4.020   1.694  0.2805  1.3021 -0.1735
 5080SOL    HW226877   3.799   4.152   1.752  3.1667 -0.7783 -0.1032
 5081SOL     OW26878   0.685   3.946   7.571  0.7898  0.2346 -0.2556
 5081SOL    HW126879   0.682   3.940   7.666 -0.2537  0.2557 -0.2897
 5081SOL    HW226880   0.779   3.961   7.557  0.8989  0.0069  0.2399
 5082SOL     OW26881   3.560   1.064  17.629  0.2998 -0.1684  0.2335
 5082SOL    HW126882   3.533   1.046  17.539 -0.3232  0.2484  0.3371
 5082SOL    HW226883   3.487   1.022  17.674  0.2454 -0.7257 -0.3795
 5083SOL     OW26884   0.256   3.234   4.903  0.3433 -0.2741  0.1730
 5083SOL    HW126885   0.245   3.310   4.960  0.6430 -1.2727  1.5535
 5083SOL    HW226886   0.208   3.164   4.948 -1.9757  1.2298 -0.0038
 5084SOL     OW26887   0.426   3.541   7.237  0.0874  0.0283 -0.3893
 5084SOL    HW126888   0.436   3.468   7.298 -3.8954 -0.7307 -0.6500
 5084SOL    HW226889   0.482   3.514   7.164  1.9733 -2.3139  1.9213
 5085SOL     OW26890   4.456   3.677  13.013 -0.7458  0.2297  0.0305
 5085SOL    HW126891   4.491   3.744  13.072 -0.0399  0.7850 -1.0173
 5085SOL    HW226892   4.529   3.666  12.953 -0.2839 -2.0633  1.0139
 5086SOL     OW26893   0.726   2.032   7.334 -0.0087  0.0746  0.2638
 5086SOL    HW126894   0.804   1.986   7.302 -1.9508 -2.1701 -1.2728
 5086SOL    HW226895   0.746   2.033   7.427 -2.0714 -0.1046  0.7058
 5087SOL     OW26896   1.540   3.851   9.134  0.4910 -0.3756  0.3066
 5087SOL    HW126897   1.636   3.849   9.140  0.6388  4.9034 -0.2682
 5087SOL    HW226898   1.525   3.872   9.042  1.6893 -0.3635  0.1140
 5088SOL     OW26899   3.441   3.993   1.823  0.0423 -0.1402 -0.2052
 5088SOL    HW126900   3.397   3.987   1.739 -1.4647  0.2074  0.5569
 5088SOL    HW226901   3.508   3.926   1.808 -0.9001 -1.3115  0.8751
 5089SOL     OW26902   1.282   3.071  10.562  0.8479  0.2106  0.3385
 5089SOL    HW126903   1.354   3.046  10.619 -0.2311 -0.0496  1.5879
 5089SOL    HW226904   1.227   3.112  10.630  0.0326 -2.0311  1.0292
 5090SOL     OW26905   1.948   3.762   0.718  0.1817 -0.4728  0.4671
 5090SOL    HW126906   2.016   3.781   0.783  0.9906  2.3099 -1.1683
 5090SOL    HW226907   2.015   3.756   0.649 -1.0127 -1.2084 -0.6167
 5091SOL     OW26908   4.297   1.394   3.477 -0.2540 -0.0632 -0.3840
 5091SOL    HW126909   4.256   1.319   3.519 -0.7528  0.7544  0.5812
 5091SOL    HW226910   4.218   1.448   3.472 -0.1618  0.0681 -0.4173
 5092SOL     OW26911   3.104   3.159   2.356  0.0510 -1.2476  0.6473
 5092SOL    HW126912   3.173   3.127   2.414  1.3628  1.1335  0.4169
 5092SOL    HW226913   3.029   3.099   2.358 -1.1850  0.2231 -0.8217
 5093SOL     OW26914   4.325   2.399  16.510  0.2009 -0.0919 -0.3746
 5093SOL    HW126915   4.313   2.486  16.547 -0.8404 -0.1249 -0.6360
 5093SOL    HW226916   4.357   2.416  16.421 -0.8575 -2.4226 -1.1996
 5094SOL     OW26917   0.783   4.438   1.479 -0.1071 -0.6575 -0.2322
 5094SOL    HW126918   0.800   4.355   1.436  1.4293 -1.3570  1.7274
 5094SOL    HW226919   0.733   4.482   1.410  0.2142 -0.9935 -0.6786
 5095SOL     OW26920   0.478   4.464   6.898 -0.7246 -0.1471 -0.2855
 5095SOL    HW126921   0.495   4.382   6.851  0.7049 -1.4244  2.4718
 5095SOL    HW226922   0.560   4.466   6.947  0.3120 -1.1354 -1.9626
 5096SOL     OW26923   1.527   1.956  17.094 -0.3986  0.0197  0.1092
 5096SOL    HW126924   1.435   1.956  17.069 -0.4030 -0.3356  0.1267
 5096SOL    HW226925   1.531   2.042  17.135 -1.1557  0.0001  0.2143
 5097SOL     OW26926   3.279   1.040   4.542 -0.0065 -0.0990 -0.0102
 5097SOL    HW126927   3.279   1.113   4.604 -3.1151  0.7462 -0.9784
 5097SOL    HW226928   3.205   1.071   4.491 -1.8238  0.2789  2.8218
 5098SOL     OW26929   1.841   4.666   1.110  0.0124  0.2664  0.0052
 5098SOL    HW126930   1.814   4.656   1.201  0.3209 -0.8550 -0.0288
 5098SOL    HW226931   1.861   0.019   1.095 -0.8716  0.2370 -1.3214
 5099SOL     OW26932   4.666   3.847   0.477  0.6033 -0.4348 -0.7567
 5099SOL    HW126933   4.698   3.867   0.389  1.7898  1.0322  0.0217
 5099SOL    HW226934   4.639   3.930   0.516 -0.9572 -0.8642 -0.9083
 5100SOL     OW26935   4.538   0.553   3.033  0.0650  0.0007  0.0935
 5100SOL    HW126936   4.513   0.600   3.112  0.0186 -0.2819  0.2466
 5100SOL    HW226937   4.536   0.615   2.960  0.8297  0.5012  0.5002
 5101SOL     OW26938   3.471   2.636   2.764 -0.3108  0.0241 -0.1462
 5101SOL    HW126939   3.377   2.645   2.747 -0.1733  0.1803 -0.8557
 5101SOL    HW226940   3.491   2.579   2.690 -0.0215  0.1481 -0.1667
 5102SOL     OW26941   0.012   2.467   7.942 -0.5424 -0.6096  0.0149
 5102SOL    HW126942   4.724   2.484   7.852  0.0893 -0.5526 -0.1637
 5102SOL    HW226943   4.710   2.383   7.960 -0.3445 -0.5326  0.8165
 5103SOL     OW26944   2.255   1.526   6.018  0.5286 -0.2239 -0.3184
 5103SOL    HW126945   2.166   1.530   5.983  0.6718  1.9104 -0.4326
 5103SOL    HW226946   2.281   1.441   5.984  0.2350 -0.7312  0.7324
 5104SOL     OW26947   0.342   2.114   9.734 -0.0292 -0.1094 -0.0888
 5104SOL    HW126948   0.418   2.152   9.690  0.5455  0.0841  1.0763
 5104SOL    HW226949   0.306   2.058   9.665 -1.1316 -0.3094  0.6407
 5105SOL     OW26950   1.575   2.028   2.761  0.0064  0.1224  0.0194
 5105SOL    HW126951   1.496   2.070   2.796  0.6648 -1.4248  3.3829
 5105SOL    HW226952   1.636   2.102   2.768  0.7312 -0.6344  1.7538
 5106SOL     OW26953   4.527   1.078   7.104 -0.0329 -0.3680 -0.0053
 5106SOL    HW126954   4.570   1.070   7.019  1.4742  0.7242  0.6532
 5106SOL    HW226955   4.469   1.002   7.103  2.2653 -2.0751 -2.6687
 5107SOL     OW26956   4.069   0.327   4.719  0.5030  0.3289 -0.2983
 5107SOL    HW126957   4.083   0.343   4.812 -2.1345  2.0316 -0.1867
 5107SOL    HW226958   4.011   0.401   4.698 -1.7116 -1.4926 -0.4935
 5108SOL     OW26959   1.658   1.177   7.965 -0.0811  0.1955 -0.5038
 5108SOL    HW126960   1.567   1.148   7.959 -1.5777  4.4447  1.7069
 5108SOL    HW226961   1.700   1.100   7.925 -0.4651  0.2353 -0.9783
 5109SOL     OW26962   3.303   4.198   9.402  0.1812 -0.0044 -0.4193
 5109SOL    HW126963   3.258   4.114   9.392 -0.0274  0.0755 -0.1600
 5109SOL    HW226964   3.393   4.166   9.396 -0.1057 -1.3131  2.1485
 5110SOL     OW26965   2.861   4.519   3.666  0.2878  0.2930 -0.1199
 5110SOL    HW126966   2.884   4.608   3.639 -1.8919  0.6712 -0.7336
 5110SOL    HW226967   2.768   4.519   3.642  0.2088  0.8324  0.1934
 5111SOL     OW26968   3.923   1.662   2.794  0.1123  0.6921 -0.2286
 5111SOL    HW126969   3.977   1.730   2.754  0.4199  0.1096 -0.7956
 5111SOL    HW226970   3.984   1.589   2.803  0.0085  0.4793 -1.2817
 5112SOL     OW26971   3.285   2.377   6.032  0.0960  0.3072  0.4373
 5112SOL    HW126972   3.367   2.344   6.069  1.6502  2.4410 -1.0819
 5112SOL    HW226973   3.216   2.345   6.090 -0.2191  1.0065  0.4420
 5113SOL     OW26974   3.487   2.302  10.589 -0.0032  0.5661 -0.4215
 5113SOL    HW126975   3.483   2.207  10.581  0.4273  0.5359 -0.2911
 5113SOL    HW226976   3.476   2.320  10.682 -0.3212  1.7968 -0.6935
 5114SOL     OW26977   0.678   4.393   1.761 -0.4520  0.2483 -0.4793
 5114SOL    HW126978   0.745   4.423   1.700  1.4866  0.0963  1.5843
 5114SOL    HW226979   0.664   4.302   1.732  1.9047 -0.1944 -0.2306
 5115SOL     OW26980   3.244   0.613   8.185 -0.5392 -0.2013  0.2210
 5115SOL    HW126981   3.185   0.576   8.120 -1.0931 -1.1630  1.2713
 5115SOL    HW226982   3.267   0.534   8.233  1.2990  0.5468  0.5744
 5116SOL     OW26983   0.481   4.242  14.497  0.9086 -0.1108 -0.2426
 5116SOL    HW126984   0.520   4.160  14.528  0.5010 -0.4313 -0.5767
 5116SOL    HW226985   0.507   4.304  14.566 -0.0358 -1.9689  1.7879
 5117SOL     OW26986   4.423   2.214  15.413 -0.3975  0.3654  0.5508
 5117SOL    HW126987   4.479   2.261  15.474  0.5071 -0.8457  0.6479
 5117SOL    HW226988   4.359   2.176  15.473  0.3510 -2.2636 -0.3345
 5118SOL     OW26989   3.460   3.655  12.954 -0.2890  0.2041  0.2648
 5118SOL    HW126990   3.454   3.687  13.043 -0.3534  2.4267 -0.5444
 5118SOL    HW226991   3.388   3.701  12.911  1.8360  2.3887 -0.9288
 5119SOL     OW26992   3.321   1.897   6.901 -0.1232  0.3835  0.3653
 5119SOL    HW126993   3.227   1.891   6.917 -0.3601  1.5049 -0.6100
 5119SOL    HW226994   3.348   1.885   6.992 -1.4275  2.5199  1.0503
 5120SOL     OW26995   2.608   2.625   3.078 -0.1891  0.0881 -1.0043
 5120SOL    HW126996   2.641   2.585   3.159 -2.1424  0.0323 -0.2265
 5120SOL    HW226997   2.537   2.564   3.058  0.3757  0.1046 -3.0509
 5121SOL     OW26998   4.674   0.828   5.593 -0.3488 -0.5011  0.1612
 5121SOL    HW126999   0.022   0.862   5.614 -1.6433  2.0090  1.4695
 5121SOL    HW227000   4.627   0.857   5.672 -0.0372 -0.1807  0.2301
 5122SOL     OW27001   0.014   4.299  15.441  0.7059 -0.4329  0.4909
 5122SOL    HW127002   0.066   4.219  15.447  1.6703  0.1395 -0.1008
 5122SOL    HW227003   0.026   4.336  15.353  0.6579  1.2311  1.1904
 5123SOL     OW27004   2.631   3.582   4.497 -0.2670  0.0078 -0.2552
 5123SOL    HW127005   2.723   3.591   4.522 -0.1492 -1.1124 -0.2517
 5123SOL    HW227006   2.627   3.487   4.484 -2.9688  0.1233 -0.2254
 5124SOL     OW27007   0.756   2.363   5.623 -0.0722  0.5478 -0.1712
 5124SOL    HW127008   0.772   2.283   5.573 -2.3712 -0.6859  1.0725
 5124SOL    HW227009   0.767   2.331   5.713  2.4263 -1.3318 -1.1430
 5125SOL     OW27010   3.829   0.596  15.257 -0.3912  0.0262 -0.3565
 5125SOL    HW127011   3.771   0.524  15.284  0.5108 -0.1130  1.2259
 5125SOL    HW227012   3.768   0.658  15.297  0.2279 -0.7393  1.7798
 5126SOL     OW27013   4.396   2.902   2.127 -0.6919 -0.1944  0.3881
 5126SOL    HW127014   4.331   2.910   2.058 -0.5365  1.9269  0.4723
 5126SOL    HW227015   4.464   2.962   2.095 -2.3973 -0.0659 -2.9595
 5127SOL     OW27016   1.683   2.783   1.099  0.1346 -0.3699 -0.2223
 5127SOL    HW127017   1.654   2.692   1.098 -1.1981  0.0492  2.2671
 5127SOL    HW227018   1.773   2.774   1.130  0.3456 -0.7860 -0.9606
 5128SOL     OW27019   3.080   1.934   9.451  0.5787 -0.4843  0.6384
 5128SOL    HW127020   3.016   1.917   9.520  0.6768 -0.4737  0.7339
 5128SOL    HW227021   3.153   1.963   9.506  0.9220 -1.4274  0.6789
 5129SOL     OW27022   3.817   1.211  16.707 -0.0967 -0.0374 -0.7434
 5129SOL    HW127023   3.817   1.290  16.654 -0.7919 -0.1735 -0.9434
 5129SOL    HW227024   3.902   1.229  16.746 -0.8174 -0.7225  1.1664
 5130SOL     OW27025   1.385   0.476   3.432  0.6990  0.0459  0.9242
 5130SOL    HW127026   1.455   0.496   3.495  1.9679  2.1869 -1.1662
 5130SOL    HW227027   1.420   0.423   3.360  0.2587 -0.0272  0.7657
 5131SOL     OW27028   4.737   1.479  12.238  0.3515  0.2058  0.5729
 5131SOL    HW127029   4.686   1.398  12.239 -1.1037  1.1389  0.9307
 5131SOL    HW227030   4.673   1.548  12.222  1.4022  0.7120 -1.5306
 5132SOL     OW27031   0.381   2.142   9.989  0.4133 -0.6499  0.2565
 5132SOL    HW127032   0.296   2.121  10.028 -0.1596  0.1229 -0.5609
 5132SOL    HW227033   0.374   2.122   9.895 -1.5568 -0.6151  0.3894
 5133SOL     OW27034   1.413   0.473   8.184 -0.2050 -0.3193  0.0060
 5133SOL    HW127035   1.408   0.405   8.117 -0.7295  0.6437 -0.9196
 5133SOL    HW227036   1.325   0.510   8.177 -0.2428 -0.4102 -0.0015
 5134SOL     OW27037   4.197   3.337  14.016  0.4594 -0.4051  0.0834
 5134SOL    HW127038   4.128   3.374  14.070  2.5366 -1.4528  3.4114
 5134SOL    HW227039   4.274   3.367  14.064 -0.3014 -0.5834  1.3876
 5135SOL     OW27040   1.177   4.446  10.731 -0.1194 -0.1412 -0.5358
 5135SOL    HW127041   1.087   4.435  10.762 -0.4541  1.9672 -0.7445
 5135SOL    HW227042   1.157   4.430  10.638 -2.7898  1.4462 -0.2429
 5136SOL     OW27043   0.082   1.863  10.457 -0.1630 -0.2837  0.1465
 5136SOL    HW127044   0.174   1.880  10.478  0.1247 -1.6608 -0.0466
 5136SOL    HW227045   0.099   1.823  10.372  1.3454 -0.3223  0.4647
 5137SOL     OW27046   4.175   1.785   3.616 -0.1717  0.0357 -0.3469
 5137SOL    HW127047   4.203   1.756   3.703 -1.0140 -0.7051 -0.3276
 5137SOL    HW227048   4.131   1.863   3.651  0.7219  0.5466 -0.3670
 5138SOL     OW27049   0.811   2.951   9.544 -0.4992 -0.0193 -0.4066
 5138SOL    HW127050   0.763   2.877   9.507  1.5595 -1.8442  0.5943
 5138SOL    HW227051   0.790   2.945   9.637 -0.9333  1.2184 -0.4218
 5139SOL     OW27052   4.206   1.583   5.613 -0.0198  0.2750  0.2455
 5139SOL    HW127053   4.155   1.546   5.686  0.0086  1.0993  0.6843
 5139SOL    HW227054   4.189   1.514   5.549  1.8572 -0.1512  0.2198
 5140SOL     OW27055   4.478   2.939  13.787 -0.6096 -0.3653  0.3660
 5140SOL    HW127056   4.428   2.971  13.862 -3.4430 -2.9228 -0.4368
 5140SOL    HW227057   4.554   2.995  13.799 -1.8200  1.4302 -0.4787
 5141SOL     OW27058   1.426   1.489  11.766 -0.3072 -0.2651  0.0874
 5141SOL    HW127059   1.507   1.461  11.808  0.8375  4.2224  0.8300
 5141SOL    HW227060   1.364   1.458  11.833  0.3874  0.0977  0.8889
 5142SOL     OW27061   1.891   0.257  11.053 -0.5374 -0.7537 -0.1134
 5142SOL    HW127062   1.975   0.283  11.089 -0.5918 -1.1305  0.2913
 5142SOL    HW227063   1.915   0.168  11.024 -1.7971 -0.3849 -2.3185
 5143SOL     OW27064   1.215   1.155   4.692  0.3258 -0.3292 -0.2428
 5143SOL    HW127065   1.259   1.113   4.767 -0.9351  1.5020  1.5228
 5143SOL    HW227066   1.270   1.233   4.689  0.3019 -0.3781 -1.8139
 5144SOL     OW27067   2.903   3.444   2.991  0.3813  0.6115  0.3316
 5144SOL    HW127068   2.924   3.379   3.057 -0.7460 -0.3292 -0.2262
 5144SOL    HW227069   2.822   3.477   3.031  0.2864  1.2337 -0.3630
 5145SOL     OW27070   0.721   0.843   3.505 -0.2294  0.1549  0.5372
 5145SOL    HW127071   0.655   0.912   3.499  1.6342  1.9159  0.2304
 5145SOL    HW227072   0.669   0.768   3.480  0.6025 -0.6406  1.2005
 5146SOL     OW27073   2.672   2.749   8.965  0.2795  0.6383 -0.7120
 5146SOL    HW127074   2.699   2.802   9.040 -0.5336  0.9068 -0.6124
 5146SOL    HW227075   2.726   2.784   8.895 -0.4558 -0.8127 -2.0011
 5147SOL     OW27076   4.200   4.684   8.570  0.1366  0.7170 -0.3584
 5147SOL    HW127077   4.192   4.636   8.487  1.9629  1.1078 -0.7602
 5147SOL    HW227078   4.229   4.623   8.637 -0.5458  0.8543  0.0599
 5148SOL     OW27079   0.683   1.100   7.878 -0.1520  0.3751 -0.1417
 5148SOL    HW127080   0.709   1.105   7.787  2.1794 -0.3330  0.4904
 5148SOL    HW227081   0.710   1.189   7.904 -0.2222  0.6031 -0.8616
 5149SOL     OW27082   2.471   1.718   1.369 -0.3641 -0.1778 -0.5343
 5149SOL    HW127083   2.471   1.729   1.464  0.3830  1.8088 -0.7644
 5149SOL    HW227084   2.399   1.655   1.366 -0.6337  0.2220 -2.3480
 5150SOL     OW27085   2.854   2.361   9.490 -0.3369  0.4021  0.1359
 5150SOL    HW127086   2.868   2.324   9.577  1.1271 -0.4318 -0.4396
 5150SOL    HW227087   2.793   2.301   9.447 -0.6254  0.1199  0.9522
 5151SOL     OW27088   2.075   0.503   9.727  0.5368 -0.4692 -0.1492
 5151SOL    HW127089   2.159   0.457   9.733  0.6095  0.0454  3.1286
 5151SOL    HW227090   2.047   0.493   9.636 -0.9199  1.9943  0.0393
 5152SOL     OW27091   1.864   2.723  12.035 -0.3494 -0.4924 -0.5831
 5152SOL    HW127092   1.952   2.688  12.036 -1.0210 -2.1538  0.7970
 5152SOL    HW227093   1.851   2.737  12.129  1.7383 -0.2449 -0.3402
 5153SOL     OW27094   2.207   1.792   8.450  0.6037  0.0191  0.3377
 5153SOL    HW127095   2.289   1.841   8.451  0.6354 -0.1125  4.3203
 5153SOL    HW227096   2.223   1.743   8.530  0.2574 -0.3455  0.1853
 5154SOL     OW27097   0.526   0.611   6.983  0.0463  0.4947 -0.2912
 5154SOL    HW127098   0.612   0.627   7.022  0.3154  1.2560 -1.1944
 5154SOL    HW227099   0.562   0.583   6.898  0.8466 -0.2855  0.3093
 5155SOL     OW27100   2.038   0.523  17.517  0.2048  0.1765  0.1345
 5155SOL    HW127101   2.078   0.533  17.431 -1.6773 -1.5538 -0.9520
 5155SOL    HW227102   2.110   0.545  17.576 -1.3833  1.1302  1.7247
 5156SOL     OW27103   4.206   3.012  14.403  0.1737 -0.2135 -0.0889
 5156SOL    HW127104   4.225   2.951  14.331  0.2527 -2.0932  1.5279
 5156SOL    HW227105   4.194   2.964  14.484 -1.9396 -0.8920 -0.8084
 5157SOL     OW27106   0.821   4.155   5.638 -0.2998 -0.2877  0.1607
 5157SOL    HW127107   0.823   4.153   5.734  1.2787 -0.2156  0.1304
 5157SOL    HW227108   0.738   4.201   5.622 -0.6078 -0.7933  0.2913
 5158SOL     OW27109   1.577   0.988   7.096 -0.1221 -0.2660  0.3474
 5158SOL    HW127110   1.525   1.035   7.161 -0.8523 -1.2416  0.4722
 5158SOL    HW227111   1.577   1.046   7.020 -3.5033 -0.8792 -0.1168
 5159SOL     OW27112   3.814   3.510   8.582  0.0842  0.5448 -0.5180
 5159SOL    HW127113   3.739   3.528   8.526  0.1419 -0.8757 -1.0645
 5159SOL    HW227114   3.881   3.562   8.536  1.7373 -0.2898  0.9324
 5160SOL     OW27115   4.393   4.688  10.187 -0.2843 -0.2512 -0.1607
 5160SOL    HW127116   4.412   4.715  10.276 -1.6351  2.7633 -0.7794
 5160SOL    HW227117   4.475   4.678  10.138 -0.6125  0.9734 -0.9620
 5161SOL     OW27118   2.782   1.442  17.006  0.0418 -0.2403 -0.0104
 5161SOL    HW127119   2.796   1.522  16.955 -1.5659 -0.3366 -0.5965
 5161SOL    HW227120   2.777   1.473  17.097  0.3480 -1.1184  0.3008
 5162SOL     OW27121   3.036   4.457   4.378 -0.4004  0.4536  0.3241
 5162SOL    HW127122   3.003   4.407   4.452  1.2450 -2.2070 -0.7206
 5162SOL    HW227123   3.001   4.543   4.401 -2.4466  0.3035 -2.2291
 5163SOL     OW27124   0.681   3.682  12.306 -0.2441 -0.5526  0.1209
 5163SOL    HW127125   0.593   3.718  12.311 -1.2213 -3.0916  1.0546
 5163SOL    HW227126   0.661   3.589  12.306 -1.3783 -0.3056 -1.8823
 5164SOL     OW27127   3.536   1.715  13.913  0.5873 -0.1659  0.1360
 5164SOL    HW127128   3.473   1.777  13.951  0.3995  0.5313 -1.3115
 5164SOL    HW227129   3.479   1.665  13.854  0.2751 -0.6779  0.8719
 5165SOL     OW27130   0.976   0.526  16.776 -0.3568 -0.4956 -0.4418
 5165SOL    HW127131   0.954   0.477  16.855  1.8925 -1.0355 -0.1347
 5165SOL    HW227132   1.043   0.583  16.813 -1.1723  0.9816 -1.2482
 5166SOL     OW27133   2.861   2.877   7.840 -0.0019 -0.0631 -0.0791
 5166SOL    HW127134   2.825   2.793   7.870  1.7352 -0.3798  1.1277
 5166SOL    HW227135   2.795   2.930   7.885  1.5877  0.8740  1.1514
 5167SOL     OW27136   3.529   0.087   5.844 -0.4180 -0.2141  1.4637
 5167SOL    HW127137   3.472   0.059   5.915 -2.3972 -1.0001 -0.4235
 5167SOL    HW227138   3.567   0.003   5.818 -2.6453 -1.2522  1.5787
 5168SOL     OW27139   3.735   2.770   9.552 -0.5437  0.1198  0.3893
 5168SOL    HW127140   3.650   2.754   9.593 -1.3726  1.3485 -0.8491
 5168SOL    HW227141   3.797   2.705   9.586 -0.4229 -0.3205 -0.6719
 5169SOL     OW27142   0.055   0.855   0.618 -0.2869  0.3647  0.2035
 5169SOL    HW127143   0.052   0.763   0.646  0.3400 -0.1902 -1.5609
 5169SOL    HW227144   0.121   0.851   0.550  0.5881 -1.0877  1.1242
 5170SOL     OW27145   1.552   4.092   5.630 -0.1471  0.3056 -0.3136
 5170SOL    HW127146   1.473   4.038   5.622  1.3573 -1.7906 -0.7781
 5170SOL    HW227147   1.521   4.178   5.600 -2.5818 -0.8990 -1.2647
 5171SOL     OW27148   3.489   4.311   6.038 -0.0639  0.5867  0.7178
 5171SOL    HW127149   3.427   4.285   5.970  0.5065  0.5508  0.2089
 5171SOL    HW227150   3.443   4.362   6.106  2.4963  3.1225  0.5762
 5172SOL     OW27151   3.083   1.270   9.518  0.1400  0.2850 -0.4335
 5172SOL    HW127152   3.093   1.282   9.423 -0.5581  1.4177 -0.3644
 5172SOL    HW227153   3.068   1.359   9.550 -0.2843  0.3794 -0.8841
 5173SOL     OW27154   4.190   3.050   2.358 -0.3783  0.3934 -0.1289
 5173SOL    HW127155   4.122   3.009   2.305  1.0788 -0.0820 -1.6206
 5173SOL    HW227156   4.178   3.143   2.336 -1.0258  0.2318 -0.4719
 5174SOL     OW27157   2.120   2.461   5.921  0.1491  0.1238  0.1516
 5174SOL    HW127158   2.197   2.452   5.864 -0.1219 -0.1762 -0.1678
 5174SOL    HW227159   2.063   2.386   5.904  0.1688 -0.3359  2.1187
 5175SOL     OW27160   2.270   2.199   9.353 -0.0631  0.1120  0.5501
 5175SOL    HW127161   2.237   2.176   9.440  2.3058 -2.1154  0.8471
 5175SOL    HW227162   2.196   2.244   9.312  1.1821  0.6686 -1.0426
 5176SOL     OW27163   4.623   0.566  10.915  0.3576  0.5213  0.4916
 5176SOL    HW127164   4.549   0.510  10.892  0.8067  0.0060  0.3088
 5176SOL    HW227165   4.660   0.595  10.832  0.8250 -1.5881 -0.0441
 5177SOL     OW27166   2.734   0.500   3.691  0.0720  0.3328  0.2494
 5177SOL    HW127167   2.652   0.549   3.689  0.2330  0.5621 -1.4534
 5177SOL    HW227168   2.791   0.577   3.694 -0.0949  0.4220  1.0666
 5178SOL     OW27169   0.086   0.777   6.433  0.3084 -0.4265 -0.4502
 5178SOL    HW127170   0.133   0.706   6.389 -0.4093 -0.3242 -1.3713
 5178SOL    HW227171   0.158   0.831   6.466 -0.7024  0.4894  0.2650
 5179SOL     OW27172   2.895   3.607   4.617 -0.1626 -0.5225 -0.5941
 5179SOL    HW127173   2.890   3.512   4.627 -0.1493 -1.2123 -6.8997
 5179SOL    HW227174   2.944   3.623   4.697 -1.0200 -0.3357 -0.1037
 5180SOL     OW27175   3.160   4.653   2.813 -0.3029  0.9522  0.4366
 5180SOL    HW127176   3.111   4.707   2.751  0.5633  3.4531  1.9165
 5180SOL    HW227177   3.128   4.565   2.795 -1.0293  1.3382 -0.1311
 5181SOL     OW27178   4.366   3.495  13.207 -0.0600 -0.0022  0.1309
 5181SOL    HW127179   4.300   3.548  13.251  2.1580  0.0166  3.4337
 5181SOL    HW227180   4.393   3.552  13.135  0.5104  0.0721  0.4025
 5182SOL     OW27181   2.422   0.505  10.402  0.4902 -0.7056  0.3421
 5182SOL    HW127182   2.439   0.586  10.355  0.1534 -0.8665 -0.0549
 5182SOL    HW227183   2.372   0.454  10.337  0.7166  0.7894 -1.0000
 5183SOL     OW27184   0.880   3.745   8.897 -0.6984 -0.0884  0.0339
 5183SOL    HW127185   0.862   3.654   8.922  0.1031  0.4763  2.6360
 5183SOL    HW227186   0.974   3.756   8.911 -1.1524  1.9646  1.4509
 5184SOL     OW27187   2.500   1.370  16.846  0.2215 -0.3031 -0.0885
 5184SOL    HW127188   2.594   1.377  16.863 -0.3673  1.0427  2.5369
 5184SOL    HW227189   2.466   1.339  16.929 -1.3429  1.1638 -0.1750
 5185SOL     OW27190   0.100   0.165  10.846 -0.4706  0.5617 -0.1659
 5185SOL    HW127191   0.060   0.188  10.930 -0.4979  0.1241 -0.0608
 5185SOL    HW227192   0.023   0.124  10.807  0.9704 -0.3269 -2.0609
 5186SOL     OW27193   3.136   0.720   1.042  0.1280  0.3641  0.1453
 5186SOL    HW127194   3.168   0.760   1.122 -0.2189 -0.8979  0.9238
 5186SOL    HW227195   3.059   0.774   1.023 -1.2497 -1.6103 -0.0296
 5187SOL     OW27196   1.254   1.463  15.004  0.2877  0.2610  0.6540
 5187SOL    HW127197   1.233   1.518  14.928  0.8724 -1.2147 -0.5718
 5187SOL    HW227198   1.267   1.378  14.963  0.7674  0.6668 -0.0242
 5188SOL     OW27199   0.364   0.441   7.882 -0.0973  0.2359 -0.5454
 5188SOL    HW127200   0.360   0.482   7.969  0.4133  1.3929 -1.0694
 5188SOL    HW227201   0.304   0.496   7.831 -0.1226  0.9753  0.2844
 5189SOL     OW27202   1.267   2.832   1.179 -0.6434  0.5106  0.7053
 5189SOL    HW127203   1.273   2.867   1.090  1.3067  0.0145  0.6348
 5189SOL    HW227204   1.206   2.896   1.217 -1.3396  0.5700 -0.5372
 5190SOL     OW27205   0.276   3.183   8.756 -0.2496 -0.5393 -0.1502
 5190SOL    HW127206   0.257   3.274   8.734  1.4933  0.0652  0.9297
 5190SOL    HW227207   0.335   3.193   8.830 -1.6262  1.6973  0.6330
 5191SOL     OW27208   0.174   0.002   8.540  0.1966 -0.1422 -0.6776
 5191SOL    HW127209   0.150   0.093   8.524 -2.7833 -0.7245  0.4952
 5191SOL    HW227210   0.121   4.725   8.619  1.2231 -1.9843 -0.3809
 5192SOL     OW27211   0.372   3.415   3.395  1.0077 -0.4669 -0.0817
 5192SOL    HW127212   0.335   3.334   3.431  2.0052 -0.7183  0.3801
 5192SOL    HW227213   0.412   3.380   3.316  0.5868 -0.8809 -0.1157
 5193SOL     OW27214   0.229   2.374  13.383 -0.1954  0.0442  0.6001
 5193SOL    HW127215   0.238   2.425  13.303  0.6851  0.0694  0.7142
 5193SOL    HW227216   0.169   2.304  13.357  1.5283 -1.0274 -0.5332
 5194SOL     OW27217   1.608   3.371   1.930  0.8298 -0.2563 -0.2603
 5194SOL    HW127218   1.553   3.428   1.984  1.6160 -0.7317  1.0553
 5194SOL    HW227219   1.628   3.429   1.857 -0.7345 -0.0587 -0.5278
 5195SOL     OW27220   2.747   0.505   7.235 -0.5146  0.1954 -0.4894
 5195SOL    HW127221   2.697   0.580   7.204  1.1450  0.6585 -2.0804
 5195SOL    HW227222   2.783   0.526   7.321 -0.2060 -2.3363  0.0207
 5196SOL     OW27223   0.714   2.932   5.546  0.3574  0.1393  0.0026
 5196SOL    HW127224   0.646   2.971   5.601  1.9219  1.1846  1.1771
 5196SOL    HW227225   0.717   3.000   5.478  2.0747 -0.3307 -0.3826
 5197SOL     OW27226   3.960   1.282   2.821 -0.0245  0.4690  0.1422
 5197SOL    HW127227   4.007   1.349   2.870 -0.7598  0.1668  1.2513
 5197SOL    HW227228   4.003   1.204   2.856  0.1236  0.6476  0.3512
 5198SOL     OW27229   1.050   3.930   4.265  0.1414 -0.4823 -0.0346
 5198SOL    HW127230   0.974   3.987   4.253  0.6395  0.0365 -0.7279
 5198SOL    HW227231   1.093   3.950   4.182 -0.3796 -2.2717 -0.7298
 5199SOL     OW27232   3.643   1.616   4.172  0.5528 -0.0962 -0.6121
 5199SOL    HW127233   3.638   1.712   4.171 -0.5373 -0.1351  0.8869
 5199SOL    HW227234   3.626   1.600   4.265 -2.2409  3.0288 -0.5597
 5200SOL     OW27235   4.088   3.057   3.359  0.4358  0.2224  0.6568
 5200SOL    HW127236   4.030   2.981   3.361  2.5101 -1.3752  0.7038
 5200SOL    HW227237   4.088   3.065   3.263  0.8494  0.6040  0.6906
 5201SOL     OW27238   1.614   2.600   8.999 -0.6542  0.0585  0.2762
 5201SOL    HW127239   1.575   2.521   9.038 -0.3156 -0.2509 -0.0155
 5201SOL    HW227240   1.631   2.649   9.079 -0.8571  0.4669  0.0717
 5202SOL     OW27241   4.207   1.107   5.996 -0.2622  0.3039 -0.4400
 5202SOL    HW127242   4.271   1.177   6.007 -0.2835  0.6113 -2.3128
 5202SOL    HW227243   4.249   1.040   6.051 -0.5200  1.6823  1.4527
 5203SOL     OW27244   3.055   3.656   4.849  0.0673  0.1198 -0.1313
 5203SOL    HW127245   3.041   3.636   4.942  1.2453 -1.4600 -0.2886
 5203SOL    HW227246   3.138   3.610   4.832 -0.5038  0.1555 -2.9328
 5204SOL     OW27247   0.023   1.595  10.051 -0.2270  0.5151  0.0294
 5204SOL    HW127248   0.046   1.515  10.098  0.7720  0.4325 -0.6002
 5204SOL    HW227249   0.080   1.662  10.088  0.1441  0.2546 -0.0797
 5205SOL     OW27250   1.802   0.937   6.267 -0.2499  0.6668 -0.4594
 5205SOL    HW127251   1.720   0.963   6.225 -1.2622 -0.1848  1.0284
 5205SOL    HW227252   1.848   1.021   6.269 -0.5507  0.8594 -1.4349
 5206SOL     OW27253   0.253   3.448   8.736 -0.7168 -0.2707 -0.1742
 5206SOL    HW127254   0.170   3.495   8.729  1.1744  3.0431 -0.7931
 5206SOL    HW227255   0.298   3.459   8.652 -3.9013  0.3117 -1.8039
 5207SOL     OW27256   1.356   1.109  10.132  0.4471  0.0732 -0.0700
 5207SOL    HW127257   1.382   1.181  10.075 -1.3421  0.8632  0.1364
 5207SOL    HW227258   1.394   1.153  10.208 -0.1800  1.8000 -0.7808
 5208SOL     OW27259   2.786   2.296   7.977 -0.6480  0.0334  0.1945
 5208SOL    HW127260   2.791   2.205   7.950  0.1776  0.2146 -0.2985
 5208SOL    HW227261   2.861   2.309   8.036  1.0753  0.8908 -2.1680
 5209SOL     OW27262   3.158   3.685   3.946 -0.3189  0.4104  0.1053
 5209SOL    HW127263   3.112   3.716   3.868 -0.2410 -0.0974 -0.1399
 5209SOL    HW227264   3.219   3.759   3.951  1.4004 -1.0899  1.8540
 5210SOL     OW27265   3.630   3.958  13.879 -0.0514  1.0329 -0.4294
 5210SOL    HW127266   3.586   3.878  13.853  0.4892  0.8047 -0.6405
 5210SOL    HW227267   3.617   3.960  13.973 -1.3158  1.6826 -0.6126
 5211SOL     OW27268   4.623   4.327   2.501 -0.0231  0.0667  0.4233
 5211SOL    HW127269   4.646   4.372   2.583  1.1359 -2.7054  1.6358
 5211SOL    HW227270   4.593   4.241   2.530  0.0898  0.0559  0.5114
 5212SOL     OW27271   4.445   1.164   1.959 -0.4640  0.2763 -0.0430
 5212SOL    HW127272   4.381   1.097   1.938 -0.6690  0.2256  0.7429
 5212SOL    HW227273   4.419   1.190   2.047  2.3138 -0.8296  1.1083
 5213SOL     OW27274   2.050   0.115  14.568  0.4890  0.6822  0.1683
 5213SOL    HW127275   2.127   0.077  14.527  0.1516 -2.1054  2.1457
 5213SOL    HW227276   1.998   0.142  14.493 -0.6708  1.0684  1.1020
 5214SOL     OW27277   4.167   2.590   2.377  0.3238  0.4582 -0.3069
 5214SOL    HW127278   4.168   2.604   2.472 -1.5308 -0.6296 -0.1422
 5214SOL    HW227279   4.220   2.665   2.350  0.5395  1.2337  2.2348
 5215SOL     OW27280   0.211   0.587  14.454  0.0779  0.1969 -0.5683
 5215SOL    HW127281   0.269   0.655  14.491 -0.6673  0.1236  0.7554
 5215SOL    HW227282   0.268   0.515  14.429 -0.2922 -0.4048  0.3066
 5216SOL     OW27283   2.691   2.483   6.505 -0.2548 -0.2611 -0.0049
 5216SOL    HW127284   2.694   2.516   6.595 -0.7424 -0.5536  0.1218
 5216SOL    HW227285   2.658   2.554   6.449 -0.4236 -1.6687 -1.7002
 5217SOL     OW27286   1.464   1.406   7.134 -0.3548 -0.6524 -0.3886
 5217SOL    HW127287   1.447   1.442   7.221  1.3936 -0.8596  0.0510
 5217SOL    HW227288   1.514   1.474   7.089 -2.0694  1.8015  1.4427
 5218SOL     OW27289   4.226   3.279   5.897  0.2905 -0.2569  0.0687
 5218SOL    HW127290   4.212   3.209   5.960 -1.8849 -0.8567 -1.0747
 5218SOL    HW227291   4.149   3.269   5.841 -0.9245  2.3229  1.2666
 5219SOL     OW27292   1.371   3.079   4.193 -1.0379 -0.0442 -0.7188
 5219SOL    HW127293   1.412   3.156   4.232 -0.3832 -1.3725  1.1754
 5219SOL    HW227294   1.433   3.009   4.215  0.1075  0.1184 -3.3959
 5220SOL     OW27295   0.083   2.541   4.474  0.0817 -0.5231 -0.1884
 5220SOL    HW127296   0.156   2.599   4.451  0.0014 -0.5126 -0.4133
 5220SOL    HW227297   0.109   2.486   4.548  0.3506 -0.8929 -0.5543
 5221SOL     OW27298   1.681   3.872   2.631  0.2828  0.5688 -0.1789
 5221SOL    HW127299   1.703   3.781   2.612 -0.3342  0.4551 -0.3382
 5221SOL    HW227300   1.761   3.911   2.666 -0.5858 -1.4989  3.9946
 5222SOL     OW27301   0.792   1.174   1.286 -0.3721 -0.6465  0.1855
 5222SOL    HW127302   0.715   1.122   1.311 -0.3880 -0.9409 -0.4945
 5222SOL    HW227303   0.861   1.129   1.334 -2.2160 -1.5781  1.9841
 5223SOL     OW27304   1.733   4.395   8.820  0.2446  0.8415  0.0252
 5223SOL    HW127305   1.685   4.470   8.785  0.0474  1.6251  1.9764
 5223SOL    HW227306   1.683   4.369   8.896 -1.2270 -0.8097 -1.5238
 5224SOL     OW27307   2.686   4.234   7.906 -0.0646 -0.0993  0.2148
 5224SOL    HW127308   2.771   4.211   7.868 -0.8955 -0.5786 -1.3287
 5224SOL    HW227309   2.689   4.325   7.874 -1.4110  1.0083  3.2257
 5225SOL     OW27310   4.152   4.470   2.468 -0.4655  0.1161 -0.2362
 5225SOL    HW127311   4.135   4.379   2.491 -0.1415  0.1793  0.2506
 5225SOL    HW227312   4.147   4.460   2.373  1.7536 -0.1790 -0.3436
 5226SOL     OW27313   0.196   1.244   6.686 -0.2043  0.3532 -0.1737
 5226SOL    HW127314   0.163   1.283   6.767 -0.7234 -0.1578 -0.1377
 5226SOL    HW227315   0.265   1.186   6.720  0.2158  1.0844  0.2083
 5227SOL     OW27316   3.210   3.767   2.662 -0.5410 -0.4544 -0.3864
 5227SOL    HW127317   3.211   3.709   2.738 -0.6423  0.1508  0.0850
 5227SOL    HW227318   3.256   3.847   2.689 -2.7637 -0.4096  3.2748
 5228SOL     OW27319   2.461   3.279   9.002 -0.0622 -0.0296  0.5049
 5228SOL    HW127320   2.463   3.218   8.929  2.3594 -0.6279  1.0912
 5228SOL    HW227321   2.522   3.238   9.062  0.4140  0.8490  0.6312
 5229SOL     OW27322   4.462   1.811   7.131 -0.0368  0.5532 -0.4818
 5229SOL    HW127323   4.446   1.853   7.047  0.7524  4.2186  1.1819
 5229SOL    HW227324   4.539   1.852   7.172 -0.4345  1.3544 -0.5270
 5230SOL     OW27325   0.748   3.891   5.931  0.1624  0.0850  0.6134
 5230SOL    HW127326   0.813   3.863   5.867 -0.5954 -1.1357  0.3823
 5230SOL    HW227327   0.787   3.975   5.955 -1.1146  0.4679  1.3270
 5231SOL     OW27328   2.251   4.600   6.919  0.4664 -0.8528  0.0861
 5231SOL    HW127329   2.323   4.631   6.974 -0.7743 -0.5050  1.5046
 5231SOL    HW227330   2.270   4.652   6.841 -0.5405 -1.3715 -0.5060
 5232SOL     OW27331   3.210   3.325   4.899  0.4864 -0.2177  0.3725
 5232SOL    HW127332   3.126   3.364   4.921  0.1952  0.7183 -2.4262
 5232SOL    HW227333   3.218   3.345   4.805 -2.4825 -0.2412  0.1233
 5233SOL     OW27334   2.163   1.900   7.163 -0.7513  0.1598 -0.2503
 5233SOL    HW127335   2.090   1.865   7.214 -1.4781  3.0867  0.7681
 5233SOL    HW227336   2.222   1.826   7.157  0.0915  1.0371 -2.8710
 5234SOL     OW27337   3.390   0.962  14.601 -0.8511  0.5927  0.7737
 5234SOL    HW127338   3.443   0.901  14.551 -0.9208 -0.6625  2.2103
 5234SOL    HW227339   3.324   0.900  14.633 -2.1639  2.3137  1.3796
 5235SOL     OW27340   1.865   2.219   9.204 -0.2396 -0.0572  0.0089
 5235SOL    HW127341   1.845   2.250   9.116  0.3886  0.8241  0.1809
 5235SOL    HW227342   1.954   2.254   9.212 -0.2587  0.0190 -0.1224
 5236SOL     OW27343   2.027   3.004   9.253 -0.4949  0.5759  0.0734
 5236SOL    HW127344   2.101   3.029   9.308  0.6771 -2.7208  0.0019
 5236SOL    HW227345   1.998   3.092   9.227  1.3370  1.4220  0.8721
 5237SOL     OW27346   3.789   0.412   6.045 -0.3039  0.0874  0.1255
 5237SOL    HW127347   3.790   0.467   6.123 -0.9734 -2.2193  1.7462
 5237SOL    HW227348   3.718   0.353   6.070  0.1827 -0.4821  0.1639
 5238SOL     OW27349   1.689   4.315  14.631 -0.3103  0.0404 -0.4679
 5238SOL    HW127350   1.691   4.320  14.535  0.7662 -0.5005 -0.4758
 5238SOL    HW227351   1.601   4.278  14.632  0.4735 -1.8989 -3.6625
 5239SOL     OW27352   1.056   3.805   2.904 -0.3693 -0.1415  0.8006
 5239SOL    HW127353   0.978   3.770   2.860 -0.0918 -0.7123  0.7629
 5239SOL    HW227354   1.106   3.838   2.829 -0.7607 -3.3066 -0.8324
 5240SOL     OW27355   3.699   4.428   1.083 -0.5036 -0.3674  0.1352
 5240SOL    HW127356   3.651   4.504   1.049  0.2994  0.9315  1.8709
 5240SOL    HW227357   3.649   4.357   1.043  1.7655 -2.2987  0.7200
 5241SOL     OW27358   0.047   4.047   8.760  0.5044 -0.3234 -0.5485
 5241SOL    HW127359   0.106   4.091   8.822  1.2785 -1.2113 -0.6472
 5241SOL    HW227360   0.085   3.960   8.756 -0.8178 -0.7333 -3.8175
 5242SOL     OW27361   1.965   2.838  11.387 -0.6291  0.1733 -0.5716
 5242SOL    HW127362   2.034   2.771  11.392  1.4585  2.4892  1.2642
 5242SOL    HW227363   2.013   2.904  11.436 -1.2303 -0.8938  1.4762
 5243SOL     OW27364   0.022   4.010   3.217 -0.2851  0.1949 -0.3077
 5243SOL    HW127365   4.717   4.085   3.258 -2.7441 -0.3550 -2.0014
 5243SOL    HW227366   0.113   4.038   3.208 -0.5180  0.5833 -1.4040
 5244SOL     OW27367   0.751   2.586   7.017 -0.3375 -0.1945  0.1191
 5244SOL    HW127368   0.751   2.546   6.930  0.4160  0.2234 -0.0786
 5244SOL    HW227369   0.846   2.598   7.016 -0.3297 -0.3057 -0.4283
 5245SOL     OW27370   4.255   0.585  15.992  0.0557 -0.3130 -0.6229
 5245SOL    HW127371   4.194   0.658  15.987  0.0430 -0.4302 -2.1176
 5245SOL    HW227372   4.255   0.546  15.905  3.7407 -1.4010 -0.1372
 5246SOL     OW27373   3.464   4.397   1.842  0.3833 -0.1730  0.4250
 5246SOL    HW127374   3.432   4.478   1.882 -1.9504 -0.5007 -0.8199
 5246SOL    HW227375   3.409   4.388   1.765  0.8058 -0.4132  0.1524
 5247SOL     OW27376   3.651   2.841  16.352 -0.2603  0.2300 -0.1312
 5247SOL    HW127377   3.599   2.881  16.282 -0.0604 -0.4908 -0.6839
 5247SOL    HW227378   3.675   2.757  16.313  2.5122 -0.4959  3.1486
 5248SOL     OW27379   2.371   1.089   7.722 -0.7040  0.0150  0.2913
 5248SOL    HW127380   2.338   1.129   7.802 -0.1312 -0.6730  0.8737
 5248SOL    HW227381   2.349   1.155   7.656 -0.5770 -0.6393 -0.4077
 5249SOL     OW27382   4.518   4.533   3.788  0.8944 -0.1611  0.1805
 5249SOL    HW127383   4.442   4.533   3.846  2.0739  1.2375  1.7288
 5249SOL    HW227384   4.569   4.605   3.825 -2.0677  1.4714  1.0042
 5250SOL     OW27385   0.839   1.862   7.002 -0.1691 -0.0008 -0.0708
 5250SOL    HW127386   0.853   1.895   6.914  0.7717 -2.7238 -0.9247
 5250SOL    HW227387   0.885   1.930   7.053 -0.7207  0.5215 -0.2709
 5251SOL     OW27388   0.321   1.988  17.166 -0.0887  0.8368  0.2434
 5251SOL    HW127389   0.414   1.971  17.181 -0.2744 -1.2936 -1.0550
 5251SOL    HW227390   0.330   2.067  17.113  1.1014  3.1395  3.8900
 5252SOL     OW27391   2.893   0.939   5.430  0.9720 -0.2291  0.6322
 5252SOL    HW127392   2.881   1.032   5.410  1.5224 -0.1000  0.9106
 5252SOL    HW227393   2.986   0.942   5.454  1.0349  0.1545  0.3515
 5253SOL     OW27394   1.728   4.107   4.384  0.0141 -0.4556  0.1913
 5253SOL    HW127395   1.740   4.195   4.418 -1.8878  0.5762 -1.7989
 5253SOL    HW227396   1.636   4.089   4.403 -0.0653  0.4656  0.6724
 5254SOL     OW27397   3.758   0.137   7.172  0.5744  0.2245 -0.0254
 5254SOL    HW127398   3.804   0.054   7.162  1.0923  0.5785 -0.5351
 5254SOL    HW227399   3.829   0.198   7.155  0.7976 -0.4900 -1.6743
 5255SOL     OW27400   1.842   1.244   8.147  0.3489 -0.0994 -0.2091
 5255SOL    HW127401   1.777   1.215   8.082 -0.2330 -0.9102  0.7269
 5255SOL    HW227402   1.816   1.178   8.212  0.6921  1.6700  1.7204
 5256SOL     OW27403   4.136   0.781  12.238 -0.7483 -0.0015  0.0533
 5256SOL    HW127404   4.064   0.718  12.230 -0.7433 -0.2808  2.0750
 5256SOL    HW227405   4.207   0.730  12.199  0.3653 -0.0386  2.1065
 5257SOL     OW27406   4.380   3.468   7.716 -0.0845  0.1784 -0.3397
 5257SOL    HW127407   4.286   3.469   7.732 -0.1414  0.3274 -0.6876
 5257SOL    HW227408   4.411   3.477   7.807  0.8666  0.0892 -0.6532
 5258SOL     OW27409   2.099   1.756   1.608 -0.2734 -0.3044  0.7601
 5258SOL    HW127410   2.006   1.775   1.594 -0.2672  1.7910  3.4665
 5258SOL    HW227411   2.145   1.838   1.590 -0.0785 -0.5677  0.0707
 5259SOL     OW27412   2.998   4.515   8.911  0.2425  0.6303  0.3851
 5259SOL    HW127413   2.983   4.526   8.817 -0.3768 -0.0278  0.4099
 5259SOL    HW227414   3.082   4.469   8.903  0.3839  1.1707 -1.2626
 5260SOL     OW27415   4.191   2.275  17.593 -0.4681  0.7068 -0.1384
 5260SOL    HW127416   4.284   2.291  17.577 -0.0514 -0.2302  1.3135
 5260SOL    HW227417   4.165   2.193  17.550  2.0075 -0.1296 -0.0588
 5261SOL     OW27418   2.484   0.818   5.401 -0.2686 -0.1707  0.1894
 5261SOL    HW127419   2.543   0.865   5.343 -0.6874 -2.5017 -2.1186
 5261SOL    HW227420   2.404   0.827   5.349  1.1004  0.3801 -1.8193
 5262SOL     OW27421   4.384   0.166  15.707  0.5399  0.2980 -0.0663
 5262SOL    HW127422   4.355   0.089  15.659 -0.4471 -0.4046  1.6599
 5262SOL    HW227423   4.428   0.220  15.642  1.6115  0.6877  0.9803
 5263SOL     OW27424   4.025   0.887   1.020  0.4867 -0.3888 -0.3342
 5263SOL    HW127425   3.947   0.832   1.032  0.4697 -0.1825  0.4815
 5263SOL    HW227426   4.097   0.833   0.990 -1.0584 -1.9385 -1.2796
 5264SOL     OW27427   1.473   2.098   1.595 -0.9379  1.2083 -0.2603
 5264SOL    HW127428   1.410   2.028   1.617  0.4674  0.2513  0.7145
 5264SOL    HW227429   1.418   2.176   1.604  0.1019  2.0629 -1.3830
 5265SOL     OW27430   3.070   3.522  14.806  0.0688  0.0128  0.1136
 5265SOL    HW127431   3.018   3.494  14.881  0.1197  1.6331  0.7638
 5265SOL    HW227432   3.151   3.533  14.855 -1.0445 -0.0468  1.9772
 5266SOL     OW27433   2.880   0.739  10.341  0.0006  0.2588  0.1204
 5266SOL    HW127434   2.789   0.766  10.352 -0.5018 -0.9321 -1.1757
 5266SOL    HW227435   2.909   0.751  10.432 -1.3376  2.0876  0.3102
 5267SOL     OW27436   2.872   1.196   3.583  0.6656 -0.1248  0.0611
 5267SOL    HW127437   2.888   1.255   3.509  1.1643  0.9216  1.0008
 5267SOL    HW227438   2.808   1.137   3.545  1.1130  0.3468 -1.4281
 5268SOL     OW27439   4.384   0.164  10.620  0.0863  0.1733  0.2192
 5268SOL    HW127440   4.334   0.083  10.621  0.1324  0.1386 -0.1516
 5268SOL    HW227441   4.453   0.125  10.567  0.2259  0.5813  0.0948
 5269SOL     OW27442   1.078   1.860   3.457  0.0882 -0.3995  0.3490
 5269SOL    HW127443   1.022   1.862   3.534  0.3911 -2.5908  0.6457
 5269SOL    HW227444   1.152   1.915   3.482 -0.7728  0.5889  0.6870
 5270SOL     OW27445   3.839   2.562   5.804  0.2507  0.3707 -0.3294
 5270SOL    HW127446   3.829   2.471   5.833 -1.5803  0.4522 -0.6973
 5270SOL    HW227447   3.788   2.600   5.875 -1.4818 -1.9221 -0.3299
 5271SOL     OW27448   0.487   3.727   7.903  0.0282  0.2161 -0.1498
 5271SOL    HW127449   0.507   3.704   7.812  1.2420  0.5394  0.0359
 5271SOL    HW227450   0.430   3.654   7.925  1.7394 -0.9821  0.2974
 5272SOL     OW27451   1.892   4.648   1.984  0.3297  0.3981 -0.3685
 5272SOL    HW127452   1.914   4.739   1.966 -3.5584  0.4240 -4.7100
 5272SOL    HW227453   1.797   4.648   1.977  0.3214 -2.1635 -0.1689
 5273SOL     OW27454   3.014   0.520   2.281 -0.1553 -0.0909 -0.0291
 5273SOL    HW127455   2.969   0.478   2.354  1.7690  0.1262  1.2972
 5273SOL    HW227456   2.938   0.541   2.228 -0.5137 -0.7466  0.2246
 5274SOL     OW27457   1.130   3.871   8.582  0.8331 -0.1435  0.0126
 5274SOL    HW127458   1.052   3.820   8.558  0.1271  0.5356  0.9041
 5274SOL    HW227459   1.190   3.801   8.556  1.1108  0.0329  0.1949
 5275SOL     OW27460   0.337   2.182   2.732  0.1688 -0.0158  0.2224
 5275SOL    HW127461   0.397   2.110   2.712  0.5132  0.1738  0.5714
 5275SOL    HW227462   0.354   2.239   2.657  2.8748 -0.0682  0.7870
 5276SOL     OW27463   3.272   0.905   7.961 -0.2348  0.2716  0.8686
 5276SOL    HW127464   3.235   0.965   8.027 -1.1052  0.0797  0.5543
 5276SOL    HW227465   3.343   0.860   8.006 -0.6872 -2.2339 -0.9193
 5277SOL     OW27466   1.860   1.213   6.203 -0.4739 -0.1893 -0.4545
 5277SOL    HW127467   1.935   1.267   6.228 -1.2978  0.7969 -0.1215
 5277SOL    HW227468   1.836   1.238   6.114 -0.2108 -0.1887 -0.5272
 5278SOL     OW27469   2.384   4.034   5.588 -0.0520 -0.4676 -0.5420
 5278SOL    HW127470   2.440   4.082   5.650 -0.7777 -0.9363  0.4731
 5278SOL    HW227471   2.407   3.943   5.605 -2.4235 -1.5716 -3.2334
 5279SOL     OW27472   4.388   3.936   3.516 -0.1508 -0.4269  0.0202
 5279SOL    HW127473   4.312   3.985   3.546  0.7164  1.5711 -1.0413
 5279SOL    HW227474   4.412   3.893   3.599  1.6044  2.6631  1.1111
 5280SOL     OW27475   0.071   1.382   3.353 -0.0607 -0.2614 -0.3236
 5280SOL    HW127476   4.718   1.404   3.350 -0.6349 -2.8647 -1.7951
 5280SOL    HW227477   0.101   1.457   3.302 -0.8938  2.3226  2.9366
 5281SOL     OW27478   4.031   0.277   5.006 -0.3152 -0.3470 -0.1767
 5281SOL    HW127479   3.996   0.274   5.095 -0.8062 -0.5943 -0.3743
 5281SOL    HW227480   3.969   0.219   4.961  0.0762  0.0250 -1.2153
 5282SOL     OW27481   4.709   4.481   2.833 -0.0279 -0.1689 -0.2792
 5282SOL    HW127482   4.723   4.575   2.837  0.9571 -0.2968 -0.6670
 5282SOL    HW227483   4.620   4.481   2.797 -1.1867 -0.9596  2.5673
 5283SOL     OW27484   3.049   0.425  12.490 -0.6937  0.8240 -0.1106
 5283SOL    HW127485   2.997   0.348  12.467  0.6542 -0.2503  0.4375
 5283SOL    HW227486   3.096   0.426  12.407 -2.9432 -1.3956 -1.3943
 5284SOL     OW27487   1.419   1.856   4.596 -0.9172  0.0179 -0.1092
 5284SOL    HW127488   1.368   1.816   4.526 -0.5209  1.4697 -1.2143
 5284SOL    HW227489   1.352   1.867   4.663 -0.0357  0.4567  0.7119
 5285SOL     OW27490   4.051   1.499   5.860 -0.1080 -0.6155  0.2657
 5285SOL    HW127491   4.050   1.474   5.953  0.8649 -0.3207  0.3605
 5285SOL    HW227492   4.094   1.582   5.884 -0.5273  0.4917 -2.8362
 5286SOL     OW27493   2.027   3.285   1.906 -0.5624  0.1917 -0.3271
 5286SOL    HW127494   2.036   3.207   1.962  1.0513  0.4068 -0.2768
 5286SOL    HW227495   2.099   3.275   1.844 -0.3685 -0.5029  0.0066
 5287SOL     OW27496   2.052   2.717   2.618  0.0831  0.0280 -0.2705
 5287SOL    HW127497   2.004   2.657   2.561  0.6836  0.2470 -1.0083
 5287SOL    HW227498   2.111   2.654   2.660 -0.2347  0.2413  0.5019
 5288SOL     OW27499   4.062   1.208  16.825 -0.5822  0.3930  0.4532
 5288SOL    HW127500   4.143   1.251  16.799 -0.2937 -0.7465 -0.5416
 5288SOL    HW227501   4.088   1.172  16.910  2.1167  1.5118  0.0786
 5289SOL     OW27502   4.158   4.106   2.111  0.5033 -0.2545  0.5943
 5289SOL    HW127503   4.211   4.100   2.191 -0.3887  0.1214  1.2125
 5289SOL    HW227504   4.142   4.200   2.118  0.1559 -0.2145 -0.7122
 5290SOL     OW27505   3.651   2.799   6.893 -0.3263  0.0128  0.1208
 5290SOL    HW127506   3.715   2.803   6.822 -0.5302  0.8885 -0.0248
 5290SOL    HW227507   3.651   2.707   6.917  2.4513 -0.3808 -1.4830
 5291SOL     OW27508   0.275   4.359  10.736  0.0941 -0.3104  0.0749
 5291SOL    HW127509   0.269   4.455  10.735 -0.3104 -0.3602 -1.3670
 5291SOL    HW227510   0.192   4.326  10.770 -0.6652  0.4664 -1.0192
 5292SOL     OW27511   0.064   0.708  12.946 -0.0421 -0.5080 -0.2149
 5292SOL    HW127512   0.003   0.657  12.894 -2.7833  0.3320  2.2032
 5292SOL    HW227513   0.109   0.762  12.881  0.6119 -0.1581  0.5160
 5293SOL     OW27514   3.468   3.060   5.354  0.5393 -0.4531 -0.4158
 5293SOL    HW127515   3.444   3.083   5.444  1.3167 -1.3086  0.0157
 5293SOL    HW227516   3.392   3.071   5.297 -1.1608  2.4399  2.4249
 5294SOL     OW27517   0.329   0.113  17.586 -0.2375 -0.3994 -0.0646
 5294SOL    HW127518   0.372   0.064  17.516 -0.0144  1.4415 -1.2199
 5294SOL    HW227519   0.236   0.096  17.573 -0.4789 -2.3325  4.1884
 5295SOL     OW27520   2.799   1.751   3.400 -0.2043  0.0266 -0.2566
 5295SOL    HW127521   2.758   1.677   3.445 -0.5255 -1.0043 -2.2117
 5295SOL    HW227522   2.728   1.757   3.335 -1.3588 -0.1595  0.9972
 5296SOL     OW27523   3.958   1.254   6.029  0.2815  0.1047  0.2752
 5296SOL    HW127524   3.918   1.238   6.115 -0.0661  0.2074  0.1342
 5296SOL    HW227525   4.034   1.196   6.033 -2.2866 -3.0651  3.3894
 5297SOL     OW27526   2.943   0.190   6.398  0.0851 -0.7422 -0.2355
 5297SOL    HW127527   2.885   0.133   6.449  1.7800  1.3361  4.0600
 5297SOL    HW227528   2.881   0.255   6.368  1.2872  0.5214 -0.0054
 5298SOL     OW27529   0.049   1.958   5.659  0.6166  0.1416 -0.1059
 5298SOL    HW127530   0.015   2.021   5.594 -0.9186 -1.2363 -0.6337
 5298SOL    HW227531   0.139   1.959   5.628  0.6229  0.4605 -0.0836
 5299SOL     OW27532   2.851   4.162   3.240  0.6617  0.3055  0.8037
 5299SOL    HW127533   2.794   4.143   3.315  0.1962 -0.4671  0.2515
 5299SOL    HW227534   2.820   4.243   3.200  1.1101  0.5016  0.8563
 5300SOL     OW27535   0.651   3.986  14.597  0.0715 -0.2821 -0.3972
 5300SOL    HW127536   0.703   4.010  14.674 -0.2861 -1.7104  0.2871
 5300SOL    HW227537   0.668   3.892  14.595  1.4367 -0.0422 -0.2544
 5301SOL     OW27538   0.528   0.960   3.701 -0.1601  0.2449  0.0853
 5301SOL    HW127539   0.492   0.899   3.637  1.1050 -1.0348  0.5887
 5301SOL    HW227540   0.587   0.900   3.746  1.4193  0.6459 -1.4718
 5302SOL     OW27541   3.530   4.578   8.676  0.5764 -0.1512  0.1364
 5302SOL    HW127542   3.516   4.620   8.761 -1.7869 -0.9796  0.1608
 5302SOL    HW227543   3.616   4.541   8.694  1.0067  0.7542 -0.0355
 5303SOL     OW27544   3.843   2.498   2.984 -0.0423 -0.5386 -0.5314
 5303SOL    HW127545   3.809   2.583   2.957  0.7044 -0.6879 -1.9078
 5303SOL    HW227546   3.890   2.532   3.061  0.7395 -3.6720  0.3686
 5304SOL     OW27547   1.315   1.917  13.614  0.1106  0.4165  0.1245
 5304SOL    HW127548   1.362   1.997  13.637  1.0094  0.0997 -0.5940
 5304SOL    HW227549   1.382   1.866  13.567  0.5887  1.5594 -0.4276
 5305SOL     OW27550   2.031   1.987   9.336 -0.0582  0.4199 -0.6495
 5305SOL    HW127551   2.078   2.014   9.415  0.6158  1.1333 -1.2969
 5305SOL    HW227552   1.968   2.060   9.336 -0.6398 -0.0746 -0.2368
 5306SOL     OW27553   2.500   2.042  12.948 -0.1455 -0.4488 -0.1234
 5306SOL    HW127554   2.563   1.971  12.957  2.9032  2.2860  0.0344
 5306SOL    HW227555   2.440   2.006  12.882  1.6470  1.3641 -2.7135
 5307SOL     OW27556   4.047   4.217   5.100 -0.1337  0.3546  0.1786
 5307SOL    HW127557   4.064   4.264   5.182 -1.4558  1.2027 -0.0501
 5307SOL    HW227558   4.136   4.201   5.069 -1.0838 -1.3628 -1.6699
 5308SOL     OW27559   2.243   4.231   8.068 -0.8495  0.0371 -0.2155
 5308SOL    HW127560   2.294   4.171   8.013  1.4709  1.1690  0.6792
 5308SOL    HW227561   2.225   4.189   8.152  0.3132 -2.2136 -1.0678
 5309SOL     OW27562   1.737   1.574   7.529 -0.3463 -0.1795  0.1839
 5309SOL    HW127563   1.746   1.498   7.587  1.9359 -0.9390 -1.1838
 5309SOL    HW227564   1.675   1.540   7.464 -0.0379  2.0237 -1.2670
 5310SOL     OW27565   3.838   1.089   8.539 -0.3432 -0.3039  0.7852
 5310SOL    HW127566   3.842   1.135   8.623 -2.3697  1.1426  0.1088
 5310SOL    HW227567   3.798   1.009   8.572  0.1430 -0.0474  1.9707
 5311SOL     OW27568   0.176   2.906   6.702  0.4128 -1.0331 -0.6206
 5311SOL    HW127569   0.209   2.863   6.623  0.4462  1.3083 -1.8791
 5311SOL    HW227570   0.171   2.825   6.753  3.6613 -0.2618  0.8533
 5312SOL     OW27571   2.589   0.245   7.442 -0.6066 -0.3222  0.4668
 5312SOL    HW127572   2.664   0.217   7.390 -1.7592 -1.4797 -0.5567
 5312SOL    HW227573   2.613   0.336   7.462  0.5965 -0.5948  0.3072
 5313SOL     OW27574   0.271   0.795  17.107 -0.1584 -0.1151  0.3290
 5313SOL    HW127575   0.187   0.750  17.100 -0.2034  0.4319 -2.7783
 5313SOL    HW227576   0.247   0.870  17.161  0.1425 -0.1052  0.4499
 5314SOL     OW27577   2.589   1.905   5.337 -0.3520 -0.3008  0.0490
 5314SOL    HW127578   2.547   1.975   5.387  1.2009  0.9568 -0.3928
 5314SOL    HW227579   2.513   1.888   5.282  0.3494  1.1898 -1.3679
 5315SOL     OW27580   1.067   1.508   5.666 -0.5181  0.5596 -0.1019
 5315SOL    HW127581   1.111   1.442   5.719 -2.2843 -1.5643 -1.2562
 5315SOL    HW227582   1.090   1.491   5.575  0.0776  1.8780 -0.1943
 5316SOL     OW27583   2.732   0.917  14.198  0.3538  0.6125  0.0875
 5316SOL    HW127584   2.674   0.963  14.259  0.3360 -0.6552  1.0193
 5316SOL    HW227585   2.766   0.844  14.250  1.2003  1.0230  0.1030
 5317SOL     OW27586   0.781   3.837  17.485 -0.2762 -0.6788 -0.1608
 5317SOL    HW127587   0.797   3.930  17.466 -0.0892 -0.8458 -0.8039
 5317SOL    HW227588   0.697   3.837  17.532  0.0471  0.0131  0.4208
 5318SOL     OW27589   3.170   3.600   6.299  0.4525  0.3321  0.0343
 5318SOL    HW127590   3.189   3.522   6.247  1.2001  0.4115  0.1907
 5318SOL    HW227591   3.079   3.586   6.324  0.3852 -0.1294 -0.4831
 5319SOL     OW27592   0.731   4.350  12.728 -0.0467 -0.5485 -0.3234
 5319SOL    HW127593   0.716   4.298  12.649  0.3616  1.2153 -1.5633
 5319SOL    HW227594   0.696   4.289  12.793  0.3625 -1.6093 -1.1023
 5320SOL     OW27595   2.252   4.113   6.810 -0.2980  0.1075  0.3078
 5320SOL    HW127596   2.337   4.157   6.817  0.2983 -1.0680  0.6122
 5320SOL    HW227597   2.259   4.077   6.722  0.2196 -0.9856  0.7956
 5321SOL     OW27598   0.439   0.653  15.517  1.2852  0.8075  0.7026
 5321SOL    HW127599   0.442   0.558  15.525 -0.4911  0.4069 -3.0927
 5321SOL    HW227600   0.438   0.671  15.611 -3.2106 -0.3710  0.8812
 5322SOL     OW27601   2.399   3.607   1.953 -0.4172  0.6186 -0.1586
 5322SOL    HW127602   2.472   3.549   1.974 -0.3783  0.4490 -0.7507
 5322SOL    HW227603   2.391   3.661   2.032  1.4233 -1.5675  1.5315
 5323SOL     OW27604   2.038   3.367   8.240  0.1282  0.2098 -0.1077
 5323SOL    HW127605   2.068   3.283   8.206 -1.4153 -1.4925  2.7824
 5323SOL    HW227606   2.125   3.408   8.234  0.2608 -0.2830 -1.6190
 5324SOL     OW27607   4.051   2.329   9.248  0.1570  0.0734  0.3216
 5324SOL    HW127608   4.123   2.279   9.210  1.9806  3.0131 -0.1258
 5324SOL    HW227609   4.096   2.413   9.256  1.6678 -0.7590  0.4326
 5325SOL     OW27610   3.608   2.587   3.880 -0.5488 -0.0883  0.0234
 5325SOL    HW127611   3.596   2.669   3.928 -0.4305 -0.5877  0.9047
 5325SOL    HW227612   3.565   2.529   3.943 -2.0392  0.7505 -0.2321
 5326SOL     OW27613   2.174   4.103   0.281  0.1782 -0.4247  0.3974
 5326SOL    HW127614   2.268   4.085   0.278 -0.0042 -1.5673  1.5490
 5326SOL    HW227615   2.146   4.053   0.357 -2.7796 -0.9291 -1.0075
 5327SOL     OW27616   3.435   2.837  12.652  0.6586 -0.0403  0.1019
 5327SOL    HW127617   3.475   2.781  12.718  1.1685 -1.8349 -1.7085
 5327SOL    HW227618   3.362   2.863  12.708 -0.3815  0.9471 -1.7025
 5328SOL     OW27619   3.775   4.448   8.687 -0.0295  0.4909 -0.6556
 5328SOL    HW127620   3.824   4.505   8.628 -0.3544  0.6441 -0.7780
 5328SOL    HW227621   3.770   4.359   8.651  0.4225 -0.1695  0.9042
 5329SOL     OW27622   4.700   2.735  14.741  0.2466  0.4175 -0.2208
 5329SOL    HW127623   4.722   2.682  14.818 -0.5395  1.9060  1.0174
 5329SOL    HW227624   0.042   2.783  14.727  1.3868 -1.3342  0.2944
 5330SOL     OW27625   0.419   0.807   2.400  0.3186  0.5079  0.9846
 5330SOL    HW127626   0.497   0.768   2.361  0.5522  3.4884 -1.6011
 5330SOL    HW227627   0.360   0.733   2.409 -0.1436  0.6735 -0.8495
 5331SOL     OW27628   2.960   2.500   9.281 -0.1281 -0.3291  0.2895
 5331SOL    HW127629   2.913   2.450   9.348  0.2249 -1.6244 -0.4397
 5331SOL    HW227630   3.009   2.426   9.244  2.0654  1.1387  0.2386
 5332SOL     OW27631   4.502   1.148   7.747  0.1114  0.1600 -0.3802
 5332SOL    HW127632   4.462   1.235   7.748  0.5331  0.3235  2.0381
 5332SOL    HW227633   4.433   1.083   7.739 -1.7205  1.7574  2.4564
 5333SOL     OW27634   2.778   4.130  12.362  0.0756 -0.2241 -0.3067
 5333SOL    HW127635   2.743   4.069  12.427  0.5945 -2.6979 -2.3748
 5333SOL    HW227636   2.800   4.190  12.433  2.4773 -0.9375 -0.4359
 5334SOL     OW27637   3.274   3.013   6.496  0.6569  0.4203  0.1156
 5334SOL    HW127638   3.314   3.098   6.514  1.2943  0.2720 -0.6049
 5334SOL    HW227639   3.263   2.980   6.585  2.4847  0.1396  0.2304
 5335SOL     OW27640   2.280   1.465  12.465 -0.3027 -0.6902 -0.3481
 5335SOL    HW127641   2.206   1.449  12.524  0.2505 -1.2262  0.2126
 5335SOL    HW227642   2.335   1.513  12.527  0.2011 -1.6824 -0.0219
 5336SOL     OW27643   1.594   0.029   4.260 -0.0990 -0.0648  0.0497
 5336SOL    HW127644   1.596   0.071   4.346 -0.6718  2.2881 -1.0865
 5336SOL    HW227645   1.634   0.103   4.214  2.4788 -0.2537  1.9963
 5337SOL     OW27646   0.591   0.499  17.196 -0.4584  0.2232  0.1956
 5337SOL    HW127647   0.500   0.471  17.195  0.3392 -2.4103  2.0380
 5337SOL    HW227648   0.590   0.539  17.283 -1.5198  1.0071 -0.1774
 5338SOL     OW27649   2.257   3.740   7.470 -0.1498  0.4400  0.2111
 5338SOL    HW127650   2.175   3.698   7.444  1.0504 -2.4735  1.1371
 5338SOL    HW227651   2.303   3.667   7.511 -0.3020  0.3632  0.2420
 5339SOL     OW27652   3.673   3.200   2.009  0.3590  0.4968  0.2310
 5339SOL    HW127653   3.730   3.268   1.972  0.6816 -0.1429 -0.4483
 5339SOL    HW227654   3.651   3.238   2.094  0.0243 -0.8864  0.7492
 5340SOL     OW27655   4.257   3.374   0.476  0.4172 -0.2688 -0.0605
 5340SOL    HW127656   4.341   3.419   0.479  1.2928 -2.0730  2.5203
 5340SOL    HW227657   4.210   3.435   0.534 -0.7621 -0.2030 -1.0840
 5341SOL     OW27658   3.060   2.188   6.032 -0.0985 -0.1298 -0.2967
 5341SOL    HW127659   3.144   2.141   6.034 -0.9502 -1.5880  1.3994
 5341SOL    HW227660   3.010   2.166   6.110 -1.5958  1.5555 -0.7815
 5342SOL     OW27661   4.637   1.850   8.189 -0.0855 -0.0853 -0.2448
 5342SOL    HW127662   4.656   1.837   8.282  0.2202  1.4272 -0.0867
 5342SOL    HW227663   4.647   1.761   8.155  3.6010  0.2273 -0.0184
 5343SOL     OW27664   0.285   4.196   8.687  0.1429  0.2229 -0.1755
 5343SOL    HW127665   0.325   4.124   8.736  1.0376  0.8736  0.0566
 5343SOL    HW227666   0.348   4.264   8.711  1.4072 -1.2291  0.6342
 5344SOL     OW27667   2.054   4.613  14.062 -0.8092  0.4919  0.3555
 5344SOL    HW127668   1.989   4.611  14.133 -0.9266  3.0071  0.3146
 5344SOL    HW227669   2.138   4.604  14.108  0.7898 -2.2199 -3.1146
 5345SOL     OW27670   3.228   2.140  17.642 -0.0119  0.1563 -0.1726
 5345SOL    HW127671   3.181   2.223  17.631  0.0887  0.3590  0.9456
 5345SOL    HW227672   3.319   2.168  17.652 -0.2768  0.5785  1.0507
 5346SOL     OW27673   0.253   0.791   8.476  0.1391 -0.2396  0.1743
 5346SOL    HW127674   0.316   0.830   8.536 -0.3697  0.6074  0.1504
 5346SOL    HW227675   0.227   0.869   8.427 -1.1699 -1.3871 -0.9936
 5347SOL     OW27676   0.010   4.264  14.907 -0.4097 -0.1943 -0.5762
 5347SOL    HW127677   0.010   4.308  14.822 -0.3946  1.7394  0.4170
 5347SOL    HW227678   0.105   4.255  14.915 -0.7236 -0.6199  2.6624
 5348SOL     OW27679   3.792   1.912   6.030 -0.1473  0.1862 -0.5463
 5348SOL    HW127680   3.808   1.966   6.107 -1.8325 -0.1706  0.0597
 5348SOL    HW227681   3.714   1.959   6.000 -2.4733 -2.1775  1.7521
 5349SOL     OW27682   2.906   2.267   5.153  0.0974 -0.0144 -0.0473
 5349SOL    HW127683   2.918   2.207   5.080  2.6594 -2.4309  2.3851
 5349SOL    HW227684   2.933   2.210   5.225  0.8816  0.9029  0.3926
 5350SOL     OW27685   4.403   1.454   7.277  0.4084  0.0610  0.2643
 5350SOL    HW127686   4.393   1.377   7.333 -0.4729  0.0389  0.0796
 5350SOL    HW227687   4.334   1.421   7.220  0.0222  0.5305  0.4617
 5351SOL     OW27688   4.070   1.228  11.003  0.0878  0.0853 -0.0138
 5351SOL    HW127689   4.153   1.251  11.045  0.2763 -1.2841  0.3411
 5351SOL    HW227690   4.103   1.185  10.924  0.1122  1.5139 -0.7791
 5352SOL     OW27691   0.748   2.884   0.825  0.4393 -0.0594  0.0332
 5352SOL    HW127692   0.658   2.895   0.854 -0.1006  3.0429 -2.7555
 5352SOL    HW227693   0.737   2.819   0.756  0.1371  0.4034 -0.3554
 5353SOL     OW27694   4.443   4.434   0.038 -0.2267 -0.0472  0.0691
 5353SOL    HW127695   4.387   4.384   0.098  1.0156 -0.3653  0.9713
 5353SOL    HW227696   4.446   4.370  17.724  0.8288 -2.1177  1.9652
 5354SOL     OW27697   3.882   4.725   9.585  0.2870  0.0529 -0.0891
 5354SOL    HW127698   3.870   4.673   9.665 -2.6980  1.1596  0.1627
 5354SOL    HW227699   3.975   4.706   9.571  0.5739  0.5721  1.0558
 5355SOL     OW27700   0.667   2.200   2.026 -0.2827  0.1111  0.5963
 5355SOL    HW127701   0.634   2.187   1.938 -1.7033  0.2715  1.1104
 5355SOL    HW227702   0.752   2.239   2.008 -0.9116  2.0878  1.8791
 5356SOL     OW27703   1.329   3.165   4.983  0.0658 -0.4056 -0.0966
 5356SOL    HW127704   1.357   3.225   4.914  0.4406  0.0739  0.4698
 5356SOL    HW227705   1.238   3.180   5.009  0.8107  0.4530  2.0157
 5357SOL     OW27706   0.212   0.576   1.370 -0.1664  0.3415  0.1662
 5357SOL    HW127707   0.250   0.643   1.426  2.5157 -0.1600 -1.0343
 5357SOL    HW227708   0.130   0.614   1.339  0.6029  1.2674 -0.7468
 5358SOL     OW27709   4.257   3.921   9.854  0.4855  0.5260  0.4799
 5358SOL    HW127710   4.217   3.850   9.903  1.3695 -1.9068 -2.3590
 5358SOL    HW227711   4.282   3.984   9.922 -0.0590  2.3182 -0.9609
 5359SOL     OW27712   1.344   1.303   8.599  0.2589  0.5833  0.9622
 5359SOL    HW127713   1.420   1.312   8.542 -0.9895  1.6261 -0.5523
 5359SOL    HW227714   1.390   1.264   8.674  0.7739 -2.5747 -0.9879
 5360SOL     OW27715   4.666   0.391  13.378 -0.7107  1.0393 -0.4128
 5360SOL    HW127716   4.589   0.424  13.425 -1.5697  0.7904 -1.6519
 5360SOL    HW227717   4.725   0.416  13.449 -0.6131 -1.2161  0.3225
 5361SOL     OW27718   3.737   4.109   2.201 -0.0935  0.1705  0.9915
 5361SOL    HW127719   3.668   4.150   2.150  0.2982  0.4169  0.6644
 5361SOL    HW227720   3.754   4.170   2.273  1.0832 -0.6998  1.4648
 5362SOL     OW27721   3.322   3.011   5.968 -0.2999  0.4832  0.2611
 5362SOL    HW127722   3.326   2.982   6.060  0.4599 -0.4616 -0.0684
 5362SOL    HW227723   3.397   3.070   5.961  0.1178 -0.1640 -0.6900
 5363SOL     OW27724   1.474   3.964   8.856  0.3198  0.0714 -0.5008
 5363SOL    HW127725   1.386   4.001   8.852 -0.1095 -1.0479 -1.3318
 5363SOL    HW227726   1.513   4.034   8.804  2.3195 -0.2588  0.5543
 5364SOL     OW27727   4.539   0.223   8.886 -0.0785  0.5447 -0.0039
 5364SOL    HW127728   4.519   0.314   8.866 -0.1520  0.4666 -0.2829
 5364SOL    HW227729   4.472   0.189   8.945 -1.2223 -1.2342 -2.3215
 5365SOL     OW27730   3.397   0.791   4.085 -0.4643  0.5781  0.5577
 5365SOL    HW127731   3.410   0.739   4.164  1.1067  0.0025 -0.0799
 5365SOL    HW227732   3.485   0.822   4.066 -0.3315 -1.0669 -1.5749
 5366SOL     OW27733   0.672   1.126   5.213  0.2929 -0.0722  0.0176
 5366SOL    HW127734   0.625   1.052   5.251  1.6946  0.0134  1.8808
 5366SOL    HW227735   0.607   1.178   5.165 -1.5755 -0.2601  2.3387
 5367SOL     OW27736   3.323   2.945   1.704 -0.2544 -0.7067 -0.0401
 5367SOL    HW127737   3.306   2.907   1.790 -2.1084  0.0191 -0.1065
 5367SOL    HW227738   3.290   2.880   1.642  0.8795 -0.0882 -1.3138
 5368SOL     OW27739   0.936   3.706   6.711 -0.3000  0.6235  0.6897
 5368SOL    HW127740   1.017   3.706   6.761  1.5741  0.4777 -2.3520
 5368SOL    HW227741   0.945   3.774   6.644 -2.5555 -0.0808 -0.3411
 5369SOL     OW27742   1.934   0.041   4.636 -0.1529  0.6337  0.2906
 5369SOL    HW127743   2.005   0.083   4.684 -0.4114  0.2046  1.0568
 5369SOL    HW227744   1.975   4.698   4.609  0.0676  0.6869  0.4668
 5370SOL     OW27745   3.575   0.995   6.241 -0.2716 -0.2468  0.2450
 5370SOL    HW127746   3.563   0.901   6.227  0.5586 -0.3445  0.1717
 5370SOL    HW227747   3.624   1.014   6.160  0.1075 -0.3645  0.4474
 5371SOL     OW27748   3.601   4.199  14.444 -0.3766 -0.1701 -0.0464
 5371SOL    HW127749   3.591   4.172  14.352  0.1455  0.1860 -0.2080
 5371SOL    HW227750   3.669   4.266  14.437  1.3143 -1.9539 -0.7391
 5372SOL     OW27751   2.067   3.966   6.189  0.2504  0.0167 -0.4057
 5372SOL    HW127752   2.098   3.879   6.163 -1.1836 -1.4180  2.7353
 5372SOL    HW227753   2.093   4.023   6.116  0.3327 -0.8320 -1.0418
 5373SOL     OW27754   0.668   0.285  11.343  0.1176  0.0926  0.0852
 5373SOL    HW127755   0.581   0.251  11.321  0.6441  0.7107 -2.9395
 5373SOL    HW227756   0.673   0.259  11.435 -0.9977 -1.0603 -0.1790
 5374SOL     OW27757   1.574   1.259   6.888 -0.0432 -0.4739 -0.5573
 5374SOL    HW127758   1.538   1.297   6.968 -1.8185 -3.7695  0.2001
 5374SOL    HW227759   1.669   1.268   6.902  0.0561 -3.3256  0.4895
 5375SOL     OW27760   3.781   0.659   1.946 -0.3249 -0.1443  0.0809
 5375SOL    HW127761   3.754   0.568   1.948  1.8216 -0.7131  3.3996
 5375SOL    HW227762   3.694   0.695   1.959  0.8896  1.9856  2.4507
 5376SOL     OW27763   1.266   4.108  10.713  0.1319  0.0315 -0.0169
 5376SOL    HW127764   1.234   4.164  10.642  2.1283  3.1172  1.5057
 5376SOL    HW227765   1.356   4.141  10.717  0.8337 -1.8098 -1.1423
 5377SOL     OW27766   4.354   0.759  14.043 -0.0172  0.0921 -0.0808
 5377SOL    HW127767   4.299   0.699  14.095 -1.3779  1.6710  0.3265
 5377SOL    HW227768   4.438   0.750  14.087  0.6192  0.0736 -1.3290
 5378SOL     OW27769   0.657   1.802  11.820 -0.2823 -0.0556 -0.4508
 5378SOL    HW127770   0.564   1.808  11.797 -0.8031  0.6891  1.8491
 5378SOL    HW227771   0.646   1.750  11.899  0.2785 -0.0882 -0.3927
 5379SOL     OW27772   4.494   3.671   5.926 -0.3512  0.2246 -0.1327
 5379SOL    HW127773   4.504   3.752   5.975  0.2689  0.0313  0.0588
 5379SOL    HW227774   4.524   3.707   5.843  1.1523 -1.1808 -0.2081
 5380SOL     OW27775   3.879   3.048   7.560 -0.4612 -0.2372  0.1056
 5380SOL    HW127776   3.941   3.043   7.487 -1.0168  1.2038 -0.4656
 5380SOL    HW227777   3.920   3.107   7.623  0.5982  0.0724 -0.8598
 5381SOL     OW27778   2.865   0.749   3.673  0.4513  0.1360 -0.6320
 5381SOL    HW127779   2.789   0.779   3.623  1.1120  0.6181 -1.3461
 5381SOL    HW227780   2.854   0.796   3.756  1.9299 -0.0295 -0.3313
 5382SOL     OW27781   0.709   3.558   4.045  0.4829 -0.2585 -0.2081
 5382SOL    HW127782   0.649   3.494   4.084  0.4007  0.0387  0.1587
 5382SOL    HW227783   0.772   3.505   3.997  1.2156  0.0245  0.4568
 5383SOL     OW27784   3.962   2.039   5.794 -0.6517 -0.2216 -0.5113
 5383SOL    HW127785   3.904   2.019   5.867 -1.3681  0.8080 -0.8052
 5383SOL    HW227786   4.009   2.105   5.845 -0.9051  1.4620 -2.4575
 5384SOL     OW27787   4.219   2.897  10.516 -0.5977 -0.0692  0.0413
 5384SOL    HW127788   4.177   2.959  10.457 -0.2360  1.0429  0.9574
 5384SOL    HW227789   4.273   2.957  10.568  0.4843 -1.6986  0.8254
 5385SOL     OW27790   0.196   1.157   5.413  0.4437  0.3297  0.3508
 5385SOL    HW127791   0.221   1.212   5.339  1.1199  1.2511  1.2635
 5385SOL    HW227792   0.124   1.204   5.455  0.3158  0.6144 -0.1888
 5386SOL     OW27793   4.180   3.464  15.297 -0.5950 -0.1003  0.0265
 5386SOL    HW127794   4.100   3.517  15.301  1.3546  2.8576 -0.3253
 5386SOL    HW227795   4.158   3.420  15.215 -1.3836  2.6538 -1.2510
 5387SOL     OW27796   0.092   0.401  11.977  0.0158  0.3663  0.2851
 5387SOL    HW127797   0.004   0.364  11.969 -0.2151  1.1446 -0.8248
 5387SOL    HW227798   0.113   0.425  11.887 -3.5531  1.9669 -0.1536
 5388SOL     OW27799   3.314   1.275   4.679  0.0403 -0.2229 -0.3027
 5388SOL    HW127800   3.405   1.258   4.704 -0.2449  0.6100  1.2463
 5388SOL    HW227801   3.315   1.370   4.672 -0.8114 -0.2155 -0.3453
 5389SOL     OW27802   3.655   4.512   2.791 -0.1619 -0.2145 -0.0361
 5389SOL    HW127803   3.622   4.460   2.718  1.6711 -0.2069 -0.8688
 5389SOL    HW227804   3.580   4.570   2.802  0.9497  1.5296 -1.6677
 5390SOL     OW27805   4.387   4.501   8.670  0.3676 -0.3514  0.6564
 5390SOL    HW127806   4.420   4.419   8.708  0.2087 -0.2692  0.9756
 5390SOL    HW227807   4.477   4.531   8.657  0.0362  0.6989  0.8276
 5391SOL     OW27808   3.858   0.133   4.867  0.3889 -0.0613 -0.1672
 5391SOL    HW127809   3.843   0.226   4.848  0.5668  0.1071  0.5207
 5391SOL    HW227810   3.858   0.100   4.777  1.5307 -0.7974  0.1005
 5392SOL     OW27811   4.543   3.035   3.084  0.4669  0.4140 -0.1460
 5392SOL    HW127812   4.603   3.007   3.154 -0.1892 -1.2243 -0.2210
 5392SOL    HW227813   4.482   3.068   3.150 -1.5043 -3.4010 -0.0350
 5393SOL     OW27814   3.482   0.054  17.686 -0.5967 -0.6279 -0.1245
 5393SOL    HW127815   3.445   0.008  17.610 -2.2330  1.8796 -0.8277
 5393SOL    HW227816   3.463   0.142  17.653  0.2842 -0.4362 -0.1284
 5394SOL     OW27817   0.827   2.313   9.445  0.0471  0.0441 -0.4141
 5394SOL    HW127818   0.876   2.362   9.511  1.2298 -1.2352 -0.3534
 5394SOL    HW227819   0.894   2.253   9.412  1.8473  1.7084  0.2637
 5395SOL     OW27820   3.174   0.842  14.701  0.3421  0.0146  0.0536
 5395SOL    HW127821   3.088   0.866  14.668  0.0463  0.7474  1.3604
 5395SOL    HW227822   3.156   0.802  14.786  0.7485  0.4470  0.3486
 5396SOL     OW27823   3.895   1.206   2.226  0.3904 -0.2868  0.5129
 5396SOL    HW127824   3.801   1.212   2.208  0.8319  2.1062 -0.9672
 5396SOL    HW227825   3.893   1.111   2.238 -0.3316 -0.0390  2.3655
 5397SOL     OW27826   3.650   0.056   0.445 -0.1813  0.3670  0.0137
 5397SOL    HW127827   3.729   0.003   0.450 -0.0855  0.6809  1.8059
 5397SOL    HW227828   3.598   0.034   0.368 -4.9552 -0.1482  3.3208
 5398SOL     OW27829   2.419   0.135   5.119 -0.0177 -0.1776 -0.4070
 5398SOL    HW127830   2.380   0.222   5.125 -0.5745 -0.3831 -1.0162
 5398SOL    HW227831   2.376   0.083   5.052 -2.4952  1.0210  0.2658
 5399SOL     OW27832   3.511   2.191  13.584  0.4710  0.1455 -0.0143
 5399SOL    HW127833   3.566   2.225  13.513 -0.2175 -0.1121 -0.6697
 5399SOL    HW227834   3.477   2.271  13.622 -0.0356 -0.6571  1.2216
 5400SOL     OW27835   0.344   0.552  14.812 -0.0433 -0.2108  0.5823
 5400SOL    HW127836   0.358   0.613  14.740  2.8092  1.5971  2.6319
 5400SOL    HW227837   0.345   0.616  14.884  1.5706 -0.5748  0.8836
 5401SOL     OW27838   3.563   1.505   6.193 -0.0349  0.0934 -0.2021
 5401SOL    HW127839   3.572   1.425   6.141  1.1286  0.7824 -1.0562
 5401SOL    HW227840   3.478   1.487   6.233 -0.2603 -0.7950 -1.0770
 5402SOL     OW27841   4.528   0.472   8.179 -0.5446 -0.1856  0.0051
 5402SOL    HW127842   4.535   0.459   8.273  0.5511  0.9374  0.0741
 5402SOL    HW227843   4.579   0.400   8.142 -0.9985  0.0966 -1.1620
 5403SOL     OW27844   4.275   2.610   8.851 -0.1439  0.2964 -0.0848
 5403SOL    HW127845   4.351   2.651   8.893  0.2884 -1.2115  0.6143
 5403SOL    HW227846   4.298   2.608   8.758 -0.3059 -0.4208 -0.1090
 5404SOL     OW27847   2.381   0.790  12.710 -0.1141  0.1694 -0.0086
 5404SOL    HW127848   2.392   0.697  12.727  0.3877  0.1314 -0.5434
 5404SOL    HW227849   2.345   0.781  12.622  1.1430 -0.6614 -0.4221
 5405SOL     OW27850   3.479   4.184   3.970  0.3034  0.1634  0.2299
 5405SOL    HW127851   3.502   4.265   4.016 -1.4241  0.5016  0.4975
 5405SOL    HW227852   3.479   4.221   3.881 -0.4184  0.8141  0.5082
 5406SOL     OW27853   3.494   3.878  15.457 -0.3797 -0.0165 -0.0589
 5406SOL    HW127854   3.486   3.834  15.372  1.5563 -3.2625  1.4379
 5406SOL    HW227855   3.561   3.936  15.423  0.6208 -0.3058  1.4112
 5407SOL     OW27856   0.238   3.040  16.171  0.6845 -0.2932 -0.2340
 5407SOL    HW127857   0.205   3.094  16.243  0.1914 -0.8442 -0.0458
 5407SOL    HW227858   0.324   3.082  16.164 -0.1883  1.4456 -0.3945
 5408SOL     OW27859   3.801   3.505   9.340 -0.3761  0.6861  0.1695
 5408SOL    HW127860   3.731   3.489   9.278 -1.0068 -0.1981  1.1099
 5408SOL    HW227861   3.762   3.487   9.425 -2.2553 -0.4423 -0.9451
 5409SOL     OW27862   2.736   0.274  17.165 -0.2203  0.3653 -0.5603
 5409SOL    HW127863   2.646   0.254  17.139 -0.8069  1.8048  0.3682
 5409SOL    HW227864   2.768   0.333  17.097  0.8441  1.6179  1.0025
 5410SOL     OW27865   1.539   2.306   9.114  0.5974 -0.3471 -0.1814
 5410SOL    HW127866   1.467   2.247   9.092 -0.4810  0.2399  1.7824
 5410SOL    HW227867   1.612   2.253   9.083  0.3165  0.5607 -2.3841
 5411SOL     OW27868   1.679   4.357   7.129 -0.1046 -0.0848  0.2860
 5411SOL    HW127869   1.603   4.402   7.093 -0.4565 -2.1603 -1.5344
 5411SOL    HW227870   1.645   4.359   7.219  2.6151 -0.0806  1.3222
 5412SOL     OW27871   0.905   3.240  17.615  0.5773  0.5059 -0.0664
 5412SOL    HW127872   0.881   3.147  17.615  0.2212  0.6123 -2.2443
 5412SOL    HW227873   0.955   3.241  17.697  1.0653  2.0137 -0.3854
 5413SOL     OW27874   3.388   1.011   5.611 -0.0085 -0.0093  0.6444
 5413SOL    HW127875   3.477   0.993   5.580 -0.6821 -3.8985  0.9382
 5413SOL    HW227876   3.406   1.068   5.685 -1.5653  1.0070  0.2380
 5414SOL     OW27877   2.021   1.928   2.156 -0.4531  0.4477  0.2861
 5414SOL    HW127878   2.046   1.866   2.223 -1.0423  0.1767  0.2587
 5414SOL    HW227879   1.927   1.939   2.171 -0.3829  0.8250  0.4322
 5415SOL     OW27880   1.445   0.483   1.588  0.0381  0.5594  0.5621
 5415SOL    HW127881   1.462   0.570   1.551  0.0079  0.3102 -0.0373
 5415SOL    HW227882   1.461   0.431   1.509 -1.8956  0.8777 -0.0370
 5416SOL     OW27883   2.801   4.116   4.646  0.1542 -0.8004 -0.3521
 5416SOL    HW127884   2.851   4.041   4.615  0.8809 -0.3435 -0.2865
 5416SOL    HW227885   2.714   4.102   4.610 -0.3803  1.0881  0.2024
 5417SOL     OW27886   1.610   3.853  14.572  0.7449 -0.3656  0.1227
 5417SOL    HW127887   1.650   3.781  14.620 -0.4944 -0.1407  1.4581
 5417SOL    HW227888   1.685   3.912  14.565  1.5373 -0.9546  3.7479
 5418SOL     OW27889   0.372   0.587   7.538 -0.1108  0.3849  0.4151
 5418SOL    HW127890   0.328   0.627   7.613  1.9080 -1.9348  2.8164
 5418SOL    HW227891   0.319   0.621   7.466 -1.9525 -0.4058  1.4147
 5419SOL     OW27892   0.565   2.595   7.212  0.0247  0.0559 -0.2927
 5419SOL    HW127893   0.624   2.633   7.146 -3.4316  2.2420 -2.1280
 5419SOL    HW227894   0.629   2.525   7.221 -2.2919 -2.3266 -2.4782
 5420SOL     OW27895   1.061   2.652   5.027 -0.5833  0.7210  0.0951
 5420SOL    HW127896   1.151   2.672   5.052  0.3227 -0.7635 -1.9662
 5420SOL    HW227897   1.041   2.730   4.976  0.1534  1.0629  0.3185
 5421SOL     OW27898   2.800   1.485  12.185 -0.1005  0.0904 -1.0975
 5421SOL    HW127899   2.831   1.467  12.273  0.8357  0.5986 -1.3263
 5421SOL    HW227900   2.872   1.442  12.138  0.7336  0.7289 -0.3951
 5422SOL     OW27901   3.815   2.883   7.308  0.2339  0.2780  0.5663
 5422SOL    HW127902   3.877   2.948   7.276  1.4002 -0.7214  0.7960
 5422SOL    HW227903   3.857   2.877   7.394  1.2378 -0.2748  0.0333
 5423SOL     OW27904   2.772   2.620   1.310  0.6492  0.6151 -0.6574
 5423SOL    HW127905   2.811   2.533   1.297 -2.2094 -0.9588  1.0977
 5423SOL    HW227906   2.741   2.647   1.224 -1.6865  1.0034  0.3091
 5424SOL     OW27907   0.627   3.004   7.468  0.0818  0.3026 -0.6186
 5424SOL    HW127908   0.667   3.015   7.554 -1.9230 -0.6242  0.4055
 5424SOL    HW227909   0.581   2.921   7.473 -0.0707  0.4507  0.2730
 5425SOL     OW27910   2.450   0.480   7.865  0.2781 -0.2021 -0.2492
 5425SOL    HW127911   2.396   0.459   7.789 -0.0608  2.1429 -0.6759
 5425SOL    HW227912   2.444   0.400   7.917 -2.1689 -0.4027 -0.8760
 5426SOL     OW27913   2.625   2.815  11.327  0.1615  0.0901  0.0942
 5426SOL    HW127914   2.675   2.756  11.384  1.1833  1.9906  1.1993
 5426SOL    HW227915   2.603   2.876  11.398  0.8040  0.2489  0.1616
 5427SOL     OW27916   4.713   3.771   2.765  0.5524  0.3589 -0.2349
 5427SOL    HW127917   4.695   3.818   2.846  2.8710  1.1850 -0.1961
 5427SOL    HW227918   4.686   3.832   2.696 -3.8449 -0.0664  1.1293
 5428SOL     OW27919   1.610   1.582   2.639 -0.3682  0.1225  0.1971
 5428SOL    HW127920   1.551   1.548   2.706 -0.7593 -1.5020 -0.9605
 5428SOL    HW227921   1.690   1.532   2.652 -0.4886 -0.2198 -0.3805
 5429SOL     OW27922   2.766   1.912   1.290 -0.0119 -0.0981 -0.2753
 5429SOL    HW127923   2.756   1.841   1.353  0.4174  1.6384  1.7582
 5429SOL    HW227924   2.824   1.971   1.339 -0.4388 -0.0269  0.1469
 5430SOL     OW27925   4.257   4.149  17.048  0.2809 -0.0747  0.8220
 5430SOL    HW127926   4.330   4.206  17.069  1.1650 -0.5330 -1.0317
 5430SOL    HW227927   4.186   4.213  17.045  0.3471 -0.2489 -4.0156
 5431SOL     OW27928   2.997   1.333  11.799 -0.1915  0.0446  0.5964
 5431SOL    HW127929   3.046   1.285  11.866 -0.8624 -1.0147  0.3323
 5431SOL    HW227930   2.911   1.342  11.840 -0.6013 -0.4903 -0.1367
 5432SOL     OW27931   3.631   1.189   0.222  0.4717  0.0249 -0.4067
 5432SOL    HW127932   3.712   1.139   0.233  1.0335  0.9261 -0.4380
 5432SOL    HW227933   3.559   1.136   0.257  2.0386 -1.5495  0.4222
 5433SOL     OW27934   3.869   3.602   4.710 -0.1123  0.3290 -0.4005
 5433SOL    HW127935   3.852   3.695   4.723 -2.5423 -0.1011 -0.6451
 5433SOL    HW227936   3.946   3.588   4.765 -0.2629  0.5287 -0.1447
 5434SOL     OW27937   0.966   1.606   0.590 -0.1306  0.4508  0.3789
 5434SOL    HW127938   1.013   1.532   0.550  2.2130  1.1179  1.8510
 5434SOL    HW227939   0.969   1.584   0.683  0.3408  3.1936  1.0132
 5435SOL     OW27940   3.872   3.290   2.345  0.0563  0.1460  0.6112
 5435SOL    HW127941   3.910   3.345   2.277  0.4489  0.9414  1.4781
 5435SOL    HW227942   3.954   3.252   2.379  0.0927  0.8190  1.2512
 5436SOL     OW27943   0.001   2.524   7.098  0.4037 -0.0741  0.4926
 5436SOL    HW127944   0.047   2.532   7.014 -0.0295  0.2985  0.2889
 5436SOL    HW227945   0.074   2.544   7.157  1.2606 -0.3202 -0.4903
 5437SOL     OW27946   3.636   4.108   8.163  0.0762 -0.3372 -0.4970
 5437SOL    HW127947   3.641   4.074   8.074  0.6027  1.9676 -1.3617
 5437SOL    HW227948   3.707   4.060   8.206  2.1385  1.7988 -1.4706
 5438SOL     OW27949   4.371   0.695   3.330 -0.0737  0.7763 -0.2062
 5438SOL    HW127950   4.318   0.636   3.383  0.3052  1.2030  0.6424
 5438SOL    HW227951   4.420   0.746   3.394  1.2173 -1.1715  0.3423
 5439SOL     OW27952   1.213   4.237  16.173 -0.0119 -0.1590 -0.0345
 5439SOL    HW127953   1.226   4.315  16.226  0.0329 -0.5063  0.4629
 5439SOL    HW227954   1.187   4.170  16.236 -0.1470  1.3800  1.5405
 5440SOL     OW27955   3.123   1.633  16.425 -0.2208  0.2232 -0.3084
 5440SOL    HW127956   3.193   1.654  16.486 -1.6514  2.3037  0.6082
 5440SOL    HW227957   3.160   1.660  16.341  2.3907 -0.9350  0.4870
 5441SOL     OW27958   3.625   4.684  17.143 -0.0704 -0.5100 -0.2164
 5441SOL    HW127959   3.623   4.689  17.239  0.0228 -0.5699 -0.2113
 5441SOL    HW227960   3.553   0.007  17.138 -0.5954 -1.0872  0.1899
 5442SOL     OW27961   2.809   1.113   0.131  0.2092  0.0603  0.2993
 5442SOL    HW127962   2.816   1.025   0.168 -0.6718  0.1348  0.6531
 5442SOL    HW227963   2.851   1.161   0.202  0.0841 -0.5546  0.7925
 5443SOL     OW27964   0.280   4.089  15.065  0.0189 -0.5422  0.0663
 5443SOL    HW127965   0.302   4.133  15.148 -0.8907  0.3434 -0.1590
 5443SOL    HW227966   0.253   4.003  15.096 -0.7974 -0.1039  0.5843
 5444SOL     OW27967   3.765   3.915  15.323  0.1795  0.0533  0.1575
 5444SOL    HW127968   3.788   3.924  15.231 -2.3457  0.8312 -0.3984
 5444SOL    HW227969   3.806   3.835  15.356  0.1456 -0.3364 -0.7491
 5445SOL     OW27970   1.426   0.341   1.351 -0.2346  0.2369 -0.0047
 5445SOL    HW127971   1.371   0.413   1.320  0.7429  0.8871 -0.2413
 5445SOL    HW227972   1.439   0.285   1.274  0.0888  0.9888 -0.5003
 5446SOL     OW27973   4.383   3.337   9.543  0.2912  0.0655 -0.4171
 5446SOL    HW127974   4.325   3.412   9.528 -1.1570 -0.8990  0.2862
 5446SOL    HW227975   4.453   3.371   9.598  0.8220 -2.6459  0.5711
 5447SOL     OW27976   0.584   4.663   6.272  0.1684 -0.7273  0.1362
 5447SOL    HW127977   0.562   4.695   6.360 -0.5369 -0.2268 -0.2247
 5447SOL    HW227978   0.664   4.614   6.293 -0.1667 -1.2602  0.1569
 5448SOL     OW27979   4.347   4.283   0.278  0.0914 -0.1121  0.2610
 5448SOL    HW127980   4.308   4.241   0.201  0.9416  3.0938 -1.9105
 5448SOL    HW227981   4.287   4.252   0.346  0.5750  1.3824  1.3404
 5449SOL     OW27982   1.322   3.225   2.183  0.1242 -0.0368 -0.4669
 5449SOL    HW127983   1.347   3.224   2.090 -0.4370  2.2569 -0.6484
 5449SOL    HW227984   1.389   3.177   2.232  1.0736  2.9670  1.1500
 5450SOL     OW27985   0.540   2.731   7.465  0.1966 -0.2715  0.4239
 5450SOL    HW127986   0.532   2.672   7.390  0.4708 -1.7991  1.6129
 5450SOL    HW227987   0.468   2.697   7.517 -0.5973  2.0605  0.8604
 5451SOL     OW27988   2.122   1.340   8.352 -0.0029  0.2550 -0.3537
 5451SOL    HW127989   2.073   1.258   8.344  1.6914 -0.6977 -1.0171
 5451SOL    HW227990   2.066   1.414   8.326  1.4974  1.3953 -0.3706
 5452SOL     OW27991   0.129   3.398   5.119  0.3241  0.3562  0.0566
 5452SOL    HW127992   0.178   3.324   5.155  0.7753 -0.4171 -2.1391
 5452SOL    HW227993   0.127   3.459   5.192 -1.9402  0.5478 -0.1537
 5453SOL     OW27994   3.827   3.930   1.101  0.0711 -0.5821 -0.1065
 5453SOL    HW127995   3.757   3.965   1.156  1.2831  1.1975  0.2897
 5453SOL    HW227996   3.790   3.952   1.015  0.2222 -0.5872 -0.1722
 5454SOL     OW27997   2.410   0.282   2.243  0.4591  0.0681 -0.6469
 5454SOL    HW127998   2.332   0.234   2.217 -0.0216  0.7692 -0.4716
 5454SOL    HW227999   2.449   0.292   2.156  0.1535  1.5112 -0.6075
 5455SOL     OW28000   2.826   1.971   3.645 -0.2251  0.5383  0.0013
 5455SOL    HW128001   2.739   1.973   3.685 -0.3388  0.9187 -0.2549
 5455SOL    HW228002   2.870   2.019   3.715 -0.5937  0.2746  0.4172
 5456SOL     OW28003   1.276   3.053   0.898 -0.2704  0.4674  0.0064
 5456SOL    HW128004   1.312   3.132   0.855  2.7444  0.2989  2.1933
 5456SOL    HW228005   1.359   3.006   0.899 -0.7794 -0.4629 -2.3050
 5457SOL     OW28006   4.302   3.392  14.481 -0.0271  0.3004 -0.0236
 5457SOL    HW128007   4.225   3.334  14.485  0.1753  0.0719  0.5268
 5457SOL    HW228008   4.372   3.327  14.475 -0.0057  0.5240 -2.3479
 5458SOL     OW28009   2.799   1.902   4.038  0.3293  0.5021 -0.0281
 5458SOL    HW128010   2.806   1.808   4.021 -0.2342  0.8493 -2.2050
 5458SOL    HW228011   2.704   1.915   4.039  0.0566 -1.3302 -1.7210
 5459SOL     OW28012   4.150   2.016   7.195 -0.2957  0.0878 -0.0069
 5459SOL    HW128013   4.142   2.024   7.100 -1.1363 -0.2884  0.0294
 5459SOL    HW228014   4.170   1.923   7.205  0.4946  0.4699  1.9455
 5460SOL     OW28015   1.196   1.482   8.311 -0.4137  0.1978  0.3263
 5460SOL    HW128016   1.133   1.435   8.257  0.3044 -1.1141  0.6296
 5460SOL    HW228017   1.276   1.457   8.266 -1.4050  1.4568 -2.1132
 5461SOL     OW28018   0.310   4.340   7.865 -0.3838 -0.5418  0.2284
 5461SOL    HW128019   0.372   4.377   7.802  1.1331  1.9798  3.2532
 5461SOL    HW228020   0.335   4.248   7.873  0.7379 -0.0017  2.9624
 5462SOL     OW28021   2.826   3.366  10.667 -0.0683 -0.6306  0.2972
 5462SOL    HW128022   2.853   3.444  10.619  3.1335 -0.3161  2.6385
 5462SOL    HW228023   2.799   3.407  10.750 -0.2705  1.3681 -0.7515
 5463SOL     OW28024   3.097   0.760  10.159 -0.6604 -0.6023  0.1946
 5463SOL    HW128025   3.038   0.746  10.234 -1.0406 -1.2968 -0.2282
 5463SOL    HW228026   3.077   0.685  10.103  0.9265  0.2596 -1.5247
 5464SOL     OW28027   3.373   3.263   8.998 -0.2277  0.6698  0.4907
 5464SOL    HW128028   3.278   3.263   9.007 -0.1416  0.4160  1.4626
 5464SOL    HW228029   3.401   3.245   9.088 -1.5639  1.0631  0.9722
 5465SOL     OW28030   4.638   0.994   8.453  0.1805 -0.6165  0.1447
 5465SOL    HW128031   4.653   0.902   8.473 -1.9687 -0.6492  1.5644
 5465SOL    HW228032   4.587   0.983   8.372  1.5140 -2.9713 -0.3906
 5466SOL     OW28033   0.079   4.438   3.136  0.3663 -0.3871  0.3494
 5466SOL    HW128034   0.090   4.530   3.111  3.0229 -1.0355 -0.8960
 5466SOL    HW228035   0.174   4.426   3.140  0.4536 -0.0002 -0.7125
 5467SOL     OW28036   3.615   1.129   7.738 -0.1961 -0.4083  0.2237
 5467SOL    HW128037   3.637   1.200   7.678 -1.8768  0.9591  1.2560
 5467SOL    HW228038   3.549   1.173   7.791  1.2658  0.1224  1.6298
 5468SOL     OW28039   0.276   0.760   3.901 -0.5002 -0.1094 -0.0211
 5468SOL    HW128040   0.360   0.771   3.946 -0.2302 -1.6539 -0.1519
 5468SOL    HW228041   0.303   0.698   3.833  0.0983  1.0452 -0.8433
 5469SOL     OW28042   1.961   1.963  17.167 -0.2266  0.6751 -0.4045
 5469SOL    HW128043   1.923   1.891  17.118 -1.1730 -1.2775  3.2175
 5469SOL    HW228044   2.011   1.918  17.235  2.3745  1.4034 -1.8541
 5470SOL     OW28045   3.650   1.110  11.802 -0.0688 -0.2853 -0.3121
 5470SOL    HW128046   3.574   1.053  11.801 -1.1643  1.1759  0.2124
 5470SOL    HW228047   3.651   1.135  11.894 -1.9259 -1.6239  0.0620
 5471SOL     OW28048   4.246   1.969  12.044  0.4396  0.3222 -0.0045
 5471SOL    HW128049   4.325   2.000  12.000  1.9973 -3.8202 -0.1783
 5471SOL    HW228050   4.219   2.052  12.084 -2.9311 -0.9792  0.4256
 5472SOL     OW28051   1.159   2.207   8.033 -0.1973 -0.3491  0.3351
 5472SOL    HW128052   1.099   2.262   8.084 -1.7818 -1.9856  0.2222
 5472SOL    HW228053   1.178   2.270   7.963 -0.4848 -0.9169 -0.2578
 5473SOL     OW28054   3.436   1.146   3.532  0.3350  0.1373  0.3425
 5473SOL    HW128055   3.401   1.222   3.578 -3.8745 -0.4586 -1.8623
 5473SOL    HW228056   3.385   1.153   3.451 -1.1866  0.6022  1.3370
 5474SOL     OW28057   0.817   0.369   7.710  0.1118  0.4830  0.2255
 5474SOL    HW128058   0.772   0.350   7.628 -0.6385 -2.5176  1.3177
 5474SOL    HW228059   0.901   0.401   7.677 -0.5215  1.6056 -0.3058
 5475SOL     OW28060   2.100   2.803   1.608  0.1297  0.4071 -0.2188
 5475SOL    HW128061   2.071   2.865   1.541  0.6751  0.1960 -0.6547
 5475SOL    HW228062   2.049   2.725   1.586 -1.0135  1.5140 -1.4722
 5476SOL     OW28063   4.009   2.126   1.819  0.2249 -0.4147  0.7424
 5476SOL    HW128064   4.084   2.097   1.766 -0.1597 -1.8146  0.9670
 5476SOL    HW228065   3.978   2.192   1.757  2.2332 -0.3328 -0.1929
 5477SOL     OW28066   1.787   1.820  12.249 -1.1213  0.2204  0.2074
 5477SOL    HW128067   1.746   1.809  12.335 -0.3885  0.6049  0.6053
 5477SOL    HW228068   1.707   1.814  12.196  0.2023 -2.2438 -1.5219
 5478SOL     OW28069   4.455   4.580   1.278  0.1924  0.0683 -0.5420
 5478SOL    HW128070   4.510   4.636   1.332  0.6936 -0.4928 -0.4798
 5478SOL    HW228071   4.378   4.561   1.332  0.7899 -0.2461  0.1833
 5479SOL     OW28072   4.385   0.845   3.080 -0.2629  0.2889  0.4453
 5479SOL    HW128073   4.480   0.857   3.073  0.1306 -2.0222  1.5401
 5479SOL    HW228074   4.386   0.803   3.166  0.8613 -1.4860 -0.4164
 5480SOL     OW28075   3.344   4.683   6.948  0.2537 -0.0892 -0.4620
 5480SOL    HW128076   3.410   0.001   6.909  0.4036  0.4363  0.5728
 5480SOL    HW228077   3.295   0.006   7.002 -0.2604 -1.1918  0.3601
 5481SOL     OW28078   0.784   3.331  13.099  0.4182  0.1271 -0.1422
 5481SOL    HW128079   0.831   3.293  13.173 -1.7465 -3.1543 -0.4728
 5481SOL    HW228080   0.745   3.254  13.058 -1.2487  1.0455 -0.2862
 5482SOL     OW28081   2.008   0.893  15.682 -0.4668 -0.1161  0.2135
 5482SOL    HW128082   2.036   0.880  15.591  0.2667  0.2159  0.3866
 5482SOL    HW228083   2.084   0.934  15.725  0.2137 -1.0135 -0.1241
 5483SOL     OW28084   2.650   1.459   9.965  0.5709  1.0262  0.2986
 5483SOL    HW128085   2.608   1.391  10.018  1.1727  0.3235 -0.1282
 5483SOL    HW228086   2.670   1.524  10.032  0.6993  2.5087 -1.2004
 5484SOL     OW28087   3.758   4.590   7.908  0.4170  0.5670  0.5107
 5484SOL    HW128088   3.678   4.635   7.934 -0.6706  0.5254 -2.7716
 5484SOL    HW228089   3.817   4.664   7.892  1.0606  0.3006  1.6703
 5485SOL     OW28090   3.368   4.019   7.854  0.1853 -0.2686 -0.1343
 5485SOL    HW128091   3.346   3.928   7.871 -1.3817  0.0491 -0.4475
 5485SOL    HW228092   3.457   4.041   7.881 -0.5086  3.7354 -1.0781
 5486SOL     OW28093   2.897   3.254   2.117  0.1973  0.0539  0.2190
 5486SOL    HW128094   2.910   3.159   2.114  0.2556  0.1068 -1.6809
 5486SOL    HW228095   2.983   3.291   2.137  0.3948 -1.2890  1.8670
 5487SOL     OW28096   1.736   3.044   8.537  0.0579  0.1768  0.4453
 5487SOL    HW128097   1.831   3.043   8.523  0.2181  1.4916  1.3619
 5487SOL    HW228098   1.722   3.057   8.631  1.1091 -1.3614  0.8005
 5488SOL     OW28099   1.856   0.383  16.594  0.6671 -0.0251 -0.1922
 5488SOL    HW128100   1.799   0.441  16.544  1.2508  2.5418  2.1204
 5488SOL    HW228101   1.865   0.423  16.680  1.2725  0.4970 -0.4945
 5489SOL     OW28102   3.114   0.357   8.241  0.5176  0.5851 -0.3110
 5489SOL    HW128103   3.050   0.290   8.215 -0.9366  0.8528  2.5170
 5489SOL    HW228104   3.087   0.352   8.333 -1.0340 -1.1146 -0.8598
 5490SOL     OW28105   3.347   0.503   4.906 -0.1930  0.0762 -0.1108
 5490SOL    HW128106   3.309   0.457   4.980  1.2272 -1.2933 -0.2233
 5490SOL    HW228107   3.321   0.448   4.832  0.3839  1.3970 -1.2966
 5491SOL     OW28108   2.326   4.648   3.628 -0.0383  0.0627 -0.0771
 5491SOL    HW128109   2.324   4.656   3.533  0.3500 -0.0655 -0.1002
 5491SOL    HW228110   2.384   4.719   3.655  3.0517 -2.2970 -0.4045
 5492SOL     OW28111   2.853   2.658   0.513 -0.7754  0.1221 -0.5551
 5492SOL    HW128112   2.833   2.727   0.449  1.3061  0.4728 -0.8248
 5492SOL    HW228113   2.767   2.617   0.516 -0.7762  0.0164 -2.0355
 5493SOL     OW28114   3.671   4.489   3.066  0.5289 -0.0238 -0.1168
 5493SOL    HW128115   3.650   4.471   2.974 -1.7572 -1.3865  0.6733
 5493SOL    HW228116   3.620   4.421   3.110  1.8792 -1.0192 -0.0941
 5494SOL     OW28117   1.070   2.125   7.414 -0.3459 -0.0468 -0.1697
 5494SOL    HW128118   0.992   2.172   7.444 -0.5807  0.5131 -1.6289
 5494SOL    HW228119   1.141   2.190   7.406 -0.6958  0.3397 -0.1504
 5495SOL     OW28120   0.814   1.670   5.941  0.8107  0.4407  0.0510
 5495SOL    HW128121   0.725   1.704   5.952  0.5746 -0.2175  0.1855
 5495SOL    HW228122   0.837   1.708   5.857 -0.2369  3.2270  1.0260
 5496SOL     OW28123   3.180   0.255   4.043 -0.3326  0.1189  0.0766
 5496SOL    HW128124   3.251   0.199   4.011  1.0249  1.5080  0.6798
 5496SOL    HW228125   3.239   0.324   4.073 -2.5548  2.4435 -0.9333
 5497SOL     OW28126   1.333   4.606   3.843  0.0972  0.7580  0.3023
 5497SOL    HW128127   1.337   4.610   3.748  0.8939  2.2652  0.3869
 5497SOL    HW228128   1.356   4.514   3.859 -0.4252  1.1560  3.4988
 5498SOL     OW28129   2.711   2.833   3.348 -0.6129 -0.5233 -0.6385
 5498SOL    HW128130   2.762   2.755   3.373 -2.2232 -0.9212  1.3649
 5498SOL    HW228131   2.622   2.800   3.363 -1.2153  0.6475 -1.6983
 5499SOL     OW28132   1.647   0.125   8.256 -0.5690  0.3539 -0.4918
 5499SOL    HW128133   1.729   0.082   8.282  0.3008  1.2748 -1.7657
 5499SOL    HW228134   1.682   0.200   8.208  0.4662  1.1357  1.4667
 5500SOL     OW28135   2.957   0.590  15.572  0.0392  0.0144  0.3003
 5500SOL    HW128136   3.036   0.643  15.564  0.2613 -0.2003  1.0892
 5500SOL    HW228137   2.984   0.505  15.537 -2.3158 -0.5339 -0.1727
 5501SOL     OW28138   2.766   0.114   7.286 -0.5642 -0.7060  0.8694
 5501SOL    HW128139   2.715   0.105   7.206  0.1997 -1.3448  0.4584
 5501SOL    HW228140   2.825   0.039   7.279  0.5770  0.4121 -1.4964
 5502SOL     OW28141   1.477   3.030   9.440 -0.4466 -0.0558 -0.2411
 5502SOL    HW128142   1.459   3.124   9.441  1.9640  0.3897  1.2379
 5502SOL    HW228143   1.554   3.019   9.384 -0.4913 -0.4867 -0.2237
 5503SOL     OW28144   2.261   3.044  11.603 -0.1047 -0.9115  1.1609
 5503SOL    HW128145   2.176   3.058  11.561 -0.6091 -0.1644  2.4542
 5503SOL    HW228146   2.258   3.099  11.681 -1.0986  0.5064  0.1101
 5504SOL     OW28147   1.511   2.046  13.998 -0.2498  0.3325  0.3019
 5504SOL    HW128148   1.508   2.088  14.084  2.0060  2.2966 -0.6005
 5504SOL    HW228149   1.479   1.960  14.025  1.1796  0.0987  1.2215
 5505SOL     OW28150   1.233   3.233  13.717 -0.1717  0.5537  0.4734
 5505SOL    HW128151   1.249   3.323  13.687  0.2105  0.2314 -0.2922
 5505SOL    HW228152   1.205   3.244  13.808  1.7318  1.7943  0.9231
 5506SOL     OW28153   2.267   0.376   1.928 -0.0031  0.1721  0.0924
 5506SOL    HW128154   2.268   0.391   1.833  1.5355 -2.3100 -0.2707
 5506SOL    HW228155   2.214   0.454   1.942 -1.6894 -1.0157  0.2886
 5507SOL     OW28156   2.070   3.653   5.485  0.4925 -0.3930  0.6304
 5507SOL    HW128157   2.163   3.655   5.462  0.0552 -1.8411 -1.2871
 5507SOL    HW228158   2.075   3.583   5.550  1.4037 -0.6740  0.2585
 5508SOL     OW28159   2.118   1.478   1.856 -0.6318  0.2546 -0.0035
 5508SOL    HW128160   2.169   1.555   1.830  1.7006 -1.0329  0.7940
 5508SOL    HW228161   2.161   1.410   1.805 -0.5579 -0.7449  1.3935
 5509SOL     OW28162   4.358   2.032   0.355  0.3800 -0.7201 -0.3435
 5509SOL    HW128163   4.388   2.106   0.302 -0.3952  0.2495  0.5596
 5509SOL    HW228164   4.370   2.065   0.445 -0.5525 -2.1639  0.3190
 5510SOL     OW28165   4.299   4.384   9.859 -0.1473 -0.3152 -0.3343
 5510SOL    HW128166   4.363   4.441   9.815  0.9279  0.4212  2.2153
 5510SOL    HW228167   4.295   4.432   9.941 -0.1512  1.4088 -1.3285
 5511SOL     OW28168   4.335   2.725   4.027  0.0127  0.3690  0.0602
 5511SOL    HW128169   4.389   2.767   4.094  0.7292  0.1395 -0.3761
 5511SOL    HW228170   4.274   2.796   4.007 -0.1498  1.1614  3.4086
 5512SOL     OW28171   2.250   0.220   0.497  0.2479 -0.1666 -0.3499
 5512SOL    HW128172   2.312   0.271   0.550  0.7209  0.4219 -1.4580
 5512SOL    HW228173   2.194   0.293   0.471  0.7298  0.8243  1.3286
 5513SOL     OW28174   1.889   2.753  15.544 -0.2330  0.1712 -0.4256
 5513SOL    HW128175   1.974   2.727  15.580 -0.9019 -0.9468  0.3166
 5513SOL    HW228176   1.835   2.675  15.559  0.3727  0.0622  1.1729
 5514SOL     OW28177   0.497   0.934   7.451 -0.0630  0.0823  0.0962
 5514SOL    HW128178   0.506   0.901   7.361  1.0654 -1.0032  0.6029
 5514SOL    HW228179   0.416   0.986   7.451  1.1582  1.9755 -0.6656
 5515SOL     OW28180   0.820   3.677   4.868 -0.2115  0.2993 -0.4608
 5515SOL    HW128181   0.754   3.732   4.827  1.9023  3.2250  0.0172
 5515SOL    HW228182   0.838   3.727   4.948  1.1386 -1.4847  0.3673
 5516SOL     OW28183   2.297   1.084   5.144  0.2135 -0.1685  0.5973
 5516SOL    HW128184   2.252   1.003   5.123  0.9020 -0.6140  0.8461
 5516SOL    HW228185   2.241   1.123   5.211  0.4902  1.3874 -0.0623
 5517SOL     OW28186   1.208   3.594  15.914 -0.3782 -0.5098  0.3998
 5517SOL    HW128187   1.160   3.662  15.867 -1.4827 -0.7307  1.2093
 5517SOL    HW228188   1.268   3.564  15.846 -0.2064 -0.6302  0.6040
 5518SOL     OW28189   4.671   3.972  14.868  0.2423  0.0800 -0.3841
 5518SOL    HW128190   4.703   4.061  14.885 -0.7787  0.1436  1.2458
 5518SOL    HW228191   4.668   3.944  14.959 -2.0298 -3.9642 -1.7211
 5519SOL     OW28192   4.148   0.894   3.602 -0.2080 -0.1226  0.3856
 5519SOL    HW128193   4.147   0.884   3.507  2.1598 -0.4599  0.3982
 5519SOL    HW228194   4.117   0.808   3.629  3.0566 -1.3165  0.3370
 5520SOL     OW28195   1.357   1.509   5.801  0.2862 -0.1658 -0.2543
 5520SOL    HW128196   1.299   1.433   5.809  0.2324 -0.2988 -1.8089
 5520SOL    HW228197   1.327   1.556   5.878  2.4068  1.4040 -0.3952
 5521SOL     OW28198   2.236   3.067   3.939  0.3717 -0.1406  0.4266
 5521SOL    HW128199   2.168   3.014   3.898  0.9779  0.0949 -0.8837
 5521SOL    HW228200   2.294   3.093   3.867  1.4851 -0.6570  1.1351
 5522SOL     OW28201   4.028   3.994   6.299  0.1506  0.0250  0.4307
 5522SOL    HW128202   4.037   4.004   6.394 -2.2264 -1.7983  0.8255
 5522SOL    HW228203   4.039   4.084   6.268  0.6635  0.1183  0.8843
 5523SOL     OW28204   1.244   1.164   4.052 -1.0529 -0.4762  0.4609
 5523SOL    HW128205   1.235   1.089   4.111 -0.4788 -0.0480  1.0951
 5523SOL    HW228206   1.335   1.191   4.067 -1.4822  1.3318 -0.2236
 5524SOL     OW28207   4.228   0.241   7.902  0.7461 -0.9362  0.2548
 5524SOL    HW128208   4.309   0.288   7.922  1.3679 -1.0934 -1.9145
 5524SOL    HW228209   4.178   0.305   7.852  1.1537  0.2950  1.4428
 5525SOL     OW28210   2.103   3.482  15.904 -0.4555 -0.3375 -0.3443
 5525SOL    HW128211   2.044   3.476  15.979 -0.7611 -0.6008 -0.6041
 5525SOL    HW228212   2.055   3.423  15.845 -0.0059  0.0782 -1.1303
 5526SOL     OW28213   4.536   0.864   9.394 -0.4252 -0.3079 -0.1339
 5526SOL    HW128214   4.586   0.945   9.386  1.6634 -1.5679 -0.1220
 5526SOL    HW228215   4.543   0.856   9.489  0.0153  3.5020  0.1296
 5527SOL     OW28216   2.580   1.898   9.605 -0.1083  0.3595  0.2288
 5527SOL    HW128217   2.558   1.805   9.607  0.3066  0.2011 -3.3811
 5527SOL    HW228218   2.505   1.935   9.652  0.7971  2.2828  0.1616
 5528SOL     OW28219   4.535   2.477   1.642  0.0190 -0.0311  0.1553
 5528SOL    HW128220   4.452   2.495   1.686  0.3605  2.5536 -0.2625
 5528SOL    HW228221   4.572   2.565   1.649 -2.2712  1.0338 -0.9853
 5529SOL     OW28222   1.314   4.432  17.513 -0.2952  0.0698  0.5639
 5529SOL    HW128223   1.250   4.503  17.502  0.2305  0.3716 -0.5501
 5529SOL    HW228224   1.299   4.376  17.437 -0.7060  0.0414  0.6653
 5530SOL     OW28225   1.740   3.916   2.098  0.1637 -0.5633 -0.5425
 5530SOL    HW128226   1.823   3.964   2.107 -0.0012 -0.6715  1.5859
 5530SOL    HW228227   1.765   3.860   2.025  1.5823 -0.0018 -0.5030
 5531SOL     OW28228   2.033   0.478   2.200 -0.0406 -0.0754 -0.2133
 5531SOL    HW128229   2.015   0.552   2.141 -0.8681 -0.8938 -0.9819
 5531SOL    HW228230   2.121   0.501   2.229  0.8982  0.3311 -3.3487
 5532SOL     OW28231   1.632   2.485   6.021 -0.3237 -0.5417  0.1438
 5532SOL    HW128232   1.558   2.424   6.021  1.0850 -2.2288  0.5994
 5532SOL    HW228233   1.692   2.439   6.079 -0.4214  0.0093  0.6829
 5533SOL     OW28234   1.455   0.765  13.761 -0.5478 -0.0894  0.5289
 5533SOL    HW128235   1.499   0.795  13.682  0.2651  0.6331  1.2518
 5533SOL    HW228236   1.367   0.757  13.725  0.0580  0.1545 -0.9975
 5534SOL     OW28237   0.214   0.329  12.806 -0.5567 -0.0979  0.0966
 5534SOL    HW128238   0.260   0.373  12.735  0.6623  0.3802  1.1578
 5534SOL    HW228239   0.128   0.369  12.812 -0.5603 -0.4428  2.3341
 5535SOL     OW28240   3.955   2.993  14.647 -0.2396 -0.6505 -0.5267
 5535SOL    HW128241   3.953   2.923  14.713 -0.8267  0.1366  0.2893
 5535SOL    HW228242   4.040   2.977  14.605  0.2319 -0.0477  0.1925
 5536SOL     OW28243   3.460   0.484  16.621 -0.5560  0.7705 -0.7472
 5536SOL    HW128244   3.481   0.401  16.664 -2.2668 -0.5903 -2.5206
 5536SOL    HW228245   3.542   0.534  16.620  0.0491 -0.2094  1.4681
 5537SOL     OW28246   1.514   1.087   2.661 -0.0497  0.1658 -0.2581
 5537SOL    HW128247   1.594   1.134   2.638 -0.1489  0.6422  0.3587
 5537SOL    HW228248   1.451   1.139   2.610 -0.4240 -1.1773 -1.1469
 5538SOL     OW28249   2.573   3.574   2.374 -0.0933 -0.0818  0.1472
 5538SOL    HW128250   2.665   3.551   2.365  0.2330  1.5963 -0.8243
 5538SOL    HW228251   2.540   3.501   2.426 -1.3524 -0.0643 -0.6238
 5539SOL     OW28252   3.144   1.211  16.700  0.1375 -0.7488 -0.4843
 5539SOL    HW128253   3.118   1.189  16.789 -1.7300  0.5796 -0.6910
 5539SOL    HW228254   3.233   1.242  16.715  0.4421 -2.1545  0.6310
 5540SOL     OW28255   0.017   2.648   5.714  0.0176 -0.6153  0.4200
 5540SOL    HW128256   4.728   2.693   5.793 -1.5401 -1.3450  0.2687
 5540SOL    HW228257   0.068   2.576   5.752  0.6525 -1.1014 -1.3355
 5541SOL     OW28258   0.362   3.757  10.160  0.4222 -0.3864  0.2405
 5541SOL    HW128259   0.446   3.727  10.195 -1.2749 -1.9568  2.9783
 5541SOL    HW228260   0.326   3.677  10.122  0.2305 -0.2393  0.1149
 5542SOL     OW28261   4.681   3.089   7.174  0.1829 -0.0581  0.1307
 5542SOL    HW128262   4.709   3.095   7.265  4.5584  1.2253 -1.2705
 5542SOL    HW228263   4.706   3.001   7.145 -4.3747 -1.0818 -0.6075
 5543SOL     OW28264   0.299   3.311  13.825 -0.2739  0.5198 -0.1307
 5543SOL    HW128265   0.265   3.223  13.812 -1.4043  0.7424  1.3439
 5543SOL    HW228266   0.340   3.333  13.741  1.9943 -0.3879  0.7307
 5544SOL     OW28267   3.843   3.149   6.100 -0.3336 -0.1044 -0.0579
 5544SOL    HW128268   3.896   3.227   6.084  0.9569 -1.3032 -1.6446
 5544SOL    HW228269   3.873   3.113   6.184  2.6529  1.0945 -0.6002
 5545SOL     OW28270   2.870   1.279   2.471  0.2082 -0.1022 -0.1750
 5545SOL    HW128271   2.922   1.202   2.451  0.4237 -0.3201  1.2380
 5545SOL    HW228272   2.873   1.313   2.382  0.3218  1.1370  0.3016
 5546SOL     OW28273   3.884   3.103   4.058 -0.2556 -0.1391  0.0832
 5546SOL    HW128274   3.886   3.089   4.153  2.9153 -0.1830  0.0173
 5546SOL    HW228275   3.826   3.178   4.044  0.9454  0.7001 -0.4897
 5547SOL     OW28276   3.508   4.120   8.441 -0.6550 -0.3068 -0.2039
 5547SOL    HW128277   3.538   4.204   8.406 -0.3589 -0.6656 -0.8148
 5547SOL    HW228278   3.561   4.059   8.390 -0.3061 -1.3752  1.4334
 5548SOL     OW28279   0.704   4.454   9.866  0.1748  0.5616  0.3367
 5548SOL    HW128280   0.730   4.375   9.820  0.8280  0.5796  0.6821
 5548SOL    HW228281   0.685   4.423   9.955 -0.3761 -0.6823 -0.2175
 5549SOL     OW28282   3.557   2.326   4.094  0.4435  0.1555 -0.2798
 5549SOL    HW128283   3.559   2.348   4.187  0.4854 -0.9989 -0.0151
 5549SOL    HW228284   3.466   2.344   4.072  0.8614  0.6759 -1.5875
 5550SOL     OW28285   1.991   2.045   6.145  0.0633 -0.0591  0.2372
 5550SOL    HW128286   1.923   1.982   6.121  1.2824 -1.0416 -0.6133
 5550SOL    HW228287   2.061   1.990   6.182  0.4331  0.8734  0.9329
 5551SOL     OW28288   2.219   2.581  16.328  0.2387  0.5823 -0.4750
 5551SOL    HW128289   2.171   2.624  16.400 -0.7682  0.9491 -1.3660
 5551SOL    HW228290   2.147   2.523  16.301 -0.8235  1.7523 -0.1406
 5552SOL     OW28291   3.680   0.986   5.982 -0.1441  0.4636 -0.2030
 5552SOL    HW128292   3.762   0.958   5.941 -0.7101 -2.0862  0.4016
 5552SOL    HW228293   3.620   0.932   5.930  2.6027 -0.4460 -2.4537
 5553SOL     OW28294   2.477   1.356  11.485  0.0929  0.0601 -0.4253
 5553SOL    HW128295   2.427   1.400  11.553 -1.2578 -1.9720 -0.0964
 5553SOL    HW228296   2.546   1.315  11.538 -0.3378  0.3089  0.3163
 5554SOL     OW28297   0.511   4.096   4.204  0.3141  0.1809  0.2820
 5554SOL    HW128298   0.463   4.160   4.153  1.6304  0.2317 -0.8901
 5554SOL    HW228299   0.463   4.090   4.287  0.1771  1.6453  0.3093
 5555SOL     OW28300   1.626   1.755   1.234 -0.0972  0.1580  0.1650
 5555SOL    HW128301   1.540   1.725   1.265  0.5209  0.6512  2.3555
 5555SOL    HW228302   1.614   1.845   1.262 -1.9424 -0.5085  1.4929
 5556SOL     OW28303   3.241   0.156   4.999 -0.1294  0.3894  0.3510
 5556SOL    HW128304   3.276   0.192   4.918 -0.9460 -1.6783 -0.9204
 5556SOL    HW228305   3.305   0.182   5.065 -0.7126  1.9567  0.3151
 5557SOL     OW28306   0.483   1.838  16.305  0.0018 -0.4426 -0.1252
 5557SOL    HW128307   0.457   1.760  16.353 -0.4289 -0.0797  0.2231
 5557SOL    HW228308   0.437   1.908  16.351  0.9844 -0.2346  0.5390
 5558SOL     OW28309   0.433   0.816   2.905 -0.2162 -0.8581  0.2982
 5558SOL    HW128310   0.401   0.727   2.922  1.5937 -1.4193  0.8589
 5558SOL    HW228311   0.471   0.792   2.821 -0.8220 -2.0701  0.3726
 5559SOL     OW28312   0.478   3.348   7.417 -0.0207 -0.1491  0.0896
 5559SOL    HW128313   0.566   3.335   7.382  0.1923 -0.3659  0.6930
 5559SOL    HW228314   0.499   3.320   7.507  1.7067  0.7833 -0.0153
 5560SOL     OW28315   2.522   4.600   7.110  0.3750  0.4183  0.8055
 5560SOL    HW128316   2.532   4.692   7.084  0.2914  0.4484  0.8785
 5560SOL    HW228317   2.529   4.613   7.205  1.4266  0.8478  0.6682
 5561SOL     OW28318   0.020   2.514   4.867  0.2322 -0.0482  0.0550
 5561SOL    HW128319   0.099   2.480   4.910  0.4621 -0.7717 -0.9279
 5561SOL    HW228320   0.009   2.460   4.788 -1.5791  0.9857 -0.3938
 5562SOL     OW28321   2.237   1.753   6.833 -0.9582 -0.1287  0.0879
 5562SOL    HW128322   2.236   1.757   6.928  0.2018 -1.6665  0.1635
 5562SOL    HW228323   2.277   1.837   6.813 -0.0995 -1.3319 -3.3000
 5563SOL     OW28324   2.874   3.452   6.440 -0.1341 -0.4604 -0.2297
 5563SOL    HW128325   2.833   3.490   6.518  0.0211 -0.0394 -0.3557
 5563SOL    HW228326   2.874   3.360   6.466  0.8160  0.2567  2.3485
 5564SOL     OW28327   3.651   0.846   3.987  0.5027  0.0579 -0.6738
 5564SOL    HW128328   3.671   0.781   3.920  0.0602  0.6198 -1.3436
 5564SOL    HW228329   3.612   0.910   3.929 -1.9236 -2.7439 -2.1389
 5565SOL     OW28330   2.263   4.553   4.078  0.7616  0.0255 -0.3080
 5565SOL    HW128331   2.207   4.490   4.031 -0.1054 -0.9932  2.0963
 5565SOL    HW228332   2.204   4.582   4.148 -0.3165 -0.0142 -1.1983
 5566SOL     OW28333   4.655   4.563   7.847  0.8599  0.3412 -0.0168
 5566SOL    HW128334   4.602   4.627   7.799 -1.9698 -1.0596  1.2210
 5566SOL    HW228335   4.735   4.615   7.848  1.0633  0.0185  0.3102
 5567SOL     OW28336   2.428   1.887   4.052 -0.3026  0.2636 -0.6119
 5567SOL    HW128337   2.432   1.793   4.037 -1.0774 -0.0700  1.3221
 5567SOL    HW228338   2.389   1.922   3.972 -0.9522 -1.0314 -0.8647
 5568SOL     OW28339   0.853   1.957   1.605  0.2895 -0.4531 -0.0567
 5568SOL    HW128340   0.808   1.903   1.670  0.2645  1.1833  1.2910
 5568SOL    HW228341   0.799   1.950   1.527 -1.5851 -2.0398  1.3662
 5569SOL     OW28342   0.807   1.456  12.893  0.0010 -0.0318 -0.1940
 5569SOL    HW128343   0.787   1.372  12.853 -0.2542 -0.0292 -0.0725
 5569SOL    HW228344   0.896   1.439  12.924  0.2909 -0.5374 -1.3238
 5570SOL     OW28345   0.825   4.455   8.743 -0.3118  0.8724  0.4196
 5570SOL    HW128346   0.786   4.536   8.712  0.0796  0.8264 -0.1956
 5570SOL    HW228347   0.751   4.398   8.726 -0.5968  0.6904  2.2378
 5571SOL     OW28348   3.741   3.408  14.310 -0.7761  0.2849 -0.0044
 5571SOL    HW128349   3.733   3.314  14.322  1.8436 -0.0468 -0.6781
 5571SOL    HW228350   3.650   3.437  14.306 -1.2683 -1.2723 -0.1054
 5572SOL     OW28351   2.648   1.945   1.043  0.2045  0.2574  0.5327
 5572SOL    HW128352   2.668   2.039   1.044 -0.2510  0.3649  0.1344
 5572SOL    HW228353   2.694   1.919   1.122  0.5298 -0.7664  0.0065
 5573SOL     OW28354   0.904   0.734   2.929 -0.0185 -0.3984  0.5458
 5573SOL    HW128355   0.873   0.647   2.955 -0.1893  0.6176  3.7593
 5573SOL    HW228356   0.997   0.712   2.930  0.8511  3.0470 -2.5883
 5574SOL     OW28357   0.504   1.065  16.873 -0.4306  0.1071 -0.0029
 5574SOL    HW128358   0.410   1.081  16.876 -0.6457 -1.1530 -0.1243
 5574SOL    HW228359   0.528   1.146  16.918 -1.6966  1.2668 -1.3876
 5575SOL     OW28360   4.728   0.740   3.319 -0.5360  0.7092 -0.2629
 5575SOL    HW128361   0.050   0.763   3.389  1.7505 -1.8855 -1.4407
 5575SOL    HW228362   0.029   0.762   3.236  1.2427  0.2330  0.4964
 5576SOL     OW28363   3.918   4.317  15.924 -0.1655  0.1496 -0.1812
 5576SOL    HW128364   3.856   4.370  15.874  0.0649  0.8566  0.2908
 5576SOL    HW228365   3.872   4.311  16.008 -0.8197  1.2340 -0.4587
 5577SOL     OW28366   2.975   1.264   7.087 -0.0256 -0.0527 -0.5597
 5577SOL    HW128367   2.994   1.174   7.112  0.5778 -0.3154 -1.9708
 5577SOL    HW228368   2.973   1.306   7.173  0.6068 -1.6967  0.2535
 5578SOL     OW28369   3.945   2.148   9.420  0.3230 -0.2920 -0.2159
 5578SOL    HW128370   3.977   2.223   9.371  0.8255  0.7826  1.7365
 5578SOL    HW228371   3.867   2.121   9.372  1.1198 -2.0580 -0.5058
 5579SOL     OW28372   2.832   0.895   6.411 -0.3913  0.2682 -0.2082
 5579SOL    HW128373   2.781   0.933   6.482 -2.8620 -0.8740 -1.3570
 5579SOL    HW228374   2.922   0.918   6.434 -0.6780  1.0896  0.0622
 5580SOL     OW28375   1.231   3.466   3.144 -0.3649 -0.2143 -0.4702
 5580SOL    HW128376   1.307   3.447   3.198 -1.1507 -0.7493  0.4417
 5580SOL    HW228377   1.254   3.558   3.130 -0.0367  0.2658  3.2240
 5581SOL     OW28378   2.325   1.270   7.943 -0.2450  0.0911  0.1592
 5581SOL    HW128379   2.354   1.254   8.033  2.4635 -0.3442 -0.7776
 5581SOL    HW228380   2.231   1.285   7.950 -0.2351 -0.1300  0.7382
 5582SOL     OW28381   3.748   0.285  17.557  0.3445 -0.1633 -0.1136
 5582SOL    HW128382   3.656   0.313  17.565  0.3522 -1.1766  3.4288
 5582SOL    HW228383   3.767   0.282  17.650 -1.0564  0.3526  0.1903
 5583SOL     OW28384   2.873   2.279   5.883 -0.3440 -0.7325 -0.2792
 5583SOL    HW128385   2.954   2.253   5.926  0.8646  2.7737 -0.3693
 5583SOL    HW228386   2.864   2.372   5.906 -0.1264 -0.9860  0.8226
 5584SOL     OW28387   0.645   0.930   6.383 -0.1885 -0.3851 -0.4331
 5584SOL    HW128388   0.653   0.841   6.351  1.6834  0.1454 -1.4698
 5584SOL    HW228389   0.592   0.974   6.316 -0.9521  1.3025  1.2690
 5585SOL     OW28390   0.137   1.988   1.402  0.5942 -0.1001 -0.9588
 5585SOL    HW128391   0.069   2.022   1.460  0.4311 -0.2645 -1.0549
 5585SOL    HW228392   0.212   1.990   1.462 -1.2331  1.2320  1.3085
 5586SOL     OW28393   2.018   4.563  11.036  0.1288  0.4206 -0.4626
 5586SOL    HW128394   2.110   4.577  11.016 -0.0888  3.2081  0.5139
 5586SOL    HW228395   1.972   4.634  10.992 -2.8688 -1.0858  0.2395
 5587SOL     OW28396   0.604   3.752   2.471 -0.3413 -0.4086 -0.2546
 5587SOL    HW128397   0.657   3.674   2.457  0.0706 -0.3586  1.0204
 5587SOL    HW228398   0.539   3.712   2.528 -0.0795  1.3991  1.3204
 5588SOL     OW28399   2.714   1.776   9.930 -0.4412 -0.4043  0.2292
 5588SOL    HW128400   2.808   1.788   9.942 -0.7643  0.9697  1.3531
 5588SOL    HW228401   2.687   1.728  10.008  0.7113  0.7432  1.3244
 5589SOL     OW28402   0.305   4.638   6.164 -0.1325  0.1476 -0.0534
 5589SOL    HW128403   0.224   4.615   6.209  1.0641 -2.7683  0.6115
 5589SOL    HW228404   0.366   4.605   6.230  1.0301  0.5891 -0.9073
 5590SOL     OW28405   4.201   1.044   4.169 -0.0531 -0.4850 -0.2624
 5590SOL    HW128406   4.176   1.026   4.079  1.6705  1.8686 -1.2086
 5590SOL    HW228407   4.159   0.970   4.212  0.1318  0.7840  2.0961
 5591SOL     OW28408   0.163   0.530   5.225  0.4402  0.2879 -0.0160
 5591SOL    HW128409   0.098   0.595   5.253 -0.7042 -1.3310  1.1537
 5591SOL    HW228410   0.179   0.553   5.134 -1.2148  0.6835 -0.2210
 5592SOL     OW28411   3.329   2.798   5.798 -0.0247  0.8052  0.4802
 5592SOL    HW128412   3.280   2.814   5.718  1.4868 -0.0890 -0.6386
 5592SOL    HW228413   3.318   2.880   5.846  1.0380 -0.2783  2.5570
 5593SOL     OW28414   4.285   2.037   2.736  0.3140  0.3515 -0.2867
 5593SOL    HW128415   4.326   1.955   2.765  0.7709  0.2347 -1.2431
 5593SOL    HW228416   4.366   2.079   2.707  1.0632 -1.0036 -0.1577
 5594SOL     OW28417   4.058   2.699   2.881  0.1714  0.1941  0.4021
 5594SOL    HW128418   3.967   2.729   2.877  0.2447  0.2331 -0.8396
 5594SOL    HW228419   4.081   2.740   2.965 -1.2740  0.0280  0.8905
 5595SOL     OW28420   3.422   1.865   2.249  0.3597  1.0231 -0.0070
 5595SOL    HW128421   3.382   1.906   2.325 -1.9573  1.0490 -1.2471
 5595SOL    HW228422   3.467   1.805   2.308  0.4593  0.0963 -1.0300
 5596SOL     OW28423   1.800   1.597  14.953  0.0080  0.6918 -0.1166
 5596SOL    HW128424   1.841   1.512  14.965 -0.9007  0.3688  0.7103
 5596SOL    HW228425   1.729   1.577  14.893 -1.0522  0.3401  1.2549
 5597SOL     OW28426   2.229   1.242   1.743  0.4341  0.0998  0.3108
 5597SOL    HW128427   2.300   1.289   1.698  2.5794 -1.7332  1.7622
 5597SOL    HW228428   2.175   1.214   1.670 -1.3659  0.3901  1.5474
 5598SOL     OW28429   3.760   4.281   6.575  0.6603 -0.1281  0.5479
 5598SOL    HW128430   3.772   4.376   6.570 -2.2335  0.1745 -0.9234
 5598SOL    HW228431   3.719   4.275   6.662 -0.0780  1.8457  0.3370
 5599SOL     OW28432   4.003   2.513   0.602  0.1252  0.0834 -0.2666
 5599SOL    HW128433   4.007   2.569   0.524 -1.1120  1.2046  0.4672
 5599SOL    HW228434   4.009   2.576   0.674 -1.7198 -1.8544  1.5984
 5600SOL     OW28435   1.160   3.669   5.041  0.6121 -0.0018  0.2822
 5600SOL    HW128436   1.094   3.711   5.096  0.5598  0.9764 -0.5234
 5600SOL    HW228437   1.186   3.749   4.995 -1.8842 -0.2440 -1.5404
 5601SOL     OW28438   4.417   3.438   8.543  0.2584 -0.3790 -1.0486
 5601SOL    HW128439   4.392   3.362   8.595  0.8457  0.9766  1.2472
 5601SOL    HW228440   4.339   3.491   8.562  1.0664  0.0052  1.2390
 5602SOL     OW28441   0.825   3.647   7.959  0.2083  0.1025  0.3575
 5602SOL    HW128442   0.865   3.693   8.033  0.2928 -0.0866  0.4311
 5602SOL    HW228443   0.732   3.654   7.977  0.2829  1.3131  0.2215
 5603SOL     OW28444   0.714   0.842   1.227  0.3264  0.1719 -0.1086
 5603SOL    HW128445   0.697   0.762   1.178 -2.0477 -0.0560  1.0743
 5603SOL    HW228446   0.710   0.804   1.315 -1.1011 -0.2843 -0.3617
 5604SOL     OW28447   3.324   1.460   2.898  0.3087 -0.2018 -0.3233
 5604SOL    HW128448   3.325   1.551   2.926 -0.9775 -1.2339  3.0569
 5604SOL    HW228449   3.359   1.418   2.977 -3.1141 -3.6726 -0.6452
 5605SOL     OW28450   1.005   1.694   9.506  0.0483 -0.5991  0.4022
 5605SOL    HW128451   0.990   1.766   9.567  3.8015  0.5620 -0.0627
 5605SOL    HW228452   0.940   1.709   9.438 -0.4987 -1.9715  0.6234
 5606SOL     OW28453   2.947   3.914   4.562 -0.1178 -0.4958 -0.1317
 5606SOL    HW128454   2.990   3.889   4.481 -1.9463  0.6720 -1.4864
 5606SOL    HW228455   2.962   3.834   4.611 -0.5916 -2.1836 -2.7546
 5607SOL     OW28456   3.260   0.331   0.072  0.2485  0.0014 -0.3237
 5607SOL    HW128457   3.184   0.280   0.045 -0.2152 -0.5585  2.0289
 5607SOL    HW228458   3.227   0.420   0.057  0.5884  0.2494  0.4359
 5608SOL     OW28459   4.099   1.024   6.943 -0.2849  0.6349  0.5170
 5608SOL    HW128460   4.070   1.114   6.933 -0.7354  0.4721  0.3815
 5608SOL    HW228461   4.192   1.035   6.924  0.1621 -0.3549  2.0766
 5609SOL     OW28462   0.793   0.699   7.101  0.1744  0.3194  0.4989
 5609SOL    HW128463   0.853   0.713   7.028  1.2266 -0.7392  1.1499
 5609SOL    HW228464   0.851   0.717   7.176  0.1118  1.3357  0.2982
 5610SOL     OW28465   2.940   4.610  10.020  0.0061 -0.8834  0.8389
 5610SOL    HW128466   2.955   4.697  10.056  0.3741 -1.3596  1.8239
 5610SOL    HW228467   3.023   4.598   9.973  0.1322  1.1742  0.5626
 5611SOL     OW28468   0.372   2.359   6.065  0.2161 -0.0175  0.2569
 5611SOL    HW128469   0.426   2.284   6.092  0.8970  0.0935 -0.8100
 5611SOL    HW228470   0.397   2.423   6.131  1.7809  1.9713 -2.2968
 5612SOL     OW28471   2.884   0.241   4.375  0.4023 -0.2120  0.3040
 5612SOL    HW128472   2.962   0.268   4.425  0.5895 -0.9346  0.3977
 5612SOL    HW228473   2.822   0.310   4.397  1.3615  1.3366 -1.8007
 5613SOL     OW28474   3.997   0.621   4.603 -0.5603  0.0503 -0.2208
 5613SOL    HW128475   4.017   0.637   4.695  0.5361  0.0760 -0.4642
 5613SOL    HW228476   3.915   0.670   4.599 -0.9826 -0.5848  0.7068
 5614SOL     OW28477   3.205   0.230  15.020  0.4263  0.4204  0.4982
 5614SOL    HW128478   3.249   0.283  15.087  0.3745  0.6213  0.3730
 5614SOL    HW228479   3.192   0.303  14.961 -1.0274  0.9411  1.4649
 5615SOL     OW28480   2.277   2.820  12.544  0.4324  0.4962 -0.2058
 5615SOL    HW128481   2.266   2.885  12.613  0.8579 -0.1236  0.4501
 5615SOL    HW228482   2.370   2.797  12.553 -0.3492 -3.1209 -1.4203
 5616SOL     OW28483   0.506   4.644   4.970  0.3286 -0.2314 -0.5742
 5616SOL    HW128484   0.416   4.673   4.954 -0.7639 -2.0573  2.2567
 5616SOL    HW228485   0.498   4.599   5.054 -2.7117  0.4843 -0.4694
 5617SOL     OW28486   3.870   1.125   1.881  0.4368 -0.7101  0.1585
 5617SOL    HW128487   3.931   1.052   1.899  1.2711 -0.5975 -2.2150
 5617SOL    HW228488   3.788   1.098   1.923 -0.8337  0.4912 -1.5818
 5618SOL     OW28489   1.870   2.169   4.931  0.1024  0.9423  0.4117
 5618SOL    HW128490   1.790   2.212   4.899 -0.2541 -0.7258 -0.9254
 5618SOL    HW228491   1.929   2.182   4.856  0.7686 -2.6544  0.3126
 5619SOL     OW28492   4.171   0.733   5.904  0.0294 -0.5673 -0.6707
 5619SOL    HW128493   4.136   0.660   5.956 -0.5780  0.1518 -0.0676
 5619SOL    HW228494   4.248   0.766   5.950  0.3323 -0.7382 -1.0624
 5620SOL     OW28495   3.859   3.811  13.923  0.3690 -0.6749  0.0878
 5620SOL    HW128496   3.799   3.800  13.997  0.5745  2.9791  0.8238
 5620SOL    HW228497   3.808   3.880  13.881  1.6411  0.9188  1.1194
 5621SOL     OW28498   1.910   4.581  10.143  0.1738 -0.5171 -0.1286
 5621SOL    HW128499   1.899   4.670  10.177  0.9871 -0.2692 -0.5037
 5621SOL    HW228500   1.935   4.609  10.055  2.0170  0.9884  0.8612
 5622SOL     OW28501   1.251   1.469  11.081  0.9147  0.3814  0.6353
 5622SOL    HW128502   1.175   1.426  11.042  2.1467 -0.9259 -0.3309
 5622SOL    HW228503   1.259   1.455  11.175 -1.2012 -0.5816  0.6553
 5623SOL     OW28504   3.509   3.222  16.761  0.7751 -0.4094 -0.5639
 5623SOL    HW128505   3.499   3.276  16.840  0.3894 -0.3441 -0.6568
 5623SOL    HW228506   3.493   3.284  16.690  1.1220 -1.5098 -1.5805
 5624SOL     OW28507   2.668   0.427  12.727 -0.1668  0.3886 -0.3476
 5624SOL    HW128508   2.680   0.403  12.819  0.7120  2.3243  0.0337
 5624SOL    HW228509   2.699   0.352  12.676  2.2528  1.5626 -0.5674
 5625SOL     OW28510   1.160   3.613   4.482 -0.1207 -0.1435  0.1669
 5625SOL    HW128511   1.187   3.629   4.392 -1.7744  1.0707 -0.1148
 5625SOL    HW228512   1.213   3.683   4.519 -2.3448  1.6736 -0.0425
 5626SOL     OW28513   2.555   2.460  15.229  0.5431 -0.4225 -0.0646
 5626SOL    HW128514   2.477   2.405  15.228  0.4552 -0.2434 -1.8611
 5626SOL    HW228515   2.590   2.451  15.318  1.7969 -2.7855 -0.7839
 5627SOL     OW28516   0.367   1.209   3.679 -0.0930 -0.1322  0.7873
 5627SOL    HW128517   0.379   1.238   3.588 -0.7464 -1.4071  0.2967
 5627SOL    HW228518   0.419   1.129   3.685  0.9600  0.4713 -0.4507
 5628SOL     OW28519   1.346   2.370   6.036 -0.5177 -0.2402  1.0552
 5628SOL    HW128520   1.360   2.329   5.951  2.6842  2.1790  0.3991
 5628SOL    HW228521   1.323   2.460   6.011  1.5949 -0.2786 -1.0467
 5629SOL     OW28522   2.855   3.807   3.914 -0.3300  0.1372  0.1490
 5629SOL    HW128523   2.931   3.818   3.857 -0.5074 -1.1534 -0.3342
 5629SOL    HW228524   2.883   3.845   3.998 -0.2430 -0.5358  0.4208
 5630SOL     OW28525   0.900   3.096   7.957  0.0911  0.1696  0.2054
 5630SOL    HW128526   0.893   3.150   8.036  0.2958  0.6542 -0.1096
 5630SOL    HW228527   0.988   3.116   7.928  0.4416 -1.8969 -0.2025
 5631SOL     OW28528   0.410   3.292   5.747  0.0221 -0.3665  0.0645
 5631SOL    HW128529   0.431   3.377   5.785  2.4808 -1.2562  0.7312
 5631SOL    HW228530   0.352   3.258   5.815 -2.7363  0.5530 -1.8406
 5632SOL     OW28531   2.687   1.021  16.156 -0.0074  0.0252 -0.0574
 5632SOL    HW128532   2.593   1.037  16.145 -0.2708 -2.3774 -1.1655
 5632SOL    HW228533   2.704   0.946  16.099  0.3203 -0.3251  0.4999
 5633SOL     OW28534   0.851   2.582   5.217 -0.1856 -0.6940  0.2459
 5633SOL    HW128535   0.929   2.610   5.168 -1.5314  1.3306 -0.7538
 5633SOL    HW228536   0.883   2.519   5.281 -0.9042 -1.1805  0.1215
 5634SOL     OW28537   3.285   1.803   1.272  0.0035 -0.6440  0.0313
 5634SOL    HW128538   3.347   1.876   1.268  0.3223 -0.9058  0.0903
 5634SOL    HW228539   3.232   1.839   1.343 -0.4514 -0.3774 -0.4468
 5635SOL     OW28540   4.465   4.425   1.604 -0.4635 -0.2436 -0.1795
 5635SOL    HW128541   4.467   4.335   1.636  1.3427  0.0865  0.6109
 5635SOL    HW228542   4.373   4.443   1.621 -0.8076 -2.1103 -0.0138
 5636SOL     OW28543   0.340   2.704   9.664 -0.3332 -0.4592  0.2171
 5636SOL    HW128544   0.434   2.704   9.644 -0.5236  0.4557 -0.6812
 5636SOL    HW228545   0.330   2.617   9.702 -0.2166 -0.0007  1.2927
 5637SOL     OW28546   4.040   2.923   1.489 -0.2596 -0.4171  0.6590
 5637SOL    HW128547   4.086   2.847   1.454  0.2265  0.3554 -0.3690
 5637SOL    HW228548   3.973   2.936   1.421  0.7865 -1.4784 -0.5651
 5638SOL     OW28549   2.093   3.846   1.409 -0.6532  0.4302 -0.0501
 5638SOL    HW128550   2.015   3.862   1.463 -0.0487 -1.1198  1.2814
 5638SOL    HW228551   2.143   3.778   1.454  0.5251  1.6892  0.5452
 5639SOL     OW28552   0.075   4.006   4.596  0.0641  0.1946  0.5761
 5639SOL    HW128553   0.003   3.956   4.634 -1.3638  1.0194 -1.0766
 5639SOL    HW228554   0.090   3.959   4.515  0.4926  0.4099  0.5287
 5640SOL     OW28555   0.149   1.856   6.590  0.3351  0.4851  0.2668
 5640SOL    HW128556   0.107   1.841   6.505  0.5280  0.0038  0.2530
 5640SOL    HW228557   0.240   1.832   6.573  0.8361  1.9258  0.8802
 5641SOL     OW28558   2.808   0.341   8.994  0.3872  0.1347  0.4097
 5641SOL    HW128559   2.797   0.272   9.059 -0.0189 -1.4096 -1.2761
 5641SOL    HW228560   2.900   0.344   8.969  0.5255 -1.5768  0.7000
 5642SOL     OW28561   4.407   0.963   4.972  0.4843  0.1936 -0.3608
 5642SOL    HW128562   4.477   0.959   4.907  2.6553  1.8187  1.8927
 5642SOL    HW228563   4.460   0.941   5.048 -1.4217  1.6548  1.4036
 5643SOL     OW28564   3.892   3.517   5.609 -0.0595  0.1093 -0.1900
 5643SOL    HW128565   3.924   3.525   5.699  0.1387 -1.3426 -0.1315
 5643SOL    HW228566   3.802   3.522   5.641  0.9047 -2.1084  2.8859
 5644SOL     OW28567   3.912   4.650   7.164  0.1945 -0.0046 -0.4211
 5644SOL    HW128568   3.887   4.612   7.080  2.1120  3.3228 -2.4690
 5644SOL    HW228569   3.930   4.566   7.206  1.0375  0.3994  0.0305
 5645SOL     OW28570   4.364   2.244   3.630 -0.5514 -0.0414 -0.7208
 5645SOL    HW128571   4.375   2.218   3.722  0.1030 -0.0754 -0.8077
 5645SOL    HW228572   4.439   2.203   3.586 -0.7327  1.5324 -2.4760
 5646SOL     OW28573   2.684   1.072   6.110 -0.1077  0.6986 -0.2621
 5646SOL    HW128574   2.731   0.990   6.127 -0.2140  0.6975  0.0205
 5646SOL    HW228575   2.638   1.050   6.029  0.1339 -1.2112  0.1063
 5647SOL     OW28576   1.852   0.829  16.398 -0.2177 -0.0269 -0.4348
 5647SOL    HW128577   1.783   0.801  16.339  0.5332 -1.4102 -0.6564
 5647SOL    HW228578   1.820   0.816  16.487  2.4027  0.4993  0.5858
 5648SOL     OW28579   3.882   3.413   1.193  0.4292 -0.1039 -0.1718
 5648SOL    HW128580   3.874   3.329   1.238 -0.6538 -0.5263 -1.1530
 5648SOL    HW228581   3.928   3.476   1.249  0.2557 -0.0909 -0.0452
 5649SOL     OW28582   0.759   1.907   3.308 -0.4783  0.3885  0.6893
 5649SOL    HW128583   0.682   1.957   3.280  0.2283  0.1398 -1.7442
 5649SOL    HW228584   0.723   1.869   3.388 -0.4650  0.9318  0.9550
 5650SOL     OW28585   0.526   2.046  14.045  0.0064 -0.1197 -0.2765
 5650SOL    HW128586   0.505   2.075  13.957 -1.8267  0.4205  0.3553
 5650SOL    HW228587   0.487   2.113  14.101  1.6919  1.4604 -0.9834
 5651SOL     OW28588   3.712   0.036   4.308  0.3587  0.5978 -0.3542
 5651SOL    HW128589   3.728   4.682   4.320  0.3552  0.6138 -0.2218
 5651SOL    HW228590   3.766   0.055   4.232  2.0643  1.0512  0.9731
 5652SOL     OW28591   1.729   0.329   8.085  0.0396 -0.1525 -0.3718
 5652SOL    HW128592   1.733   0.417   8.122 -0.3684 -0.2052 -0.2017
 5652SOL    HW228593   1.668   0.339   8.011  1.2605  1.5238 -1.1646
 5653SOL     OW28594   3.721   0.923   3.674  0.1299 -0.1294  0.5769
 5653SOL    HW128595   3.635   0.955   3.646  0.3417 -0.2377 -0.1974
 5653SOL    HW228596   3.776   0.998   3.651 -1.1121  0.5537 -0.2105
 5654SOL     OW28597   0.292   1.333  13.120 -0.3341  0.0987 -0.0010
 5654SOL    HW128598   0.256   1.246  13.137 -1.7376  0.7748  0.4686
 5654SOL    HW228599   0.225   1.375  13.065 -1.3131 -1.0267  0.3399
 5655SOL     OW28600   1.184   3.919   6.989 -0.2719 -1.0061  0.0853
 5655SOL    HW128601   1.276   3.939   7.008  0.0152  0.4638 -2.8287
 5655SOL    HW228602   1.130   3.994   7.014 -0.7195 -1.5341  0.7072
 5656SOL     OW28603   3.670   1.442   4.516 -0.3257  0.1881  0.2619
 5656SOL    HW128604   3.593   1.432   4.460 -1.3312 -2.7194  2.1983
 5656SOL    HW228605   3.645   1.376   4.581  1.3737 -0.3080  0.4254
 5657SOL     OW28606   3.609   2.305   3.572 -0.0564 -0.3261  0.1444
 5657SOL    HW128607   3.518   2.336   3.573  0.1747  0.3782 -0.6935
 5657SOL    HW228608   3.608   2.215   3.605 -0.7389 -0.8571 -1.3527
 5658SOL     OW28609   3.634   1.352  12.835  0.4166  0.2564 -0.0585
 5658SOL    HW128610   3.617   1.284  12.770  1.8802 -1.0632  0.9603
 5658SOL    HW228611   3.702   1.311  12.887 -0.7188 -1.5978 -0.0456
 5659SOL     OW28612   0.472   4.220   6.278  0.1660 -0.1547 -0.4191
 5659SOL    HW128613   0.490   4.126   6.287  0.7657  0.1300  1.2993
 5659SOL    HW228614   0.500   4.239   6.188 -1.5171 -0.2222 -0.9585
 5660SOL     OW28615   0.083   2.700   5.113 -0.7581  0.3548 -0.1432
 5660SOL    HW128616   0.159   2.697   5.171 -0.3148 -0.9533 -0.8015
 5660SOL    HW228617   0.040   2.615   5.118 -3.4218  1.7019 -0.3899
 5661SOL     OW28618   1.997   1.718  16.066 -0.5623 -0.2680 -0.6102
 5661SOL    HW128619   2.029   1.656  16.000  0.7860  0.6279 -0.7778
 5661SOL    HW228620   1.907   1.730  16.036 -0.7499 -1.6337 -0.6326
 5662SOL     OW28621   2.820   2.661   2.885  0.1134  0.1108 -0.3253
 5662SOL    HW128622   2.735   2.633   2.919  1.1110 -2.4935  0.0423
 5662SOL    HW228623   2.869   2.630   2.961 -1.5329  1.8242  1.4429
 5663SOL     OW28624   1.760   4.335   6.276 -0.0027 -0.4226  0.0008
 5663SOL    HW128625   1.780   4.327   6.183 -2.1332 -2.2701 -0.3229
 5663SOL    HW228626   1.746   4.241   6.293 -1.9200 -0.1042  0.2237
 5664SOL     OW28627   2.344   2.021   2.971  0.0660 -0.6433  0.0962
 5664SOL    HW128628   2.399   2.016   3.049  1.0698 -3.1481 -0.7541
 5664SOL    HW228629   2.407   2.009   2.899 -0.2637 -0.8429 -0.1598
 5665SOL     OW28630   4.522   0.663   6.319 -0.4843 -0.0207  0.2803
 5665SOL    HW128631   4.612   0.694   6.321  0.0073 -1.3666 -0.7629
 5665SOL    HW228632   4.510   0.646   6.412 -0.8767 -0.9796  0.0585
 5666SOL     OW28633   2.222   0.380   9.321  0.2844  0.5809 -1.9001
 5666SOL    HW128634   2.177   0.334   9.392  0.9831  1.7971 -0.6728
 5666SOL    HW228635   2.200   0.321   9.248  0.8351 -1.2371 -0.6113
 5667SOL     OW28636   2.807   0.936   3.859  0.5404 -1.1500  0.1445
 5667SOL    HW128637   2.729   0.989   3.848  0.5395 -0.9727  0.9730
 5667SOL    HW228638   2.878   0.991   3.891 -0.2740  0.3086 -0.5824
 5668SOL     OW28639   2.972   4.260   9.327 -0.2093 -0.4383  0.1437
 5668SOL    HW128640   2.903   4.250   9.392 -0.3733  1.1949  0.2321
 5668SOL    HW228641   2.939   4.200   9.261  0.6335  1.1026 -1.7061
 5669SOL     OW28642   4.019   0.092   4.409 -0.3019 -0.1796 -0.7160
 5669SOL    HW128643   4.035   4.738   4.408 -3.4104 -0.7132  0.9020
 5669SOL    HW228644   4.099   0.131   4.444 -1.3272 -0.1668  1.6221
 5670SOL     OW28645   1.736   0.237   5.330  0.6945 -0.1359  0.0730
 5670SOL    HW128646   1.769   0.218   5.242 -0.9286 -0.0944 -0.5454
 5670SOL    HW228647   1.789   0.309   5.364  0.9994  0.1323 -0.9648
 5671SOL     OW28648   0.557   3.169   9.609  0.2797  0.2293  0.3610
 5671SOL    HW128649   0.508   3.230   9.554  1.4218  0.9987  0.1792
 5671SOL    HW228650   0.531   3.082   9.579  1.9194 -0.7548  1.7435
 5672SOL     OW28651   2.246   4.389   5.036 -0.5757  0.4908  0.1165
 5672SOL    HW128652   2.272   4.338   4.960  0.0305 -1.1329  1.4227
 5672SOL    HW228653   2.184   4.449   4.993 -1.6117 -1.2577 -0.8023
 5673SOL     OW28654   4.466   4.074  14.714  0.2046  0.6655 -0.0222
 5673SOL    HW128655   4.553   4.056  14.748 -0.8459 -1.3844  1.5850
 5673SOL    HW228656   4.451   3.994  14.664 -0.7770  0.2444  0.9396
 5674SOL     OW28657   1.084   4.460   3.499  0.2041 -0.2726 -0.6812
 5674SOL    HW128658   1.172   4.488   3.523 -0.1835  1.0746 -0.8041
 5674SOL    HW228659   1.105   4.374   3.463  1.0874 -0.4596  0.2739
 5675SOL     OW28660   3.549   0.888   2.473 -0.2027  0.1189 -0.1340
 5675SOL    HW128661   3.571   0.916   2.562 -1.2666  0.1923  0.0974
 5675SOL    HW228662   3.585   0.800   2.486 -0.0004  0.1137 -0.7099
 5676SOL     OW28663   1.144   0.567   2.733 -0.1079 -0.0188  0.2115
 5676SOL    HW128664   1.162   0.477   2.759 -5.7070 -0.5954  1.8561
 5676SOL    HW228665   1.120   0.604   2.818 -1.1703  1.5044 -0.7444
 5677SOL     OW28666   2.321   2.861   6.839  0.0721 -0.3324 -0.6102
 5677SOL    HW128667   2.378   2.937   6.840 -0.5998  0.1532  1.2354
 5677SOL    HW228668   2.310   2.826   6.928 -2.2453  0.5599 -0.5461
 5678SOL     OW28669   2.510   1.349   3.433  0.8278 -0.0266  0.0314
 5678SOL    HW128670   2.593   1.323   3.391 -0.0846  0.1827 -1.8885
 5678SOL    HW228671   2.509   1.289   3.508  2.0270 -0.0271  0.0505
 5679SOL     OW28672   2.097   0.044   5.211 -0.3353 -0.5849 -0.1343
 5679SOL    HW128673   2.028   4.726   5.243  0.6244  0.2221  3.4584
 5679SOL    HW228674   2.079   0.038   5.117  0.6437  0.0338 -0.3635
 5680SOL     OW28675   2.405   1.778   3.693 -0.2577 -0.1483 -0.4461
 5680SOL    HW128676   2.448   1.693   3.691  0.0295  0.0039 -0.7005
 5680SOL    HW228677   2.343   1.753   3.762  0.8942 -1.8514 -0.0256
 5681SOL     OW28678   2.508   4.637   2.142  0.1507  0.0315 -0.4951
 5681SOL    HW128679   2.476   4.713   2.093  0.1047  0.2286 -0.1551
 5681SOL    HW228680   2.422   4.595   2.137  0.2906 -0.4068  0.8312
 5682SOL     OW28681   4.392   1.682   2.478 -0.3370 -0.2779 -0.1128
 5682SOL    HW128682   4.439   1.651   2.401 -0.7115 -2.2351  0.4377
 5682SOL    HW228683   4.387   1.774   2.452  0.9242 -0.1275  0.2060
 5683SOL     OW28684   4.248   1.739  14.130  0.0914 -0.2290  0.6109
 5683SOL    HW128685   4.268   1.833  14.129  0.0384 -0.2191  0.3633
 5683SOL    HW228686   4.303   1.711  14.057 -0.4650  0.9495 -0.2749
 5684SOL     OW28687   3.315   0.876   9.354  1.0478  0.2436 -0.3922
 5684SOL    HW128688   3.382   0.944   9.361 -0.4596  1.5706  0.9363
 5684SOL    HW228689   3.334   0.812   9.423 -2.3001 -1.5020 -1.0948
 5685SOL     OW28690   1.637   3.281   3.658  0.3874  0.1409  0.2860
 5685SOL    HW128691   1.695   3.320   3.723  0.1699 -0.7486  1.0152
 5685SOL    HW228692   1.698   3.227   3.607  0.8370  0.9688 -0.0522
 5686SOL     OW28693   0.313   0.293  16.289  0.6559  0.1810  0.1471
 5686SOL    HW128694   0.303   0.207  16.331  0.6845  0.4424  0.6872
 5686SOL    HW228695   0.281   0.359  16.350  1.3198  0.1331  0.5518
 5687SOL     OW28696   2.488   2.994  15.171 -0.6873  0.4886  0.5542
 5687SOL    HW128697   2.581   3.007  15.193 -0.3187  1.0921 -1.3192
 5687SOL    HW228698   2.491   2.964  15.080  0.9321  1.2324  0.3485
 5688SOL     OW28699   2.891   0.045   8.384  0.6908 -0.0208  0.0812
 5688SOL    HW128700   2.952   0.109   8.421 -0.0885  0.1801  1.0235
 5688SOL    HW228701   2.947   4.707   8.398 -0.8676 -1.2228 -0.3876
 5689SOL     OW28702   2.805   3.612   7.321 -0.0477  0.0571 -0.2872
 5689SOL    HW128703   2.882   3.637   7.371 -0.5369  0.2759  0.3631
 5689SOL    HW228704   2.734   3.658   7.366 -0.8472 -0.1437 -1.3452
 5690SOL     OW28705   3.870   1.974   7.637  0.4992 -0.0418  0.3906
 5690SOL    HW128706   3.947   2.025   7.662 -0.4678  2.5486 -1.8437
 5690SOL    HW228707   3.898   1.956   7.548  0.8730  1.0414  0.2949
 5691SOL     OW28708   3.076   1.563  12.157 -0.5494 -0.4837  0.8227
 5691SOL    HW128709   3.011   1.625  12.190  1.0231  0.6094  1.8128
 5691SOL    HW228710   3.159   1.606  12.175 -0.6287  0.3611 -0.8475
 5692SOL     OW28711   2.024   3.569   3.259  0.9506  0.1110 -0.2806
 5692SOL    HW128712   1.976   3.527   3.330  1.9739 -2.8715 -1.3565
 5692SOL    HW228713   1.991   3.659   3.266 -3.0377 -1.4243  0.3063
 5693SOL     OW28714   4.013   2.796   6.436 -0.4892  0.2054 -0.4118
 5693SOL    HW128715   4.055   2.712   6.418  1.3365  1.3943 -1.7320
 5693SOL    HW228716   4.084   2.850   6.470 -0.8378  0.4332 -0.0504
 5694SOL     OW28717   4.176   3.380  16.770 -0.0520 -0.9884 -0.9116
 5694SOL    HW128718   4.095   3.417  16.807  0.7458  1.1190 -1.3062
 5694SOL    HW228719   4.223   3.462  16.757 -2.7562  1.0202  1.9902
 5695SOL     OW28720   2.195   4.149   9.007 -0.1982  0.0211  0.1292
 5695SOL    HW128721   2.123   4.204   8.976  0.3511  1.2638  1.0487
 5695SOL    HW228722   2.251   4.218   9.043 -1.2154  1.4480 -1.0025
 5696SOL     OW28723   2.978   2.985  14.593  0.0616 -0.0566 -0.2204
 5696SOL    HW128724   2.898   3.023  14.556  0.4918 -0.1725 -1.2575
 5696SOL    HW228725   3.026   3.065  14.615 -0.3344 -0.1023  0.8302
 5697SOL     OW28726   2.559   3.892   8.787 -0.0862 -0.1642  0.1433
 5697SOL    HW128727   2.490   3.906   8.852 -1.7129 -0.8514 -1.4251
 5697SOL    HW228728   2.506   3.854   8.716 -0.3095 -1.8239  1.1940
 5698SOL     OW28729   4.028   1.074  17.702  0.4737 -0.0172 -0.0861
 5698SOL    HW128730   4.035   1.124   0.027  0.8519 -0.5682  0.2214
 5698SOL    HW228731   4.065   0.995  17.741 -0.4922 -0.9418 -1.0452
 5699SOL     OW28732   0.261   0.889   5.342 -0.1944 -0.3940 -0.1493
 5699SOL    HW128733   0.245   0.872   5.249 -1.7515  0.4870 -0.0491
 5699SOL    HW228734   0.220   0.975   5.357  2.4426  1.0113 -1.0224
 5700SOL     OW28735   1.784   3.201   4.029  0.4675 -0.2915 -0.0221
 5700SOL    HW128736   1.727   3.276   4.010  1.4157  0.4194 -0.0415
 5700SOL    HW228737   1.862   3.246   4.061 -0.7716  1.8876 -0.0609
 5701SOL     OW28738   2.232   4.351   7.019  0.1710 -0.2086 -0.1103
 5701SOL    HW128739   2.242   4.428   6.964  0.7388  0.0511  0.3526
 5701SOL    HW228740   2.137   4.341   7.020  0.0987  0.3680 -1.6513
 5702SOL     OW28741   0.276   4.679   2.159 -0.0998 -0.3425  0.4023
 5702SOL    HW128742   0.299   4.613   2.224  0.1293 -1.9993 -1.3750
 5702SOL    HW228743   0.345   4.675   2.093 -0.0429  0.1906  0.4261
 5703SOL     OW28744   0.190   4.519   1.765  0.1478  1.0375 -0.3550
 5703SOL    HW128745   0.245   4.597   1.766 -0.4346  1.4421  0.8748
 5703SOL    HW228746   0.208   4.470   1.685 -1.9922 -1.0871  0.4646
 5704SOL     OW28747   0.301   1.920   5.593 -0.1985 -0.4839  0.3228
 5704SOL    HW128748   0.297   1.918   5.689  0.9456  1.8888  0.4184
 5704SOL    HW228749   0.344   1.837   5.570  0.1939 -1.0623  3.1879
 5705SOL     OW28750   1.346   4.732   5.030  0.0958  0.5869 -0.0926
 5705SOL    HW128751   1.269   0.047   5.010  0.1243  0.1006 -1.5844
 5705SOL    HW228752   1.414   0.059   5.018 -0.3347  0.9484 -0.5589
 5706SOL     OW28753   2.981   3.097   4.901  0.2643  0.4408 -0.1041
 5706SOL    HW128754   3.068   3.081   4.939  1.4422  2.5066 -1.9419
 5706SOL    HW228755   3.009   3.156   4.831  0.9940 -0.0364 -0.2195
 5707SOL     OW28756   0.669   2.596   0.762  0.3181  0.0767  0.6401
 5707SOL    HW128757   0.633   2.534   0.698  0.1747 -2.3968  3.1154
 5707SOL    HW228758   0.608   2.592   0.835  0.0744 -1.1412  0.3712
 5708SOL     OW28759   1.071   2.697  13.364  0.6733 -0.1206 -0.0795
 5708SOL    HW128760   1.069   2.709  13.269  2.8476 -2.2215 -0.3776
 5708SOL    HW228761   1.146   2.753  13.382  0.4780  0.0113  0.3181
 5709SOL     OW28762   0.541   0.714   3.990  0.4310 -0.0734  0.0658
 5709SOL    HW128763   0.532   0.621   4.011 -2.2125 -0.0975 -1.1251
 5709SOL    HW228764   0.591   0.698   3.909  2.3049 -0.0388  1.2237
 5710SOL     OW28765   1.356   3.312   2.930 -0.2659  0.0866  0.2252
 5710SOL    HW128766   1.327   3.384   2.985  2.1980  0.3373  1.1978
 5710SOL    HW228767   1.282   3.312   2.869  1.1517 -0.1569 -1.5026
 5711SOL     OW28768   3.779   2.040   2.663  0.4217 -0.1683 -0.1919
 5711SOL    HW128769   3.744   1.955   2.690 -0.3537  0.4479  0.7645
 5711SOL    HW228770   3.784   2.082   2.749 -0.1251  3.0207 -1.7230
 5712SOL     OW28771   4.445   2.518   7.802  0.4854  0.1423 -0.4334
 5712SOL    HW128772   4.377   2.461   7.767  0.4245  0.6466 -1.1492
 5712SOL    HW228773   4.517   2.518   7.738  0.2029  2.8793 -0.7696
 5713SOL     OW28774   3.799   0.046   2.406 -0.3003 -0.1765 -0.3972
 5713SOL    HW128775   3.796   4.699   2.366  2.1711 -0.1539 -0.6623
 5713SOL    HW228776   3.872   0.087   2.358 -1.4533 -0.0922 -2.0835
 5714SOL     OW28777   1.393   0.523   1.886  0.2547 -1.1611  0.5643
 5714SOL    HW128778   1.428   0.514   1.975  1.8287 -1.1302 -0.0638
 5714SOL    HW228779   1.354   0.610   1.893 -2.0133 -2.1343  0.0033
 5715SOL     OW28780   1.821   3.050   2.292 -0.1029  0.4420  0.0432
 5715SOL    HW128781   1.807   3.060   2.198 -1.5805  0.9579  0.3128
 5715SOL    HW228782   1.835   2.955   2.291 -0.3936  0.4235 -2.0606
 5716SOL     OW28783   2.697   3.791   7.114  0.2697  0.2279  0.1748
 5716SOL    HW128784   2.652   3.827   7.191  2.3399  2.9018  0.1488
 5716SOL    HW228785   2.743   3.716   7.150  0.5583 -1.4442 -3.6163
 5717SOL     OW28786   0.479   3.537   6.140 -0.4763  0.2490 -0.0341
 5717SOL    HW128787   0.540   3.463   6.141 -0.5595  0.1931  1.0912
 5717SOL    HW228788   0.429   3.530   6.221 -0.9576 -0.2812 -0.3757
 5718SOL     OW28789   4.329   1.779   0.265 -0.0216  0.1494  0.2142
 5718SOL    HW128790   4.373   1.805   0.184 -0.9914 -2.0496 -1.0311
 5718SOL    HW228791   4.339   1.862   0.312  0.2287 -0.9330  2.0795
 5719SOL     OW28792   4.662   2.797   2.044  0.0343 -0.0917 -0.4025
 5719SOL    HW128793   4.652   2.888   2.018 -0.1826 -0.6258 -2.2391
 5719SOL    HW228794   4.578   2.776   2.085 -0.0555 -1.6267 -1.3619
 5720SOL     OW28795   1.753   3.076   9.026  0.1919  0.0835  0.6478
 5720SOL    HW128796   1.701   3.025   9.088  0.5427 -0.9892  0.0593
 5720SOL    HW228797   1.716   3.042   8.945  0.8883  1.0786 -0.0845
 5721SOL     OW28798   0.664   3.601  11.397  0.1530 -0.1128  0.2068
 5721SOL    HW128799   0.740   3.659  11.403  1.4640 -1.8318  0.3323
 5721SOL    HW228800   0.593   3.661  11.376 -1.2317 -1.8550 -0.1083
 5722SOL     OW28801   0.445   1.312   7.185  0.1090 -0.1665  0.6485
 5722SOL    HW128802   0.399   1.294   7.267 -0.8109  1.5407  0.4903
 5722SOL    HW228803   0.526   1.353   7.214  1.8911 -2.0209 -1.7252
 5723SOL     OW28804   2.117   1.728   4.598 -0.2205 -0.1923 -0.6327
 5723SOL    HW128805   2.119   1.639   4.634 -0.5881  0.2904  0.5860
 5723SOL    HW228806   2.114   1.714   4.503 -2.3040 -1.1735 -0.4367
 5724SOL     OW28807   0.601   3.278   3.193  0.3354 -1.1369  0.2561
 5724SOL    HW128808   0.509   3.262   3.171 -0.1639  2.7553 -0.4581
 5724SOL    HW228809   0.610   3.358   3.141  0.4134 -1.2920  0.0292
 5725SOL     OW28810   1.069   0.305   8.284  0.6988 -0.3423  0.1169
 5725SOL    HW128811   1.021   0.222   8.283  0.1348  0.0051 -1.4111
 5725SOL    HW228812   1.053   0.324   8.376  1.4272 -1.5111  0.4845
 5726SOL     OW28813   4.665   2.304  16.915 -0.8215 -0.0279  0.0471
 5726SOL    HW128814   4.621   2.360  16.852  2.1260  2.7585  0.4655
 5726SOL    HW228815   4.660   2.217  16.875 -0.6279 -0.8886  1.8672
 5727SOL     OW28816   1.759   3.607   2.656  0.4134 -0.4189  0.4701
 5727SOL    HW128817   1.729   3.546   2.589  2.9309  0.2697 -1.2803
 5727SOL    HW228818   1.850   3.616   2.628 -1.0155  1.7213 -3.4246
 5728SOL     OW28819   0.426   0.216  15.921  0.0513  0.4007  0.7764
 5728SOL    HW128820   0.454   0.178  16.004  1.3400  0.0137  0.1623
 5728SOL    HW228821   0.332   0.199  15.931 -0.1011  0.9458  0.2510
 5729SOL     OW28822   1.080   0.867  12.407  0.3182  0.1287 -0.0009
 5729SOL    HW128823   1.070   0.815  12.328 -3.1212 -0.2223  0.6583
 5729SOL    HW228824   1.053   0.952  12.371  0.1627  0.5868  1.1830
 5730SOL     OW28825   1.144   3.887   4.005 -0.2231  0.1439 -0.5307
 5730SOL    HW128826   1.210   3.937   3.957  0.0561  1.6024  1.3571
 5730SOL    HW228827   1.140   3.797   3.973 -0.7684  0.1358 -0.4361
 5731SOL     OW28828   3.258   3.826   2.398 -0.1973  0.4746 -0.7472
 5731SOL    HW128829   3.189   3.760   2.388 -1.1640  1.6039 -1.4967
 5731SOL    HW228830   3.262   3.829   2.494  0.8083 -0.1635 -0.7699
 5732SOL     OW28831   4.123   1.574   4.918 -0.7705 -0.2029 -0.2475
 5732SOL    HW128832   4.104   1.483   4.943  0.9258  0.1453  2.2556
 5732SOL    HW228833   4.121   1.562   4.823 -1.9965 -0.0054 -0.2354
 5733SOL     OW28834   1.982   3.933   3.058  0.3339  0.1233  0.0577
 5733SOL    HW128835   1.980   3.849   3.012 -3.0362  0.2347 -0.0084
 5733SOL    HW228836   1.926   3.989   3.004  0.9615  0.0592 -0.6538
 5734SOL     OW28837   4.069   4.575   4.991 -0.7642  0.3510  0.4001
 5734SOL    HW128838   4.005   4.630   5.038 -1.7504 -1.3572  1.0480
 5734SOL    HW228839   4.039   4.583   4.900 -0.2426 -0.9671  0.1069
 5735SOL     OW28840   0.194   3.045  11.425  0.4351  0.4625  0.3340
 5735SOL    HW128841   0.273   3.020  11.378  0.0427  1.6023 -0.9228
 5735SOL    HW228842   0.137   3.043  11.348 -0.2141 -0.6939  0.8396
 5736SOL     OW28843   3.922   4.476   2.763  0.8070 -0.5624 -0.9924
 5736SOL    HW128844   3.828   4.466   2.747  0.9267  0.1576 -2.2025
 5736SOL    HW228845   3.925   4.483   2.858  1.6726  0.6904 -1.1091
 5737SOL     OW28846   1.416   2.227   2.385 -0.6379  0.7353  0.4936
 5737SOL    HW128847   1.380   2.139   2.395  0.0397  0.3113 -0.7869
 5737SOL    HW228848   1.366   2.284   2.443 -0.3267 -0.3001  1.8092
 5738SOL     OW28849   3.640   2.468   8.775 -0.9981  0.5677  0.3932
 5738SOL    HW128850   3.672   2.538   8.718 -1.8578 -0.3541 -1.2420
 5738SOL    HW228851   3.661   2.497   8.864  0.7615  1.8583 -0.4292
 5739SOL     OW28852   4.389   4.284   6.598 -0.3827  0.3027  0.9940
 5739SOL    HW128853   4.328   4.355   6.581  3.6750  4.1734  2.4701
 5739SOL    HW228854   4.459   4.326   6.649  0.2645 -1.2575  1.4031
 5740SOL     OW28855   4.476   1.776   2.066 -0.4144 -0.2093  0.4942
 5740SOL    HW128856   4.527   1.852   2.095  2.6471 -2.0070 -0.2118
 5740SOL    HW228857   4.500   1.767   1.974  0.2911 -0.8512  0.7489
 5741SOL     OW28858   2.589   3.866   5.013 -0.5055  0.1914  0.5629
 5741SOL    HW128859   2.516   3.813   4.981 -0.3573  0.2475  0.1175
 5741SOL    HW228860   2.646   3.833   4.943 -0.6673  0.1326  0.4568
 5742SOL     OW28861   0.269   1.896  12.929 -0.1848  0.2330 -0.3308
 5742SOL    HW128862   0.254   1.983  12.966 -1.4665  1.1666 -3.0598
 5742SOL    HW228863   0.353   1.873  12.969 -0.5326  1.9269  1.3540
 5743SOL     OW28864   3.964   2.868  14.024 -0.0571 -0.4945  0.7977
 5743SOL    HW128865   3.899   2.918  13.974 -0.6167 -0.5695  1.4447
 5743SOL    HW228866   3.911   2.853  14.102 -0.6634 -1.7613  0.1423
 5744SOL     OW28867   2.379   4.689   6.213 -0.0711 -0.0955 -0.7934
 5744SOL    HW128868   2.426   4.719   6.292 -1.7029 -1.9589  0.8744
 5744SOL    HW228869   2.307   0.012   6.205 -0.3693 -0.3446 -0.0900
 5745SOL     OW28870   1.820   1.664   8.839  0.0102  0.3452  0.1415
 5745SOL    HW128871   1.868   1.586   8.812  0.2070  0.5027  0.0415
 5745SOL    HW228872   1.869   1.727   8.787 -0.7050 -0.3386 -1.3723
 5746SOL     OW28873   4.370   0.177  11.490 -0.1602  0.3761 -0.5899
 5746SOL    HW128874   4.325   0.215  11.415 -0.6408  0.4639 -0.2575
 5746SOL    HW228875   4.307   0.202  11.558 -1.3677 -0.8268 -1.2584
 5747SOL     OW28876   1.897   1.644  17.309  0.0411  0.0918 -0.6508
 5747SOL    HW128877   1.881   1.681  17.223 -0.9369 -0.6239 -0.7779
 5747SOL    HW228878   1.955   1.709  17.349 -0.4827  1.4386 -2.1086
 5748SOL     OW28879   3.816   3.924   2.014 -0.1898 -0.0749  0.4448
 5748SOL    HW128880   3.792   3.994   2.074  1.8611  0.7248  0.3388
 5748SOL    HW228881   3.783   3.970   1.937 -1.2608 -1.4380  0.0789
 5749SOL     OW28882   4.093   3.404   2.938  0.5475  0.3003  0.1474
 5749SOL    HW128883   4.055   3.317   2.924 -1.1516  1.0966 -0.1854
 5749SOL    HW228884   4.031   3.449   2.995  0.6191  2.6379 -1.6019
 5750SOL     OW28885   4.502   1.426   4.950  0.3619  0.7069 -0.4295
 5750SOL    HW128886   4.474   1.518   4.955 -0.1263  0.5968 -1.1294
 5750SOL    HW228887   4.584   1.423   5.000  0.8022  1.4348 -1.0952
 5751SOL     OW28888   2.829   3.201   5.950 -0.7026 -0.6330 -0.0371
 5751SOL    HW128889   2.805   3.220   5.859 -0.7387 -1.2210 -0.1524
 5751SOL    HW228890   2.804   3.286   5.986  1.8806  0.3607 -0.5738
 5752SOL     OW28891   0.071   4.416  12.237 -0.3275 -0.1878  0.5337
 5752SOL    HW128892   4.739   4.433  12.299 -1.0495 -0.0437 -0.3364
 5752SOL    HW228893   0.113   4.502  12.238  1.7711 -1.2408  1.2610
 5753SOL     OW28894   0.114   0.170   2.697  0.2747 -0.1179  0.3992
 5753SOL    HW128895   0.023   0.162   2.726  0.5067  0.7247  1.3566
 5753SOL    HW228896   0.161   0.134   2.773  4.0838 -2.7273 -3.2069
 5754SOL     OW28897   3.005   2.688  11.285 -0.2925  0.2522 -0.6260
 5754SOL    HW128898   2.957   2.672  11.367  0.6557 -0.8732 -0.2782
 5754SOL    HW228899   2.937   2.643  11.235 -1.9699 -0.5332  2.3175
 5755SOL     OW28900   2.653   3.580   3.085 -0.0456 -0.0835 -0.0843
 5755SOL    HW128901   2.644   3.558   3.178 -1.4159 -1.4090 -0.5238
 5755SOL    HW228902   2.674   3.673   3.088 -0.0704 -0.1255  1.1351
 5756SOL     OW28903   4.415   4.303   0.626 -0.9955  0.4996  0.1177
 5756SOL    HW128904   4.451   4.384   0.590  2.0376 -1.2369 -0.8636
 5756SOL    HW228905   4.428   4.316   0.720  0.1461 -1.0918  0.1842
 5757SOL     OW28906   0.031   1.091  12.959  0.5874  0.1059  0.0509
 5757SOL    HW128907   0.124   1.073  12.968  0.5317 -0.4351 -0.4769
 5757SOL    HW228908   0.015   1.156  13.028  0.9186  0.6445 -0.3818
 5758SOL     OW28909   2.957   3.259   7.855 -0.5364 -0.3646 -0.1019
 5758SOL    HW128910   2.963   3.314   7.932 -2.3753  0.8138 -0.8100
 5758SOL    HW228911   3.034   3.203   7.867  0.1159  0.8540  1.4094
 5759SOL     OW28912   3.362   3.373   1.998  0.5462  0.1605 -0.6375
 5759SOL    HW128913   3.425   3.407   2.062  2.4732 -2.9139 -0.8922
 5759SOL    HW228914   3.289   3.433   2.012  0.0370 -1.2315  2.5722
 5760SOL     OW28915   0.741   2.864   2.117  0.3054 -0.6160 -0.1546
 5760SOL    HW128916   0.692   2.933   2.163  2.9303  0.4911  0.9693
 5760SOL    HW228917   0.791   2.828   2.189  0.1135  0.2314  0.4008
 5761SOL     OW28918   0.836   2.814   3.138  0.3661  0.3324  0.0015
 5761SOL    HW128919   0.751   2.832   3.179  0.7190  1.1758  0.3511
 5761SOL    HW228920   0.901   2.798   3.206  2.4071  0.6455 -1.8701
 5762SOL     OW28921   3.373   4.619   4.537  0.2920  0.1222  0.5309
 5762SOL    HW128922   3.285   4.645   4.565 -1.1244 -1.7145 -2.1811
 5762SOL    HW228923   3.428   4.652   4.607  0.9974 -1.3102  0.6570
 5763SOL     OW28924   3.071   2.841   7.573 -0.3949 -0.4408  0.2392
 5763SOL    HW128925   3.111   2.760   7.541  1.0130  0.4535 -0.2746
 5763SOL    HW228926   3.001   2.849   7.508  0.2542 -1.9582 -0.6369
 5764SOL     OW28927   2.039   3.725  16.794 -0.1881  0.3472  0.1178
 5764SOL    HW128928   2.086   3.770  16.865 -0.5482 -0.2377  0.7241
 5764SOL    HW228929   1.964   3.780  16.771 -1.0152 -1.0300 -0.4338
 5765SOL     OW28930   2.949   3.188   5.511  0.4448 -0.2017  0.2264
 5765SOL    HW128931   2.868   3.206   5.463 -0.2932  1.5141  2.0810
 5765SOL    HW228932   2.914   3.111   5.555  0.7428 -0.7793 -0.5529
 5766SOL     OW28933   3.682   0.702   4.249 -0.1137 -0.0126  0.4468
 5766SOL    HW128934   3.683   0.762   4.174 -1.2552  1.3152  1.4913
 5766SOL    HW228935   3.592   0.706   4.282 -0.5830  1.4449 -0.9978
 5767SOL     OW28936   2.104   1.188  10.953 -0.3271  0.1492 -0.4296
 5767SOL    HW128937   2.103   1.283  10.939 -0.4108  0.2929  0.5419
 5767SOL    HW228938   2.108   1.175  11.048 -0.3994 -1.4387 -0.6511
 5768SOL     OW28939   2.915   0.106  16.067  0.2054 -0.0313  0.4297
 5768SOL    HW128940   2.861   0.031  16.091 -0.1966  0.8285  2.1736
 5768SOL    HW228941   2.982   0.057  16.019  0.8734 -0.0835  1.4135
 5769SOL     OW28942   4.126   3.112  12.106 -0.0980 -0.0965  0.4998
 5769SOL    HW128943   4.203   3.158  12.073 -0.2630 -0.8863 -1.0212
 5769SOL    HW228944   4.155   3.116  12.197  0.3635  0.1094  0.3448
 5770SOL     OW28945   2.921   1.943  16.340  0.1387 -0.8277  0.1290
 5770SOL    HW128946   2.984   1.981  16.401 -0.2209  1.8573 -1.1675
 5770SOL    HW228947   2.986   1.918  16.274 -1.2786 -1.2243 -1.1223
 5771SOL     OW28948   3.869   4.428  13.714 -0.3624 -0.2418 -0.5052
 5771SOL    HW128949   3.960   4.399  13.713 -0.5636 -0.8572 -3.3206
 5771SOL    HW228950   3.862   4.477  13.632  0.6981  1.5861  0.4910
 5772SOL     OW28951   0.436   4.627   8.586 -0.4384  0.2035 -0.1757
 5772SOL    HW128952   0.355   4.667   8.555 -0.9158 -0.3736  0.3312
 5772SOL    HW228953   0.444   4.661   8.674 -1.6225  0.0212 -0.0057
 5773SOL     OW28954   1.384   1.650   9.997  0.0021 -0.3451  0.1090
 5773SOL    HW128955   1.387   1.745   9.999  1.3283 -0.4131  1.1840
 5773SOL    HW228956   1.346   1.631   9.911 -0.7687 -1.7935  0.7688
 5774SOL     OW28957   4.563   1.613   0.260  0.0452 -0.3809 -0.4981
 5774SOL    HW128958   4.584   1.690   0.313  0.7019 -3.4721  3.6553
 5774SOL    HW228959   4.475   1.634   0.228 -0.4802  1.4916  2.1608
 5775SOL     OW28960   4.651   1.409  13.741 -0.2111  0.0396  0.2650
 5775SOL    HW128961   4.624   1.383  13.653 -0.5509 -0.9969  0.6677
 5775SOL    HW228962   4.633   1.324  13.781  0.4579 -0.0576  0.3755
 5776SOL     OW28963   3.022   0.208  17.712  0.0446  0.0382 -0.3118
 5776SOL    HW128964   2.989   0.231  17.626 -1.8777  1.6467  0.8566
 5776SOL    HW228965   3.007   0.114  17.708  0.1964  0.0382 -0.8868
 5777SOL     OW28966   3.034   2.017  13.092  0.3504 -0.8065  0.2121
 5777SOL    HW128967   2.946   2.008  13.130  0.5773 -1.5876  0.5476
 5777SOL    HW228968   3.028   1.967  13.010 -0.3032 -1.5332  0.6956
 5778SOL     OW28969   0.763   1.126   1.654 -0.6812 -0.2199 -0.1239
 5778SOL    HW128970   0.733   1.141   1.565  0.4444  0.3618 -0.3903
 5778SOL    HW228971   0.831   1.063   1.632 -1.2902 -0.6455 -0.7866
 5779SOL     OW28972   1.861   4.491  14.718  0.0800 -0.0593  0.1561
 5779SOL    HW128973   1.802   4.564  14.739  1.8856  0.9902  1.5060
 5779SOL    HW228974   1.798   4.422  14.697 -0.9604  0.9159  0.0667
 5780SOL     OW28975   1.264   0.689  17.265 -0.3134  0.1638  0.0617
 5780SOL    HW128976   1.288   0.757  17.203  0.5516 -0.5194 -0.3430
 5780SOL    HW228977   1.207   0.624  17.224 -0.2442  1.1159 -1.5285
 5781SOL     OW28978   0.823   4.087  11.708  0.6170  0.3916  0.0316
 5781SOL    HW128979   0.735   4.049  11.709  1.1663 -0.8421  0.1436
 5781SOL    HW228980   0.885   4.015  11.716  0.9619  0.5813 -0.9499
 5782SOL     OW28981   1.065   4.549   1.464 -0.1985 -0.0937  0.6001
 5782SOL    HW128982   1.095   4.463   1.493  0.1267 -1.0792 -2.7501
 5782SOL    HW228983   0.975   4.542   1.496  0.0135  1.4484  1.5548
 5783SOL     OW28984   3.572   4.352   5.619 -0.6820  0.9116  0.4231
 5783SOL    HW128985   3.660   4.368   5.654  0.2573 -0.2785 -1.3806
 5783SOL    HW228986   3.581   4.271   5.570 -0.1632  0.1207  1.8094
 5784SOL     OW28987   0.212   3.876   5.372  0.2391  0.1201  0.1078
 5784SOL    HW128988   0.182   3.829   5.450 -2.4700  0.2519 -0.8439
 5784SOL    HW228989   0.279   3.814   5.343  0.5602  0.0267  1.0415
 5785SOL     OW28990   0.584   0.993   6.897 -0.4421  0.2529  0.0993
 5785SOL    HW128991   0.546   0.928   6.955  2.4544 -3.9702 -2.7815
 5785SOL    HW228992   0.593   0.938   6.819  1.8466 -2.5284  2.3410
 5786SOL     OW28993   4.292   3.116   9.436 -0.1315  0.6491  0.3464
 5786SOL    HW128994   4.261   3.176   9.369 -0.4691 -2.2038 -2.0521
 5786SOL    HW228995   4.328   3.180   9.498  1.9990  1.7057 -2.0217
 5787SOL     OW28996   2.815   0.514   3.134  0.1508 -0.0808  0.2545
 5787SOL    HW128997   2.755   0.442   3.153 -0.9997  1.3339  1.9203
 5787SOL    HW228998   2.789   0.576   3.202  1.2491 -0.7157  1.2630
 5788SOL     OW28999   2.302   4.186   9.370  0.1900  0.5582 -0.2988
 5788SOL    HW129000   2.365   4.192   9.442 -0.1142  2.2740 -0.1647
 5788SOL    HW229001   2.232   4.141   9.417 -0.9448  3.0105  0.3641
 5789SOL     OW29002   1.721   2.511   1.196 -0.0948  0.3009 -0.3636
 5789SOL    HW129003   1.712   2.418   1.218  3.2581  0.5709  2.0448
 5789SOL    HW229004   1.709   2.504   1.101  0.6861  1.5544 -0.5542
 5790SOL     OW29005   3.311   1.727   6.110 -1.1734  0.0546  0.0027
 5790SOL    HW129006   3.278   1.664   6.047 -3.2287  1.0376  0.1149
 5790SOL    HW229007   3.226   1.763   6.133 -0.7471  1.7752 -1.0470
 5791SOL     OW29008   1.283   1.688  10.512  0.1129  0.3431 -0.1489
 5791SOL    HW129009   1.340   1.618  10.477  2.2305  1.6605  0.6855
 5791SOL    HW229010   1.298   1.762  10.453 -1.1741 -0.1883 -1.1533
 5792SOL     OW29011   3.000   0.843  15.175 -0.0025 -0.0113  0.2476
 5792SOL    HW129012   3.010   0.754  15.210 -4.0880 -0.0342  1.3627
 5792SOL    HW229013   2.919   0.865  15.221 -0.9826 -4.9839  0.8646
 5793SOL     OW29014   0.231   0.931   6.031  0.0614 -0.4751  0.3659
 5793SOL    HW129015   0.236   1.016   6.073  1.4931  0.0471 -0.8481
 5793SOL    HW229016   0.321   0.913   6.004 -0.8054 -0.0714 -2.7836
 5794SOL     OW29017   4.433   2.918   9.320  0.2347  0.0287  0.3035
 5794SOL    HW129018   4.403   2.841   9.369  0.9117 -0.4428 -0.0220
 5794SOL    HW229019   4.384   2.986   9.365 -0.1816  0.1070 -0.2831
 5795SOL     OW29020   4.505   0.144   3.609 -0.5492 -0.3108 -0.0894
 5795SOL    HW129021   4.582   0.104   3.569  0.0290  0.3642  0.3375
 5795SOL    HW229022   4.470   0.072   3.662  0.4634 -0.9581 -0.2862
 5796SOL     OW29023   2.381   0.423   2.728 -0.3756 -0.1297 -0.6967
 5796SOL    HW129024   2.461   0.426   2.677  1.4434  2.0756  2.2634
 5796SOL    HW229025   2.313   0.441   2.664 -1.6022 -0.6651  0.4358
 5797SOL     OW29026   3.771   2.535   7.485 -0.5200  0.1650 -0.4034
 5797SOL    HW129027   3.723   2.613   7.513  2.2158  1.6575  0.1805
 5797SOL    HW229028   3.762   2.478   7.561  1.1019  0.5090  0.0498
 5798SOL     OW29029   0.066   2.167  13.326 -0.0212  0.0780 -0.3952
 5798SOL    HW129030   4.714   2.144  13.314 -0.2831  1.4597 -0.9870
 5798SOL    HW229031   0.087   2.119  13.406  0.0764 -0.3193 -0.6650
 5799SOL     OW29032   1.729   2.733   4.943  0.3256 -0.0976 -0.3355
 5799SOL    HW129033   1.668   2.775   4.882  3.0263  0.7236 -2.4462
 5799SOL    HW229034   1.787   2.802   4.975 -1.2023  1.2180 -0.3793
 5800SOL     OW29035   3.083   4.682   0.912 -0.0507 -0.0884 -0.2865
 5800SOL    HW129036   3.075   4.659   1.004  1.2250  0.7152  0.0261
 5800SOL    HW229037   3.033   4.610   0.873 -1.6293  0.1594  1.2676
 5801SOL     OW29038   3.965   4.342   1.505  0.4660 -0.5193 -0.3885
 5801SOL    HW129039   3.937   4.313   1.419  2.7640  1.4112 -1.7787
 5801SOL    HW229040   3.887   4.371   1.553 -0.1921  0.0890 -1.8175
 5802SOL     OW29041   2.489   1.008  16.985  0.5393 -0.4293  1.0753
 5802SOL    HW129042   2.520   1.097  16.966  1.9676 -0.9653  0.8914
 5802SOL    HW229043   2.489   1.004  17.080  2.2453 -0.4619  1.0667
 5803SOL     OW29044   3.511   1.798   4.498  0.4373 -0.6529  0.1823
 5803SOL    HW129045   3.500   1.805   4.404  0.9157  1.5328  0.2941
 5803SOL    HW229046   3.536   1.887   4.523 -0.2505  0.4334 -3.0432
 5804SOL     OW29047   1.639   1.234   3.558 -0.0062  0.8718 -0.0084
 5804SOL    HW129048   1.586   1.305   3.521 -2.1936 -1.9713 -2.3973
 5804SOL    HW229049   1.571   1.173   3.587 -0.3608  0.9193 -0.7251
 5805SOL     OW29050   4.131   1.784   4.110 -0.4614 -0.0557 -0.0657
 5805SOL    HW129051   4.179   1.715   4.065  0.1250 -1.3914  2.6064
 5805SOL    HW229052   4.109   1.840   4.035 -0.2310 -2.2338 -1.7441
 5806SOL     OW29053   0.153   2.306  17.043  0.1060 -0.1586  0.1323
 5806SOL    HW129054   0.137   2.361  17.121  0.5924  1.8838 -1.2024
 5806SOL    HW229055   0.076   2.328  16.991  2.1299  1.1408 -2.3006
 5807SOL     OW29056   3.151   3.500   8.650  0.3639 -0.6811 -0.6793
 5807SOL    HW129057   3.173   3.545   8.568  1.9718 -1.4259 -0.6520
 5807SOL    HW229058   3.237   3.462   8.668 -0.5555 -3.3710 -1.8730
 5808SOL     OW29059   3.267   0.755   4.513 -0.4325 -0.2386 -0.3367
 5808SOL    HW129060   3.277   0.850   4.524 -0.9192 -0.4059  1.5841
 5808SOL    HW229061   3.183   0.747   4.468  0.9307 -1.4064 -2.6741
 5809SOL     OW29062   3.088   3.356  11.073  0.1407  0.1474  0.2241
 5809SOL    HW129063   3.130   3.442  11.070 -0.7364  0.5839  0.6099
 5809SOL    HW229064   3.050   3.357  11.160  1.4361  1.5621  0.7856
 5810SOL     OW29065   0.039   2.544   9.065  0.0061 -0.3850 -0.2675
 5810SOL    HW129066   0.100   2.471   9.068  0.0242 -0.4153 -1.3924
 5810SOL    HW229067   4.692   2.507   9.082 -0.1543  0.2361  0.2946
 5811SOL     OW29068   2.040   2.681  16.530 -0.2219  0.0804 -0.3123
 5811SOL    HW129069   2.030   2.650  16.620 -0.4169  0.9495 -0.0389
 5811SOL    HW229070   2.080   2.767  16.540 -1.1412  0.4014  0.6514
 5812SOL     OW29071   2.372   3.030   1.745  0.3213  0.2003  0.4419
 5812SOL    HW129072   2.319   2.957   1.778  1.3299 -1.1078 -0.7871
 5812SOL    HW229073   2.390   2.988   1.660  0.0712 -0.9593  0.9562
 5813SOL     OW29074   4.351   3.106   3.303 -0.6321  0.2170  0.4027
 5813SOL    HW129075   4.329   3.185   3.254  0.1164  0.6863  0.8317
 5813SOL    HW229076   4.264   3.088   3.339 -0.8855 -0.6792 -0.6292
 5814SOL     OW29077   0.842   0.663   6.021  0.0122  0.3980  0.3732
 5814SOL    HW129078   0.925   0.622   5.998 -0.2709  1.2418 -2.1396
 5814SOL    HW229079   0.874   0.752   6.036 -0.0301  0.8264 -2.0417
 5815SOL     OW29080   4.130   4.192   9.942 -0.6942 -0.0309  0.1670
 5815SOL    HW129081   4.191   4.256   9.906 -0.4733 -0.5932 -0.4815
 5815SOL    HW229082   4.186   4.140  10.000 -1.1243 -1.0590 -0.3267
 5816SOL     OW29083   3.371   4.487   0.277 -0.7263 -0.1271  0.3939
 5816SOL    HW129084   3.407   4.572   0.252  2.7241 -1.0341  2.2334
 5816SOL    HW229085   3.387   4.436   0.198  2.8061 -1.5811  2.0118
 5817SOL     OW29086   0.455   3.407   4.160 -0.2705  0.7236 -0.6180
 5817SOL    HW129087   0.381   3.356   4.192  0.2891  0.9555  1.0449
 5817SOL    HW229088   0.519   3.383   4.227  0.3613 -0.7469 -1.7586
 5818SOL     OW29089   0.064   0.613  17.082 -0.3844 -0.0309 -0.8299
 5818SOL    HW129090   0.144   0.569  17.054  0.9732  1.4847  0.6790
 5818SOL    HW229091   4.739   0.582  17.018 -0.2586  2.6842 -2.2912
 5819SOL     OW29092   4.044   0.085   1.773 -0.0654  0.1879 -0.5036
 5819SOL    HW129093   3.964   0.093   1.825  0.4555 -1.2165  0.5235
 5819SOL    HW229094   4.090   0.155   1.819  0.9579  1.7047 -3.8883
 5820SOL     OW29095   1.287   2.948   8.611  0.4572  0.1482 -0.2461
 5820SOL    HW129096   1.293   3.043   8.622 -2.2977  0.1277  1.4092
 5820SOL    HW229097   1.300   2.923   8.703 -0.3076  0.8716  0.0671
 5821SOL     OW29098   3.192   1.528   6.608 -0.3846  0.3647 -0.7336
 5821SOL    HW129099   3.174   1.566   6.522 -0.6254 -0.2701 -0.9627
 5821SOL    HW229100   3.280   1.492   6.599 -0.6454 -0.8513  1.5591
 5822SOL     OW29101   1.522   2.896  12.947  0.7029 -0.4131  0.3958
 5822SOL    HW129102   1.465   2.882  13.022 -1.5886 -0.9932 -1.4372
 5822SOL    HW229103   1.490   2.842  12.874 -1.5452 -1.4419  2.1382
 5823SOL     OW29104   3.524   2.072   6.604 -0.9183 -0.5139 -0.2107
 5823SOL    HW129105   3.599   2.071   6.664 -0.3800 -1.6183 -0.8775
 5823SOL    HW229106   3.497   1.980   6.600  1.0439 -1.1031 -0.3326
 5824SOL     OW29107   0.031   1.416   4.252  0.0797 -0.2661  0.4348
 5824SOL    HW129108   0.121   1.423   4.220 -1.0947  3.1817 -2.1119
 5824SOL    HW229109   0.006   1.500   4.213 -1.5503  0.0086  2.0799
 5825SOL     OW29110   3.701   1.469   4.978  0.2011  0.5806  0.1561
 5825SOL    HW129111   3.761   1.405   5.017  0.3144  0.8901  0.4857
 5825SOL    HW229112   3.750   1.515   4.909  0.6387  0.1486  0.1844
 5826SOL     OW29113   2.683   3.405   3.743 -0.3007  0.2000 -0.3637
 5826SOL    HW129114   2.656   3.329   3.794 -0.7476  1.4645  1.2946
 5826SOL    HW229115   2.766   3.375   3.705 -0.3442  0.9232 -1.0245
 5827SOL     OW29116   1.447   3.326   8.831  0.1500  0.1424 -0.1319
 5827SOL    HW129117   1.351   3.330   8.834  0.1641  0.5183 -0.2104
 5827SOL    HW229118   1.460   3.232   8.841 -2.4595 -0.1113  0.8601
 5828SOL     OW29119   2.817   1.188   5.353 -0.5177  1.2396  0.3784
 5828SOL    HW129120   2.829   1.280   5.377 -2.0014  1.5308  0.0049
 5828SOL    HW229121   2.786   1.194   5.262  0.6311 -0.5620 -0.1385
 5829SOL     OW29122   3.717   4.533   8.950  0.2272  0.5281 -0.3764
 5829SOL    HW129123   3.790   4.595   8.956 -1.9520  3.3002 -3.0156
 5829SOL    HW229124   3.722   4.515   8.857 -1.9616 -1.0674 -0.1702
 5830SOL     OW29125   4.492   1.491  10.739 -0.2106  0.2644 -0.0638
 5830SOL    HW129126   4.419   1.504  10.799  0.0842 -1.0283  0.5804
 5830SOL    HW229127   4.524   1.581  10.747  0.9606 -0.2937  1.4954
 5831SOL     OW29128   3.370   2.070   5.673 -0.2992  0.0269 -0.6730
 5831SOL    HW129129   3.453   2.022   5.681  0.1848  0.9779 -0.0942
 5831SOL    HW229130   3.393   2.162   5.683  0.0061 -0.5074  3.4400
 5832SOL     OW29131   0.316   1.481  15.710 -0.0895 -0.3672  0.0960
 5832SOL    HW129132   0.306   1.443  15.623 -0.6895 -0.9029  0.3963
 5832SOL    HW229133   0.286   1.570  15.694  2.3513  0.3008 -0.7401
 5833SOL     OW29134   1.834   4.518   5.528  0.0512 -0.2801  0.0406
 5833SOL    HW129135   1.908   4.460   5.509  0.6263 -0.4945  2.8931
 5833SOL    HW229136   1.828   4.506   5.622 -0.6825  0.7066  0.1272
 5834SOL     OW29137   0.939   1.857   3.117  0.1950 -0.4461 -0.2706
 5834SOL    HW129138   0.970   1.776   3.158  1.1741 -0.4194 -0.9485
 5834SOL    HW229139   0.887   1.895   3.188 -2.5570 -3.6553 -0.6197
 5835SOL     OW29140   0.290   1.270   0.585  0.4727 -0.7976 -0.5186
 5835SOL    HW129141   0.232   1.307   0.519 -2.2597 -2.7848  0.8158
 5835SOL    HW229142   0.231   1.232   0.649  0.3617  0.2639  0.0144
 5836SOL     OW29143   2.097   4.375   5.939  0.0699 -0.2069  0.1495
 5836SOL    HW129144   2.068   4.341   5.854 -2.6796 -0.5162  1.2115
 5836SOL    HW229145   2.139   4.301   5.983  1.6861 -0.1211 -1.2637
 5837SOL     OW29146   4.176   1.018  13.261  0.0152 -0.2667  0.3301
 5837SOL    HW129147   4.171   1.011  13.165  2.8527 -3.1183  0.3783
 5837SOL    HW229148   4.271   1.016  13.272 -0.0176 -1.1211  0.5169
 5838SOL     OW29149   3.630   3.688   0.872  1.1056 -0.3837 -0.3103
 5838SOL    HW129150   3.673   3.696   0.787  1.3654  1.4797  0.0122
 5838SOL    HW229151   3.702   3.646   0.919  1.5650 -0.8464 -1.4256
 5839SOL     OW29152   2.701   1.739   2.188 -0.2442  0.2019  0.1182
 5839SOL    HW129153   2.791   1.740   2.221 -0.2921 -1.1289  0.2843
 5839SOL    HW229154   2.679   1.646   2.196 -0.9781  0.1710 -2.3022
 5840SOL     OW29155   3.870   4.181   4.136 -0.3034 -1.0677  0.8393
 5840SOL    HW129156   3.872   4.236   4.058  0.9639  1.7801  2.8566
 5840SOL    HW229157   3.933   4.112   4.114 -0.6124 -1.2543  0.5350
 5841SOL     OW29158   1.739   4.564   8.293 -0.0469  0.8583 -0.0374
 5841SOL    HW129159   1.788   4.646   8.298 -2.7570  2.5211 -0.4342
 5841SOL    HW229160   1.808   4.498   8.286 -0.0643  1.1004 -2.7777
 5842SOL     OW29161   1.127   0.113  13.987  0.0854 -0.6253 -0.2784
 5842SOL    HW129162   1.064   0.181  14.012  0.0214 -0.5744 -0.5701
 5842SOL    HW229163   1.142   0.070  14.071 -0.4329  0.3667  0.3233
 5843SOL     OW29164   3.742   4.142   8.681 -0.2272 -0.3858 -0.0181
 5843SOL    HW129165   3.650   4.115   8.686 -1.2326  3.0674 -0.1057
 5843SOL    HW229166   3.755   4.176   8.770 -1.2777  1.4031 -0.5685
 5844SOL     OW29167   0.401   3.642   2.651 -0.5421  0.3769  0.5166
 5844SOL    HW129168   0.335   3.587   2.607 -2.3238  2.2915  0.7946
 5844SOL    HW229169   0.353   3.668   2.730  0.8985  1.5588  1.0041
 5845SOL     OW29170   3.811   0.385  16.269 -0.3671  0.4400 -0.5341
 5845SOL    HW129171   3.719   0.387  16.294 -0.6036 -0.5822 -1.2970
 5845SOL    HW229172   3.851   0.344  16.346 -1.3651  0.0325 -0.2326
 5846SOL     OW29173   4.401   0.039   5.951  0.1670  0.2451 -0.0717
 5846SOL    HW129174   4.443   4.701   5.986  1.7465  0.7971 -0.7478
 5846SOL    HW229175   4.321   0.006   5.910  0.1150  1.9161 -1.3590
 5847SOL     OW29176   3.840   3.959  16.107 -0.6025 -0.3977  0.4878
 5847SOL    HW129177   3.923   3.976  16.062 -0.5808 -0.2798  0.5709
 5847SOL    HW229178   3.807   3.891  16.049 -1.0393 -0.6502  1.0373
 5848SOL     OW29179   4.017   0.459   2.071 -0.1610 -0.0442 -0.2035
 5848SOL    HW129180   3.998   0.553   2.068  2.0326  0.4085  0.2851
 5848SOL    HW229181   3.935   0.411   2.058  0.3940 -0.6611 -1.4010
 5849SOL     OW29182   0.988   4.442   9.770 -0.0758 -0.1271 -0.4017
 5849SOL    HW129183   1.079   4.462   9.753 -0.6441  1.9792 -0.9235
 5849SOL    HW229184   0.977   4.456   9.864  1.5937  0.9939 -0.3942
 5850SOL     OW29185   3.134   1.998   5.273  0.7192 -0.0340 -0.7182
 5850SOL    HW129186   3.040   2.012   5.281  0.8273  0.0490  0.4770
 5850SOL    HW229187   3.144   1.904   5.287  2.6213  0.1685 -0.7172
 5851SOL     OW29188   2.024   2.710   9.544 -0.7440 -0.6709 -0.6856
 5851SOL    HW129189   2.070   2.709   9.460  0.7595 -1.5036  0.1611
 5851SOL    HW229190   1.986   2.622   9.539  1.4150 -1.6751  0.6950
 5852SOL     OW29191   3.644   1.206   6.831  0.5276 -0.2011 -0.8179
 5852SOL    HW129192   3.728   1.188   6.788  2.5045 -0.7658  3.2963
 5852SOL    HW229193   3.620   1.290   6.790  0.2638 -0.4739 -1.2239
 5853SOL     OW29194   0.568   2.126   5.596 -0.1964 -0.1519  0.0628
 5853SOL    HW129195   0.553   2.032   5.607 -0.3296 -0.1079  0.2592
 5853SOL    HW229196   0.486   2.173   5.609  0.0504  0.8350 -1.9554
 5854SOL     OW29197   1.830   4.384  11.122 -0.2555  0.1824  0.1090
 5854SOL    HW129198   1.883   4.445  11.070  1.2709 -0.0704  1.3574
 5854SOL    HW229199   1.842   4.304  11.072 -0.9964 -0.9252  1.7129
 5855SOL     OW29200   0.356   4.094  14.806 -0.2999  0.0394  0.0034
 5855SOL    HW129201   0.337   4.095  14.900  0.8416 -0.0849  0.2320
 5855SOL    HW229202   0.451   4.084  14.815 -0.3517  1.2542  1.7753
 5856SOL     OW29203   1.612   3.046   5.764  0.5282 -0.0093  0.4420
 5856SOL    HW129204   1.666   2.970   5.745 -2.3293 -1.5627 -1.5368
 5856SOL    HW229205   1.524   3.009   5.757 -0.0999  1.1159  2.4253
 5857SOL     OW29206   3.625   3.539   5.763  0.3359  0.6948  0.0343
 5857SOL    HW129207   3.553   3.591   5.799  0.6278  1.5853 -0.6938
 5857SOL    HW229208   3.672   3.524   5.846  0.6554 -0.7076 -0.3874
 5858SOL     OW29209   3.900   2.037   7.971 -0.6883 -0.3933  0.2222
 5858SOL    HW129210   3.860   2.025   8.057  0.7462 -3.3772  0.4639
 5858SOL    HW229211   3.932   2.128   7.975  1.8918 -1.3299  0.7339
 5859SOL     OW29212   1.729   2.793  11.621 -0.1037 -0.1774  0.1764
 5859SOL    HW129213   1.803   2.822  11.673  0.5872 -0.1585 -0.8291
 5859SOL    HW229214   1.773   2.728  11.566  2.4626  1.4040  0.3867
 5860SOL     OW29215   4.310   0.355   3.662  0.0104  0.7503 -0.1131
 5860SOL    HW129216   4.364   0.380   3.737 -0.0060  2.1740 -0.5826
 5860SOL    HW229217   4.365   0.288   3.621 -0.9590 -0.4051  0.4876
 5861SOL     OW29218   1.431   1.374   8.228  0.0567  0.5059 -0.3048
 5861SOL    HW129219   1.484   1.398   8.304  2.1873  1.1622 -1.9808
 5861SOL    HW229220   1.453   1.280   8.231  1.5916  0.8528 -0.4907
 5862SOL     OW29221   4.596   1.820   3.170 -0.0565  0.1901  0.1578
 5862SOL    HW129222   4.529   1.786   3.230 -0.3936 -0.6452 -0.6973
 5862SOL    HW229223   4.547   1.852   3.094 -0.5671 -0.2929  0.2876
 5863SOL     OW29224   2.561   2.360   1.442  0.2429  0.2545 -0.1500
 5863SOL    HW129225   2.523   2.287   1.393 -0.2259  0.2548  0.2111
 5863SOL    HW229226   2.503   2.433   1.421 -0.6650 -0.3366  0.3125
 5864SOL     OW29227   4.098   3.310   5.345 -0.1844 -0.2495  0.3058
 5864SOL    HW129228   4.050   3.256   5.282 -1.0150  3.0517 -1.8498
 5864SOL    HW229229   4.162   3.241   5.367 -0.7370 -0.5164  1.0878
 5865SOL     OW29230   1.045   1.685   6.947  0.3544  0.0099 -0.0550
 5865SOL    HW129231   0.952   1.699   6.962  0.4172  0.6835 -0.2629
 5865SOL    HW229232   1.079   1.772   6.968 -0.9323 -0.0802  2.4210
 5866SOL     OW29233   0.017   3.186   0.840  0.4456 -0.4870 -0.3419
 5866SOL    HW129234   0.094   3.229   0.877 -1.3426  0.7047  2.0194
 5866SOL    HW229235   0.057   3.105   0.807 -2.1629 -1.7885 -0.2884
 5867SOL     OW29236   2.321   3.038   2.824 -0.1420  0.6121 -0.3381
 5867SOL    HW129237   2.330   3.133   2.817  1.6644  0.3916 -0.9527
 5867SOL    HW229238   2.250   3.015   2.764 -0.0358  0.6031 -0.4609
 5868SOL     OW29239   4.059   4.077   1.037  0.3033 -0.1638  0.3358
 5868SOL    HW129240   3.991   4.017   1.066 -1.0604  0.3606 -1.7365
 5868SOL    HW229241   4.056   4.137   1.112 -0.5822  0.8633 -0.5001
 5869SOL     OW29242   4.164   0.217   2.653  1.0899  0.4603  0.0982
 5869SOL    HW129243   4.150   0.123   2.665 -0.2588  0.4108 -1.8399
 5869SOL    HW229244   4.146   0.257   2.738 -1.0132 -0.6947  0.2162
 5870SOL     OW29245   2.894   2.557   7.345  0.2446  0.0739  0.3102
 5870SOL    HW129246   2.798   2.553   7.346  0.2846 -0.8507  0.7310
 5870SOL    HW229247   2.905   2.649   7.368 -2.2380  0.8793 -1.7202
 5871SOL     OW29248   0.461   2.703  13.955  0.1677  0.2483  0.5064
 5871SOL    HW129249   0.389   2.764  13.970 -0.6243 -0.3143 -1.0836
 5871SOL    HW229250   0.508   2.742  13.881  0.9471 -0.2591  0.7296
 5872SOL     OW29251   2.542   4.075   4.569  0.1819  0.4533 -0.3171
 5872SOL    HW129252   2.475   4.011   4.592  0.6520 -0.2211 -0.8203
 5872SOL    HW229253   2.482   4.149   4.562  2.7607  2.8025  2.6907
 5873SOL     OW29254   2.849   2.998   2.424 -0.1829  0.4337  0.1025
 5873SOL    HW129255   2.918   2.976   2.486  0.7848  4.5018  0.4871
 5873SOL    HW229256   2.818   2.910   2.404 -0.9341  0.7256 -0.0246
 5874SOL     OW29257   0.633   0.717   7.613  0.0366 -0.1527  0.0916
 5874SOL    HW129258   0.596   0.800   7.581 -1.3011 -1.8284 -2.7149
 5874SOL    HW229259   0.564   0.653   7.598  1.4187 -1.5644 -0.1968
 5875SOL     OW29260   2.053   4.478   4.836 -0.0060 -0.2828  0.0295
 5875SOL    HW129261   2.047   4.386   4.811  2.0116 -0.0720 -1.2441
 5875SOL    HW229262   2.075   4.526   4.757  4.3873  2.5296  2.9376
 5876SOL     OW29263   3.022   3.643   8.087  0.2377 -0.3282 -0.2151
 5876SOL    HW129264   2.961   3.629   8.158 -1.2429  1.0288 -1.2212
 5876SOL    HW229265   3.087   3.575   8.105 -1.6187 -1.6747  1.3892
 5877SOL     OW29266   0.139   4.474   8.963  0.2156 -0.3445 -0.1423
 5877SOL    HW129267   0.098   4.439   9.043  1.2603 -1.8317 -0.2633
 5877SOL    HW229268   0.226   4.433   8.964  0.1101 -0.5584  0.4187
 5878SOL     OW29269   3.913   1.805   7.066  0.4260  0.2995 -0.1170
 5878SOL    HW129270   3.916   1.711   7.084  1.1719  0.4392  0.4874
 5878SOL    HW229271   3.993   1.830   7.020  1.6207  0.1805  1.8774
 5879SOL     OW29272   2.352   2.589   1.820  0.1463 -0.2781 -0.3118
 5879SOL    HW129273   2.440   2.552   1.811  0.1363 -0.5440  0.6541
 5879SOL    HW229274   2.308   2.529   1.881 -1.9452 -0.2219 -1.7374
 5880SOL     OW29275   4.479   0.908   3.527 -0.3503  0.1820 -0.0760
 5880SOL    HW129276   4.498   0.984   3.583 -0.6076  0.1790  0.0149
 5880SOL    HW229277   4.507   0.948   3.445  0.2142 -0.4959 -0.2150
 5881SOL     OW29278   4.577   4.643  12.279 -0.2686 -0.7808 -0.6229
 5881SOL    HW129279   4.521   4.566  12.273  1.7923 -1.9661 -4.4361
 5881SOL    HW229280   4.588   4.652  12.374 -3.2421 -2.2439 -0.1159
 5882SOL     OW29281   4.536   2.510  17.577  0.2193  0.5089  0.9123
 5882SOL    HW129282   4.572   2.592  17.543 -0.6681  1.1304  1.4641
 5882SOL    HW229283   4.524   2.545  17.665  2.1430  1.2769  0.8717
 5883SOL     OW29284   2.486   4.119   5.084  0.1366 -0.0882 -0.3752
 5883SOL    HW129285   2.523   4.035   5.058 -0.1451 -0.8400  1.6723
 5883SOL    HW229286   2.515   4.135   5.173  0.1192 -4.0400  0.3471
 5884SOL     OW29287   2.641   4.677   4.730 -0.3326 -0.1620  0.7408
 5884SOL    HW129288   2.658   4.648   4.820  1.6366  0.4846  0.5620
 5884SOL    HW229289   2.667   0.029   4.741  2.1966 -0.8898  0.6862
 5885SOL     OW29290   3.365   2.162  16.472  0.3223 -0.0278  0.1249
 5885SOL    HW129291   3.391   2.078  16.433  0.7217  1.1446 -2.1446
 5885SOL    HW229292   3.270   2.164  16.471  0.3474  0.7732 -0.2301
 5886SOL     OW29293   2.000   0.936   4.485 -0.6952  0.3183  0.3257
 5886SOL    HW129294   1.911   0.972   4.491 -0.3571  1.1966 -0.0093
 5886SOL    HW229295   1.975   0.843   4.479  1.3434 -0.0796 -1.9331
 5887SOL     OW29296   4.013   3.253   5.721  0.4252 -0.7932 -0.1806
 5887SOL    HW129297   3.966   3.279   5.642  1.1352 -0.2440 -0.4253
 5887SOL    HW229298   3.959   3.180   5.750 -1.1077 -1.4852 -4.7920
 5888SOL     OW29299   2.472   1.293   6.498 -0.1119  0.4581 -0.6499
 5888SOL    HW129300   2.496   1.375   6.455 -0.2387  0.1665 -1.2780
 5888SOL    HW229301   2.381   1.290   6.468 -0.9501  0.5931  1.9037
 5889SOL     OW29302   1.961   0.154  16.694  1.1505 -0.1614  0.2041
 5889SOL    HW129303   1.902   0.217  16.653  2.7159  0.1732 -1.5339
 5889SOL    HW229304   2.048   0.185  16.668  0.0952  2.5940  0.0448
 5890SOL     OW29305   0.416   1.445  13.550 -0.2071  0.4537  0.3897
 5890SOL    HW129306   0.330   1.462  13.511 -1.2356 -0.5171  2.2448
 5890SOL    HW229307   0.411   1.351  13.531 -0.3884  0.5566 -0.0820
 5891SOL     OW29308   2.156   2.132  16.469  0.7596 -0.1044  0.6501
 5891SOL    HW129309   2.242   2.172  16.473  0.4953  0.4652  0.6979
 5891SOL    HW229310   2.125   2.140  16.559  1.0455 -1.6032  0.8718
 5892SOL     OW29311   1.917   0.666   7.742 -0.3275  0.5357  0.2480
 5892SOL    HW129312   1.868   0.704   7.814 -0.1078 -0.3812  0.8760
 5892SOL    HW229313   1.975   0.609   7.792 -0.7300 -1.1839 -1.2620
 5893SOL     OW29314   2.329   3.526   1.630 -0.0164  0.0886 -0.0505
 5893SOL    HW129315   2.272   3.590   1.673 -0.9836 -1.2919  0.7399
 5893SOL    HW229316   2.413   3.514   1.674 -0.3032  0.9722  0.7455
 5894SOL     OW29317   0.984   0.367   8.536  0.0769  0.3723  0.5654
 5894SOL    HW129318   1.041   0.416   8.595  2.3308  0.2736 -1.5264
 5894SOL    HW229319   1.000   0.276   8.561  1.1783  0.3595 -0.1474
 5895SOL     OW29320   4.006   1.238   7.148  0.3762 -0.7972 -0.5398
 5895SOL    HW129321   4.099   1.213   7.145  0.4193 -0.7968  0.6419
 5895SOL    HW229322   3.998   1.281   7.063 -0.4472  1.7808  0.8515
 5896SOL     OW29323   2.314   3.081   1.198 -0.5997  0.3316  0.0507
 5896SOL    HW129324   2.294   3.119   1.284 -1.6303  0.3999 -0.2115
 5896SOL    HW229325   2.367   3.005   1.222 -1.7832 -0.2298  0.8577
 5897SOL     OW29326   4.443   4.306   8.849  0.1782 -0.1676  0.4671
 5897SOL    HW129327   4.367   4.249   8.867  0.1442 -0.4549 -0.5286
 5897SOL    HW229328   4.519   4.265   8.890  0.0009 -0.6755  0.2965
 5898SOL     OW29329   0.228   3.226   6.366 -0.9322  0.6830  0.0938
 5898SOL    HW129330   0.231   3.320   6.351 -1.6930  0.5785 -0.7296
 5898SOL    HW229331   0.200   3.234   6.457 -0.7265  0.9989  0.1275
 5899SOL     OW29332   2.950   1.789   5.145  0.0310  0.5804 -0.1485
 5899SOL    HW129333   2.908   1.751   5.068 -0.6712 -0.5185  0.7809
 5899SOL    HW229334   3.028   1.734   5.156 -0.2935  0.5005  1.7759
 5900SOL     OW29335   3.941   3.883  14.579  0.0914  0.6800 -0.6401
 5900SOL    HW129336   3.942   3.958  14.520 -3.5241  0.2603 -1.2548
 5900SOL    HW229337   3.943   3.818  14.508 -0.0737  2.3594 -2.1809
 5901SOL     OW29338   3.537   2.089   6.918  0.0753 -0.4278 -0.0491
 5901SOL    HW129339   3.473   2.018   6.908 -0.7246  0.2611  0.1863
 5901SOL    HW229340   3.574   2.063   7.003 -0.5959 -0.6861  0.1642
 5902SOL     OW29341   3.805   4.076  15.598 -0.1329  1.0815 -0.3321
 5902SOL    HW129342   3.782   4.028  15.518  1.8614  0.3742 -0.4708
 5902SOL    HW229343   3.728   4.064  15.653 -0.9097  3.5870 -0.8701
 5903SOL     OW29344   1.583   4.047   6.665  0.1005  0.1097  0.3457
 5903SOL    HW129345   1.652   3.993   6.704  2.3835  1.8934 -1.1923
 5903SOL    HW229346   1.562   4.109   6.735  0.1029  0.3959  0.0900
 5904SOL     OW29347   1.683   1.210   4.691 -0.3716 -0.5766  0.0934
 5904SOL    HW129348   1.709   1.301   4.673 -2.8086 -0.0940 -1.0410
 5904SOL    HW229349   1.656   1.211   4.783  1.6770  1.1195  0.6629
 5905SOL     OW29350   1.709   2.765   5.271 -0.2144 -0.1681  0.2639
 5905SOL    HW129351   1.777   2.813   5.318 -0.8740  0.3541  0.6877
 5905SOL    HW229352   1.687   2.832   5.207  1.2870  0.2872  0.2394
 5906SOL     OW29353   1.378   0.159   3.083 -0.5368 -0.4409 -0.3545
 5906SOL    HW129354   1.291   0.119   3.084 -0.3856 -0.7774 -0.6161
 5906SOL    HW229355   1.428   0.108   3.019 -0.3127 -2.7405  1.6318
 5907SOL     OW29356   3.237   1.076   9.605  0.1525  0.1700  0.4465
 5907SOL    HW129357   3.187   1.145   9.561 -0.1367  1.6815  3.1341
 5907SOL    HW229358   3.322   1.071   9.562 -0.3288  0.1360 -0.4900
 5908SOL     OW29359   1.386   4.256   4.771 -0.3879  0.8219 -0.2041
 5908SOL    HW129360   1.299   4.230   4.740 -0.4787  0.9970 -0.0959
 5908SOL    HW229361   1.373   4.335   4.824  1.0674  0.2353  0.9961
 5909SOL     OW29362   4.000   3.905  10.065 -0.3163 -0.0874  0.0801
 5909SOL    HW129363   3.993   3.998  10.084 -0.9720 -0.3446  1.1157
 5909SOL    HW229364   3.924   3.885  10.010 -0.8831  1.0437  0.4624
 5910SOL     OW29365   0.883   4.400   4.333 -0.4757  0.2439 -0.0688
 5910SOL    HW129366   0.871   4.419   4.426  2.1134  0.3500  0.2256
 5910SOL    HW229367   0.960   4.446   4.300  0.1247  0.3332  1.5075
 5911SOL     OW29368   2.239   3.365   4.025  0.1851  0.0912  0.2214
 5911SOL    HW129369   2.297   3.358   4.102 -0.7102  0.3072  0.9147
 5911SOL    HW229370   2.311   3.373   3.963  0.5200 -0.5371  0.5286
 5912SOL     OW29371   0.884   2.254   2.358 -0.7272 -0.1652 -0.0708
 5912SOL    HW129372   0.846   2.240   2.445 -2.2269  1.0606 -0.5229
 5912SOL    HW229373   0.874   2.349   2.354 -4.6139 -0.5322  0.5080
 5913SOL     OW29374   1.162   2.012   2.667 -0.4405  0.1844 -0.2079
 5913SOL    HW129375   1.074   2.003   2.705  0.4066 -1.0516  1.4479
 5913SOL    HW229376   1.195   2.090   2.710  0.5843 -1.0556  1.2584
 5914SOL     OW29377   2.881   4.216   8.627  0.2008 -0.4283 -0.1309
 5914SOL    HW129378   2.914   4.206   8.717  0.1734  2.2578  0.1908
 5914SOL    HW229379   2.909   4.135   8.584 -0.8466 -2.8738  3.8068
 5915SOL     OW29380   2.965   3.984   8.844 -0.1912  0.1727  0.5924
 5915SOL    HW129381   3.026   3.912   8.826 -1.8382 -0.5044 -2.2445
 5915SOL    HW229382   2.945   3.993   8.751 -0.0002 -1.7191  0.3712
 5916SOL     OW29383   1.117   0.243   2.058 -0.1832 -0.1893 -0.0593
 5916SOL    HW129384   1.124   0.208   2.146 -1.0196  0.3796  0.2327
 5916SOL    HW229385   1.210   0.240   2.033 -0.7545 -1.7616 -2.0571
 5917SOL     OW29386   2.992   2.111  17.117 -0.5759  0.4325  0.2348
 5917SOL    HW129387   3.075   2.071  17.090  0.1300  1.2097  1.2846
 5917SOL    HW229388   2.992   2.094  17.211  0.9194 -1.4597 -0.1108
 5918SOL     OW29389   2.177   2.345   7.264 -0.8530 -0.8505 -0.3192
 5918SOL    HW129390   2.088   2.322   7.289 -0.4404 -0.4854  1.4388
 5918SOL    HW229391   2.153   2.383   7.179  0.6735  0.6871 -0.0734
 5919SOL     OW29392   4.329   3.088   4.097  0.6815 -0.1139  0.9260
 5919SOL    HW129393   4.273   3.166   4.105 -0.5767 -0.8093 -1.1865
 5919SOL    HW229394   4.414   3.125   4.122  0.6255  0.2948  0.5254
 5920SOL     OW29395   2.898   2.144   2.890  0.0130  0.3099 -0.0575
 5920SOL    HW129396   2.900   2.162   2.984  0.0597 -0.5182  0.0971
 5920SOL    HW229397   2.934   2.224   2.851  2.1523  0.5039  2.3193
 5921SOL     OW29398   4.494   1.796   1.760  0.8864  0.3964  0.1414
 5921SOL    HW129399   4.475   1.704   1.738  1.7705 -0.1994  1.9033
 5921SOL    HW229400   4.414   1.836   1.726  0.7160  0.1771  0.2831
 5922SOL     OW29401   1.423   4.705   5.864  0.2309 -0.3166 -0.1475
 5922SOL    HW129402   1.474   0.031   5.816  0.5902 -0.5862 -0.1349
 5922SOL    HW229403   1.343   0.017   5.867  0.6654  0.5000 -2.7667
 5923SOL     OW29404   3.840   2.530   8.433  0.2842 -0.4755  0.4965
 5923SOL    HW129405   3.823   2.547   8.525  0.3033 -1.7322  0.7287
 5923SOL    HW229406   3.757   2.546   8.388  0.7568 -0.0449 -0.2398
 5924SOL     OW29407   3.854   0.560   5.059  1.1462  0.1380  0.3828
 5924SOL    HW129408   3.890   0.480   5.020 -1.1490 -1.3584  1.2927
 5924SOL    HW229409   3.781   0.583   5.002  0.4877  0.8455  1.5190
 5925SOL     OW29410   1.720   2.478  11.980  0.1288  0.0240 -0.6940
 5925SOL    HW129411   1.740   2.571  11.982 -0.7571  0.0851  4.5374
 5925SOL    HW229412   1.779   2.454  12.052 -0.1326 -1.1940 -0.8749
 5926SOL     OW29413   0.854   2.705   4.691 -0.2944 -0.3115  0.1454
 5926SOL    HW129414   0.948   2.712   4.675 -0.3120 -2.7112 -1.0473
 5926SOL    HW229415   0.851   2.783   4.747  0.2237 -0.7065  0.7299
 5927SOL     OW29416   0.385   0.137   8.318 -0.3886 -0.4977 -0.1310
 5927SOL    HW129417   0.308   0.161   8.266 -0.6735  0.3261  0.6696
 5927SOL    HW229418   0.419   0.220   8.351 -1.8337  0.7949 -1.8748
 5928SOL     OW29419   3.972   0.894  11.298 -0.0451 -0.8688 -0.0101
 5928SOL    HW129420   3.949   0.986  11.286 -0.8100 -1.2977 -1.7913
 5928SOL    HW229421   4.064   0.896  11.270  0.0042  0.4598  0.2560
 5929SOL     OW29422   3.667   0.940  11.335 -0.4257 -0.4232  0.0181
 5929SOL    HW129423   3.611   0.997  11.282  0.2298  0.0218 -0.1964
 5929SOL    HW229424   3.752   0.953  11.293 -0.7878  1.7735 -0.0432
 5930SOL     OW29425   4.136   2.976  15.718  0.1872  0.9385 -0.6592
 5930SOL    HW129426   4.077   2.955  15.646  0.1008  1.8193 -0.8356
 5930SOL    HW229427   4.218   2.979  15.669  0.3946 -1.6509 -0.4851
 5931SOL     OW29428   0.162   2.933   8.344 -0.6526  0.1184  0.1099
 5931SOL    HW129429   0.113   2.937   8.262  0.4901 -0.0468 -0.5842
 5931SOL    HW229430   0.172   2.838   8.350  0.8121  0.2542 -0.1844
 5932SOL     OW29431   4.708   1.026   6.582 -0.2032 -0.4181 -0.0667
 5932SOL    HW129432   4.725   1.023   6.488 -1.3649 -0.2100 -0.2897
 5932SOL    HW229433   0.052   0.993   6.613 -0.5586 -0.8673  0.4201
 5933SOL     OW29434   0.219   3.572   9.356  0.0648 -0.2288  0.2668
 5933SOL    HW129435   0.257   3.649   9.398  0.4505  0.6798 -1.7596
 5933SOL    HW229436   0.130   3.577   9.389  0.4279 -2.0014  1.5627
 5934SOL     OW29437   0.277   1.359   4.851 -0.0905  0.0064  0.1681
 5934SOL    HW129438   0.270   1.264   4.859  2.1433 -0.1534  0.2305
 5934SOL    HW229439   0.330   1.359   4.771  0.0764 -0.6758  0.2744
 5935SOL     OW29440   4.559   3.274   5.238 -0.4032 -0.0364 -0.8347
 5935SOL    HW129441   4.603   3.359   5.225  1.0179 -0.7504 -0.6803
 5935SOL    HW229442   4.581   3.255   5.329  0.3858  1.1317 -0.7744
 5936SOL     OW29443   3.108   4.382   2.823  0.4915  0.8303 -0.5324
 5936SOL    HW129444   3.181   4.326   2.796  1.1370  1.0658  0.7364
 5936SOL    HW229445   3.046   4.317   2.854  1.2085  0.0835 -0.6657
 5937SOL     OW29446   3.220   3.341  14.029  0.3808 -0.3831 -0.1444
 5937SOL    HW129447   3.163   3.334  13.952  1.6308 -0.3616 -1.0624
 5937SOL    HW229448   3.153   3.342  14.097  0.2902 -0.4384 -0.2330
 5938SOL     OW29449   1.050   2.549   7.601  0.0387 -0.3454  0.5612
 5938SOL    HW129450   1.021   2.482   7.663  0.9546 -0.2534  1.0848
 5938SOL    HW229451   0.967   2.582   7.568  0.0594 -2.5853 -1.7826
 5939SOL     OW29452   2.122   2.785   5.535  0.0543 -0.0870 -0.2128
 5939SOL    HW129453   2.171   2.706   5.513  1.0684  0.3301  0.5547
 5939SOL    HW229454   2.166   2.853   5.484 -1.0541 -0.8407 -2.1570
 5940SOL     OW29455   1.381   0.048  11.387 -0.6221 -0.4945  0.2124
 5940SOL    HW129456   1.335   0.128  11.361  1.7964  0.0818 -2.2691
 5940SOL    HW229457   1.354   4.731  11.315  1.0668  0.7599 -1.3966
 5941SOL     OW29458   3.593   3.295   0.952 -0.2355  0.8151 -0.2737
 5941SOL    HW129459   3.657   3.366   0.957  1.2959 -0.6029  0.3523
 5941SOL    HW229460   3.576   3.263   1.041  1.5226  0.1493 -0.1859
 5942SOL     OW29461   3.026   3.738   7.466 -0.1464  0.1112 -0.2219
 5942SOL    HW129462   3.060   3.827   7.458 -0.8357  0.1668 -2.5184
 5942SOL    HW229463   3.104   3.686   7.446 -0.9946 -1.0070 -0.6418
 5943SOL     OW29464   1.030   3.253   2.196  0.3821 -0.0266  0.0001
 5943SOL    HW129465   1.118   3.289   2.209 -0.3511  1.5113  0.7566
 5943SOL    HW229466   1.031   3.205   2.280  1.5279  1.7869  1.0221
 5944SOL     OW29467   1.302   0.339  17.361  0.0878 -0.5980  0.1762
 5944SOL    HW129468   1.377   0.287  17.390  0.5484  0.1327  0.2869
 5944SOL    HW229469   1.335   0.429  17.366  0.8312 -0.7936 -1.3887
 5945SOL     OW29470   1.483   0.064   3.961  0.2828  0.0466  0.3532
 5945SOL    HW129471   1.439   4.739   3.905 -0.9370  0.5850  0.7040
 5945SOL    HW229472   1.569   0.025   3.977  0.4737  0.0031 -0.7177
 5946SOL     OW29473   4.173   1.887   5.295 -0.3947 -0.5666 -0.3235
 5946SOL    HW129474   4.152   1.794   5.285  2.1082 -1.2353  0.8951
 5946SOL    HW229475   4.182   1.908   5.202  1.0616  2.3502  0.5014
 5947SOL     OW29476   1.029   1.255   3.129  0.0321  0.2010  0.8587
 5947SOL    HW129477   0.965   1.325   3.119  0.5715  0.3323 -1.7267
 5947SOL    HW229478   0.992   1.191   3.189 -0.2150 -0.1622  0.3213
 5948SOL     OW29479   2.332   4.470   8.203  0.5387 -0.5464 -0.1258
 5948SOL    HW129480   2.311   4.389   8.156 -2.8759 -0.4434  1.2831
 5948SOL    HW229481   2.399   4.428   8.257  0.7965 -2.4759 -1.9486
 5949SOL     OW29482   0.572   1.622  17.427  0.2555  0.0438  0.4765
 5949SOL    HW129483   0.564   1.645  17.334 -1.1728  4.7505  1.7550
 5949SOL    HW229484   0.659   1.653  17.450  0.2920  0.1832  0.1517
 5950SOL     OW29485   2.043   2.656   6.689 -0.3514 -0.3613  0.0913
 5950SOL    HW129486   2.029   2.746   6.662 -0.9576 -0.7207 -0.7817
 5950SOL    HW229487   2.085   2.623   6.609  0.6472 -1.0856  0.9056
 5951SOL     OW29488   0.208   0.584   2.496  0.5342 -0.1177  0.1339
 5951SOL    HW129489   0.225   0.490   2.490 -3.1832 -0.7351 -0.5616
 5951SOL    HW229490   0.115   0.583   2.476  0.6942 -0.8848 -0.5957
 5952SOL     OW29491   1.162   2.891   2.783 -0.0908  0.2133 -0.6356
 5952SOL    HW129492   1.249   2.931   2.780  0.8410 -1.5038  3.3466
 5952SOL    HW229493   1.125   2.929   2.863 -0.5938 -1.5982  0.0122
 5953SOL     OW29494   3.447   4.251  11.131 -0.0916 -0.0900  0.5578
 5953SOL    HW129495   3.455   4.206  11.047  2.7306  1.6025 -0.1040
 5953SOL    HW229496   3.352   4.260  11.135  0.2634  3.3949  0.9932
 5954SOL     OW29497   3.781   3.464  15.027  0.0312  0.1968  0.1881
 5954SOL    HW129498   3.702   3.474  15.080 -1.1562  0.8686 -1.6683
 5954SOL    HW229499   3.813   3.552  15.045 -1.1502  1.1652 -2.3892
 5955SOL     OW29500   0.215   1.691   2.534  0.1880  0.0815  0.0540
 5955SOL    HW129501   0.232   1.699   2.628 -0.6233  1.1052  0.1156
 5955SOL    HW229502   0.124   1.664   2.533  0.1857  0.0099  1.3329
 5956SOL     OW29503   3.905   0.064   0.086  0.1271  0.3960 -0.0879
 5956SOL    HW129504   3.997   0.044   0.069 -0.1456 -0.8556 -0.0645
 5956SOL    HW229505   3.853   0.019   0.019 -0.1533 -0.8195  0.9398
 5957SOL     OW29506   0.164   1.236   7.656  0.0831  0.2417  0.4379
 5957SOL    HW129507   0.102   1.294   7.700 -0.8365 -0.6216  0.2746
 5957SOL    HW229508   0.127   1.148   7.662 -1.5790  0.8508 -0.8784
 5958SOL     OW29509   2.841   2.774   5.450  0.0776 -0.1642  0.4447
 5958SOL    HW129510   2.914   2.716   5.431  0.4905 -0.0625  1.7288
 5958SOL    HW229511   2.786   2.787   5.372 -0.0919 -2.5023  0.1782
 5959SOL     OW29512   1.433   1.372   6.449  0.0670  0.0318 -0.5602
 5959SOL    HW129513   1.435   1.427   6.527 -1.8867 -1.0717  0.2479
 5959SOL    HW229514   1.340   1.353   6.451  0.5142 -2.0380  0.0017
 5960SOL     OW29515   2.894   2.465   3.523  0.1267 -0.1966 -0.1695
 5960SOL    HW129516   2.969   2.410   3.497 -0.3063 -1.0396  0.3507
 5960SOL    HW229517   2.843   2.408   3.580 -1.5378  0.2972 -1.1694
 5961SOL     OW29518   1.596   1.741  14.342  0.2864  0.3794 -0.0106
 5961SOL    HW129519   1.522   1.769  14.289 -0.2655  1.5013  1.3639
 5961SOL    HW229520   1.559   1.662  14.381  1.3055 -2.1014 -4.0906
 5962SOL     OW29521   1.625   1.714  17.174  0.4763 -0.0047  0.2354
 5962SOL    HW129522   1.647   1.682  17.087  1.9120  1.7192 -0.0306
 5962SOL    HW229523   1.586   1.799  17.151  2.6990  0.6757 -0.9684
 5963SOL     OW29524   4.483   0.631   6.592  0.0834  0.4019  0.1279
 5963SOL    HW129525   4.567   0.619   6.636 -0.8747 -1.8277  1.3540
 5963SOL    HW229526   4.471   0.726   6.593  3.5132  0.8080  0.2315
 5964SOL     OW29527   4.041   4.337  17.019 -0.1883 -0.0269 -0.3417
 5964SOL    HW129528   4.112   4.386  16.977 -0.9875  2.2683  1.0337
 5964SOL    HW229529   4.029   4.386  17.100 -4.0582 -1.0660 -0.2825
 5965SOL     OW29530   4.047   1.880   1.103  0.4528 -0.5588  0.3217
 5965SOL    HW129531   4.024   1.813   1.167  2.1261 -1.3503  0.0832
 5965SOL    HW229532   4.012   1.959   1.145  0.4738 -0.3693 -0.0148
 5966SOL     OW29533   0.745   1.964   2.145 -0.0667 -0.0956  0.0361
 5966SOL    HW129534   0.673   1.901   2.138  0.5390 -0.9428  1.4576
 5966SOL    HW229535   0.711   2.043   2.104  2.7648  2.1934  2.0643
 5967SOL     OW29536   4.222   3.849   0.228  0.0472  0.0317 -0.0213
 5967SOL    HW129537   4.234   3.823   0.320  0.0675 -1.6755 -0.5117
 5967SOL    HW229538   4.298   3.900   0.200  1.3133 -2.3915 -0.9728
 5968SOL     OW29539   0.877   3.486   9.013  0.5676 -0.5218 -0.6037
 5968SOL    HW129540   0.863   3.395   9.041  0.5199 -0.5594 -0.7526
 5968SOL    HW229541   0.914   3.526   9.092  1.8197  0.3027 -1.6090
 5969SOL     OW29542   1.749   2.534   4.591 -0.0936  0.1894 -0.0103
 5969SOL    HW129543   1.777   2.517   4.680  0.8822 -1.9529 -0.7228
 5969SOL    HW229544   1.764   2.448   4.550 -1.9438 -2.0616  4.0986
 5970SOL     OW29545   1.739   2.064  17.271 -0.9672  0.0841 -0.1100
 5970SOL    HW129546   1.702   1.982  17.305 -0.5113 -0.0549  0.0508
 5970SOL    HW229547   1.826   2.041  17.237 -2.2183 -1.6309 -2.1891
 5971SOL     OW29548   1.400   2.850   6.659 -0.4176 -0.8218  0.2250
 5971SOL    HW129549   1.368   2.915   6.596  0.3439  0.8598  1.5444
 5971SOL    HW229550   1.389   2.900   6.741 -3.0921 -0.6908 -0.2141
 5972SOL     OW29551   3.204   4.225  17.347 -0.4709 -0.1415  0.0148
 5972SOL    HW129552   3.221   4.183  17.263 -2.8590 -0.3096 -0.3646
 5972SOL    HW229553   3.110   4.206  17.346 -0.8523  1.7271  0.3142
 5973SOL     OW29554   2.356   0.358   8.316 -0.0061 -0.3520  0.4014
 5973SOL    HW129555   2.428   0.295   8.324 -0.7231 -1.5108 -2.2569
 5973SOL    HW229556   2.348   0.392   8.405 -0.0027  2.6830 -0.7717
 5974SOL     OW29557   2.233   4.626   5.845  0.5061 -0.3270  0.5345
 5974SOL    HW129558   2.215   4.541   5.806  1.8375  0.3137 -1.4609
 5974SOL    HW229559   2.323   4.641   5.816  0.5380  0.7100  1.1785
 5975SOL     OW29560   0.318   4.190   6.831  0.4230  0.2007 -0.4784
 5975SOL    HW129561   0.396   4.205   6.778  0.3732  0.6892 -0.4133
 5975SOL    HW229562   0.258   4.138   6.778  0.5099 -1.1452  0.7467
 5976SOL     OW29563   2.060   0.061  13.873 -0.1861 -0.0104  0.4938
 5976SOL    HW129564   2.035   0.125  13.940 -0.6224 -0.3983  0.7054
 5976SOL    HW229565   2.063   4.723  13.929  1.0396  0.3782  0.9641
 5977SOL     OW29566   4.538   2.455   9.069 -0.0969  0.2344  0.4516
 5977SOL    HW129567   4.508   2.391   9.004  2.0224 -1.2243  0.9297
 5977SOL    HW229568   4.481   2.529   9.046 -1.3689 -0.6721  0.6725
 5978SOL     OW29569   2.402   3.436  15.326  0.2953  0.0218  0.5746
 5978SOL    HW129570   2.401   3.418  15.420  0.6288  1.1247  0.7860
 5978SOL    HW229571   2.389   3.352  15.281 -1.3224 -0.0241  1.1529
 5979SOL     OW29572   3.683   0.623  16.541 -0.0109  0.5025 -0.4884
 5979SOL    HW129573   3.713   0.649  16.628  0.3488  2.4223 -1.1736
 5979SOL    HW229574   3.768   0.598  16.505 -1.0479 -0.9580 -1.8937
 5980SOL     OW29575   3.303   0.805  13.633 -0.4830 -0.3440 -0.1630
 5980SOL    HW129576   3.334   0.896  13.640 -0.2583 -0.3309 -1.2377
 5980SOL    HW229577   3.385   0.756  13.628 -0.4507 -0.1921 -1.1945
 5981SOL     OW29578   2.166   3.502   2.234 -0.3880  0.4212 -0.3120
 5981SOL    HW129579   2.081   3.496   2.191 -0.0537  0.0401 -0.9131
 5981SOL    HW229580   2.145   3.444   2.307  2.3298 -1.6783 -1.1961
 5982SOL     OW29581   1.796   2.688   3.487  0.3126  0.4252 -0.0853
 5982SOL    HW129582   1.742   2.698   3.565  0.3201 -1.1426  0.1165
 5982SOL    HW229583   1.747   2.756   3.440 -0.7228  0.0203  0.4148
 5983SOL     OW29584   1.039   2.865   1.725 -0.0788 -0.0074 -0.1365
 5983SOL    HW129585   1.047   2.934   1.659  0.0184 -1.3498 -1.5421
 5983SOL    HW229586   0.971   2.899   1.784  1.5236  0.8933  1.1795
 5984SOL     OW29587   3.991   3.169   2.882  0.4088  0.2393 -0.4680
 5984SOL    HW129588   4.019   3.110   2.812  0.0335  0.5757 -0.9038
 5984SOL    HW229589   3.905   3.184   2.843 -0.4064  0.1712  1.3163
 5985SOL     OW29590   2.816   3.514  14.213 -0.7865 -0.3239 -0.4955
 5985SOL    HW129591   2.875   3.492  14.141 -1.4933  0.9214 -1.4592
 5985SOL    HW229592   2.784   3.424  14.223 -2.7576  0.1787 -2.2030
 5986SOL     OW29593   4.197   3.011  13.653 -0.1725  0.0028 -0.3375
 5986SOL    HW129594   4.280   3.000  13.699 -0.7758 -0.3082  0.6770
 5986SOL    HW229595   4.139   3.055  13.716  2.6015  1.5538  1.1319
 5987SOL     OW29596   2.287   0.801   6.142 -0.5831  0.7556 -0.0670
 5987SOL    HW129597   2.351   0.771   6.077 -0.1162 -0.2564  0.8567
 5987SOL    HW229598   2.338   0.843   6.211  1.4807  2.1328 -2.4440
 5988SOL     OW29599   0.587   0.182   9.776  0.0074  0.1518 -0.1158
 5988SOL    HW129600   0.617   0.093   9.792  0.8399  0.3499 -0.5907
 5988SOL    HW229601   0.669   0.228   9.757  0.3007  0.0838  0.9800
 5989SOL     OW29602   4.428   0.269   2.113  0.0200  0.6751 -0.2036
 5989SOL    HW129603   4.508   0.227   2.081  0.6099  1.2070  0.5668
 5989SOL    HW229604   4.422   0.250   2.206 -0.6029 -1.2816 -0.6350
 5990SOL     OW29605   1.088   4.486   8.729 -0.2005  0.1490  0.4855
 5990SOL    HW129606   1.120   4.422   8.665 -1.7164  1.6195 -1.7735
 5990SOL    HW229607   0.994   4.491   8.715 -0.1740  0.1703  0.3109
 5991SOL     OW29608   2.099   2.633   3.060 -0.7618  0.3356 -0.1215
 5991SOL    HW129609   2.010   2.668   3.059 -1.3968 -1.3549 -4.0205
 5991SOL    HW229610   2.153   2.710   3.041 -1.9990  0.6652 -2.4078
 5992SOL     OW29611   2.082   1.061   5.558 -0.2253 -0.4559  0.3240
 5992SOL    HW129612   2.090   1.144   5.510 -1.9098 -1.1160 -1.0826
 5992SOL    HW229613   2.122   1.078   5.643  0.6680  0.2584 -0.2415
 5993SOL     OW29614   2.126   3.646   3.882 -0.7141 -0.1594  0.0070
 5993SOL    HW129615   2.105   3.606   3.967 -1.5688  0.8100  0.2591
 5993SOL    HW229616   2.221   3.655   3.888 -0.9143  1.0825  1.2275
 5994SOL     OW29617   3.619   0.757  14.412  0.0738 -0.2820 -0.2201
 5994SOL    HW129618   3.695   0.728  14.462 -0.2347  0.4070  0.6322
 5994SOL    HW229619   3.661   0.816  14.349  2.8936 -0.1949  1.7629
 5995SOL     OW29620   1.549   0.692   5.554  0.4216 -0.2441  0.5681
 5995SOL    HW129621   1.539   0.600   5.578 -1.2112  0.2141  1.6255
 5995SOL    HW229622   1.609   0.699   5.480 -0.6802  2.6619 -0.0640
 5996SOL     OW29623   2.244   1.723   5.332 -0.3378  0.0410  0.7753
 5996SOL    HW129624   2.167   1.667   5.344 -0.8737  0.6897  0.3523
 5996SOL    HW229625   2.254   1.765   5.418  0.1087 -2.4194  1.9112
 5997SOL     OW29626   1.032   3.031   7.155 -0.0211  0.8806  0.0060
 5997SOL    HW129627   0.974   3.079   7.097 -0.4217  1.1491  0.6346
 5997SOL    HW229628   1.032   3.098   7.223 -0.5139  1.7074 -0.8049
 5998SOL     OW29629   3.730   2.821   5.590 -0.0535 -0.7102  0.4057
 5998SOL    HW129630   3.666   2.784   5.651  0.0327 -0.5613  0.5852
 5998SOL    HW229631   3.756   2.900   5.638  1.3127 -1.2361  0.5409
 5999SOL     OW29632   3.550   2.476   4.984  0.0967 -0.1624  0.2631
 5999SOL    HW129633   3.500   2.394   4.977 -0.6012  0.1966  1.1239
 5999SOL    HW229634   3.502   2.540   5.036  3.5491  0.8978  2.1105
 6000SOL     OW29635   0.400   2.969   9.772 -0.2950  0.0715  0.6207
 6000SOL    HW129636   0.358   2.887   9.743 -0.2720 -0.9862  3.6262
 6000SOL    HW229637   0.344   3.039   9.738 -2.7842 -2.2025  0.0290
 6001SOL     OW29638   2.527   2.252   3.238  0.0581 -0.0225 -0.0168
 6001SOL    HW129639   2.526   2.277   3.146 -1.6410 -0.6393 -0.1714
 6001SOL    HW229640   2.451   2.299   3.271 -1.0224 -1.2735 -0.7451
 6002SOL     OW29641   1.570   1.551   8.642  0.1108  0.2558 -0.3969
 6002SOL    HW129642   1.491   1.519   8.686 -1.0786  0.2385 -2.5150
 6002SOL    HW229643   1.634   1.546   8.713 -0.3212  0.4954  0.0130
 6003SOL     OW29644   1.012   1.304   3.986  0.1552  0.2087 -0.4302
 6003SOL    HW129645   1.040   1.265   3.904 -0.7975 -0.3772 -0.4824
 6003SOL    HW229646   1.048   1.247   4.054  2.6335  1.1931 -0.9453
 6004SOL     OW29647   3.751   2.136  10.484  0.0526 -0.3543  0.4570
 6004SOL    HW129648   3.669   2.102  10.518 -0.3866  0.1062 -0.1431
 6004SOL    HW229649   3.739   2.166  10.394 -2.3678 -0.8258  0.6377
 6005SOL     OW29650   1.381   1.632   0.715 -0.0637  0.4061  0.2975
 6005SOL    HW129651   1.349   1.548   0.748 -0.6779  1.3323  2.0746
 6005SOL    HW229652   1.300   1.676   0.687 -0.9722 -0.9620  0.8162
 6006SOL     OW29653   3.000   4.355   1.581 -0.4946  0.7081 -0.1116
 6006SOL    HW129654   2.948   4.276   1.565 -0.7751  1.3103 -2.1610
 6006SOL    HW229655   3.034   4.370   1.493 -0.3029 -1.6104 -0.4230
 6007SOL     OW29656   4.158   1.087  14.756  0.2409 -0.4051  0.0203
 6007SOL    HW129657   4.243   1.071  14.715 -0.1924 -0.4841 -0.8407
 6007SOL    HW229658   4.116   1.002  14.740  0.7589 -0.8497  0.9993
 6008SOL     OW29659   4.666   0.263   7.196 -0.1638 -0.0635  0.6487
 6008SOL    HW129660   4.695   0.171   7.199  0.2851  0.0515 -0.0767
 6008SOL    HW229661   4.719   0.301   7.266 -1.0001  0.4520  1.0042
 6009SOL     OW29662   2.550   1.982   3.235 -0.7862  0.1137  0.5874
 6009SOL    HW129663   2.471   1.931   3.252  0.0530 -0.9287  1.3432
 6009SOL    HW229664   2.529   2.073   3.253 -0.1898  0.5442 -0.8503
 6010SOL     OW29665   3.131   1.794  11.921 -0.0851 -0.0357 -0.2323
 6010SOL    HW129666   3.180   1.823  11.844  0.6862  0.5923  0.4991
 6010SOL    HW229667   3.074   1.727  11.883  0.5337 -0.2593 -0.7613
 6011SOL     OW29668   3.861   3.024   5.801 -0.0126 -0.1742 -0.5526
 6011SOL    HW129669   3.874   3.021   5.896 -1.8329 -3.0806 -0.4314
 6011SOL    HW229670   3.774   2.986   5.798  0.2429 -0.8218  0.1361
 6012SOL     OW29671   1.852   1.452   2.700  0.6291  0.6627  0.4906
 6012SOL    HW129672   1.875   1.367   2.662  1.3316  0.0096  2.4076
 6012SOL    HW229673   1.936   1.495   2.710  0.9606  0.1188  0.0260
 6013SOL     OW29674   0.260   2.389   9.012 -0.5471  0.6179 -0.2697
 6013SOL    HW129675   0.342   2.436   9.022  0.3592 -1.4148  1.8911
 6013SOL    HW229676   0.284   2.306   9.052  0.1090  1.6211  1.4044
 6014SOL     OW29677   2.198   4.197   2.457  0.2328  0.1010  0.2383
 6014SOL    HW129678   2.223   4.163   2.543  1.9102 -1.6440 -0.9591
 6014SOL    HW229679   2.285   4.212   2.421  0.3885 -0.2970  0.4538
 6015SOL     OW29680   3.517   3.332   7.220  0.1953 -0.5997 -0.6584
 6015SOL    HW129681   3.425   3.322   7.242  0.1517 -0.4864 -0.7895
 6015SOL    HW229682   3.552   3.269   7.283  0.2932 -0.0880 -0.2016
 6016SOL     OW29683   0.877   1.829   1.912 -0.1576 -0.7701  0.5669
 6016SOL    HW129684   0.836   1.863   1.991 -0.5424  0.9854 -0.3711
 6016SOL    HW229685   0.942   1.896   1.893  1.3874 -3.4955 -3.8105
 6017SOL     OW29686   4.168   3.818   9.603 -0.1944  0.6460  0.0591
 6017SOL    HW129687   4.085   3.861   9.621 -1.3901 -1.2604 -0.8364
 6017SOL    HW229688   4.222   3.858   9.671 -0.9900  1.5175  0.1734
 6018SOL     OW29689   3.441   1.905  16.388  0.3093  0.0326 -0.6081
 6018SOL    HW129690   3.384   1.831  16.409 -1.2627  1.7034  1.0812
 6018SOL    HW229691   3.472   1.873  16.304 -1.2483 -0.8789 -0.8416
 6019SOL     OW29692   3.703   0.861  16.397 -0.4869 -0.1408 -0.2809
 6019SOL    HW129693   3.694   0.769  16.422 -1.3795  0.1751  0.5801
 6019SOL    HW229694   3.661   0.862  16.311 -0.4257  0.9766 -0.2954
 6020SOL     OW29695   3.827   2.317   0.495 -0.4540 -0.4461 -0.3028
 6020SOL    HW129696   3.871   2.399   0.473  0.3298 -0.4666  1.1910
 6020SOL    HW229697   3.901   2.257   0.487 -0.0558  0.0083 -0.0497
 6021SOL     OW29698   3.502   4.693   5.554  0.1761  0.4965  0.5433
 6021SOL    HW129699   3.565   4.656   5.616 -1.6017 -1.5848  1.0753
 6021SOL    HW229700   3.537   0.043   5.547 -0.1599  0.6905  1.3340
 6022SOL     OW29701   4.478   2.260  14.302  0.4267  0.3145 -0.0487
 6022SOL    HW129702   4.428   2.186  14.269  2.7709 -2.2321  2.1225
 6022SOL    HW229703   4.562   2.248  14.259 -0.1906 -0.0627 -1.1463
 6023SOL     OW29704   1.724   3.745   7.128  0.4352 -0.4953 -0.6834
 6023SOL    HW129705   1.797   3.703   7.174  0.1107  0.4660  0.6953
 6023SOL    HW229706   1.671   3.768   7.204 -2.7014 -2.4908 -2.2603
 6024SOL     OW29707   0.209   3.512   2.511 -0.1002  0.6077 -0.2128
 6024SOL    HW129708   0.153   3.584   2.481  1.1942  0.9424 -1.8143
 6024SOL    HW229709   0.149   3.449   2.551 -1.8043  1.2604 -1.7606
 6025SOL     OW29710   4.106   3.515  12.467 -0.4128 -0.4562  0.1009
 6025SOL    HW129711   4.102   3.446  12.533  4.5278 -1.5112 -0.7224
 6025SOL    HW229712   4.192   3.490  12.433 -0.1097  1.5750 -0.6283
 6026SOL     OW29713   1.010   3.139   2.455 -0.2467  0.2027  1.0244
 6026SOL    HW129714   0.917   3.127   2.475  0.1275 -0.9023  2.0288
 6026SOL    HW229715   1.012   3.233   2.476 -0.7347  0.5459 -0.4295
 6027SOL     OW29716   1.244   1.889   7.383  0.1819 -0.5795  0.2834
 6027SOL    HW129717   1.319   1.938   7.348  1.9636 -3.2610  0.2840
 6027SOL    HW229718   1.195   1.957   7.428  0.9926 -1.4896  2.5833
 6028SOL     OW29719   0.949   0.829   1.081  0.3309  0.7887  0.2645
 6028SOL    HW129720   0.869   0.821   1.132  0.1238 -0.3569 -0.2503
 6028SOL    HW229721   0.993   0.903   1.122 -0.6626  1.6444 -0.2032
 6029SOL     OW29722   4.305   2.658   9.714  0.3525  0.0780  0.2958
 6029SOL    HW129723   4.366   2.728   9.736 -1.2219  1.2365  0.9774
 6029SOL    HW229724   4.296   2.611   9.797 -1.3797 -0.4664 -0.1964
 6030SOL     OW29725   4.578   1.166   5.289 -0.3884 -0.1009 -0.1750
 6030SOL    HW129726   4.590   1.083   5.242  1.4144  0.8240 -1.3388
 6030SOL    HW229727   4.556   1.131   5.375 -1.9847  0.0538 -0.5234
 6031SOL     OW29728   0.870   1.221   0.384  0.2141 -0.5473 -0.4326
 6031SOL    HW129729   0.795   1.240   0.440  0.7664  0.9571 -0.2150
 6031SOL    HW229730   0.864   1.128   0.360  1.9955 -0.7050 -0.3222
 6032SOL     OW29731   0.138   0.255   6.144 -0.2732  0.3301 -0.6136
 6032SOL    HW129732   0.202   0.278   6.212  0.1660  1.0573 -1.2733
 6032SOL    HW229733   0.200   0.249   6.071  0.8415 -0.3904  0.3834
 6033SOL     OW29734   0.834   4.143   5.972  0.5729 -0.0471  0.0600
 6033SOL    HW129735   0.894   4.148   6.047 -1.5012  1.0169  1.6236
 6033SOL    HW229736   0.753   4.151   6.021  0.6971  1.9765 -0.0808
 6034SOL     OW29737   1.851   1.008   0.809  0.2145  0.3246  0.1761
 6034SOL    HW129738   1.915   1.057   0.861  0.8924  0.7205 -1.0262
 6034SOL    HW229739   1.888   1.010   0.720 -0.8484  0.1166 -0.2706
 6035SOL     OW29740   4.373   0.679   2.620  0.1870  0.1899 -0.3410
 6035SOL    HW129741   4.408   0.599   2.581 -1.2061 -0.9898  0.8674
 6035SOL    HW229742   4.334   0.704   2.536 -2.0346  1.9286  1.2120
 6036SOL     OW29743   2.294   1.872   7.915 -0.2570 -0.2284  0.0216
 6036SOL    HW129744   2.217   1.822   7.887 -0.8355  0.8077 -0.2352
 6036SOL    HW229745   2.343   1.879   7.833 -2.4738  0.2768 -1.2895
 6037SOL     OW29746   2.302   0.872   9.038 -0.1571  0.4727 -0.3749
 6037SOL    HW129747   2.288   0.878   9.132  1.5077 -0.2582 -0.0891
 6037SOL    HW229748   2.316   0.778   9.025  1.0969  0.5728  0.2404
 6038SOL     OW29749   3.379   3.537   3.988  0.4320  0.1062 -0.2702
 6038SOL    HW129750   3.400   3.630   3.982 -1.3942  0.5580  0.3961
 6038SOL    HW229751   3.288   3.552   3.964 -0.1968  2.5536  3.6643
 6039SOL     OW29752   4.234   1.148   3.640 -0.2597 -0.0399 -0.8107
 6039SOL    HW129753   4.149   1.132   3.683 -0.9477 -0.0028 -2.1751
 6039SOL    HW229754   4.236   1.060   3.602  0.2561 -0.9490  1.2925
 6040SOL     OW29755   4.334   1.255   2.846  0.0114 -0.1520 -0.0199
 6040SOL    HW129756   4.398   1.239   2.776 -1.4287 -3.4503 -0.5494
 6040SOL    HW229757   4.268   1.192   2.819  0.1032  0.0092 -0.6435
 6041SOL     OW29758   0.760   2.799  12.979  0.0346  0.2755 -0.0091
 6041SOL    HW129759   0.763   2.745  12.900 -0.7441  1.4440 -0.8383
 6041SOL    HW229760   0.757   2.735  13.050  2.1423  0.5334  0.3018
 6042SOL     OW29761   2.661   1.542  16.207  0.1042  0.5902 -0.4212
 6042SOL    HW129762   2.644   1.451  16.230  1.4465  0.4231 -0.1170
 6042SOL    HW229763   2.730   1.575  16.265 -0.5194 -2.0501  1.8307
 6043SOL     OW29764   3.774   3.938   5.682  0.3066  0.0968 -0.4033
 6043SOL    HW129765   3.709   3.872   5.659  1.4775 -0.8369 -0.9844
 6043SOL    HW229766   3.746   3.950   5.773 -3.5080  1.1503 -1.7372
 6044SOL     OW29767   2.152   3.619   4.186 -0.1865 -0.8281  0.3694
 6044SOL    HW129768   2.235   3.657   4.155 -0.4292  0.5709  1.4080
 6044SOL    HW229769   2.171   3.595   4.276 -0.8772 -0.3407  0.6440
 6045SOL     OW29770   1.984   3.540   8.687  0.1585  0.0853  0.5910
 6045SOL    HW129771   1.924   3.471   8.659  2.6955 -1.7243 -0.4438
 6045SOL    HW229772   2.019   3.516   8.773 -0.1924  1.1289  1.0259
 6046SOL     OW29773   3.415   0.187   6.734 -0.2252 -0.5532  0.4367
 6046SOL    HW129774   3.413   0.282   6.739  4.0190 -0.4259  0.0834
 6046SOL    HW229775   3.342   0.177   6.673 -0.0566  0.0618  0.1332
 6047SOL     OW29776   3.320   0.056   6.061 -0.1336 -0.0082  0.3051
 6047SOL    HW129777   3.255   0.089   6.123 -0.1808  2.1035 -0.8766
 6047SOL    HW229778   3.291   4.705   6.052  1.7159 -0.6910  1.1283
 6048SOL     OW29779   4.604   1.487   0.015 -0.3643  0.6292 -0.0429
 6048SOL    HW129780   4.619   1.577  17.745  0.6041 -0.2137 -2.3641
 6048SOL    HW229781   4.590   1.506   0.107 -0.3884 -3.4892  0.8350
 6049SOL     OW29782   1.855   2.328  17.010 -0.2721  0.3759  0.0555
 6049SOL    HW129783   1.764   2.334  17.039 -0.5310 -1.5248 -0.3966
 6049SOL    HW229784   1.842   2.285  16.926 -0.4833  1.7220 -0.5970
 6050SOL     OW29785   2.548   2.810  16.128  0.2116  0.0350 -0.1254
 6050SOL    HW129786   2.555   2.894  16.084 -0.9846  0.4916  0.5613
 6050SOL    HW229787   2.457   2.794  16.103 -0.1653 -1.1565  2.0718
 6051SOL     OW29788   0.147   4.003   7.154  0.3426 -0.0925 -0.0464
 6051SOL    HW129789   0.078   4.011   7.220  0.7020  0.8301  0.2191
 6051SOL    HW229790   0.139   3.914   7.119  1.2496 -0.2033  0.0423
 6052SOL     OW29791   2.541   2.716   6.044  0.2678  0.5756 -0.3424
 6052SOL    HW129792   2.569   2.802   6.075 -2.1334  0.1800  2.9454
 6052SOL    HW229793   2.601   2.657   6.090 -0.1246  1.2007  0.9680
 6053SOL     OW29794   1.139   1.943   8.595  0.1673  0.2719 -1.0408
 6053SOL    HW129795   1.184   1.861   8.571 -0.0548  0.1690 -1.1050
 6053SOL    HW229796   1.084   1.954   8.517 -2.8423 -1.0637  0.8999
 6054SOL     OW29797   4.016   4.471   5.322 -0.5504 -0.6159  0.5242
 6054SOL    HW129798   4.097   4.503   5.281 -0.2559 -2.5738 -0.4221
 6054SOL    HW229799   3.952   4.531   5.283 -1.0501 -0.9282  0.8638
 6055SOL     OW29800   0.424   1.041   7.963  0.4548 -0.1868 -0.6668
 6055SOL    HW129801   0.386   1.128   7.977 -0.4616 -0.5092 -1.1367
 6055SOL    HW229802   0.510   1.062   7.926  0.2449  0.3484 -0.8592
 6056SOL     OW29803   0.602   1.868   1.680  0.6253  0.5834 -0.1917
 6056SOL    HW129804   0.575   1.847   1.591  2.7843  0.7131 -0.8617
 6056SOL    HW229805   0.558   1.803   1.737  0.1017  0.5813 -0.5978
 6057SOL     OW29806   2.657   1.023   7.103 -0.0580 -0.1395  0.2831
 6057SOL    HW129807   2.693   0.998   7.018 -0.4133  1.3105 -0.2992
 6057SOL    HW229808   2.639   1.117   7.095  0.7657 -0.1469 -1.5932
 6058SOL     OW29809   2.679   3.437   6.034 -0.3235  0.1297  0.0749
 6058SOL    HW129810   2.667   3.531   6.026  0.5183  0.2645  0.3553
 6058SOL    HW229811   2.622   3.425   6.110 -0.4352 -0.6877 -0.1315
 6059SOL     OW29812   0.449   0.414   3.966  0.9628  0.2799 -0.1436
 6059SOL    HW129813   0.395   0.335   3.961 -0.9906  1.6506 -0.7438
 6059SOL    HW229814   0.489   0.412   3.879 -0.7878 -2.4767 -0.9161
 6060SOL     OW29815   4.331   3.029   7.148 -0.1008  0.2881 -0.3609
 6060SOL    HW129816   4.409   3.066   7.107  0.3720 -1.2084 -0.7822
 6060SOL    HW229817   4.270   3.048   7.076 -2.2330  0.4630  1.4733
 6061SOL     OW29818   1.686   1.179   5.420  0.2026  0.8657  0.6969
 6061SOL    HW129819   1.756   1.123   5.453  0.4797  1.3388  0.9139
 6061SOL    HW229820   1.604   1.130   5.431  0.8558 -0.0507  1.4552
 6062SOL     OW29821   3.405   1.291   5.296 -0.0447  0.1905 -0.0327
 6062SOL    HW129822   3.312   1.282   5.316 -0.1094 -1.8704 -1.2055
 6062SOL    HW229823   3.438   1.347   5.366  0.7925 -1.4089  0.8618
 6063SOL     OW29824   2.715   3.980   7.617  0.0070  0.4770 -0.2201
 6063SOL    HW129825   2.787   3.952   7.674 -1.5312 -3.4733 -0.2066
 6063SOL    HW229826   2.708   3.914   7.547  0.5177  0.7466 -0.5214
 6064SOL     OW29827   1.055   2.495   4.128 -0.0565 -0.5200  0.4711
 6064SOL    HW129828   1.021   2.575   4.087  1.1441  0.5607  1.6151
 6064SOL    HW229829   1.009   2.486   4.211  0.8699 -0.9300  0.9318
 6065SOL     OW29830   2.331   3.313  13.282 -0.1561  0.6232 -0.2150
 6065SOL    HW129831   2.421   3.336  13.257 -0.4861 -0.3155 -2.2697
 6065SOL    HW229832   2.291   3.399  13.292 -1.5066  0.2445 -2.4244
 6066SOL     OW29833   0.925   1.776   8.705  0.8064 -0.3334 -0.7528
 6066SOL    HW129834   0.896   1.732   8.625  0.8787 -1.5384 -0.1154
 6066SOL    HW229835   0.962   1.852   8.660  0.1871  2.6648  3.7101
 6067SOL     OW29836   4.103   3.424  14.705 -0.5344  0.0909  0.0281
 6067SOL    HW129837   4.127   3.345  14.655  0.6766 -0.1850  1.0579
 6067SOL    HW229838   4.033   3.388  14.760  0.3923  0.2833  1.3398
 6068SOL     OW29839   3.876   1.854  14.245  0.1532 -0.4312  0.7644
 6068SOL    HW129840   3.971   1.849  14.257  0.3095  1.1786  0.1373
 6068SOL    HW229841   3.859   1.811  14.161  0.9531 -1.5704  1.1733
 6069SOL     OW29842   2.378   2.718   5.836  0.5761 -0.0338  0.2247
 6069SOL    HW129843   2.383   2.810   5.810 -1.0689 -0.1254 -0.4129
 6069SOL    HW229844   2.449   2.722   5.900 -0.9914 -1.3251  2.0378
 6070SOL     OW29845   3.676   4.338   8.336 -0.5704 -0.1289 -0.0891
 6070SOL    HW129846   3.752   4.293   8.374 -0.7946  0.4597  1.0343
 6070SOL    HW229847   3.681   4.314   8.243  0.8401 -2.9220  0.6956
 6071SOL     OW29848   4.223   3.034  11.721 -0.0923  0.2708 -0.3747
 6071SOL    HW129849   4.230   3.002  11.631 -0.4537  0.1154 -0.3471
 6071SOL    HW229850   4.156   3.102  11.717  0.2979  0.6699 -0.1973
 6072SOL     OW29851   2.355   4.013   0.968 -0.2831 -0.2901 -0.5517
 6072SOL    HW129852   2.383   3.947   1.032 -0.5070 -0.3983 -0.5656
 6072SOL    HW229853   2.340   4.081   1.034 -0.5186 -0.4507 -0.4407
 6073SOL     OW29854   0.864   3.465   9.457  0.3702 -0.4511  0.0164
 6073SOL    HW129855   0.820   3.507   9.530  0.3408  0.5265 -0.5611
 6073SOL    HW229856   0.807   3.391   9.434 -0.4806 -0.1546  1.1831
 6074SOL     OW29857   3.636   1.327   7.153  0.4184 -0.1179  0.1847
 6074SOL    HW129858   3.671   1.297   7.237 -0.4370 -0.5758  0.3846
 6074SOL    HW229859   3.630   1.243   7.108  0.8823 -0.0376 -0.0258
 6075SOL     OW29860   0.696   3.460   4.964 -1.0294  0.2107  0.0282
 6075SOL    HW129861   0.617   3.439   4.914 -0.2911 -3.6075  0.5008
 6075SOL    HW229862   0.716   3.547   4.929  0.6232  0.1523  0.8224
 6076SOL     OW29863   2.004   0.226   7.197  0.0130 -0.6961 -0.2558
 6076SOL    HW129864   2.098   0.241   7.186  0.3451 -3.0063 -0.6376
 6076SOL    HW229865   1.991   0.315   7.229  2.5396 -0.3435 -0.1944
 6077SOL     OW29866   4.453   1.440   4.193  0.1246 -0.4206  0.1056
 6077SOL    HW129867   4.387   1.389   4.241 -0.7016  1.3611  0.8502
 6077SOL    HW229868   4.496   1.478   4.270 -1.0327 -0.9219  1.0000
 6078SOL     OW29869   3.803   0.410   2.417 -0.0398 -0.0937  0.3020
 6078SOL    HW129870   3.842   0.469   2.354  0.4944 -1.9964 -1.1362
 6078SOL    HW229871   3.887   0.378   2.451 -0.4032 -0.0998  1.2184
 6079SOL     OW29872   0.594   0.257   3.263 -0.2889  0.2075 -0.4116
 6079SOL    HW129873   0.607   0.277   3.171 -1.4608 -0.4122 -0.7060
 6079SOL    HW229874   0.588   0.162   3.265  1.0852  0.1194 -0.1200
 6080SOL     OW29875   0.335   3.188   8.099  0.1271  0.3379  0.3031
 6080SOL    HW129876   0.325   3.121   8.031 -1.7926 -0.1616  1.0640
 6080SOL    HW229877   0.333   3.138   8.180 -0.8839  1.5741  1.0401
 6081SOL     OW29878   1.069   2.015  12.820  0.2118 -0.3281 -0.1257
 6081SOL    HW129879   1.103   1.935  12.781  2.4749 -0.1201  1.4172
 6081SOL    HW229880   1.122   2.089  12.792  0.3896 -1.5171 -2.9138
 6082SOL     OW29881   1.633   1.800   9.006  0.7123  0.1708  0.2556
 6082SOL    HW129882   1.695   1.870   9.028  0.4844 -0.1162  1.8353
 6082SOL    HW229883   1.675   1.770   8.926  0.6575  0.3483  0.1593
 6083SOL     OW29884   2.693   1.303   5.805  0.6367 -0.6601 -0.4083
 6083SOL    HW129885   2.635   1.341   5.739 -1.4269 -2.0176  0.6103
 6083SOL    HW229886   2.662   1.364   5.871  0.1008 -1.4717  0.0930
 6084SOL     OW29887   0.110   0.929   5.761 -0.4255 -0.0532  0.3086
 6084SOL    HW129888   0.085   1.019   5.780 -2.7368 -0.3693 -1.2994
 6084SOL    HW229889   0.164   0.912   5.838  1.1920 -1.4235 -1.1027
 6085SOL     OW29890   3.059   2.174   7.057 -0.0034 -0.6870  0.4014
 6085SOL    HW129891   3.057   2.158   6.963  0.3219 -2.1036  0.6435
 6085SOL    HW229892   2.978   2.224   7.068 -0.5466 -1.0503 -2.0184
 6086SOL     OW29893   1.394   1.002   6.796 -0.9016  0.2631  0.0774
 6086SOL    HW129894   1.430   1.090   6.803  0.7992 -0.1068 -4.0461
 6086SOL    HW229895   1.329   1.004   6.866 -0.1272 -4.3635  0.9034
 6087SOL     OW29896   4.652   0.961  15.728 -0.1570 -0.3117  0.8371
 6087SOL    HW129897   0.002   0.993  15.730 -0.0510 -0.6162  0.8901
 6087SOL    HW229898   4.634   0.957  15.634  0.2039  2.0071  0.6626
 6088SOL     OW29899   1.096   0.458   7.659 -0.0824  0.3744  0.0909
 6088SOL    HW129900   1.165   0.509   7.615  0.6552  0.1336  0.9665
 6088SOL    HW229901   1.149   0.406   7.719 -1.8917 -0.5242  0.9103
 6089SOL     OW29902   3.263   3.445   0.611 -0.0689 -0.3965 -0.4035
 6089SOL    HW129903   3.260   3.532   0.570 -0.4139  0.1715  0.8057
 6089SOL    HW229904   3.328   3.454   0.680 -0.5214 -0.7388  0.0676
 6090SOL     OW29905   3.642   3.513  15.658 -0.4021 -0.0221 -0.0895
 6090SOL    HW129906   3.564   3.460  15.637 -0.1035 -0.9397  1.1322
 6090SOL    HW229907   3.703   3.455  15.703 -1.4061 -1.0703 -0.0525
 6091SOL     OW29908   3.563   3.018   8.763  0.1598 -0.0459 -0.2398
 6091SOL    HW129909   3.488   2.988   8.815  1.9875  1.2492  3.0662
 6091SOL    HW229910   3.576   3.100   8.809 -0.1859  1.4248 -2.7317
 6092SOL     OW29911   0.937   1.500   6.105 -0.5015  0.6037  0.1025
 6092SOL    HW129912   0.914   1.568   6.043 -0.2819 -1.7452 -2.5812
 6092SOL    HW229913   0.858   1.489   6.157 -1.2943  0.8820 -1.0590
 6093SOL     OW29914   2.634   0.471   2.599 -0.0048 -0.0129  0.6449
 6093SOL    HW129915   2.702   0.421   2.554  0.4737  0.0757  1.2705
 6093SOL    HW229916   2.636   0.558   2.559  0.4791  0.2688  1.2857
 6094SOL     OW29917   2.669   4.681   0.621  0.3924 -0.0157 -0.6687
 6094SOL    HW129918   2.645   4.603   0.570 -0.3701  1.2048 -2.1725
 6094SOL    HW229919   2.698   4.735   0.547  2.3641 -0.4543 -0.2103
 6095SOL     OW29920   4.644   1.817   6.768  0.7930 -0.0612 -0.7204
 6095SOL    HW129921   4.693   1.741   6.798  0.6912 -0.5024 -1.6878
 6095SOL    HW229922   4.708   1.844   6.702  0.5409  0.1800 -0.8669
 6096SOL     OW29923   3.530   0.327  10.681  0.7341 -0.8551 -0.1674
 6096SOL    HW129924   3.516   0.339  10.775  0.9945 -1.1915 -0.0850
 6096SOL    HW229925   3.624   0.310  10.681  0.8475 -0.1280 -1.3686
 6097SOL     OW29926   3.336   1.560  13.819 -0.1273 -0.2320  0.3361
 6097SOL    HW129927   3.245   1.533  13.812  0.0753 -0.5169 -1.1305
 6097SOL    HW229928   3.353   1.550  13.913  1.6377 -1.7788 -0.1479
 6098SOL     OW29929   2.392   3.359   4.258 -0.2831  0.1946  0.3553
 6098SOL    HW129930   2.469   3.357   4.314 -0.1016  0.8620  0.1253
 6098SOL    HW229931   2.321   3.375   4.320  0.0898  0.9883  0.5667
 6099SOL     OW29932   1.842   2.239  11.585  0.0857  0.0009  0.9861
 6099SOL    HW129933   1.771   2.268  11.642 -0.5692 -1.2038  0.7719
 6099SOL    HW229934   1.796   2.193  11.516 -1.1194  2.2971  0.2732
 6100SOL     OW29935   0.417   2.197   4.988  0.2256  0.1419 -0.0664
 6100SOL    HW129936   0.446   2.134   4.923 -0.4177 -0.4312  0.1947
 6100SOL    HW229937   0.482   2.193   5.059  1.0338  1.1757 -0.7464
 6101SOL     OW29938   2.239   1.273   7.085 -0.7761 -0.2098 -0.7040
 6101SOL    HW129939   2.271   1.326   7.012 -1.2920 -1.5175 -1.8683
 6101SOL    HW229940   2.153   1.315   7.091 -0.7883 -0.3215 -0.1284
 6102SOL     OW29941   4.481   0.056  12.072  0.3391 -0.4794 -0.1019
 6102SOL    HW129942   4.388   0.033  12.068  0.5256 -1.5773  1.5164
 6102SOL    HW229943   4.503   0.007  12.152  0.5244  1.0799  0.8065
 6103SOL     OW29944   0.460   0.533   0.839 -0.1864  0.5221 -0.5461
 6103SOL    HW129945   0.402   0.557   0.766 -0.2308 -0.2894 -0.7762
 6103SOL    HW229946   0.445   0.609   0.895  0.3445  0.5512 -0.4530
 6104SOL     OW29947   1.048   1.823  16.095  0.2581 -0.0379 -0.4528
 6104SOL    HW129948   0.992   1.899  16.107 -2.1877 -2.0207  0.7728
 6104SOL    HW229949   1.072   1.785  16.180 -3.3776 -0.3771  0.4257
 6105SOL     OW29950   3.197   0.883   5.735 -0.1779 -0.3668 -0.0135
 6105SOL    HW129951   3.228   0.795   5.715 -0.1542 -0.2536 -0.4672
 6105SOL    HW229952   3.268   0.928   5.689 -2.5008  0.3389 -2.8914
 6106SOL     OW29953   2.501   2.690  13.145 -0.3470  0.2892 -0.0735
 6106SOL    HW129954   2.544   2.642  13.216  0.3956  1.8474  0.5224
 6106SOL    HW229955   2.546   2.654  13.068  1.6913  2.6230  0.0364
 6107SOL     OW29956   4.608   1.727  11.805  0.1107  0.4943 -0.7181
 6107SOL    HW129957   4.623   1.632  11.804 -1.9267  0.1463  1.6560
 6107SOL    HW229958   4.662   1.746  11.882 -0.7397 -0.0749  0.0119
 6108SOL     OW29959   0.368   2.416   0.843 -0.1723 -0.4980  0.9334
 6108SOL    HW129960   0.342   2.484   0.780 -0.6880  0.1192  1.8187
 6108SOL    HW229961   0.393   2.345   0.783  3.4553  1.9773 -0.5166
 6109SOL     OW29962   0.019   3.065   8.832  0.8247 -0.0228 -0.8115
 6109SOL    HW129963   0.069   3.008   8.891 -1.0690 -2.5039 -1.5989
 6109SOL    HW229964   0.092   3.090   8.776  0.8340  1.5407 -0.1092
 6110SOL     OW29965   2.077   3.545   7.462  0.0453  0.3352 -0.3017
 6110SOL    HW129966   2.052   3.457   7.492 -1.4401  0.6888 -0.4725
 6110SOL    HW229967   2.042   3.604   7.529  0.3397  1.2267 -0.9451
 6111SOL     OW29968   0.152   0.718   2.742  0.6307 -0.1922  0.4986
 6111SOL    HW129969   0.151   0.802   2.696  0.9403 -1.0623 -1.0909
 6111SOL    HW229970   0.205   0.671   2.677  1.5375  2.1312 -0.4448
 6112SOL     OW29971   4.478   3.661   8.327  0.1230 -0.2079 -0.3446
 6112SOL    HW129972   4.458   3.668   8.420  2.9438  0.9707  0.1626
 6112SOL    HW229973   4.514   3.749   8.316  0.6622 -0.7502 -3.0246
 6113SOL     OW29974   3.292   0.342   7.475 -0.1090  0.1631 -0.2131
 6113SOL    HW129975   3.356   0.387   7.530  0.7117 -0.9608 -0.2382
 6113SOL    HW229976   3.209   0.382   7.499  0.0670 -0.5832  1.6490
 6114SOL     OW29977   2.670   2.772   1.103 -0.1861  0.1046  0.6255
 6114SOL    HW129978   2.648   2.788   1.012 -1.8485 -3.2702  0.4371
 6114SOL    HW229979   2.759   2.807   1.104  0.6289 -1.9394 -0.1537
 6115SOL     OW29980   4.031   3.700  15.245  0.0732 -0.6474 -1.0735
 6115SOL    HW129981   3.970   3.715  15.317  1.0172  1.4770 -0.7294
 6115SOL    HW229982   4.038   3.788  15.208  1.9716 -0.5932 -0.5816
 6116SOL     OW29983   2.824   0.110   0.818  0.5731 -0.3730 -0.1755
 6116SOL    HW129984   2.899   0.060   0.851 -0.1502 -0.4872  1.2881
 6116SOL    HW229985   2.776   0.043   0.770  1.5420  0.6968 -2.6650
 6117SOL     OW29986   2.951   2.628  16.939  0.2760 -0.2927 -0.3001
 6117SOL    HW129987   2.868   2.588  16.913 -0.9728  1.6762  0.6637
 6117SOL    HW229988   2.916   2.672  17.016  1.6608 -0.6117  0.5165
 6118SOL     OW29989   3.279   3.627   7.391  0.0723 -0.1265 -0.0305
 6118SOL    HW129990   3.357   3.608   7.445 -0.3080 -0.6428  0.3379
 6118SOL    HW229991   3.257   3.543   7.350  0.5167  0.4900 -1.5227
 6119SOL     OW29992   0.777   3.223   4.025  0.2267 -0.1389  0.8547
 6119SOL    HW129993   0.785   3.136   4.065 -0.1390 -0.4962  0.1454
 6119SOL    HW229994   0.800   3.272   4.103 -0.8301  0.6713  0.6617
 6120SOL     OW29995   3.276   4.431   6.893  0.1093 -0.2964  0.1979
 6120SOL    HW129996   3.327   4.511   6.906  1.6221 -1.7672  3.2902
 6120SOL    HW229997   3.354   4.381   6.868  1.0850  0.3969  1.8652
 6121SOL     OW29998   4.098   1.262   7.862 -0.4635  0.3488 -0.0513
 6121SOL    HW129999   4.066   1.172   7.864  0.9348 -0.2024 -1.7213
 6121SOL    HW230000   4.099   1.291   7.771 -0.4568 -1.0636 -0.5152
 6122SOL     OW30001   3.638   4.005   0.789 -0.5102  0.8019 -0.4249
 6122SOL    HW130002   3.620   4.098   0.807 -0.7589  0.7455 -0.3840
 6122SOL    HW230003   3.558   3.956   0.806  0.9706 -1.7409 -0.8835
 6123SOL     OW30004   1.096   1.411   5.399  0.7195  0.7535 -0.1441
 6123SOL    HW130005   1.134   1.391   5.313 -1.1995  1.9594 -1.2648
 6123SOL    HW230006   1.090   1.321   5.432 -0.5958  0.2247 -1.8227
 6124SOL     OW30007   2.333   0.299  10.238  0.2970  0.5238  0.6352
 6124SOL    HW130008   2.276   0.293  10.162  0.7853  2.9378  0.0736
 6124SOL    HW230009   2.393   0.225  10.240  0.7412  0.9281  2.1909
 6125SOL     OW30010   0.114   1.660  12.912 -0.0962  0.5238 -0.5195
 6125SOL    HW130011   0.170   1.735  12.930 -0.0482  0.2257  0.5689
 6125SOL    HW230012   0.024   1.691  12.920 -0.4879 -0.3902 -1.2558
 6126SOL     OW30013   2.120   0.307  10.024 -0.1107  0.0115  0.0190
 6126SOL    HW130014   2.088   0.224  10.061  0.5005 -0.1740  0.1232
 6126SOL    HW230015   2.061   0.368  10.068 -2.3629 -1.3225 -1.1132
 6127SOL     OW30016   1.571   1.513   1.947 -0.3021 -0.4501 -0.5019
 6127SOL    HW130017   1.663   1.530   1.926 -0.4373 -2.1905 -2.5113
 6127SOL    HW230018   1.536   1.602   1.947  1.2030  0.1394  0.1099
 6128SOL     OW30019   4.150   0.950   3.137  0.4038 -0.0309  0.1120
 6128SOL    HW130020   4.110   0.919   3.218 -2.5232 -0.7746 -1.6267
 6128SOL    HW230021   4.240   0.927   3.159 -0.8394 -2.4323  2.7178
 6129SOL     OW30022   4.612   2.825  16.589  0.9524 -0.0952  0.1759
 6129SOL    HW130023   4.698   2.862  16.607  0.7185 -0.9345  2.9569
 6129SOL    HW230024   4.623   2.730  16.593 -0.4007 -0.2739 -0.2900
 6130SOL     OW30025   1.536   2.646   1.381 -0.2324 -0.0996 -0.1725
 6130SOL    HW130026   1.496   2.670   1.297 -1.0114  1.3486  0.6223
 6130SOL    HW230027   1.602   2.587   1.344  0.5478  0.8162 -0.2312
 6131SOL     OW30028   0.589   1.729   8.734 -0.0084 -0.4728 -0.4782
 6131SOL    HW130029   0.640   1.650   8.751  0.5831 -0.0109 -0.0955
 6131SOL    HW230030   0.551   1.720   8.647  0.3572  1.8590 -0.8906
 6132SOL     OW30031   0.689   1.326   8.038  0.6243 -0.1141  0.4243
 6132SOL    HW130032   0.756   1.387   8.070  0.9492  0.4037 -1.2389
 6132SOL    HW230033   0.628   1.320   8.112 -0.9966  0.2269 -0.8909
 6133SOL     OW30034   1.202   2.493   8.949  0.1648  0.0507 -0.6635
 6133SOL    HW130035   1.165   2.417   8.995 -2.2330 -0.0290 -2.7361
 6133SOL    HW230036   1.237   2.543   9.023 -0.4682 -1.3541  0.5788
 6134SOL     OW30037   0.317   0.561   2.912 -0.1786 -0.1441  0.5071
 6134SOL    HW130038   0.241   0.521   2.954  1.8255 -2.3309  1.9886
 6134SOL    HW230039   0.270   0.613   2.847  2.0649 -1.8907 -2.4927
 6135SOL     OW30040   1.598   1.941  10.194  0.1168 -0.0364  0.5069
 6135SOL    HW130041   1.623   1.849  10.206 -0.6534 -0.2114  0.7216
 6135SOL    HW230042   1.513   1.932  10.151  1.0712 -0.2478 -1.3730
 6136SOL     OW30043   0.453   1.661   9.367  0.1477 -0.0853 -0.6135
 6136SOL    HW130044   0.399   1.733   9.334 -0.5830  0.8160  2.6070
 6136SOL    HW230045   0.383   1.596   9.379  1.5103 -1.7848 -1.8763
 6137SOL     OW30046   1.306   2.309   1.617 -0.1712 -0.1828 -0.9046
 6137SOL    HW130047   1.275   2.331   1.530 -3.3275 -1.3680 -0.0903
 6137SOL    HW230048   1.234   2.294   1.679  2.2977  1.0733  2.2896
 6138SOL     OW30049   2.880   1.291   5.605 -0.1881 -0.3000 -0.4158
 6138SOL    HW130050   2.819   1.281   5.679  0.2892 -1.6739 -0.2082
 6138SOL    HW230051   2.946   1.225   5.624 -0.8293 -0.5331  1.0401
 6139SOL     OW30052   4.372   1.287   1.580  0.1270  0.1694  0.2152
 6139SOL    HW130053   4.412   1.347   1.516 -2.8621  1.2476 -0.6515
 6139SOL    HW230054   4.450   1.256   1.626 -1.2100 -1.4545  1.3632
 6140SOL     OW30055   1.963   3.855   2.683  0.0159 -0.0536 -0.4345
 6140SOL    HW130056   1.975   3.799   2.760  1.2648 -0.8746 -1.2296
 6140SOL    HW230057   1.970   3.797   2.607  0.9037 -1.9211  1.0660
 6141SOL     OW30058   1.462   1.975   7.231 -0.0346  0.4638 -0.7703
 6141SOL    HW130059   1.476   2.068   7.252 -0.9642  0.2789  0.7069
 6141SOL    HW230060   1.442   1.967   7.138  1.9754  1.4558 -1.2872
 6142SOL     OW30061   0.159   1.512   8.169  0.6383 -0.4912 -0.0727
 6142SOL    HW130062   0.201   1.529   8.253  0.6208 -0.4207 -0.0780
 6142SOL    HW230063   0.071   1.544   8.185  1.4168  1.0143  1.2901
 6143SOL     OW30064   0.589   2.727   6.749  0.1885  0.0973  0.4183
 6143SOL    HW130065   0.668   2.683   6.780  0.0718 -1.1650 -1.0543
 6143SOL    HW230066   0.539   2.658   6.705  0.5346 -0.2102  0.5049
 6144SOL     OW30067   3.791   4.311   5.276 -0.3920 -0.1591  0.2574
 6144SOL    HW130068   3.863   4.366   5.306 -1.2327  0.6868  0.7405
 6144SOL    HW230069   3.826   4.224   5.293 -1.5585 -0.6898 -0.0287
 6145SOL     OW30070   4.017   3.761  10.845 -0.2872 -0.0066  0.2430
 6145SOL    HW130071   4.001   3.825  10.775 -0.3173 -1.8922 -1.4969
 6145SOL    HW230072   4.109   3.772  10.870 -0.5104  2.0871  0.1074
 6146SOL     OW30073   2.971   0.818  11.425 -0.2472 -0.0358 -0.6233
 6146SOL    HW130074   2.965   0.763  11.503 -0.0849  1.0668  0.1587
 6146SOL    HW230075   2.879   0.843  11.417 -0.1373 -0.0141 -1.7533
 6147SOL     OW30076   3.278   0.307  13.366 -0.1737 -0.5975 -0.0216
 6147SOL    HW130077   3.258   0.359  13.444  0.9968  0.4593 -0.4449
 6147SOL    HW230078   3.298   0.219  13.398  1.7444  0.4132  1.5558
 6148SOL     OW30079   2.958   4.267   0.613 -0.4500  0.3705 -0.3183
 6148SOL    HW130080   2.992   4.179   0.596 -5.0675 -1.4985 -0.0221
 6148SOL    HW230081   3.027   4.328   0.589 -1.9237  1.8269 -0.8263
 6149SOL     OW30082   1.070   2.904   1.385 -0.0409  0.1765 -0.4749
 6149SOL    HW130083   1.149   2.953   1.408  1.4665 -1.6554 -1.7205
 6149SOL    HW230084   1.015   2.952   1.446  1.6148  0.1968  1.0038
 6150SOL     OW30085   3.095   4.389  16.664  0.0627  0.1508 -0.3202
 6150SOL    HW130086   3.141   4.311  16.634  0.8825  0.5090 -0.0144
 6150SOL    HW230087   3.096   4.364  16.757  1.0067  0.8945 -0.1246
 6151SOL     OW30088   3.834   0.328   0.052 -0.2186  0.1240  0.7005
 6151SOL    HW130089   3.876   0.247   0.082  2.2055  0.1676 -2.5026
 6151SOL    HW230090   3.905   0.389   0.075 -0.7251  1.5805 -1.6255
 6152SOL     OW30091   3.647   2.726  17.128  0.3272  0.3263 -0.3599
 6152SOL    HW130092   3.706   2.728  17.053  0.7581  0.3104 -0.0261
 6152SOL    HW230093   3.686   2.650  17.171  0.9601  1.0970  0.4327
 6153SOL     OW30094   1.352   1.337   3.040 -0.4463 -0.1178  0.0386
 6153SOL    HW130095   1.410   1.375   2.974 -1.4248  1.2992 -0.0179
 6153SOL    HW230096   1.380   1.245   3.041 -2.6013 -0.7597  3.1269
 6154SOL     OW30097   1.130   1.008  10.045 -0.8611  0.1636  0.5822
 6154SOL    HW130098   1.220   1.033  10.065 -0.3136 -1.7109  0.5171
 6154SOL    HW230099   1.094   0.994  10.132 -0.9149  1.9212  0.8314
 6155SOL     OW30100   2.601   0.024   7.842  0.2516  0.6517  0.2685
 6155SOL    HW130101   2.513   0.060   7.851 -0.2377 -0.6345  0.6198
 6155SOL    HW230102   2.589   4.688   7.898 -1.2621 -0.6782 -1.8390
 6156SOL     OW30103   0.538   0.404   8.322 -0.2175  0.2685  0.8115
 6156SOL    HW130104   0.587   0.382   8.242  0.8719  1.5732  1.1155
 6156SOL    HW230105   0.623   0.423   8.363 -1.1307 -0.0866  2.8208
 6157SOL     OW30106   0.734   3.582   8.359 -0.1933 -0.4553  0.6087
 6157SOL    HW130107   0.703   3.647   8.296 -1.7503 -1.0092  0.7955
 6157SOL    HW230108   0.658   3.555   8.411 -0.8654 -0.2635 -0.2873
 6158SOL     OW30109   0.782   4.494  15.915  0.1754  0.1145 -0.3753
 6158SOL    HW130110   0.770   4.404  15.944 -1.0251  0.8254  1.3969
 6158SOL    HW230111   0.695   4.521  15.886  0.8151  2.0590 -0.4807
 6159SOL     OW30112   3.231   3.820   5.096  0.5215  0.4771 -0.0348
 6159SOL    HW130113   3.292   3.836   5.168 -1.7270 -0.8981  2.1986
 6159SOL    HW230114   3.262   3.737   5.059 -1.7818  0.2558 -1.4485
 6160SOL     OW30115   2.137   0.258  13.038 -0.1359 -0.0728 -0.7820
 6160SOL    HW130116   2.143   0.227  13.129  1.3721 -0.0839 -0.8889
 6160SOL    HW230117   2.041   0.254  13.042 -0.2418  1.2859 -2.4476
 6161SOL     OW30118   2.847   1.582   3.117  0.4979 -0.1418  0.5984
 6161SOL    HW130119   2.786   1.647   3.082 -0.8678 -2.4627 -1.3472
 6161SOL    HW230120   2.842   1.511   3.053  2.1914  0.0993  0.1760
 6162SOL     OW30121   2.486   0.914   3.805  0.0291  0.5083 -0.0963
 6162SOL    HW130122   2.455   1.004   3.795 -0.9409 -0.0478 -2.0255
 6162SOL    HW230123   2.461   0.894   3.895 -2.5774  0.0909 -0.9393
 6163SOL     OW30124   2.089   1.025   6.363 -0.3287  0.0890  0.0448
 6163SOL    HW130125   2.008   1.043   6.411 -0.3061 -0.8578  0.4500
 6163SOL    HW230126   2.094   0.930   6.375  1.8045  0.0800 -0.9159
 6164SOL     OW30127   1.253   4.262  17.307 -0.3196 -0.4880  0.4203
 6164SOL    HW130128   1.215   4.301  17.228 -0.3207 -0.1745  0.5771
 6164SOL    HW230129   1.326   4.211  17.271  0.8710  1.3392  0.2047
 6165SOL     OW30130   0.257   3.798  11.712  0.4084 -0.2926  0.1052
 6165SOL    HW130131   0.313   3.722  11.728  0.8707 -0.0379 -0.2861
 6165SOL    HW230132   0.257   3.789  11.616 -0.6744  1.4986 -0.0632
 6166SOL     OW30133   4.230   1.299   4.254 -0.4479 -0.6097 -0.3432
 6166SOL    HW130134   4.235   1.203   4.257 -2.3629 -0.7860 -2.7000
 6166SOL    HW230135   4.134   1.303   4.249 -0.4891 -0.9322  0.1764
 6167SOL     OW30136   1.564   2.488   6.615 -0.4531  0.7594  0.1787
 6167SOL    HW130137   1.542   2.492   6.522  1.5468  0.9576 -0.2884
 6167SOL    HW230138   1.567   2.580   6.641 -1.0547  0.4877  1.2121
 6168SOL     OW30139   0.023   1.501   3.663 -0.2034  0.1801  0.0738
 6168SOL    HW130140   0.036   1.412   3.694  1.2289  0.5087  0.4070
 6168SOL    HW230141   4.713   1.483   3.583  0.1620  1.1519 -0.3736
 6169SOL     OW30142   3.211   2.599   4.134  0.0510  0.3878  0.0510
 6169SOL    HW130143   3.119   2.600   4.109 -0.0132 -0.0335  0.2651
 6169SOL    HW230144   3.241   2.514   4.103 -1.0901 -0.0541  0.1479
 6170SOL     OW30145   2.118   0.475  10.609  0.1722 -0.1010  0.4956
 6170SOL    HW130146   2.206   0.453  10.640  0.3528  0.0224  0.0609
 6170SOL    HW230147   2.132   0.562  10.571 -0.1255 -0.3365 -0.1445
 6171SOL     OW30148   0.190   2.969  11.124  0.0871 -0.2689  0.5272
 6171SOL    HW130149   0.201   3.053  11.079  0.6729 -0.5114  0.2180
 6171SOL    HW230150   0.280   2.938  11.107 -0.0461  0.8943 -2.4026
 6172SOL     OW30151   3.673   0.434   5.273  0.1463  0.2169 -0.0173
 6172SOL    HW130152   3.597   0.489   5.288 -0.4913 -0.2016 -1.7228
 6172SOL    HW230153   3.700   0.472   5.190  0.3678 -0.3094 -0.1831
 6173SOL     OW30154   1.006   0.092   3.147  0.5648 -0.4066 -0.1241
 6173SOL    HW130155   0.959   0.017   3.111 -1.1287 -0.2107  1.6603
 6173SOL    HW230156   0.936   0.117   3.208  0.2280 -1.4918 -0.0774
 6174SOL     OW30157   3.230   2.908  12.336 -0.2674 -0.1789  0.1857
 6174SOL    HW130158   3.287   2.833  12.356  1.6025  1.5764  1.4443
 6174SOL    HW230159   3.151   2.866  12.300  0.1124 -1.5320  0.9159
 6175SOL     OW30160   4.034   0.841   4.258 -0.6747  0.0719  0.2773
 6175SOL    HW130161   3.966   0.819   4.194  0.0996 -0.2025 -0.4557
 6175SOL    HW230162   4.010   0.783   4.330  0.0275 -1.1383 -0.4578
 6176SOL     OW30163   4.602   4.135   0.529  0.3051 -0.3190 -0.5067
 6176SOL    HW130164   4.527   4.187   0.560  0.6449 -0.9960  1.4775
 6176SOL    HW230165   4.619   4.162   0.439 -3.9118  1.8124 -0.6906
 6177SOL     OW30166   1.971   2.120   0.550 -0.3627 -0.1768 -0.2794
 6177SOL    HW130167   1.880   2.124   0.521 -0.9842  1.8797  1.8970
 6177SOL    HW230168   1.988   2.210   0.521 -0.8304  0.3543  1.0680
 6178SOL     OW30169   3.024   0.351  15.452 -0.1596 -0.7234 -0.3661
 6178SOL    HW130170   2.997   0.331  15.542  1.0184 -0.8461 -0.0289
 6178SOL    HW230171   3.013   0.263  15.415  1.5536 -0.7034 -0.9440
 6179SOL     OW30172   1.103   0.773   7.306  0.4401 -0.4513  0.1683
 6179SOL    HW130173   1.015   0.768   7.343 -1.3100 -1.3904 -4.1419
 6179SOL    HW230174   1.119   0.862   7.337 -0.3567 -0.1374 -0.3264
 6180SOL     OW30175   1.329   2.519   5.024  0.7672  0.1653 -0.3602
 6180SOL    HW130176   1.335   2.609   4.992 -0.6858  0.2022 -0.5389
 6180SOL    HW230177   1.406   2.514   5.080 -0.1689 -2.0780  0.6970
 6181SOL     OW30178   2.722   1.540   2.471  0.3005 -0.4732 -0.1539
 6181SOL    HW130179   2.684   1.616   2.427 -1.1375 -1.2344 -0.2319
 6181SOL    HW230180   2.750   1.492   2.393  0.2242 -1.9979  0.7640
 6182SOL     OW30181   1.167   0.740   9.004 -0.9034  0.0949  0.3448
 6182SOL    HW130182   1.195   0.832   9.013  1.0255 -0.4461 -0.1087
 6182SOL    HW230183   1.123   0.748   8.919  0.5688  1.6809 -0.2571
 6183SOL     OW30184   1.092   1.578  12.152  0.0970  0.6540 -0.0915
 6183SOL    HW130185   1.064   1.659  12.109  0.6913  0.4543 -0.8343
 6183SOL    HW230186   1.011   1.527  12.148  0.7388 -0.4891  1.1591
 6184SOL     OW30187   1.333   0.241  11.217  0.4396 -0.1483  0.0499
 6184SOL    HW130188   1.417   0.225  11.173 -0.3744  1.4388 -2.0931
 6184SOL    HW230189   1.326   0.335  11.200  1.7355 -0.1562 -0.5618
 6185SOL     OW30190   0.083   1.101  12.557 -0.0329 -0.0698 -0.3364
 6185SOL    HW130191   0.132   1.100  12.639 -1.6388 -4.1846  0.5394
 6185SOL    HW230192   0.044   1.189  12.565 -0.1044 -0.1678  0.4125
 6186SOL     OW30193   0.809   4.240   1.292  0.3426  0.0787 -0.1332
 6186SOL    HW130194   0.902   4.226   1.274  0.4893  1.9034 -0.8089
 6186SOL    HW230195   0.774   4.208   1.209 -0.1786 -1.9033  0.8584
 6187SOL     OW30196   2.746   2.459  17.096 -0.0975 -0.1885 -0.3486
 6187SOL    HW130197   2.719   2.511  17.020 -0.4166  0.5317  0.2613
 6187SOL    HW230198   2.691   2.503  17.160  0.6876 -1.8908  1.4871
 6188SOL     OW30199   3.862   0.234  15.454 -0.0803  0.0960  0.1487
 6188SOL    HW130200   3.883   0.327  15.468 -1.1228  0.6038 -1.7424
 6188SOL    HW230201   3.926   0.227  15.383  0.6969  1.6391  0.6793
 6189SOL     OW30202   4.008   0.906   3.378  0.2792 -0.4734 -0.6176
 6189SOL    HW130203   3.928   0.955   3.400 -0.5495 -1.1715 -2.0384
 6189SOL    HW230204   3.988   0.815   3.398 -1.3544  0.3117  1.2401
 6190SOL     OW30205   4.037   0.663   3.508  0.3041 -0.6680 -0.2352
 6190SOL    HW130206   3.953   0.622   3.530  0.2340  0.0262  0.7957
 6190SOL    HW230207   4.074   0.604   3.442  2.0874  0.4222 -0.2245
 6191SOL     OW30208   4.563   4.602  16.075 -0.5256  0.0586  0.2344
 6191SOL    HW130209   4.495   4.594  16.009 -0.3594 -2.8931  0.4266
 6191SOL    HW230210   4.640   4.588  16.020 -0.6292 -0.7140  0.2801
 6192SOL     OW30211   2.451   4.504  13.676 -0.2574  0.3958  0.0278
 6192SOL    HW130212   2.546   4.497  13.671 -0.4217 -0.6064 -1.9465
 6192SOL    HW230213   2.430   4.488  13.768  1.7276 -0.8098  0.2666
 6193SOL     OW30214   3.862   4.337  10.389 -0.1537 -0.3819 -0.2177
 6193SOL    HW130215   3.837   4.422  10.425 -2.3272 -1.8494  1.7797
 6193SOL    HW230216   3.830   4.279  10.459  1.0954 -0.6384  0.1333
 6194SOL     OW30217   3.780   3.364   4.800 -0.3296 -0.2024 -0.5433
 6194SOL    HW130218   3.830   3.296   4.754  2.4124 -0.1212  2.2930
 6194SOL    HW230219   3.833   3.440   4.779 -0.2857 -0.4368 -1.2664
 6195SOL     OW30220   2.178   0.272  11.744 -0.3243  0.3271  0.1567
 6195SOL    HW130221   2.111   0.212  11.777  0.6651 -0.7144  0.2613
 6195SOL    HW230222   2.191   0.238  11.655  0.8768 -0.7294  0.7413
 6196SOL     OW30223   0.462   0.767  16.916 -0.3095 -0.2408 -0.6424
 6196SOL    HW130224   0.413   0.755  16.997 -1.2922 -0.8084 -1.3162
 6196SOL    HW230225   0.473   0.862  16.918  3.2988 -0.6661  0.0253
 6197SOL     OW30226   2.489   2.560   4.123 -0.3406 -0.4464  0.2653
 6197SOL    HW130227   2.504   2.498   4.194 -0.2611 -0.7997 -0.0634
 6197SOL    HW230228   2.406   2.603   4.146 -0.0265 -0.4150  1.3517
 6198SOL     OW30229   4.519   2.204   2.717  0.4372  0.3871 -0.2058
 6198SOL    HW130230   4.492   2.291   2.689 -1.9719  0.2247  1.7123
 6198SOL    HW230231   4.615   2.206   2.719  0.4539 -1.2284  0.5776
 6199SOL     OW30232   1.480   0.904   4.523  0.9415  0.2206 -0.0179
 6199SOL    HW130233   1.494   0.816   4.487  0.8354 -0.2304  1.0394
 6199SOL    HW230234   1.461   0.950   4.441 -0.4869  0.8312  0.6653
 6200SOL     OW30235   2.317   4.073  13.656 -0.1037 -0.3569 -0.0328
 6200SOL    HW130236   2.388   4.068  13.720 -0.8865 -1.2344  0.7748
 6200SOL    HW230237   2.237   4.066  13.708 -1.9766  0.7604 -2.7617
 6201SOL     OW30238   1.251   3.000   4.717 -0.0939 -0.4893  0.7303
 6201SOL    HW130239   1.233   3.092   4.697  0.6238 -0.2526  1.2077
 6201SOL    HW230240   1.337   2.995   4.757  0.0027 -0.8441  0.4854
 6202SOL     OW30241   3.511   1.208  10.896 -0.2101 -0.1870  0.4367
 6202SOL    HW130242   3.490   1.246  10.811 -1.9642  2.4831  2.0838
 6202SOL    HW230243   3.484   1.118  10.880 -2.9905  1.0019 -1.4108
 6203SOL     OW30244   0.169   1.142  13.620  0.0350 -0.3176 -0.2131
 6203SOL    HW130245   0.146   1.059  13.579 -0.7379 -0.6312  0.8448
 6203SOL    HW230246   0.247   1.159  13.568  1.2759 -0.9746  1.4181
 6204SOL     OW30247   1.639   2.210   2.012 -0.2498 -0.2569  0.0910
 6204SOL    HW130248   1.641   2.305   2.009 -1.5460 -0.1852  1.5582
 6204SOL    HW230249   1.733   2.192   2.015  0.1063  1.8200  1.0777
 6205SOL     OW30250   1.216   3.334   2.407  0.0447  0.0030  0.1225
 6205SOL    HW130251   1.252   3.311   2.321  3.4267 -1.4232  1.9070
 6205SOL    HW230252   1.282   3.297   2.466 -0.5432 -0.3653  0.5437
 6206SOL     OW30253   0.623   3.869   6.994 -0.0206 -0.1422 -0.4127
 6206SOL    HW130254   0.550   3.931   6.985 -2.1067 -2.1858  2.5525
 6206SOL    HW230255   0.618   3.860   7.089 -1.2224  1.5253 -0.3150
 6207SOL     OW30256   4.348   4.542   7.233  0.4015  0.1533 -0.5032
 6207SOL    HW130257   4.425   4.495   7.265  1.3397  1.4474 -0.8462
 6207SOL    HW230258   4.332   4.494   7.152 -0.2279 -1.6063  0.6598
 6208SOL     OW30259   3.960   1.518   6.327  0.2478  0.0920 -0.1753
 6208SOL    HW130260   3.888   1.554   6.275  0.9935  0.8817 -0.6680
 6208SOL    HW230261   3.918   1.519   6.413  1.1481 -1.2876  0.2820
 6209SOL     OW30262   0.823   0.220   6.532  0.5872 -0.5336 -0.2608
 6209SOL    HW130263   0.837   0.258   6.445  0.9063  2.5681  1.1496
 6209SOL    HW230264   0.853   0.133   6.506  3.9084  0.6923 -0.5876
 6210SOL     OW30265   4.645   1.541   5.369 -0.0710  0.2258 -0.1751
 6210SOL    HW130266   4.660   1.622   5.320  0.3979  0.8280  0.9776
 6210SOL    HW230267   4.606   1.578   5.448 -0.4926 -1.5021  0.4216
 6211SOL     OW30268   3.884   3.355   8.312  0.2683 -0.3225 -0.1621
 6211SOL    HW130269   3.935   3.432   8.288  0.9568 -0.4798  0.7873
 6211SOL    HW230270   3.951   3.296   8.348  0.8057  1.9698  2.6197
 6212SOL     OW30271   2.468   0.953   8.437  0.2329 -0.1097 -0.6360
 6212SOL    HW130272   2.381   0.939   8.474  0.3865  0.2035 -0.1593
 6212SOL    HW230273   2.483   1.044   8.462 -0.4395 -0.1588 -0.0631
 6213SOL     OW30274   2.230   2.328   4.559 -0.2686  0.1638 -0.4551
 6213SOL    HW130275   2.290   2.399   4.536 -0.5654  0.4370 -0.3732
 6213SOL    HW230276   2.221   2.340   4.653 -0.7864 -2.4984 -0.1503
 6214SOL     OW30277   2.723   1.705   1.616 -0.2536 -0.0605  0.0170
 6214SOL    HW130278   2.704   1.612   1.610 -1.9207  0.3505 -1.0681
 6214SOL    HW230279   2.814   1.707   1.585 -0.2562  0.1356  0.0212
 6215SOL     OW30280   2.132   4.178   7.343 -0.1571  1.0655  0.2744
 6215SOL    HW130281   2.217   4.148   7.310 -0.6284  0.6672 -0.5514
 6215SOL    HW230282   2.079   4.136   7.276  0.6149 -0.0394  0.3550
 6216SOL     OW30283   2.613   0.486   3.976 -0.2673  0.3069 -0.2695
 6216SOL    HW130284   2.686   0.549   3.985  0.8696 -0.8093 -1.6927
 6216SOL    HW230285   2.575   0.514   3.893  0.7707 -0.7880 -1.1130
 6217SOL     OW30286   0.826   2.954   4.442  0.6347  0.5746 -0.9412
 6217SOL    HW130287   0.874   3.025   4.485  1.7487 -0.0450 -1.1508
 6217SOL    HW230288   0.871   2.875   4.473  0.0950  0.2199 -1.0555
 6218SOL     OW30289   1.210   2.641   9.186  0.0584 -0.1598  0.1196
 6218SOL    HW130290   1.261   2.631   9.267 -0.1341 -0.1996  0.2369
 6218SOL    HW230291   1.126   2.668   9.222  0.6317  0.3473  1.0967
 6219SOL     OW30292   3.493   3.170   1.652 -0.3487 -0.1860  0.0753
 6219SOL    HW130293   3.449   3.088   1.674  0.2801 -0.2661  1.0455
 6219SOL    HW230294   3.428   3.231   1.687  1.2515  1.2517  0.5151
 6220SOL     OW30295   1.996   2.432   9.902 -0.2547  0.1453 -0.2722
 6220SOL    HW130296   1.950   2.396   9.978  0.8266 -0.6556  0.0105
 6220SOL    HW230297   1.936   2.501   9.875 -1.5665 -0.2986  1.4889
 6221SOL     OW30298   0.996   4.466  16.301 -0.2529 -0.1757 -0.0401
 6221SOL    HW130299   0.979   4.524  16.227  1.4053 -0.9003 -0.9940
 6221SOL    HW230300   1.092   4.476  16.304 -0.4621  1.0072  2.2294
 6222SOL     OW30301   0.475   0.349   1.837 -0.1397  0.2135 -0.1616
 6222SOL    HW130302   0.534   0.411   1.880  1.2434 -1.2816  0.0790
 6222SOL    HW230303   0.427   0.414   1.785  1.2465  1.5087  0.1826
 6223SOL     OW30304   2.653   0.105   2.984 -0.3706 -0.2256  0.2790
 6223SOL    HW130305   2.559   0.122   2.972  0.2824  1.4941 -2.3793
 6223SOL    HW230306   2.658   0.017   2.945  1.1191  0.1953 -0.4574
 6224SOL     OW30307   0.064   2.428   4.247 -0.4408  0.7593  0.6315
 6224SOL    HW130308   0.056   2.453   4.339 -1.8691 -2.3546  1.3744
 6224SOL    HW230309   0.080   2.511   4.203 -1.0171  0.0881 -0.8466
 6225SOL     OW30310   2.247   1.256  13.033 -0.1618 -0.0881 -0.0432
 6225SOL    HW130311   2.307   1.181  13.032  0.2085  0.2120 -0.2407
 6225SOL    HW230312   2.178   1.220  13.089 -0.5023  1.2713  0.4134
 6226SOL     OW30313   2.178   3.934   2.273 -0.0200  0.1061 -0.1797
 6226SOL    HW130314   2.252   3.988   2.300 -0.3619 -0.5107  2.0369
 6226SOL    HW230315   2.222   3.856   2.240 -0.1318  0.1508 -0.4331
 6227SOL     OW30316   0.358   0.586   1.758  0.0858 -0.2017 -0.3823
 6227SOL    HW130317   0.342   0.602   1.851  1.7250  3.7818 -0.7783
 6227SOL    HW230318   0.293   0.644   1.718  0.5983  0.7646  0.1786
 6228SOL     OW30319   4.484   3.456   9.048  0.0768  0.6007  0.4124
 6228SOL    HW130320   4.566   3.406   9.045  0.3595  0.9245  2.7683
 6228SOL    HW230321   4.417   3.391   9.071  0.5163  0.1168  0.3349
 6229SOL     OW30322   1.179   0.279   6.708  0.1518  0.0230  0.3882
 6229SOL    HW130323   1.180   0.367   6.672  0.5657 -0.2285 -0.2081
 6229SOL    HW230324   1.271   0.256   6.694 -0.7114 -1.8932 -2.2412
 6230SOL     OW30325   4.225   1.186   9.955 -0.5687 -0.0469 -0.2282
 6230SOL    HW130326   4.154   1.204  10.017  1.0898 -0.1376  1.6779
 6230SOL    HW230327   4.262   1.274   9.943 -2.3842  1.0148  1.9887
 6231SOL     OW30328   1.614   2.327   4.252  0.7036  0.1418  0.0954
 6231SOL    HW130329   1.679   2.291   4.312 -0.6415 -0.6389  1.0855
 6231SOL    HW230330   1.638   2.295   4.165  0.7803 -0.9721  0.5191
 6232SOL     OW30331   2.126   0.698   4.695  0.5727  0.1665 -0.1377
 6232SOL    HW130332   2.186   0.624   4.706 -0.9770 -0.9432  0.8329
 6232SOL    HW230333   2.199   0.760   4.695  1.8044 -1.2694  0.7736
 6233SOL     OW30334   3.647   1.458  15.661 -0.2005 -0.2908 -0.3521
 6233SOL    HW130335   3.648   1.550  15.634 -0.2842 -0.3510 -0.5602
 6233SOL    HW230336   3.569   1.427  15.615 -0.9680 -1.2421  1.5916
 6234SOL     OW30337   0.905   2.128   5.171  0.3968  0.1374  0.5653
 6234SOL    HW130338   0.856   2.191   5.118  0.0554 -0.6975 -0.1171
 6234SOL    HW230339   0.823   2.090   5.203  0.4964 -0.1362  0.4959
 6235SOL     OW30340   1.599   0.568   9.724  0.6227  0.0421  0.5775
 6235SOL    HW130341   1.521   0.528   9.762 -0.0655  0.7013 -0.1289
 6235SOL    HW230342   1.590   0.559   9.629 -0.0162  2.6682  0.3915
 6236SOL     OW30343   0.472   2.337   2.548  0.7901  0.9604  0.2209
 6236SOL    HW130344   0.528   2.282   2.494 -0.2859  0.3998 -0.3352
 6236SOL    HW230345   0.538   2.383   2.600 -0.1015 -0.0986  2.2938
 6237SOL     OW30346   0.786   0.480   3.076 -0.0452 -0.6988 -0.5246
 6237SOL    HW130347   0.712   0.532   3.107  0.4871  0.5902 -1.4099
 6237SOL    HW230348   0.812   0.428   3.152 -2.1487 -2.0242 -0.7264
 6238SOL     OW30349   1.902   2.407  16.104 -0.3169  0.1320  0.4323
 6238SOL    HW130350   1.977   2.357  16.138  0.7512  0.5944 -1.2603
 6238SOL    HW230351   1.840   2.369  16.166 -1.7772  3.7086  1.1675
 6239SOL     OW30352   2.068   3.140   6.175 -0.0286 -0.2575 -0.0988
 6239SOL    HW130353   2.110   3.095   6.248  0.1093  0.9344  0.5721
 6239SOL    HW230354   2.017   3.067   6.141 -1.0127  1.4716 -2.3370
 6240SOL     OW30355   1.738   1.544   5.066 -0.0592  0.5964  0.2431
 6240SOL    HW130356   1.718   1.470   5.123  1.0639 -0.4440 -0.7141
 6240SOL    HW230357   1.677   1.532   4.993 -0.9246  0.5875  0.9703
 6241SOL     OW30358   0.361   0.472   8.553 -0.3801 -0.4053  0.0792
 6241SOL    HW130359   0.285   0.495   8.500 -0.7149 -1.8208 -0.0628
 6241SOL    HW230360   0.428   0.488   8.487 -1.1054  1.6122 -0.1546
 6242SOL     OW30361   0.795   4.426   6.361  0.2785  0.2657  0.0302
 6242SOL    HW130362   0.863   4.397   6.423 -0.5645 -0.1625  0.7610
 6242SOL    HW230363   0.835   4.391   6.282  1.0893  0.5080  0.3268
 6243SOL     OW30364   0.384   2.691   7.806 -0.2646 -0.0005  0.7109
 6243SOL    HW130365   0.310   2.680   7.866 -1.7010 -4.1053 -1.7409
 6243SOL    HW230366   0.446   2.631   7.846 -0.1313 -1.0143 -1.0144
 6244SOL     OW30367   1.703   4.217   3.270 -0.2655 -0.2127  0.6792
 6244SOL    HW130368   1.790   4.177   3.270  1.2679  3.0893 -1.0388
 6244SOL    HW230369   1.652   4.150   3.315 -0.0859 -0.9471 -0.2134
 6245SOL     OW30370   1.433   0.868   2.874  0.5229  0.0874 -0.1735
 6245SOL    HW130371   1.471   0.831   2.795  0.1956 -0.4008 -0.1024
 6245SOL    HW230372   1.339   0.876   2.856  0.8832  0.1958 -1.9932
 6246SOL     OW30373   3.100   1.169   5.728 -0.3232 -0.1348 -0.2504
 6246SOL    HW130374   3.188   1.200   5.706  0.5224 -0.8974  2.1014
 6246SOL    HW230375   3.105   1.075   5.742 -0.3784 -0.2938 -1.3072
 6247SOL     OW30376   3.981   0.888   9.761 -0.8416 -0.5870 -0.2846
 6247SOL    HW130377   3.950   0.885   9.670 -2.1519  0.0916  0.1353
 6247SOL    HW230378   4.054   0.826   9.757 -0.6833 -0.6266  2.9999
 6248SOL     OW30379   3.883   2.283   3.286  0.1196 -0.1785  0.1635
 6248SOL    HW130380   3.864   2.194   3.254 -1.8704 -0.7733  2.9488
 6248SOL    HW230381   3.804   2.330   3.261  0.9622  0.1040 -1.9294
 6249SOL     OW30382   0.147   2.861   4.906  0.1404  0.3579 -0.3077
 6249SOL    HW130383   0.147   2.790   4.969  2.1545  1.2957  0.7439
 6249SOL    HW230384   0.111   2.935   4.956 -0.3370  1.3659 -2.1326
 6250SOL     OW30385   3.574   1.463   6.737 -1.1012 -0.2050 -0.6021
 6250SOL    HW130386   3.525   1.478   6.818 -0.1217  0.2553 -0.1021
 6250SOL    HW230387   3.532   1.519   6.672 -0.1137  1.1124 -0.0852
 6251SOL     OW30388   0.032   4.053  11.144 -0.6215  0.2339 -0.0767
 6251SOL    HW130389   0.121   4.071  11.177 -1.0600  0.5356  0.9423
 6251SOL    HW230390   4.718   4.027  11.219  0.0123 -2.5696 -0.6160
 6252SOL     OW30391   2.971   1.518   2.853  0.5574  0.2929 -0.4933
 6252SOL    HW130392   2.900   1.565   2.809  0.4291  1.3143  0.8118
 6252SOL    HW230393   2.996   1.460   2.780 -2.3017  1.0247 -2.0511
 6253SOL     OW30394   0.790   2.296  16.133 -0.7450  0.0204  0.0925
 6253SOL    HW130395   0.764   2.344  16.055  1.4922  1.2497  0.1035
 6253SOL    HW230396   0.846   2.228  16.096  2.2366  0.5061  3.7280
 6254SOL     OW30397   2.919   2.083  13.421 -0.2964 -0.0631 -0.2667
 6254SOL    HW130398   3.010   2.088  13.392 -0.3078  2.2211  0.1214
 6254SOL    HW230399   2.918   2.156  13.483  0.0117 -2.3006  2.3801
 6255SOL     OW30400   1.827   1.342   6.976 -0.0918  0.4153  0.2785
 6255SOL    HW130401   1.781   1.420   7.006  0.0362 -0.2566  2.1941
 6255SOL    HW230402   1.909   1.355   7.025  1.0234  0.8206 -1.6865
 6256SOL     OW30403   1.866   2.298   5.510  0.0687  0.3813  0.0272
 6256SOL    HW130404   1.930   2.363   5.482 -0.3330  1.2346  1.0826
 6256SOL    HW230405   1.859   2.252   5.427  1.3641  2.8178 -1.4347
 6257SOL     OW30406   2.600   2.351   2.604  0.1944 -0.0636 -0.2841
 6257SOL    HW130407   2.610   2.258   2.584 -0.1903 -0.2426  0.3574
 6257SOL    HW230408   2.504   2.350   2.613  0.1215 -0.7463 -1.2085
 6258SOL     OW30409   2.130   3.487  14.141  0.1767  0.0241 -0.0155
 6258SOL    HW130410   2.074   3.410  14.130  0.1816 -0.1234  0.9625
 6258SOL    HW230411   2.141   3.494  14.236  3.0676  0.0847 -0.3466
 6259SOL     OW30412   2.869   3.946  11.503  0.5055 -0.1697  0.0455
 6259SOL    HW130413   2.838   3.864  11.541  0.6531 -0.0740  0.3731
 6259SOL    HW230414   2.858   3.927  11.410 -0.9090  0.4656  0.0768
 6260SOL     OW30415   3.908   3.229   4.593  0.5653  0.1358 -0.2361
 6260SOL    HW130416   3.918   3.154   4.534  1.1872 -1.8266  2.3527
 6260SOL    HW230417   3.884   3.299   4.533 -1.2025 -0.9533 -0.7808
 6261SOL     OW30418   0.842   4.008   8.794 -0.2451  0.1453 -0.2026
 6261SOL    HW130419   0.899   3.931   8.798 -0.5641 -0.2069 -2.5371
 6261SOL    HW230420   0.868   4.039   8.881  0.8645 -1.2022 -0.0456
 6262SOL     OW30421   1.768   1.026   3.407 -0.4075 -0.0471  0.3248
 6262SOL    HW130422   1.745   1.072   3.488  1.7179  0.2197  0.7702
 6262SOL    HW230423   1.765   1.089   3.336  0.1039 -1.6532 -1.1095
 6263SOL     OW30424   0.861   1.322   7.748 -0.5258  0.5696 -0.1463
 6263SOL    HW130425   0.777   1.369   7.741 -1.2197 -1.2051 -3.3751
 6263SOL    HW230426   0.897   1.376   7.818 -1.1478  0.0451  0.5819
 6264SOL     OW30427   1.886   2.998   1.815 -0.0004  0.0848  0.0391
 6264SOL    HW130428   1.820   2.928   1.818  0.0497  0.1159  2.0834
 6264SOL    HW230429   1.945   2.975   1.888 -0.9019  0.9104  1.0249
 6265SOL     OW30430   1.051   1.117   8.106 -0.2353 -0.3230 -0.3481
 6265SOL    HW130431   1.144   1.126   8.124  0.2720 -1.5482 -2.2967
 6265SOL    HW230432   1.047   1.070   8.022 -1.9958 -1.0454  0.1296
 6266SOL     OW30433   1.099   3.057   4.205 -0.2586  0.0107  1.0066
 6266SOL    HW130434   1.188   3.081   4.180  0.1816 -2.2443  0.3834
 6266SOL    HW230435   1.123   3.002   4.280  1.0767 -2.0107 -0.8991
 6267SOL     OW30436   1.430   3.441   1.713 -0.3573  0.1159 -0.3077
 6267SOL    HW130437   1.523   3.420   1.700 -0.0963  0.3947  1.0515
 6267SOL    HW230438   1.430   3.533   1.688 -1.9899  0.1782 -0.0161
 6268SOL     OW30439   2.980   2.946   4.124 -0.1857  0.2704  0.2935
 6268SOL    HW130440   3.069   2.929   4.095 -0.4332  1.7783 -1.3246
 6268SOL    HW230441   2.990   3.022   4.182  2.2641 -0.9013  1.4063
 6269SOL     OW30442   3.724   1.211   1.560 -0.4923  0.0624 -0.4238
 6269SOL    HW130443   3.776   1.289   1.580  0.2661 -0.5060 -0.1958
 6269SOL    HW230444   3.706   1.180   1.648  0.7960  1.0549  0.1876
 6270SOL     OW30445   3.162   3.652   7.117 -0.1951 -0.6704 -0.0108
 6270SOL    HW130446   3.249   3.666   7.082  0.1022  0.8557  1.3258
 6270SOL    HW230447   3.180   3.665   7.210 -0.1302  1.4833 -0.3421
 6271SOL     OW30448   1.111   4.267   7.440 -0.0600  0.2474 -0.4219
 6271SOL    HW130449   1.167   4.339   7.412 -0.1746 -0.8826 -3.5371
 6271SOL    HW230450   1.070   4.238   7.358  0.2399  1.7096 -1.0873
 6272SOL     OW30451   3.609   4.501   0.046 -0.4594  0.1294 -0.3183
 6272SOL    HW130452   3.657   4.422   0.024 -0.5864  0.4611 -1.7551
 6272SOL    HW230453   3.520   4.488   0.013 -0.9141 -0.9466  1.2914
 6273SOL     OW30454   0.628   4.337   8.255  0.1809  0.0046  0.1184
 6273SOL    HW130455   0.674   4.366   8.334  1.5709  1.4420 -1.2085
 6273SOL    HW230456   0.543   4.379   8.270 -0.2641 -1.2948  1.2366
 6274SOL     OW30457   2.943   0.207   5.072  0.7496  0.0592 -0.3715
 6274SOL    HW130458   2.864   0.257   5.090  0.3808 -0.5582 -0.2758
 6274SOL    HW230459   3.014   0.270   5.080 -0.6042  1.4740  0.3596
 6275SOL     OW30460   4.615   3.862  11.325 -0.1485 -0.2362  0.2775
 6275SOL    HW130461   4.566   3.825  11.252  2.1799  1.5105 -2.1519
 6275SOL    HW230462   4.550   3.908  11.377  0.4224  1.1194 -0.2262
 6276SOL     OW30463   2.955   3.413  15.024  0.0123  0.2568 -0.6869
 6276SOL    HW130464   2.940   3.328  15.066 -1.1943  0.8322  0.0509
 6276SOL    HW230465   2.863   3.441  15.019  0.0137  0.6493  1.6429
 6277SOL     OW30466   4.130   4.643  11.361 -0.0138 -0.0402  0.0204
 6277SOL    HW130467   4.074   4.720  11.355  0.1015 -0.0225 -0.7885
 6277SOL    HW230468   4.084   4.593  11.428  0.7544 -0.8194 -0.0340
 6278SOL     OW30469   3.670   3.474   9.621  0.0618  0.2617  0.2764
 6278SOL    HW130470   3.637   3.413   9.687  0.8116  0.9935  1.3342
 6278SOL    HW230471   3.697   3.552   9.670 -1.8239  1.8480 -1.2323
 6279SOL     OW30472   0.688   1.269   3.652 -0.1447 -0.8207  0.1032
 6279SOL    HW130473   0.613   1.209   3.650 -0.3281 -0.6014  0.4237
 6279SOL    HW230474   0.700   1.279   3.746  2.3814  1.6131 -0.4922
 6280SOL     OW30475   2.003   4.561   3.227  0.0730  0.7127  0.3455
 6280SOL    HW130476   2.085   4.607   3.207  0.8104 -1.0956 -0.7928
 6280SOL    HW230477   1.945   4.570   3.153 -0.7823 -0.5957  0.8575
 6281SOL     OW30478   3.112   4.484  11.935  0.4262  0.4912  0.6112
 6281SOL    HW130479   3.140   4.442  11.854 -1.9064  0.8585 -0.3729
 6281SOL    HW230480   3.147   4.574  11.929 -1.4445  1.1107 -0.8671
 6282SOL     OW30481   4.555   2.907   8.723  0.5413 -0.3063  0.0062
 6282SOL    HW130482   4.596   2.852   8.656 -0.1783 -0.1488 -0.5604
 6282SOL    HW230483   4.634   2.950   8.758  0.3825  0.2826 -0.3694
 6283SOL     OW30484   0.098   3.752   8.844 -0.5014 -0.0199  0.4942
 6283SOL    HW130485   0.029   3.695   8.880  1.5903 -2.7559  0.1599
 6283SOL    HW230486   0.171   3.736   8.905 -1.0693 -0.2473  1.1219
 6284SOL     OW30487   2.271   2.718   4.160 -0.1998 -0.5625  0.4061
 6284SOL    HW130488   2.280   2.813   4.150  1.2914 -0.8051 -0.5975
 6284SOL    HW230489   2.244   2.711   4.252  0.9441 -1.6266  0.6697
 6285SOL     OW30490   1.310   0.560   6.371 -0.1231  0.0957 -0.0260
 6285SOL    HW130491   1.326   0.467   6.355  2.3010  0.4225  0.4449
 6285SOL    HW230492   1.401   0.584   6.392 -0.5604  0.7878  1.1293
 6286SOL     OW30493   3.264   1.828   2.000  0.2313 -0.3321  0.0755
 6286SOL    HW130494   3.337   1.825   1.938 -1.7575 -2.3412 -2.1542
 6286SOL    HW230495   3.305   1.871   2.074 -1.6369 -2.4164  2.3279
 6287SOL     OW30496   4.201   4.285   9.040  0.5116 -0.4119  0.6387
 6287SOL    HW130497   4.201   4.201   9.086  0.0632  0.0527  1.4785
 6287SOL    HW230498   4.174   4.343   9.111 -2.2194 -0.2544 -0.5246
 6288SOL     OW30499   1.492   4.519   1.611  0.1450 -0.4157  0.1351
 6288SOL    HW130500   1.404   4.497   1.642  1.5898 -1.8515  3.2395
 6288SOL    HW230501   1.528   4.432   1.590  3.4079  0.4060  2.2182
 6289SOL     OW30502   2.612   0.556   9.180  0.4229 -0.4881 -0.0422
 6289SOL    HW130503   2.573   0.469   9.176 -1.2352  0.2342  0.4458
 6289SOL    HW230504   2.687   0.544   9.238 -1.1800  0.2117  2.1850
 6290SOL     OW30505   3.440   1.937   1.536  0.3390 -0.3659  0.2953
 6290SOL    HW130506   3.363   1.960   1.482 -0.6253 -0.2150  1.7314
 6290SOL    HW230507   3.445   2.010   1.598 -0.6565  0.7296 -0.9095
 6291SOL     OW30508   3.236   3.744   0.665  0.1992 -0.0725 -0.2541
 6291SOL    HW130509   3.276   3.802   0.599  0.5139  1.3029  1.1411
 6291SOL    HW230510   3.275   3.779   0.745 -2.6840  0.4913  0.8884
 6292SOL     OW30511   2.456   3.479   6.605 -0.0892  0.3096  0.1807
 6292SOL    HW130512   2.392   3.408   6.607  0.9690 -0.6383  0.1177
 6292SOL    HW230513   2.423   3.531   6.679 -2.8640 -1.3796  0.1458
 6293SOL     OW30514   3.893   2.942   8.187 -0.1477 -0.4963 -0.3870
 6293SOL    HW130515   3.939   2.917   8.268  0.0147 -1.3496 -0.7390
 6293SOL    HW230516   3.927   3.026   8.158  0.0349 -0.3996  0.1072
 6294SOL     OW30517   3.446   0.274  17.534  0.0393 -0.3214  0.4921
 6294SOL    HW130518   3.375   0.303  17.477 -1.4087 -0.3898  2.2883
 6294SOL    HW230519   3.463   0.351  17.588  2.2821 -0.7207  0.3736
 6295SOL     OW30520   2.157   1.160   0.374 -0.0805  0.6950 -0.0686
 6295SOL    HW130521   2.176   1.250   0.348 -0.9153  1.2908  1.3624
 6295SOL    HW230522   2.135   1.164   0.468 -1.9265  0.7157 -0.4943
 6296SOL     OW30523   2.389   2.473  17.020  0.2012 -0.2816 -0.3990
 6296SOL    HW130524   2.436   2.441  17.097 -0.3282  0.2681  0.1529
 6296SOL    HW230525   2.425   2.418  16.951 -1.2800 -0.5930 -0.9110
 6297SOL     OW30526   4.029   0.652   2.718 -0.0270 -0.0699 -0.2010
 6297SOL    HW130527   3.980   0.577   2.751 -2.6495  1.0008 -1.7700
 6297SOL    HW230528   4.089   0.657   2.793 -1.1166  1.2604  0.5961
 6298SOL     OW30529   4.656   4.336   1.816 -0.3063 -0.0512 -0.1118
 6298SOL    HW130530   4.716   4.409   1.797 -1.3029  0.8024  0.0305
 6298SOL    HW230531   4.576   4.387   1.809 -0.8533 -0.3131  4.3673
 6299SOL     OW30532   1.362   1.031   8.466 -0.1400  0.6814  0.6137
 6299SOL    HW130533   1.439   1.032   8.523 -0.5918 -0.0330  1.2291
 6299SOL    HW230534   1.299   1.066   8.529 -1.0344  1.1390 -0.5327
 6300SOL     OW30535   4.445   0.210  16.001  0.5416 -0.0485 -0.0080
 6300SOL    HW130536   4.507   0.277  16.030  0.4624  0.3355 -0.7217
 6300SOL    HW230537   4.471   0.182  15.913 -0.6384 -2.5762  0.4559
 6301SOL     OW30538   2.505   0.434  14.376  0.6137 -0.4550  0.2355
 6301SOL    HW130539   2.505   0.374  14.451 -1.4451 -1.1013 -0.3016
 6301SOL    HW230540   2.420   0.421  14.334 -0.4139  2.2430  1.4417
 6302SOL     OW30541   1.532   3.501   3.548  0.2886  0.5736 -0.4248
 6302SOL    HW130542   1.475   3.539   3.614 -0.2746 -0.2839 -0.4261
 6302SOL    HW230543   1.570   3.430   3.598  0.6834  0.2408 -1.1970
 6303SOL     OW30544   3.693   1.319   9.992  0.3241  0.3345 -0.1882
 6303SOL    HW130545   3.703   1.410  10.019  1.8316  0.2381 -0.4373
 6303SOL    HW230546   3.750   1.275  10.055  2.2157  0.9621 -1.4869
 6304SOL     OW30547   1.142   0.070   9.635 -0.1956  0.3782 -0.4167
 6304SOL    HW130548   1.099   0.054   9.719  0.2951 -0.4810 -0.3215
 6304SOL    HW230549   1.069   0.072   9.574  0.6845  0.6371 -1.4649
 6305SOL     OW30550   0.947   3.944   7.556  0.0929  0.2457  0.1494
 6305SOL    HW130551   0.976   3.890   7.482  1.2038 -3.2615  3.1737
 6305SOL    HW230552   1.014   4.012   7.558 -1.2997  1.6295 -0.0285
 6306SOL     OW30553   0.882   1.906   4.937 -0.2193 -0.5448  0.4924
 6306SOL    HW130554   0.882   2.000   4.957  0.8807 -0.1992 -1.0960
 6306SOL    HW230555   0.967   1.876   4.967  0.4838  1.0570  0.0704
 6307SOL     OW30556   3.202   4.561   2.505  0.2484  0.0633  0.1271
 6307SOL    HW130557   3.206   4.609   2.422  2.4459  0.2264  0.3355
 6307SOL    HW230558   3.118   4.598   2.532  0.8233  0.9977  0.6289
 6308SOL     OW30559   3.339   0.826  11.191  0.0231  0.4300 -0.2585
 6308SOL    HW130560   3.412   0.772  11.222  0.7155  0.3920 -1.9859
 6308SOL    HW230561   3.385   0.871  11.120 -1.3653  1.9773 -0.1880
 6309SOL     OW30562   1.249   4.162  14.112  0.5823  0.5879  0.2955
 6309SOL    HW130563   1.341   4.183  14.094  0.7308  0.2993  0.7221
 6309SOL    HW230564   1.227   4.106  14.038  1.2893 -0.7112  1.0549
 6310SOL     OW30565   4.408   0.371   7.573 -0.2033  0.2021  0.1745
 6310SOL    HW130566   4.341   0.339   7.514  1.3215 -0.6508 -1.0901
 6310SOL    HW230567   4.405   0.463   7.548 -0.4420  0.8604  2.5660
 6311SOL     OW30568   1.392   3.900  14.180  0.0714 -0.0268  0.2818
 6311SOL    HW130569   1.329   3.872  14.114 -0.1290  1.1550 -0.0198
 6311SOL    HW230570   1.426   3.982  14.145  1.0839 -0.4632  0.2651
 6312SOL     OW30571   1.696   3.208   6.135  0.2389 -0.3444 -0.3981
 6312SOL    HW130572   1.638   3.156   6.190 -0.7296 -1.3049 -2.3297
 6312SOL    HW230573   1.645   3.215   6.054  0.9206  0.0743 -0.7977
 6313SOL     OW30574   2.797   3.183   1.611  0.3816 -0.5140 -0.1075
 6313SOL    HW130575   2.737   3.150   1.544  0.4672 -2.4075  0.7582
 6313SOL    HW230576   2.737   3.189   1.684  0.4365  1.7365 -0.2344
 6314SOL     OW30577   3.052   0.270   8.477 -0.2014  0.2670  0.0623
 6314SOL    HW130578   3.010   0.273   8.562  0.0888 -0.1698  0.2202
 6314SOL    HW230579   3.142   0.251   8.503  0.1430  0.8760 -0.6666
 6315SOL     OW30580   2.958   1.280   6.805 -0.1739  0.1751 -0.1193
 6315SOL    HW130581   2.975   1.281   6.899  0.0667 -0.1744 -0.1588
 6315SOL    HW230582   2.876   1.327   6.790 -0.2483  0.7178  2.0777
 6316SOL     OW30583   4.204   1.738   9.456  0.0683  0.2201  0.3273
 6316SOL    HW130584   4.246   1.680   9.518  0.2927  2.2695  2.0844
 6316SOL    HW230585   4.277   1.758   9.397  2.3983  0.2051  3.2217
 6317SOL     OW30586   1.864   1.241   5.794  0.3293 -0.0870 -0.1295
 6317SOL    HW130587   1.787   1.234   5.737 -0.6505 -1.6287  1.4012
 6317SOL    HW230588   1.855   1.155   5.835  3.2707 -1.4111 -2.2825
 6318SOL     OW30589   1.722   2.579   2.604 -0.0458  0.1435 -0.1549
 6318SOL    HW130590   1.667   2.658   2.611  0.0499  0.4648 -3.0071
 6318SOL    HW230591   1.670   2.517   2.655 -0.3572  2.2775  2.1208
 6319SOL     OW30592   0.867   3.273  11.993 -0.8132  0.1840 -0.3408
 6319SOL    HW130593   0.947   3.307  12.032 -1.4982  1.0336  0.3152
 6319SOL    HW230594   0.905   3.226  11.919  0.2357 -0.1986  0.4442
 6320SOL     OW30595   2.610   3.286   2.208 -0.3889 -0.2668  0.2966
 6320SOL    HW130596   2.683   3.301   2.269  0.2289 -0.7783 -0.3222
 6320SOL    HW230597   2.633   3.209   2.157 -0.7057  0.9678 -1.6848
 6321SOL     OW30598   2.454   1.120   4.658 -0.0798  0.2848  1.0558
 6321SOL    HW130599   2.472   1.210   4.629  2.1017 -0.7152 -0.6871
 6321SOL    HW230600   2.402   1.136   4.736 -0.2270  0.8866  0.8369
 6322SOL     OW30601   3.950   2.110   1.201  0.3146  0.0781 -0.0319
 6322SOL    HW130602   3.912   2.151   1.124 -1.6432 -0.5726  0.5857
 6322SOL    HW230603   3.885   2.130   1.269  0.8573  1.3119  0.1247
 6323SOL     OW30604   3.528   4.294   4.824 -0.3558  0.0470 -0.7494
 6323SOL    HW130605   3.550   4.254   4.908 -2.4702  2.5103  0.9813
 6323SOL    HW230606   3.470   4.366   4.849 -1.9405 -1.3894 -0.3076
 6324SOL     OW30607   1.923   2.834   6.506  0.1575 -0.3329  0.5160
 6324SOL    HW130608   1.914   2.775   6.432  0.5230  0.5252 -0.2207
 6324SOL    HW230609   1.837   2.876   6.510 -0.3712 -1.3265 -0.7830
 6325SOL     OW30610   4.036   4.529   2.225  0.2548  0.0111 -0.9315
 6325SOL    HW130611   4.061   4.621   2.216  0.0926  0.3920  2.4613
 6325SOL    HW230612   3.940   4.533   2.234  0.4933 -0.5329  1.6509
 6326SOL     OW30613   1.946   2.577   5.410 -0.0219 -0.1123  0.0927
 6326SOL    HW130614   1.868   2.623   5.380 -0.2488 -0.9624 -0.5915
 6326SOL    HW230615   1.982   2.648   5.464 -2.0779  0.8509  0.1960
 6327SOL     OW30616   4.606   3.995   2.933 -0.3563 -0.2181  0.4385
 6327SOL    HW130617   4.664   3.981   3.007  0.8548  1.6384 -0.1637
 6327SOL    HW230618   4.604   4.091   2.932  1.4163 -0.1914 -0.4418
 6328SOL     OW30619   3.479   1.938  15.650  0.3983 -0.4490 -0.0552
 6328SOL    HW130620   3.402   1.881  15.650 -0.3615  0.5859  0.4999
 6328SOL    HW230621   3.466   1.964  15.559 -0.8726  0.9666  0.5439
 6329SOL     OW30622   1.690   2.929  14.545  0.7158 -0.9166 -0.1323
 6329SOL    HW130623   1.765   2.870  14.534  0.7668 -0.9346  0.3052
 6329SOL    HW230624   1.626   2.858  14.541  2.1107 -2.3084  2.1361
 6330SOL     OW30625   4.535   2.347  17.195  0.6127  0.5275  0.0554
 6330SOL    HW130626   4.569   2.308  17.114  1.6138 -0.0087  0.7274
 6330SOL    HW230627   4.617   2.386  17.224  0.2498  0.8480  0.6459
 6331SOL     OW30628   2.793   2.923  15.194  0.0484  0.2498 -0.1138
 6331SOL    HW130629   2.819   2.840  15.154 -2.6844 -1.3717  1.5087
 6331SOL    HW230630   2.836   2.907  15.278 -0.3028 -3.1247 -0.6039
 6332SOL     OW30631   2.028   2.486   7.069  0.3510  0.0982 -0.4484
 6332SOL    HW130632   1.981   2.414   7.027 -1.9217  1.0844  0.4371
 6332SOL    HW230633   1.978   2.562   7.041 -1.0082 -1.2542 -1.7084
 6333SOL     OW30634   0.542   2.076  13.337  0.1720  0.0645  0.9366
 6333SOL    HW130635   0.558   1.988  13.371 -3.1469 -1.0507 -0.4963
 6333SOL    HW230636   0.563   2.050  13.247  1.5590  0.9828  0.9908
 6334SOL     OW30637   1.901   0.329   4.594  0.0377  0.1117 -0.2708
 6334SOL    HW130638   1.872   0.303   4.506 -1.0974  1.3685 -0.2679
 6334SOL    HW230639   1.987   0.290   4.607 -0.2110 -0.6842 -0.9877
 6335SOL     OW30640   0.429   0.884   4.329  0.2251 -0.5434 -0.2839
 6335SOL    HW130641   0.410   0.791   4.337 -0.1367 -0.4189  0.3887
 6335SOL    HW230642   0.403   0.912   4.417 -1.4351  0.6237 -1.1381
 6336SOL     OW30643   4.602   2.430   8.642 -0.0380  0.0506 -0.1586
 6336SOL    HW130644   4.642   2.423   8.556  0.3086  0.9392 -0.0672
 6336SOL    HW230645   4.666   2.478   8.694 -0.3279 -0.3935  0.6281
 6337SOL     OW30646   3.997   4.047   8.226 -0.0358  0.2211 -0.6209
 6337SOL    HW130647   4.066   4.075   8.285  2.0284  0.0809 -2.9999
 6337SOL    HW230648   3.914   4.077   8.264 -0.3044 -1.7360  0.3765
 6338SOL     OW30649   3.606   2.832   5.345  0.0726  0.2534  0.1518
 6338SOL    HW130650   3.663   2.825   5.421 -0.4378  1.7451  0.6708
 6338SOL    HW230651   3.547   2.902   5.372 -0.1884  0.5892 -1.2622
 6339SOL     OW30652   3.477   2.482  11.350 -0.1840  0.2383  0.6091
 6339SOL    HW130653   3.436   2.425  11.415  0.1274  0.0164  0.6117
 6339SOL    HW230654   3.551   2.522  11.396  1.6582 -0.3348 -1.8573
 6340SOL     OW30655   3.708   3.862   5.110 -0.0948  0.3132 -0.4039
 6340SOL    HW130656   3.631   3.913   5.135  0.5605  1.1801 -0.1503
 6340SOL    HW230657   3.756   3.918   5.048  0.5062  1.6254  1.2370
 6341SOL     OW30658   2.207   2.263  16.748  0.1447 -0.0130  0.5278
 6341SOL    HW130659   2.274   2.295  16.809 -0.7555  2.1166  0.3939
 6341SOL    HW230660   2.134   2.235  16.803 -0.6355 -1.0532 -1.0508
 6342SOL     OW30661   2.738   2.619   5.680  0.2490  0.7539  0.2319
 6342SOL    HW130662   2.786   2.651   5.603  1.3362 -1.3240  0.0577
 6342SOL    HW230663   2.801   2.634   5.751  0.9846  0.8783 -0.4401
 6343SOL     OW30664   1.550   0.358  17.537 -0.0686 -0.1959 -0.1610
 6343SOL    HW130665   1.625   0.332  17.483 -0.1436 -0.3773 -0.1802
 6343SOL    HW230666   1.551   0.446  17.501 -0.7265  0.1186  0.5944
 6344SOL     OW30667   0.805   2.327   4.992  0.3617 -0.4604  0.1835
 6344SOL    HW130668   0.788   2.299   4.902  0.9477  2.1903 -0.7432
 6344SOL    HW230669   0.897   2.350   4.977 -0.3712  1.0950 -1.9868
 6345SOL     OW30670   3.338   2.717   1.896 -0.6640 -0.1633  0.2850
 6345SOL    HW130671   3.327   2.747   1.986  0.1526  1.1678 -0.0500
 6345SOL    HW230672   3.352   2.623   1.907 -1.4172 -0.4104 -0.8103
 6346SOL     OW30673   4.018   4.683  13.809 -0.5657  0.8653 -0.0043
 6346SOL    HW130674   4.050   4.737  13.881 -0.0574  0.8643 -0.2351
 6346SOL    HW230675   4.048   4.595  13.833 -1.8219  1.2262  2.9953
 6347SOL     OW30676   2.128   0.205   3.043 -0.1710 -0.1098 -0.5870
 6347SOL    HW130677   2.095   0.214   3.132  0.4621  1.7867 -0.5431
 6347SOL    HW230678   2.067   0.259   2.993 -0.9158 -0.1961  0.2429
 6348SOL     OW30679   1.934   0.528   5.330  0.2707  0.1092  0.0960
 6348SOL    HW130680   1.977   0.455   5.374  0.8730 -0.1563 -0.9213
 6348SOL    HW230681   1.939   0.489   5.243  1.4431 -1.1324  0.7226
 6349SOL     OW30682   1.895   2.904   5.429 -0.6819 -0.3506  0.0461
 6349SOL    HW130683   1.870   2.996   5.436  0.6855  0.1677 -1.9187
 6349SOL    HW230684   1.978   2.897   5.475 -1.5914 -3.6552  1.1823
 6350SOL     OW30685   1.013   3.350   3.014 -0.1944  0.3631  0.4369
 6350SOL    HW130686   1.079   3.401   3.061 -0.3761  0.5617  0.4792
 6350SOL    HW230687   0.974   3.310   3.092  0.4612  1.4030  1.2940
 6351SOL     OW30688   0.299   4.492  14.685 -0.4777  0.0654 -0.1052
 6351SOL    HW130689   0.371   4.455  14.736 -0.2903 -0.7978 -1.0069
 6351SOL    HW230690   0.269   4.562  14.743  2.0657  0.3374  0.8594
 6352SOL     OW30691   4.454   3.085   2.438 -0.0433  0.1752 -0.0648
 6352SOL    HW130692   4.406   3.033   2.374 -0.3916 -1.1563  1.2745
 6352SOL    HW230693   4.385   3.094   2.504  0.5631  1.6551  0.3787
 6353SOL     OW30694   4.231   3.198  15.551  0.0947 -0.5443  0.0277
 6353SOL    HW130695   4.230   3.215  15.645 -0.1063 -2.5991  0.4088
 6353SOL    HW230696   4.313   3.149  15.550 -0.5311 -1.5919  0.0432
 6354SOL     OW30697   3.255   0.206  15.665 -0.0009 -0.3737  0.5235
 6354SOL    HW130698   3.307   0.275  15.706  0.2075  0.4079 -1.0418
 6354SOL    HW230699   3.221   0.161  15.742 -0.9533 -0.4815  0.0382
 6355SOL     OW30700   2.153   1.421   0.248  0.1680  0.4074  0.0525
 6355SOL    HW130701   2.215   1.425   0.176  0.4790  2.9903  0.4643
 6355SOL    HW230702   2.084   1.483   0.226  0.0790  0.6782  1.0540
 6356SOL     OW30703   0.311   0.271  13.066  0.1108 -0.1759  0.2384
 6356SOL    HW130704   0.283   0.288  12.976  0.6199 -3.0433 -0.4640
 6356SOL    HW230705   0.238   0.222  13.103 -1.0860  0.1058 -1.7389
 6357SOL     OW30706   0.080   4.348   5.313 -0.1534 -0.0140 -0.3975
 6357SOL    HW130707   0.165   4.342   5.357 -0.8256 -2.5393  0.5522
 6357SOL    HW230708   0.066   4.260   5.278  0.0413  0.6155 -2.0233
 6358SOL     OW30709   4.580   2.166   9.544  0.0451 -0.0062  0.0467
 6358SOL    HW130710   4.572   2.073   9.524 -1.4090  0.0777  0.2425
 6358SOL    HW230711   4.668   2.165   9.583  0.3806  1.2163 -0.6869
 6359SOL     OW30712   4.125   1.302   4.971 -0.4766 -0.7035 -0.3177
 6359SOL    HW130713   4.146   1.261   4.887 -2.7417 -3.2100  0.3310
 6359SOL    HW230714   4.164   1.241   5.034 -0.0858  0.4873  0.5857
 6360SOL     OW30715   1.635   2.468   2.035  0.6713  0.6104 -0.0298
 6360SOL    HW130716   1.611   2.523   2.110  0.0887  0.8101 -0.3672
 6360SOL    HW230717   1.556   2.455   1.983 -0.0789  0.5888  1.1081
 6361SOL     OW30718   4.003   2.587   8.888 -0.3731  0.3584 -0.1153
 6361SOL    HW130719   4.098   2.572   8.890 -0.4196  0.3166  2.0865
 6361SOL    HW230720   3.991   2.637   8.808 -1.7554 -0.9961 -0.7616
 6362SOL     OW30721   3.031   1.861   5.873  0.2626 -0.0535 -0.1883
 6362SOL    HW130722   3.104   1.871   5.811  0.8930 -1.6727  0.3022
 6362SOL    HW230723   3.013   1.772   5.842 -3.5094  1.4486 -2.3124
 6363SOL     OW30724   2.081   4.675   1.486  0.6054 -0.0109 -0.2579
 6363SOL    HW130725   2.024   0.002   1.525  2.2305  1.4000 -0.2973
 6363SOL    HW230726   2.103   4.721   1.404  1.8167  1.9931  1.1853
 6364SOL     OW30727   2.964   3.115  14.126 -0.6550 -0.1145  0.2673
 6364SOL    HW130728   2.944   3.033  14.081 -0.1735  0.7478 -1.5319
 6364SOL    HW230729   3.051   3.103  14.164 -0.7353  0.2058  0.5559
 6365SOL     OW30730   1.587   0.503  13.740  0.1141 -0.2602  0.3993
 6365SOL    HW130731   1.528   0.574  13.767 -0.0916 -0.7305  1.1982
 6365SOL    HW230732   1.524   0.435  13.716  1.5878 -0.4640 -2.9046
 6366SOL     OW30733   3.723   3.796  10.567  0.3646 -0.1703 -0.3520
 6366SOL    HW130734   3.682   3.873  10.528 -1.3763 -1.6008 -1.3317
 6366SOL    HW230735   3.797   3.839  10.609  0.7785  0.3465 -1.5927
 6367SOL     OW30736   1.801   3.091   7.667  0.4076 -0.4799  0.3048
 6367SOL    HW130737   1.840   3.015   7.710 -1.8528 -1.1962  1.0347
 6367SOL    HW230738   1.710   3.083   7.695 -0.1275  0.6188 -1.0738
 6368SOL     OW30739   1.682   2.616  10.466 -0.2511  0.0901  0.2902
 6368SOL    HW130740   1.647   2.650  10.384 -1.8873 -1.1711  0.4549
 6368SOL    HW230741   1.612   2.643  10.526 -0.0299 -0.0407  0.6078
 6369SOL     OW30742   3.622   3.767   2.200  0.2508  0.3883  0.2495
 6369SOL    HW130743   3.682   3.837   2.174  2.0394 -0.8360  1.0585
 6369SOL    HW230744   3.535   3.808   2.201 -0.4305 -1.0565  0.0503
 6370SOL     OW30745   4.705   4.190  13.261  0.0532  0.1730 -0.1168
 6370SOL    HW130746   0.003   4.265  13.215  2.2529  0.0271  1.4290
 6370SOL    HW230747   4.689   4.226  13.348 -0.9810  0.2296 -0.3290
 6371SOL     OW30748   3.939   2.953   4.775 -0.7290 -0.5256  0.9587
 6371SOL    HW130749   4.005   2.895   4.738 -1.4784 -1.8331  1.6826
 6371SOL    HW230750   3.983   3.036   4.791  1.9123 -1.9080  0.8043
 6372SOL     OW30751   3.857   2.352  10.068 -0.0403 -0.0884  0.4992
 6372SOL    HW130752   3.913   2.403  10.127  2.0682 -1.2768 -0.4805
 6372SOL    HW230753   3.895   2.362   9.981  1.5688 -0.9500  1.0754
 6373SOL     OW30754   4.251   0.454  15.036 -0.0292  0.6718  0.4249
 6373SOL    HW130755   4.334   0.412  15.060 -0.0317 -0.6942 -1.9412
 6373SOL    HW230756   4.294   0.532  15.000  0.1660  1.5796  2.6496
 6374SOL     OW30757   3.352   3.299   4.159 -0.1031  0.2646  0.1762
 6374SOL    HW130758   3.383   3.364   4.095  0.6145 -1.3757 -1.1420
 6374SOL    HW230759   3.388   3.331   4.241  0.0765  1.1784 -0.2547
 6375SOL     OW30760   4.689   1.593   2.575  0.0147 -0.1564 -0.0474
 6375SOL    HW130761   4.611   1.647   2.563  0.6058  1.1200  1.7783
 6375SOL    HW230762   4.686   1.537   2.498  1.2684  1.1153 -1.0248
 6376SOL     OW30763   3.933   4.542   3.748 -0.3562  0.3662  0.4369
 6376SOL    HW130764   3.887   4.614   3.705  2.5959  2.6072  1.0226
 6376SOL    HW230765   3.939   4.482   3.673 -2.0270  0.4340  0.2645
 6377SOL     OW30766   1.072   4.191   3.400 -0.5127 -0.3235 -0.0925
 6377SOL    HW130767   1.022   4.121   3.442  1.7280 -0.5377  2.2807
 6377SOL    HW230768   1.148   4.148   3.361 -0.0672  0.1427  0.2430
 6378SOL     OW30769   1.336   0.787   1.059  0.7313 -0.0927  0.5565
 6378SOL    HW130770   1.266   0.722   1.061 -0.5030  1.1730 -1.3103
 6378SOL    HW230771   1.389   0.748   0.990  0.8547  0.4935  0.3142
 6379SOL     OW30772   0.841   1.514  11.537  0.2475 -0.4346  0.7951
 6379SOL    HW130773   0.786   1.446  11.499 -1.0728  1.3240 -0.4983
 6379SOL    HW230774   0.783   1.591  11.538 -0.8351 -1.2461  0.1654
 6380SOL     OW30775   2.322   0.924   5.802 -0.0433 -0.0708  0.5739
 6380SOL    HW130776   2.408   0.907   5.841  0.5669 -0.2537 -0.8229
 6380SOL    HW230777   2.325   1.014   5.768 -1.3132  0.3928  1.7177
 6381SOL     OW30778   4.127   2.530   5.096  0.4026  0.2713 -0.2699
 6381SOL    HW130779   4.187   2.574   5.156 -1.0001 -0.2460  1.5198
 6381SOL    HW230780   4.074   2.598   5.054  0.7416  0.4230 -0.4471
 6382SOL     OW30781   0.071   3.590   6.145 -0.4939  0.0861 -0.8321
 6382SOL    HW130782   0.035   3.656   6.085 -1.8065 -2.9992 -3.4794
 6382SOL    HW230783   4.733   3.537   6.160 -2.1257  2.5837 -0.4038
 6383SOL     OW30784   2.020   4.442  15.223  0.0558 -0.3030 -0.2602
 6383SOL    HW130785   2.001   4.437  15.130  0.8396 -0.8827 -0.3928
 6383SOL    HW230786   1.931   4.460  15.253  0.6094  0.3091  1.0253
 6384SOL     OW30787   4.621   3.422   5.941 -0.2185  0.1259  0.2126
 6384SOL    HW130788   4.574   3.503   5.961  1.3900  1.7217 -2.5918
 6384SOL    HW230789   4.631   3.389   6.030 -0.1009 -0.2877  0.0432
 6385SOL     OW30790   1.040   0.092  14.991  0.3149 -0.2203  0.1159
 6385SOL    HW130791   1.096   0.065  14.918  2.1196 -0.3290  1.5342
 6385SOL    HW230792   1.052   0.185  14.973 -0.6593 -0.3674 -1.2019
 6386SOL     OW30793   0.194   2.828   3.577 -0.4434  0.6549 -1.0025
 6386SOL    HW130794   0.147   2.798   3.654  1.0223  0.6287 -0.1169
 6386SOL    HW230795   0.142   2.906   3.557 -0.4955  0.9418  0.2604
 6387SOL     OW30796   3.308   4.170  16.085 -0.1045 -0.7586  0.4248
 6387SOL    HW130797   3.297   4.133  15.997  1.5464 -0.7465  0.2152
 6387SOL    HW230798   3.221   4.155  16.124  0.7371 -2.3182  1.6792
 6388SOL     OW30799   2.136   2.244   3.835  0.3624  0.1259  0.8073
 6388SOL    HW130800   2.159   2.333   3.861 -3.4255  1.6615 -1.0334
 6388SOL    HW230801   2.141   2.246   3.739 -1.0056 -2.3625  0.6625
 6389SOL     OW30802   0.361   1.983   3.463  0.0147  0.4130  0.1563
 6389SOL    HW130803   0.270   2.010   3.458  0.3438  1.1319 -1.7446
 6389SOL    HW230804   0.398   2.056   3.514  0.3513  0.3727 -0.0307
 6390SOL     OW30805   0.396   3.023   8.595 -0.0399 -0.0550 -0.3402
 6390SOL    HW130806   0.339   3.062   8.661  1.6991 -0.6545  1.5253
 6390SOL    HW230807   0.350   2.939   8.594  0.2531 -0.1976 -1.6970
 6391SOL     OW30808   2.158   4.359   4.384 -0.2251  0.1670  0.2359
 6391SOL    HW130809   2.181   4.338   4.294 -0.0375 -0.7700  0.4985
 6391SOL    HW230810   2.152   4.267   4.409  1.5705 -0.5653 -2.0117
 6392SOL     OW30811   3.307   4.520   0.733  0.1016 -0.9438 -0.3051
 6392SOL    HW130812   3.367   4.591   0.708  0.0524 -1.1592 -1.0565
 6392SOL    HW230813   3.263   4.554   0.811  1.0910  0.8695 -0.5321
 6393SOL     OW30814   4.519   1.108   5.927 -0.3244  0.3716 -0.1404
 6393SOL    HW130815   4.583   1.118   5.998 -0.4529 -0.8935  0.1431
 6393SOL    HW230816   4.523   1.193   5.883  0.6638  0.5284  0.2472
 6394SOL     OW30817   2.154   2.843  10.422  0.5722 -0.2978  0.5187
 6394SOL    HW130818   2.121   2.834  10.332  0.8284 -1.4766  0.5522
 6394SOL    HW230819   2.177   2.753  10.441 -1.8508 -0.8943  0.7053
 6395SOL     OW30820   2.884   0.041   3.674 -0.0503 -0.1065  0.2873
 6395SOL    HW130821   2.917   0.093   3.747 -0.4011  0.6458 -0.0810
 6395SOL    HW230822   2.804   0.094   3.666 -0.1117 -0.2982 -0.4337
 6396SOL     OW30823   1.503   4.140   1.808 -0.4943  0.3435  0.7502
 6396SOL    HW130824   1.510   4.141   1.903 -1.6352 -0.5989  0.8326
 6396SOL    HW230825   1.492   4.235   1.798 -1.0156  0.5235  3.0555
 6397SOL     OW30826   4.510   3.469   6.465 -0.2644  0.7244  0.0264
 6397SOL    HW130827   4.566   3.508   6.532 -1.1532  3.0807 -0.6026
 6397SOL    HW230828   4.449   3.536   6.433 -0.7020  1.3729  2.1972
 6398SOL     OW30829   2.736   4.409   8.458 -0.4008  0.9946  0.1813
 6398SOL    HW130830   2.758   4.389   8.550 -0.2852  2.1742  0.4082
 6398SOL    HW230831   2.788   4.336   8.425  0.0058  0.8625  1.0941
 6399SOL     OW30832   2.839   2.634  11.507  0.5146 -0.6678  0.7649
 6399SOL    HW130833   2.787   2.616  11.585 -1.4684  1.4921 -0.0402
 6399SOL    HW230834   2.881   2.717  11.532 -0.1429  0.3797 -1.6333
 6400SOL     OW30835   2.405   2.504   7.264 -0.2148 -0.1422 -0.2638
 6400SOL    HW130836   2.361   2.584   7.233 -0.9123  0.0386  1.2158
 6400SOL    HW230837   2.332   2.443   7.275 -1.4422  1.1200 -1.2820
 6401SOL     OW30838   2.567   4.236   3.009 -0.0802 -0.1827 -0.2327
 6401SOL    HW130839   2.485   4.284   3.018  1.9570  2.9194  1.7846
 6401SOL    HW230840   2.551   4.175   2.937 -0.0313  1.7076 -1.8461
 6402SOL     OW30841   1.819   2.500  12.692 -0.0696 -0.2828  0.1915
 6402SOL    HW130842   1.892   2.547  12.654  0.8272 -0.0635  2.2009
 6402SOL    HW230843   1.865   2.429  12.738 -0.2960  0.9046  2.2485
 6403SOL     OW30844   3.728   0.727   8.221  0.0631  0.4222  0.6506
 6403SOL    HW130845   3.697   0.726   8.312  2.8790  0.9824  1.6346
 6403SOL    HW230846   3.677   0.652   8.191 -0.0384  1.0338 -0.6875
 6404SOL     OW30847   3.274   1.807   3.851 -0.0496  0.1116 -0.3177
 6404SOL    HW130848   3.265   1.776   3.761 -1.1261  1.7816 -0.7933
 6404SOL    HW230849   3.192   1.855   3.864  0.8755  0.9287  2.5584
 6405SOL     OW30850   4.591   3.031   4.651  0.0434  0.3102 -0.1136
 6405SOL    HW130851   4.574   3.125   4.640 -0.0182  0.1235 -1.5971
 6405SOL    HW230852   4.685   3.033   4.633 -0.1265 -1.9736 -1.2030
 6406SOL     OW30853   1.590   0.536   2.166 -0.0498 -0.5127 -0.3747
 6406SOL    HW130854   1.658   0.604   2.166  0.6018 -1.1678  2.5986
 6406SOL    HW230855   1.636   0.454   2.148 -0.0143 -0.7720  0.8968
 6407SOL     OW30856   2.329   3.316   1.458 -0.2069  0.2247 -0.5665
 6407SOL    HW130857   2.311   3.402   1.497 -1.3977  0.2465 -1.1371
 6407SOL    HW230858   2.389   3.345   1.390 -1.1534 -0.2272 -1.6012
 6408SOL     OW30859   3.669   2.274   1.614 -0.1841 -0.1202 -0.6065
 6408SOL    HW130860   3.679   2.280   1.709 -2.7051  0.8090 -0.3881
 6408SOL    HW230861   3.593   2.215   1.624 -2.1645  2.6878  1.0672
 6409SOL     OW30862   1.564   3.122   7.762  0.1545  0.1246 -0.4302
 6409SOL    HW130863   1.500   3.062   7.723 -2.5674  1.8996  1.3112
 6409SOL    HW230864   1.525   3.158   7.841  1.2814  1.0552 -0.3066
 6410SOL     OW30865   2.145   0.443   3.526 -0.2507  0.5057  0.2102
 6410SOL    HW130866   2.219   0.382   3.529 -1.2982 -0.9137 -3.2467
 6410SOL    HW230867   2.083   0.385   3.570 -1.0266 -0.0098 -1.5852
 6411SOL     OW30868   4.673   0.837   7.379  0.3972 -0.2560 -0.2070
 6411SOL    HW130869   4.719   0.842   7.295 -0.5320  0.8065 -0.6573
 6411SOL    HW230870   4.642   0.927   7.391 -0.2591 -1.1063  4.5146
 6412SOL     OW30871   3.464   0.283  10.421 -0.2746 -0.7187  0.2447
 6412SOL    HW130872   3.372   0.278  10.447  0.5507 -0.7512  3.1580
 6412SOL    HW230873   3.514   0.275  10.502 -0.9648 -2.2748  0.5245
 6413SOL     OW30874   3.615   1.598   0.448  0.3070  0.4373 -0.7310
 6413SOL    HW130875   3.552   1.657   0.488  0.8593  2.0952 -2.2861
 6413SOL    HW230876   3.583   1.606   0.358  1.0731  0.6394 -0.9823
 6414SOL     OW30877   3.277   3.081  14.170 -0.1093  0.4132 -0.2064
 6414SOL    HW130878   3.285   3.093  14.076  2.1267 -0.6947 -0.1624
 6414SOL    HW230879   3.300   3.168  14.203 -0.8266  0.7572 -0.6284
 6415SOL     OW30880   0.378   1.044   1.313 -0.4135  0.0520 -0.4434
 6415SOL    HW130881   0.417   1.008   1.233 -0.4894 -2.4121  0.6324
 6415SOL    HW230882   0.370   1.136   1.287 -1.1369 -0.1203 -0.8347
 6416SOL     OW30883   3.148   1.624  15.860 -0.5090 -0.0663 -0.3628
 6416SOL    HW130884   3.104   1.544  15.888  0.3194  0.1817  1.6400
 6416SOL    HW230885   3.075   1.673  15.821  1.3300  1.3722 -1.9707
 6417SOL     OW30886   4.289   1.537   9.667  0.1754 -0.4885 -0.1379
 6417SOL    HW130887   4.232   1.492   9.730  0.0754  0.4499  0.4312
 6417SOL    HW230888   4.329   1.609   9.716  0.0729 -0.9861  0.6798
 6418SOL     OW30889   2.720   1.974   5.672 -0.2563 -0.1656  0.0273
 6418SOL    HW130890   2.808   1.994   5.703 -0.1178 -2.7763  1.3458
 6418SOL    HW230891   2.689   2.053   5.629 -1.1832 -0.4162  0.2411
 6419SOL     OW30892   4.512   0.367   7.839  0.3536  0.0554  0.0463
 6419SOL    HW130893   4.460   0.349   7.761 -1.4535  2.6364  0.6483
 6419SOL    HW230894   4.533   0.458   7.817 -1.2692  0.2933 -0.4694
 6420SOL     OW30895   2.217   4.626   5.501 -0.0748  0.2053  0.7013
 6420SOL    HW130896   2.249   4.610   5.413  0.4612 -0.4182  1.0169
 6420SOL    HW230897   2.248   4.544   5.537 -1.5760 -0.6755 -0.0056
 6421SOL     OW30898   2.951   4.128   2.891  0.0158  0.0148 -0.1443
 6421SOL    HW130899   2.909   4.052   2.850  0.1388 -0.6396  0.9559
 6421SOL    HW230900   2.980   4.092   2.975 -2.9368  0.0913  0.9276
 6422SOL     OW30901   2.479   4.087  15.033 -0.2237 -0.0535 -0.3454
 6422SOL    HW130902   2.537   4.073  14.959  0.0101  1.2163 -0.3994
 6422SOL    HW230903   2.489   4.007  15.084  1.0583  0.7326  0.6103
 6423SOL     OW30904   3.362   4.097   4.200  0.1818  0.6450 -0.5574
 6423SOL    HW130905   3.397   4.129   4.117  1.8009  1.2271  0.3526
 6423SOL    HW230906   3.304   4.172   4.210  3.1167  2.6517  1.2323
 6424SOL     OW30907   4.056   3.889  15.548  0.1617  0.2613  0.0188
 6424SOL    HW130908   4.084   3.806  15.587  1.3681  0.5455 -0.2375
 6424SOL    HW230909   4.026   3.941  15.623 -0.6023 -1.8467  1.1871
 6425SOL     OW30910   4.200   2.277   7.727 -0.1741 -0.3072  0.0083
 6425SOL    HW130911   4.253   2.207   7.765  0.5566 -0.8329 -1.9828
 6425SOL    HW230912   4.165   2.234   7.649 -0.8700 -0.5732  0.4659
 6426SOL     OW30913   2.763   0.916   8.208  0.7675 -0.4925  0.3832
 6426SOL    HW130914   2.747   1.007   8.182 -0.3406 -0.8848 -0.3257
 6426SOL    HW230915   2.737   0.921   8.300  0.4138  0.9658  0.2029
 6427SOL     OW30916   4.030   2.362   6.770 -0.3475 -0.2108  0.5192
 6427SOL    HW130917   4.033   2.371   6.674  0.7673 -0.1164  0.5705
 6427SOL    HW230918   4.123   2.373   6.790 -0.3729  0.6234  0.2195
 6428SOL     OW30919   2.520   1.715   6.789  0.3288  0.1950  0.1877
 6428SOL    HW130920   2.428   1.688   6.786  0.6901 -1.1319  1.3022
 6428SOL    HW230921   2.545   1.696   6.879 -2.0547  1.7325  1.1849
 6429SOL     OW30922   1.254   2.375   7.154  0.1296  0.2364 -0.0801
 6429SOL    HW130923   1.270   2.459   7.111 -0.0533  0.1023 -0.4058
 6429SOL    HW230924   1.174   2.400   7.200  0.6729  0.6683  0.6465
 6430SOL     OW30925   3.746   2.900   3.544 -0.3975 -0.3022  0.6319
 6430SOL    HW130926   3.759   2.809   3.570 -2.9903 -0.7256  0.4818
 6430SOL    HW230927   3.653   2.902   3.522  0.1535 -1.4405 -1.8518
 6431SOL     OW30928   1.135   3.645   3.864 -0.1451 -0.2855  0.3382
 6431SOL    HW130929   1.217   3.687   3.839  0.5318  0.3603  3.6735
 6431SOL    HW230930   1.098   3.669   3.779  0.1803 -0.2541  0.2043
 6432SOL     OW30931   0.921   2.713   6.636  1.2403 -0.4477  0.2192
 6432SOL    HW130932   0.883   2.657   6.704 -0.3894 -0.2144 -0.5029
 6432SOL    HW230933   0.939   2.646   6.569  2.3895  2.3066 -2.2059
 6433SOL     OW30934   0.437   4.027  11.476 -0.0514 -0.3192 -0.1492
 6433SOL    HW130935   0.449   4.036  11.570  0.1492 -1.4092 -0.0763
 6433SOL    HW230936   0.510   4.081  11.445 -2.1123  0.6451 -3.3759
 6434SOL     OW30937   1.081   4.448   6.279 -0.9111  0.2119 -0.0244
 6434SOL    HW130938   1.151   4.449   6.345 -1.3941  0.2847  0.4867
 6434SOL    HW230939   1.081   4.535   6.237  1.0942  0.0620 -0.3483
 6435SOL     OW30940   1.757   2.163   8.656 -0.0641  0.0950  0.0349
 6435SOL    HW130941   1.827   2.220   8.623 -0.7982  1.4190  0.7930
 6435SOL    HW230942   1.806   2.109   8.718  1.1520  0.1624 -0.8684
 6436SOL     OW30943   2.430   0.181   4.651  0.2047  0.2943 -0.6286
 6436SOL    HW130944   2.444   0.178   4.556  2.8329 -0.8341 -0.1910
 6436SOL    HW230945   2.519   0.188   4.685 -0.2393 -0.3242  0.6593
 6437SOL     OW30946   0.656   3.640  13.669  0.1162  0.0637  0.3514
 6437SOL    HW130947   0.728   3.648  13.732 -1.3410  0.2573  1.9881
 6437SOL    HW230948   0.581   3.673  13.719  0.2368  0.3187  0.3649
 6438SOL     OW30949   0.706   3.355  11.514 -0.2681 -0.4431  0.7477
 6438SOL    HW130950   0.703   3.444  11.479 -3.0130 -0.8616 -0.0262
 6438SOL    HW230951   0.738   3.307  11.438 -0.7657 -0.1081  0.3309
 6439SOL     OW30952   0.565   0.556   1.997  0.0491 -0.2283 -0.1613
 6439SOL    HW130953   0.654   0.586   2.014 -0.2623  0.2795  0.5427
 6439SOL    HW230954   0.518   0.636   2.020  0.5480  0.7294 -2.4806
 6440SOL     OW30955   4.429   2.453   4.561  0.3054  0.1245 -0.0823
 6440SOL    HW130956   4.485   2.530   4.548  0.5770 -0.2182 -0.9472
 6440SOL    HW230957   4.343   2.496   4.563  0.4185  0.3531 -0.1083
 6441SOL     OW30958   2.297   1.215   6.010 -0.4570 -0.2299  0.0595
 6441SOL    HW130959   2.347   1.188   6.088 -0.7516  1.0740  0.6902
 6441SOL    HW230960   2.226   1.152   6.023  0.1554 -1.1275 -0.8695
 6442SOL     OW30961   3.053   1.834   6.917  0.1765 -0.3619  0.2898
 6442SOL    HW130962   2.979   1.789   6.875 -0.3239 -0.5047  1.3195
 6442SOL    HW230963   3.001   1.904   6.956  0.8045  2.8507 -4.6496
 6443SOL     OW30964   0.599   0.620   5.899 -0.1097  0.0289  0.0770
 6443SOL    HW130965   0.676   0.639   5.952  0.7993 -1.1331 -0.8019
 6443SOL    HW230966   0.643   0.597   5.817 -2.5791  2.6654 -1.9773
 6444SOL     OW30967   1.599   2.358  11.145  0.5883  0.2393 -0.0555
 6444SOL    HW130968   1.679   2.391  11.103  1.2150 -1.6706 -0.3903
 6444SOL    HW230969   1.530   2.420  11.121 -0.0236 -1.7431 -3.3975
 6445SOL     OW30970   3.107   2.784   6.912  1.1009 -0.0875  0.1278
 6445SOL    HW130971   3.089   2.720   6.981 -2.5293  0.1982 -0.5347
 6445SOL    HW230972   3.167   2.839   6.963  0.0086  0.6275  0.6334
 6446SOL     OW30973   4.390   1.256   8.268  0.2427  0.0701 -0.1099
 6446SOL    HW130974   4.381   1.167   8.303 -0.0894 -0.3602 -1.3105
 6446SOL    HW230975   4.301   1.284   8.291  0.3901  0.2747  0.2101
 6447SOL     OW30976   4.720   0.876   7.032 -0.0814 -0.1080 -0.6557
 6447SOL    HW130977   4.714   0.897   6.939 -2.4461  0.5639 -0.3560
 6447SOL    HW230978   4.627   0.863   7.050  0.5441 -0.5466  2.2809
 6448SOL     OW30979   2.146   3.430   5.625 -0.2987 -0.4382  0.4891
 6448SOL    HW130980   2.230   3.420   5.669  0.6078  1.8840 -0.7189
 6448SOL    HW230981   2.092   3.430   5.704 -2.3001  0.3242 -0.8869
 6449SOL     OW30982   1.060   1.761   2.470 -0.7066  0.3178  0.3627
 6449SOL    HW130983   1.097   1.795   2.552 -1.4888 -1.2801  1.4083
 6449SOL    HW230984   1.091   1.820   2.403 -1.6614  0.6432  0.2010
 6450SOL     OW30985   4.714   3.112   6.325 -0.4215 -0.1111  0.2296
 6450SOL    HW130986   4.680   3.119   6.414 -0.5170  0.4480  0.1472
 6450SOL    HW230987   0.066   3.136   6.336 -1.0084  0.6075  3.6727
 6451SOL     OW30988   3.937   4.377   7.246 -0.0678 -0.0208 -0.5290
 6451SOL    HW130989   3.982   4.299   7.215 -1.1860  0.1286 -2.5317
 6451SOL    HW230990   3.848   4.353   7.218 -0.1364 -1.9981  1.3999
 6452SOL     OW30991   3.397   3.301  10.791  0.0129 -0.4817  0.4391
 6452SOL    HW130992   3.488   3.305  10.760 -0.4978  1.8634 -0.7477
 6452SOL    HW230993   3.355   3.369  10.739 -0.5438 -0.7325  0.5582
 6453SOL     OW30994   1.307   3.061   1.415  0.2977  0.6885  0.2697
 6453SOL    HW130995   1.286   3.136   1.471  1.0327  1.6519 -0.7334
 6453SOL    HW230996   1.402   3.075   1.412  0.7820 -2.2233  1.8996
 6454SOL     OW30997   3.480   3.475   3.657 -0.6981  0.0162 -0.5134
 6454SOL    HW130998   3.494   3.523   3.738  4.3679  0.7054 -1.8262
 6454SOL    HW230999   3.552   3.412   3.666 -0.4529  0.0473 -2.1404
 6455SOL     OW31000   3.461   4.625   2.198 -0.5261  0.1766 -0.2023
 6455SOL    HW131001   3.381   4.647   2.245  0.1391 -0.0432  1.0404
 6455SOL    HW231002   3.430   4.615   2.108 -1.0686 -1.3011  0.1445
 6456SOL     OW31003   4.154   4.638   9.608 -0.5888  0.0493 -0.4075
 6456SOL    HW131004   4.128   4.680   9.690 -0.5242 -0.0910 -0.3144
 6456SOL    HW231005   4.239   4.677   9.587  0.6424 -2.4770 -0.1179
 6457SOL     OW31006   1.271   4.435   7.314 -0.2958 -0.5871 -0.3854
 6457SOL    HW131007   1.231   4.472   7.235 -0.7055  3.3137  1.6364
 6457SOL    HW231008   1.333   4.504   7.338 -0.5420 -0.7069  0.5848
 6458SOL     OW31009   1.360   4.033   0.596 -0.0063 -0.2968 -0.3246
 6458SOL    HW131010   1.444   4.025   0.640  0.5730 -2.1045 -1.7848
 6458SOL    HW231011   1.383   4.099   0.531 -2.4539  1.0950  0.2101
 6459SOL     OW31012   1.292   2.199   4.627  0.6023 -0.0967  0.1748
 6459SOL    HW131013   1.316   2.292   4.629 -0.5432  0.1917  0.3857
 6459SOL    HW231014   1.381   2.164   4.623  0.8539  0.2822  2.4390
 6460SOL     OW31015   3.887   0.973   7.522  0.0571 -0.0897 -0.4312
 6460SOL    HW131016   3.801   0.955   7.484 -0.6139 -0.3859  1.2538
 6460SOL    HW231017   3.908   1.057   7.482 -1.2393  0.4658  0.0620
 6461SOL     OW31018   1.423   3.276   9.873  0.3543  0.0823 -0.2950
 6461SOL    HW131019   1.458   3.352   9.827  0.0202 -0.2028 -1.0353
 6461SOL    HW231020   1.368   3.241   9.803  0.5787 -0.2867 -0.2876
 6462SOL     OW31021   3.182   0.331   6.902  0.0989  0.5948 -0.3981
 6462SOL    HW131022   3.202   0.418   6.935 -0.7326  0.3406  0.7820
 6462SOL    HW231023   3.092   0.338   6.872 -0.2546 -1.5704  0.1533
 6463SOL     OW31024   1.883   4.129   0.178  0.3995  0.1993 -0.5107
 6463SOL    HW131025   1.964   4.178   0.193  0.3415 -0.5851  2.3584
 6463SOL    HW231026   1.823   4.149   0.250  1.3873 -0.6479  0.5477
 6464SOL     OW31027   1.979   2.071   6.963  0.2188 -0.8819 -0.6345
 6464SOL    HW131028   2.030   2.007   7.012 -1.8214 -2.6134 -0.7685
 6464SOL    HW231029   2.044   2.141   6.955  1.1431 -1.5745  0.9761
 6465SOL     OW31030   0.640   0.077   7.591 -0.1253 -0.4127 -0.1113
 6465SOL    HW131031   0.626   0.029   7.672 -0.1899 -0.0585  0.0888
 6465SOL    HW231032   0.595   0.156   7.621  1.8526  0.8703 -0.5427
 6466SOL     OW31033   1.512   3.411   6.580 -0.3332 -0.8313 -0.6762
 6466SOL    HW131034   1.555   3.341   6.628 -2.9221 -0.0540  2.7669
 6466SOL    HW231035   1.473   3.464   6.650  3.6523  0.2614  0.7215
 6467SOL     OW31036   2.612   0.044   3.243 -0.2293  0.0341  0.3101
 6467SOL    HW131037   2.634   4.691   3.250 -1.3345 -0.0945  1.9345
 6467SOL    HW231038   2.628   0.069   3.152 -0.4829 -0.5696  0.0965
 6468SOL     OW31039   2.370   4.295  13.514 -0.3406  0.2938  0.0949
 6468SOL    HW131040   2.357   4.214  13.563 -1.6747 -0.9081 -2.2243
 6468SOL    HW231041   2.377   4.359  13.584  1.1616  0.9872 -0.6970
 6469SOL     OW31042   2.991   2.848  11.553 -0.0889 -0.3918 -0.1993
 6469SOL    HW131043   3.078   2.814  11.533 -0.6212 -1.5262 -0.5760
 6469SOL    HW231044   2.997   2.920  11.491  0.6015  0.3143  0.6816
 6470SOL     OW31045   3.482   0.688   2.018 -0.4228  0.1612  0.0709
 6470SOL    HW131046   3.393   0.688   1.982 -0.0821  0.0686 -0.7551
 6470SOL    HW231047   3.465   0.714   2.109 -0.3318  0.4066  0.0160
 6471SOL     OW31048   1.896   1.815  16.676 -0.2139  0.6026  0.2736
 6471SOL    HW131049   1.814   1.852  16.710 -0.6355 -0.8415  0.8268
 6471SOL    HW231050   1.947   1.783  16.750  0.4489 -0.7487 -0.7580
 6472SOL     OW31051   0.030   2.765   9.581  0.2704 -0.3183 -0.1958
 6472SOL    HW131052   0.117   2.781   9.616 -0.6085 -0.6955  2.1880
 6472SOL    HW231053   4.719   2.755   9.661 -0.5349  0.2103 -0.6371
 6473SOL     OW31054   1.456   3.031   3.003  0.4708  0.1480  0.4961
 6473SOL    HW131055   1.413   3.102   2.955  2.9248  1.3978  0.0837
 6473SOL    HW231056   1.540   3.010   2.961 -0.3212 -2.7098  0.3910
 6474SOL     OW31057   0.241   1.796   7.054  0.7358  0.0809 -0.1150
 6474SOL    HW131058   0.175   1.774   7.119  0.2271  0.1773 -0.5950
 6474SOL    HW231059   0.246   1.889   7.075 -1.3366  0.2038 -0.1271
 6475SOL     OW31060   3.526   3.159  13.393  0.1989  0.2229 -0.8376
 6475SOL    HW131061   3.612   3.122  13.374  1.0542  2.4811 -1.3487
 6475SOL    HW231062   3.536   3.198  13.480  1.0715 -3.2608  0.6111
 6476SOL     OW31063   1.889   1.255   1.787 -0.3210 -0.6110  0.7383
 6476SOL    HW131064   1.816   1.193   1.784  0.6182 -1.8498  3.4583
 6476SOL    HW231065   1.861   1.322   1.725 -1.8370 -2.0077 -0.0847
 6477SOL     OW31066   4.059   0.684   7.840 -0.1978 -0.5992  0.3528
 6477SOL    HW131067   4.083   0.775   7.819 -0.4311 -0.2964  1.3876
 6477SOL    HW231068   4.044   0.690   7.934 -0.1511  0.7830  0.2692
 6478SOL     OW31069   1.549   0.277   5.876  0.5238  0.1845  0.6946
 6478SOL    HW131070   1.566   0.204   5.817 -1.1286  0.6241 -0.3201
 6478SOL    HW231071   1.584   0.251   5.962 -0.5502 -1.6122  0.5777
 6479SOL     OW31072   3.650   2.034   6.327  0.4042  0.0079  0.4587
 6479SOL    HW131073   3.615   2.093   6.394 -0.3106  0.3426 -0.2036
 6479SOL    HW231074   3.618   1.947   6.353 -3.9998  1.1339 -1.1318
 6480SOL     OW31075   4.703   1.236   3.144  0.1213  0.3788 -0.0009
 6480SOL    HW131076   0.020   1.233   3.067  0.8882 -0.3955  0.5943
 6480SOL    HW231077   0.017   1.280   3.209  0.8630 -0.9917  0.3269
 6481SOL     OW31078   3.513   3.453  17.630  0.0013 -0.1485 -0.4722
 6481SOL    HW131079   3.596   3.476  17.672  1.0139 -1.4271 -1.7723
 6481SOL    HW231080   3.452   3.462  17.703 -0.9677 -0.9345 -1.1869
 6482SOL     OW31081   4.608   4.135   3.591 -0.1200  0.0351 -0.4369
 6482SOL    HW131082   4.690   4.137   3.541  0.1001  0.1497 -0.0649
 6482SOL    HW231083   4.556   4.074   3.539  0.0683 -0.8616  0.4323
 6483SOL     OW31084   2.467   3.710  12.017 -1.0177 -0.4296 -0.2585
 6483SOL    HW131085   2.394   3.751  11.969 -0.7626  0.7613  0.3726
 6483SOL    HW231086   2.448   3.755  12.100  0.2771 -1.0073  0.3500
 6484SOL     OW31087   0.184   1.483   9.229 -0.3081 -0.0024  0.2485
 6484SOL    HW131088   0.235   1.430   9.168 -0.4807  0.7739 -0.5697
 6484SOL    HW231089   0.155   1.555   9.173  0.9328 -1.0463 -1.7310
 6485SOL     OW31090   3.751   0.397   1.973 -0.4359  0.2512 -0.3583
 6485SOL    HW131091   3.680   0.410   1.910  0.2077  0.1816 -1.0992
 6485SOL    HW231092   3.704   0.321   2.007  0.5495 -0.3020 -0.2506
 6486SOL     OW31093   3.291   1.990   7.485  0.5590  0.0769  0.6132
 6486SOL    HW131094   3.274   2.076   7.524 -0.7151  0.0088  0.2153
 6486SOL    HW231095   3.224   1.989   7.417  1.4697  1.0047 -0.3029
 6487SOL     OW31096   1.461   3.697  16.667 -0.2978 -0.4937  0.2830
 6487SOL    HW131097   1.453   3.709  16.572 -0.5608  0.5602  0.4377
 6487SOL    HW231098   1.524   3.626  16.678 -0.8660 -0.8252  1.3490
 6488SOL     OW31099   2.388   4.382   7.798  0.1646 -0.6383  0.5484
 6488SOL    HW131100   2.422   4.325   7.729 -0.8614 -0.8531  0.2226
 6488SOL    HW231101   2.421   4.324   7.866  0.2176 -0.3742  0.7508
 6489SOL     OW31102   4.690   0.116   6.263  0.1823  0.5332 -0.5818
 6489SOL    HW131103   4.730   0.167   6.193  0.7921  2.5421  1.2358
 6489SOL    HW231104   4.720   0.033   6.227  1.2684  0.8539 -0.4032
 6490SOL     OW31105   2.330   1.457   8.489  0.1698 -0.1126  0.3168
 6490SOL    HW131106   2.285   1.507   8.557  3.2757  1.8369  0.9443
 6490SOL    HW231107   2.262   1.398   8.458  2.5450 -2.9448  0.5380
 6491SOL     OW31108   3.090   3.001  11.369 -0.1230 -0.3055 -0.2998
 6491SOL    HW131109   3.179   3.012  11.336 -0.6201  0.2634 -1.4206
 6491SOL    HW231110   3.062   2.948  11.294 -0.9642 -0.7728  0.3455
 6492SOL     OW31111   3.090   2.642   6.692 -0.4269 -0.0612 -0.1052
 6492SOL    HW131112   3.160   2.582   6.719  0.9153  1.0472 -1.1615
 6492SOL    HW231113   3.080   2.694   6.772  1.9291  0.2973 -0.0484
 6493SOL     OW31114   1.119   3.223   7.906 -0.5495  0.1147  0.0088
 6493SOL    HW131115   1.206   3.254   7.880 -0.3780 -0.8844 -0.6532
 6493SOL    HW231116   1.070   3.302   7.885  0.3143  1.1532  1.9503
 6494SOL     OW31117   4.244   0.640  10.757  0.2391  0.2871 -0.0766
 6494SOL    HW131118   4.339   0.633  10.750  0.2712  0.4433  0.2145
 6494SOL    HW231119   4.219   0.627  10.666 -2.9836 -1.8821  1.0832
 6495SOL     OW31120   3.077   0.863   2.177  0.1257  0.3655 -0.1065
 6495SOL    HW131121   2.998   0.912   2.202 -0.5954 -1.1984  0.6214
 6495SOL    HW231122   3.097   0.824   2.262  1.4929  1.4914  0.0999
 6496SOL     OW31123   2.435   0.544  12.723 -0.1508 -0.7542  0.0623
 6496SOL    HW131124   2.398   0.479  12.784  0.5090 -1.1206  0.0777
 6496SOL    HW231125   2.527   0.519  12.715  0.3623  0.4505  2.2505
 6497SOL     OW31126   2.465   1.459   1.906 -0.5307  0.0313  0.1248
 6497SOL    HW131127   2.402   1.489   1.840  0.9017 -0.6706 -1.5610
 6497SOL    HW231128   2.395   1.451   1.970 -0.1934 -0.9917  0.3543
 6498SOL     OW31129   4.593   0.952   8.197  0.0921 -0.4875  0.1617
 6498SOL    HW131130   4.610   0.858   8.193  0.9018 -0.4261  2.3624
 6498SOL    HW231131   4.509   0.951   8.151  0.9888  2.4352 -1.5740
 6499SOL     OW31132   3.053   0.063   3.469 -0.1137  0.1771  0.5490
 6499SOL    HW131133   3.127   0.089   3.523  0.7549 -1.9078  0.3584
 6499SOL    HW231134   2.983   0.076   3.533  0.0882  0.2713  0.7516
 6500SOL     OW31135   4.148   4.327   5.498  0.7778 -0.1077  0.0991
 6500SOL    HW131136   4.089   4.267   5.543 -0.3020  1.2054  0.3997
 6500SOL    HW231137   4.094   4.380   5.439  2.7167  2.0846  0.3190
 6501SOL     OW31138   4.299   0.161   9.025 -0.4865  0.0247 -0.1897
 6501SOL    HW131139   4.222   0.146   8.970 -0.8004  0.9975  0.0017
 6501SOL    HW231140   4.280   0.090   9.086  1.1098 -0.2777 -0.0264
 6502SOL     OW31141   3.286   0.085   8.781  0.9313 -0.5482 -0.5218
 6502SOL    HW131142   3.221   0.027   8.741  2.2961 -2.4322 -0.0178
 6502SOL    HW231143   3.349   0.025   8.822  0.2380 -1.4366 -0.7357
 6503SOL     OW31144   2.021   1.031   2.267 -0.2425 -0.4297  0.0009
 6503SOL    HW131145   1.945   1.054   2.215  0.5927  2.1112 -0.1200
 6503SOL    HW231146   2.007   0.941   2.296  1.5982 -0.2280  1.5074
 6504SOL     OW31147   2.219   0.988   0.785  0.3720 -0.4255  0.2000
 6504SOL    HW131148   2.197   1.024   0.699 -1.1069 -0.6193  0.5012
 6504SOL    HW231149   2.140   1.021   0.827  0.0596  0.9558 -1.4389
 6505SOL     OW31150   0.511   3.052   6.032 -0.3654 -0.5969  0.3927
 6505SOL    HW131151   0.491   2.967   6.070  1.1898 -1.5980 -1.0356
 6505SOL    HW231152   0.430   3.086   5.995  2.5948  1.1342 -4.5316
 6506SOL     OW31153   4.324   3.110   4.833 -0.4292  0.2436  0.2728
 6506SOL    HW131154   4.339   3.038   4.893 -3.5890 -0.5637  0.0815
 6506SOL    HW231155   4.320   3.062   4.750  2.4228  0.7722 -0.1728
 6507SOL     OW31156   3.151   4.214   1.173 -0.1745  0.5854 -0.2178
 6507SOL    HW131157   3.160   4.227   1.079 -1.2844 -5.0115 -1.0884
 6507SOL    HW231158   3.153   4.118   1.174 -1.3547  0.5695  1.2744
 6508SOL     OW31159   1.714   4.335   1.663 -0.2499  0.1865  0.2636
 6508SOL    HW131160   1.793   4.371   1.705  0.3206  0.6283 -1.1916
 6508SOL    HW231161   1.738   4.261   1.608  0.6744  1.3176 -0.8441
 6509SOL     OW31162   1.305   3.199   8.540 -0.1778  0.2070 -0.5667
 6509SOL    HW131163   1.370   3.243   8.486 -0.4762 -0.5027 -1.4989
 6509SOL    HW231164   1.256   3.274   8.574 -0.0158 -0.4347  1.0795
 6510SOL     OW31165   4.254   4.071   4.689  1.1173 -0.5571  0.8088
 6510SOL    HW131166   4.259   3.991   4.742  1.0044 -0.4094  1.0440
 6510SOL    HW231167   4.258   4.139   4.757 -1.7566 -1.5899  1.9869
 6511SOL     OW31168   4.457   3.078   7.440 -0.0017 -0.2772 -0.1925
 6511SOL    HW131169   4.420   3.121   7.363  1.2311  1.0288 -0.0572
 6511SOL    HW231170   4.377   3.055   7.488 -0.3505 -1.8413 -1.5525
 6512SOL     OW31171   0.850   2.263   7.509 -0.2964 -0.2951  0.1897
 6512SOL    HW131172   0.803   2.191   7.551  1.0314  0.4427  2.9326
 6512SOL    HW231173   0.841   2.337   7.569 -0.9283 -1.0026  0.9534
 6513SOL     OW31174   1.812   0.084   5.546 -0.0724  0.0455 -0.2563
 6513SOL    HW131175   1.835   4.734   5.521 -0.1100 -0.0253 -0.0421
 6513SOL    HW231176   1.800   0.128   5.463  0.7060  0.9273  0.1029
 6514SOL     OW31177   2.271   4.060   7.149 -0.1785  0.2288 -0.0836
 6514SOL    HW131178   2.363   4.044   7.167  0.6791  2.5632 -2.4107
 6514SOL    HW231179   2.271   4.137   7.091 -0.6867 -0.6916 -1.3190
 6515SOL     OW31180   2.338   2.213   2.117 -0.1203 -0.0248  0.0009
 6515SOL    HW131181   2.329   2.133   2.168  1.1034 -0.4832 -0.4979
 6515SOL    HW231182   2.279   2.273   2.162 -0.3701 -0.6036  0.4463
 6516SOL     OW31183   2.658   0.058  14.532  0.1838  0.6500 -0.3393
 6516SOL    HW131184   2.748   0.026  14.543 -0.5212 -1.6316 -1.1085
 6516SOL    HW231185   2.688   0.141  14.495 -1.8966  1.0446 -1.0989
 6517SOL     OW31186   2.916   1.358  12.419 -0.3997  0.1012  0.0652
 6517SOL    HW131187   2.893   1.269  12.446 -0.3503  0.2203  0.5117
 6517SOL    HW231188   3.003   1.346  12.381 -1.0911 -1.4240 -1.0097
 6518SOL     OW31189   0.475   2.396  16.562 -0.3339  0.5720 -0.1759
 6518SOL    HW131190   0.558   2.430  16.595 -0.8826  0.6742  1.1243
 6518SOL    HW231191   0.487   2.370  16.471 -0.7130 -3.0621  0.8089
 6519SOL     OW31192   1.598   2.815   7.844  0.5558  0.1902  0.1039
 6519SOL    HW131193   1.674   2.784   7.893  0.3985 -0.2370  0.0689
 6519SOL    HW231194   1.587   2.905   7.874  1.5317  0.5555 -0.5943
 6520SOL     OW31195   1.729   1.486   2.943 -0.3933 -0.7897 -0.4431
 6520SOL    HW131196   1.763   1.576   2.947 -1.4158 -0.3984 -0.6635
 6520SOL    HW231197   1.776   1.451   2.868 -1.9620  0.3241 -1.9337
 6521SOL     OW31198   1.634   1.942  11.595 -0.0449 -0.3595  0.4049
 6521SOL    HW131199   1.619   1.974  11.506  0.0697 -0.9518  0.1707
 6521SOL    HW231200   1.656   1.850  11.577  0.5682 -0.2346  0.5152
 6522SOL     OW31201   2.950   3.529   5.955  0.7305  0.0205  0.1956
 6522SOL    HW131202   2.930   3.499   5.866 -0.0907  0.6277  0.1776
 6522SOL    HW231203   2.865   3.522   5.998  0.0166  2.9547 -0.7492
 6523SOL     OW31204   2.494   1.580   0.947 -0.0747 -0.2225  0.5691
 6523SOL    HW131205   2.481   1.657   1.002 -2.1833 -1.6211  2.0515
 6523SOL    HW231206   2.466   1.608   0.861  1.2353 -0.8196 -0.0522
 6524SOL     OW31207   3.481   2.317   6.224  0.2061 -0.3468  0.1689
 6524SOL    HW131208   3.544   2.376   6.266  1.6958 -0.5464 -1.7692
 6524SOL    HW231209   3.440   2.274   6.299  1.6874 -0.4004  0.9571
 6525SOL     OW31210   1.917   1.036   8.993  0.1150  0.2446  0.0820
 6525SOL    HW131211   1.963   1.008   9.073 -0.0754  0.6508  0.3350
 6525SOL    HW231212   1.829   1.022   9.026  0.6623  0.5051  1.7087
 6526SOL     OW31213   4.701   3.710   9.374 -0.3840  0.0855 -0.5917
 6526SOL    HW131214   4.630   3.716   9.310 -0.8279  1.7848  0.0516
 6526SOL    HW231215   4.702   3.803   9.397 -0.1833  0.2166 -1.1289
 6527SOL     OW31216   3.540   0.762   5.913  0.0987 -0.0772  1.0033
 6527SOL    HW131217   3.551   0.728   5.824  2.8722  0.8854  0.9959
 6527SOL    HW231218   3.468   0.706   5.945  0.1486 -1.4169 -1.2526
 6528SOL     OW31219   0.480   3.698  12.860  0.2681  0.5655 -0.3678
 6528SOL    HW131220   0.478   3.765  12.928  1.3433 -0.1592  0.3782
 6528SOL    HW231221   0.533   3.631  12.904  0.9050  1.4717  0.2552
 6529SOL     OW31222   1.843   1.662   4.055 -0.7097 -0.0245  0.2683
 6529SOL    HW131223   1.862   1.568   4.062 -0.8848 -0.1192 -0.6410
 6529SOL    HW231224   1.833   1.691   4.146  2.2531 -0.0275  0.6186
 6530SOL     OW31225   3.996   1.394   3.910  0.3761  0.1102  0.1082
 6530SOL    HW131226   3.981   1.409   4.003 -1.5652  0.2180 -0.2150
 6530SOL    HW231227   4.087   1.424   3.907  0.6450 -0.7916 -0.7206
 6531SOL     OW31228   0.325   1.957   1.595 -0.1518 -0.2095  0.4989
 6531SOL    HW131229   0.348   2.020   1.663  0.6328 -3.2320  3.0206
 6531SOL    HW231230   0.325   1.871   1.637  0.7889 -1.0218 -1.1973
 6532SOL     OW31231   3.393   3.755  14.451 -0.3650 -0.0386 -0.0760
 6532SOL    HW131232   3.301   3.728  14.452 -0.1136 -0.8848  1.0668
 6532SOL    HW231233   3.393   3.816  14.377 -0.1213 -0.5088 -0.4580
 6533SOL     OW31234   0.779   4.149   2.394 -0.2484  0.6237 -0.5317
 6533SOL    HW131235   0.793   4.115   2.306  0.1812  0.6002 -0.4532
 6533SOL    HW231236   0.763   4.070   2.445 -0.8613  2.4735  2.1181
 6534SOL     OW31237   2.093   3.456   5.138  0.0308  0.0987 -0.5345
 6534SOL    HW131238   2.106   3.365   5.165  0.4728  0.3960  0.2560
 6534SOL    HW231239   2.009   3.477   5.178  0.0904  0.5239 -0.6347
 6535SOL     OW31240   0.694   2.182   6.825 -0.0267  0.0105  0.0348
 6535SOL    HW131241   0.708   2.102   6.775 -0.6090 -1.2075  1.8204
 6535SOL    HW231242   0.756   2.174   6.897  1.8581 -2.3892 -1.8829
 6536SOL     OW31243   1.531   4.172   8.665  0.4720  0.1243 -0.1196
 6536SOL    HW131244   1.495   4.155   8.578 -0.8908  2.7380 -0.0437
 6536SOL    HW231245   1.624   4.193   8.651  0.9750  0.0054  3.0583
 6537SOL     OW31246   4.329   3.416  17.572 -0.9099 -0.2309  0.3505
 6537SOL    HW131247   4.237   3.391  17.564 -0.9201 -1.3045  3.6928
 6537SOL    HW231248   4.324   3.460  17.657 -0.4828  0.4210  0.0366
 6538SOL     OW31249   0.018   0.160  11.631 -0.1101 -0.3414 -0.5992
 6538SOL    HW131250   4.677   0.139  11.679 -0.0255  1.5280  0.3991
 6538SOL    HW231251   0.042   0.236  11.684  0.0869 -0.2181 -0.8662
 6539SOL     OW31252   0.243   4.705   4.916 -0.3378  0.2110  0.1824
 6539SOL    HW131253   0.150   4.687   4.931  0.3348 -1.6622  2.2282
 6539SOL    HW231254   0.242   0.046   4.866 -0.8818  0.1275  0.0526
 6540SOL     OW31255   2.275   2.382   7.988 -0.3030  0.6584  0.1598
 6540SOL    HW131256   2.186   2.391   8.022 -1.0180 -1.5042 -1.1081
 6540SOL    HW231257   2.278   2.287   7.981 -0.6051  0.6856 -0.3372
 6541SOL     OW31258   1.364   2.011   4.986  0.4045  0.4188 -0.3796
 6541SOL    HW131259   1.304   2.053   5.047  1.2657  0.4558  0.4557
 6541SOL    HW231260   1.375   1.928   5.033  0.3336  1.2556  1.0999
 6542SOL     OW31261   1.226   3.602  16.430 -0.0280 -0.2126 -0.0757
 6542SOL    HW131262   1.234   3.584  16.337 -0.6857  0.5826 -0.2868
 6542SOL    HW231263   1.299   3.548  16.460 -1.4328 -0.4040  3.0104
 6543SOL     OW31264   3.536   0.275  14.853 -0.2534 -0.1307 -0.5945
 6543SOL    HW131265   3.603   0.313  14.796 -0.7855  0.4999 -0.7986
 6543SOL    HW231266   3.473   0.345  14.839  0.9442  0.7530 -1.6320
 6544SOL     OW31267   3.373   4.178   3.477 -0.0995  0.1831 -0.1716
 6544SOL    HW131268   3.344   4.094   3.441  1.5748  0.4162 -1.9951
 6544SOL    HW231269   3.309   4.236   3.435  1.3898  2.1234  0.2858
 6545SOL     OW31270   3.666   0.452   6.697  0.3614 -0.0443  0.3925
 6545SOL    HW131271   3.572   0.459   6.710  0.0474 -1.4176 -1.0828
 6545SOL    HW231272   3.700   0.542   6.705  0.8103 -0.4964  3.5406
 6546SOL     OW31273   1.674   1.145   9.944 -0.7304 -0.3382 -0.4853
 6546SOL    HW131274   1.733   1.206   9.987  0.0633 -1.7622  0.4492
 6546SOL    HW231275   1.719   1.064   9.970  1.2020  0.9952  0.2886
 6547SOL     OW31276   1.195   3.969   8.830  0.0117  0.2828 -0.5771
 6547SOL    HW131277   1.170   3.945   8.741 -2.3077  0.2653  0.0779
 6547SOL    HW231278   1.186   3.888   8.881  0.2787  0.2497 -0.5814
 6548SOL     OW31279   0.434   4.674   1.711  0.1251  0.1969 -0.5343
 6548SOL    HW131280   0.467   4.701   1.797 -0.9395 -1.3417  0.3489
 6548SOL    HW231281   0.497   4.604   1.690  1.5573  0.7640  1.7920
 6549SOL     OW31282   4.090   4.172  12.077  0.4260 -0.4209  0.2912
 6549SOL    HW131283   4.077   4.095  12.022  1.5440  1.2578 -2.2935
 6549SOL    HW231284   4.184   4.185  12.074  0.7246 -2.3372  1.0449
 6550SOL     OW31285   0.740   4.534   3.094 -0.4334  0.8339  0.5444
 6550SOL    HW131286   0.781   4.449   3.077  0.1393  1.0922  0.6382
 6550SOL    HW231287   0.757   4.579   3.012 -3.4430  1.4432  0.2816
 6551SOL     OW31288   2.268   2.060   6.359 -0.6968  0.6966  0.1889
 6551SOL    HW131289   2.360   2.051   6.384 -0.5836  2.0047  0.2558
 6551SOL    HW231290   2.228   2.018   6.435  0.0923  0.3169  0.4001
 6552SOL     OW31291   2.528   2.093  12.099  0.3113  0.0028  0.0641
 6552SOL    HW131292   2.486   2.025  12.151 -0.3288  0.5751  0.2877
 6552SOL    HW231293   2.622   2.074  12.104  0.5952  1.6019  0.6409
 6553SOL     OW31294   0.232   2.427   2.525  0.1343  0.2736 -0.1217
 6553SOL    HW131295   0.263   2.517   2.527 -2.3662  1.1575 -0.6174
 6553SOL    HW231296   0.313   2.377   2.537  0.3024  0.5341 -0.1927
 6554SOL     OW31297   4.276   3.649   1.736  0.4107 -0.1855  0.0102
 6554SOL    HW131298   4.254   3.689   1.820  1.1413  1.2320 -0.4778
 6554SOL    HW231299   4.239   3.708   1.670 -1.1802  1.0068  1.9516
 6555SOL     OW31300   4.401   2.857   6.534 -0.6079 -0.0041  0.1793
 6555SOL    HW131301   4.489   2.876   6.568 -0.0455 -0.6338 -0.9444
 6555SOL    HW231302   4.347   2.909   6.594 -0.2658 -0.0253  0.5046
 6556SOL     OW31303   0.535   2.525  14.136 -0.2096 -0.2203  0.3218
 6556SOL    HW131304   0.531   2.592  14.068  0.1749  0.0701  0.5911
 6556SOL    HW231305   0.590   2.567  14.202 -0.8989 -1.7020  1.8364
 6557SOL     OW31306   2.196   0.178   2.088 -0.0661 -0.5689  0.4017
 6557SOL    HW131307   2.100   0.177   2.088 -0.0980  2.9457 -2.1074
 6557SOL    HW231308   2.216   0.257   2.038 -0.7311  0.7307  2.1781
 6558SOL     OW31309   1.940   1.861   5.752 -0.1784 -0.0483 -0.2036
 6558SOL    HW131310   1.945   1.955   5.738 -0.6230 -0.1325 -0.9038
 6558SOL    HW231311   1.922   1.826   5.665  3.2998 -1.7537 -0.2638
 6559SOL     OW31312   0.706   3.828  15.935  0.2666  0.4320  0.3840
 6559SOL    HW131313   0.657   3.902  15.972  0.7806  0.4824  0.9587
 6559SOL    HW231314   0.695   3.838  15.840  0.5402 -2.2060  0.0694
 6560SOL     OW31315   0.931   3.844   3.178  0.0718 -0.0210  0.0404
 6560SOL    HW131316   0.840   3.844   3.146 -0.4674 -3.0207  1.5553
 6560SOL    HW231317   0.985   3.852   3.100  0.7861 -0.5611  0.4785
 6561SOL     OW31318   0.277   4.017   2.935 -0.4237  0.4154  0.0331
 6561SOL    HW131319   0.259   4.094   2.880 -0.2969  0.5994  0.2527
 6561SOL    HW231320   0.300   4.051   3.021  0.0237 -0.6988  0.3474
 6562SOL     OW31321   1.536   3.924   5.149 -0.0717  0.2565 -0.5216
 6562SOL    HW131322   1.458   3.972   5.122 -0.9411 -0.3734  0.8534
 6562SOL    HW231323   1.510   3.840   5.112 -0.7787  0.3582 -0.2550
 6563SOL     OW31324   1.624   0.358   4.229 -0.4602  0.4526 -0.1950
 6563SOL    HW131325   1.556   0.383   4.292  1.6141 -1.4628  2.8163
 6563SOL    HW231326   1.693   0.421   4.251 -0.6108  0.6359 -0.2439
 6564SOL     OW31327   3.678   3.536   7.303 -0.2608  0.0692 -0.0059
 6564SOL    HW131328   3.649   3.563   7.390 -0.8708 -0.9723  0.1166
 6564SOL    HW231329   3.600   3.485   7.279 -0.7190  1.7968 -2.1311
 6565SOL     OW31330   0.016   4.332   9.167  0.3958 -0.2785 -0.1422
 6565SOL    HW131331   4.703   4.288   9.100  1.9231 -0.2661 -1.3642
 6565SOL    HW231332   4.714   4.313   9.251 -0.1967 -2.6979 -0.9820
 6566SOL     OW31333   2.138   1.866   4.308  0.0207 -0.8532 -0.0185
 6566SOL    HW131334   2.229   1.889   4.326 -0.1132 -0.4346  0.1191
 6566SOL    HW231335   2.141   1.861   4.212 -1.4577  0.7825 -0.1510
 6567SOL     OW31336   2.173   0.201   6.567  0.0977 -0.2052 -0.1656
 6567SOL    HW131337   2.123   0.218   6.647  1.3845 -0.0595  0.6031
 6567SOL    HW231338   2.148   0.280   6.518 -0.2727  1.2493  2.3947
 6568SOL     OW31339   1.045   2.189   1.056 -0.4570  0.4029 -0.1611
 6568SOL    HW131340   1.109   2.144   1.112  0.3951 -0.3085 -1.7112
 6568SOL    HW231341   1.095   2.223   0.982  0.6322 -0.2347  0.2874
 6569SOL     OW31342   0.589   1.531   7.486  0.6857 -0.7463  0.3547
 6569SOL    HW131343   0.507   1.534   7.436  0.7775  1.9786  0.3705
 6569SOL    HW231344   0.643   1.465   7.443 -0.5095  0.1568 -2.5753
 6570SOL     OW31345   3.372   3.075  11.278 -0.1728 -0.3292 -0.0055
 6570SOL    HW131346   3.361   3.126  11.198 -1.4183  0.6104  0.7855
 6570SOL    HW231347   3.420   2.998  11.247  2.0194  0.7457  0.7248
 6571SOL     OW31348   3.466   0.481   6.385 -0.1601  0.4054 -0.0267
 6571SOL    HW131349   3.403   0.477   6.313 -1.2291  1.5450  0.8480
 6571SOL    HW231350   3.515   0.553   6.346  2.6508 -1.8668 -0.6637
 6572SOL     OW31351   4.071   1.345   2.549  0.3685  0.1164  0.2162
 6572SOL    HW131352   4.014   1.308   2.617 -0.6851 -0.9223 -1.2331
 6572SOL    HW231353   4.126   1.409   2.594  0.9374 -0.3043  0.1108
 6573SOL     OW31354   2.573   2.734  15.693  0.0495  0.0043 -0.6037
 6573SOL    HW131355   2.629   2.784  15.634  0.5901  0.9133  0.6790
 6573SOL    HW231356   2.497   2.740  15.634 -0.9606 -0.0925  0.6970
 6574SOL     OW31357   3.679   3.467   9.075 -0.0343  0.3172  0.0603
 6574SOL    HW131358   3.586   3.476   9.097 -0.0361 -0.8487  0.5125
 6574SOL    HW231359   3.706   3.559   9.067  0.7205  0.1767  1.0562
 6575SOL     OW31360   1.879   2.325  17.302 -0.0794  0.2668 -0.2242
 6575SOL    HW131361   1.836   2.242  17.278  0.8918 -1.2469  3.2935
 6575SOL    HW231362   1.963   2.325  17.257 -0.5854 -0.6669 -1.1616
 6576SOL     OW31363   3.402   3.937   2.192  0.1268  0.1983  0.3630
 6576SOL    HW131364   3.341   3.926   2.265 -0.4033  1.7458  0.1458
 6576SOL    HW231365   3.420   4.031   2.187 -0.3136  0.1859 -1.4376
 6577SOL     OW31366   0.524   3.096   2.764 -0.6657  0.4851  0.5689
 6577SOL    HW131367   0.549   3.070   2.853 -0.2217 -0.1271  0.2611
 6577SOL    HW231368   0.559   3.183   2.743 -2.3687  1.0805  0.1215
 6578SOL     OW31369   2.250   2.131   8.743  0.2396 -0.3248 -0.1461
 6578SOL    HW131370   2.293   2.045   8.745 -1.2523 -1.0749  0.2335
 6578SOL    HW231371   2.319   2.184   8.782 -1.0265  1.0149  0.2751
 6579SOL     OW31372   1.899   0.062   7.424  0.4764  0.0927 -0.3638
 6579SOL    HW131373   1.953   4.725   7.404 -0.1466 -0.7600  1.2955
 6579SOL    HW231374   1.917   0.107   7.341  0.5087 -0.0293 -0.4243
 6580SOL     OW31375   4.327   2.433   0.646  0.1926  0.2289  0.0189
 6580SOL    HW131376   4.303   2.521   0.675 -1.6226 -0.3759  0.3420
 6580SOL    HW231377   4.277   2.374   0.703 -1.9362  0.1647 -1.8959
 6581SOL     OW31378   3.659   3.628   5.016 -0.4749  0.0776  0.1042
 6581SOL    HW131379   3.631   3.671   4.935 -1.1469  0.3983  0.5061
 6581SOL    HW231380   3.704   3.693   5.070 -0.2069 -0.8170  0.9514
 6582SOL     OW31381   1.341   1.403   9.273 -0.0056  0.7240  0.2085
 6582SOL    HW131382   1.394   1.472   9.234  0.0372 -0.7425 -2.3241
 6582SOL    HW231383   1.300   1.444   9.350 -0.2801  2.9522 -1.1209
 6583SOL     OW31384   1.585   1.017  12.390  0.6622 -0.1916  0.5367
 6583SOL    HW131385   1.498   0.998  12.425  1.1556 -2.2678  0.6718
 6583SOL    HW231386   1.561   1.039  12.300 -0.6387 -2.1940  0.3857
 6584SOL     OW31387   1.334   2.294   5.772 -0.4174  0.0874 -0.4489
 6584SOL    HW131388   1.269   2.225   5.758  0.1802 -0.4328 -0.6935
 6584SOL    HW231389   1.417   2.250   5.751 -0.4934 -0.6586  0.7628
 6585SOL     OW31390   2.367   3.805   8.552  0.0643  0.1419  0.1775
 6585SOL    HW131391   2.369   3.829   8.460  2.0451 -0.6622  0.0292
 6585SOL    HW231392   2.329   3.717   8.557  0.2302  0.0783  0.3136
 6586SOL     OW31393   0.214   0.834   4.671  0.4292 -0.3796 -0.3996
 6586SOL    HW131394   0.133   0.873   4.639 -0.4259 -0.7616  1.3345
 6586SOL    HW231395   0.232   0.776   4.597  1.6188 -1.2707  0.5724
 6587SOL     OW31396   1.197   2.623   2.721 -0.4802  0.3962  0.3869
 6587SOL    HW131397   1.182   2.717   2.733  1.2972  0.5395  1.4044
 6587SOL    HW231398   1.107   2.591   2.734  0.3204 -1.8927  0.3945
 6588SOL     OW31399   3.610   0.540   9.008  1.0427 -0.2189 -0.0228
 6588SOL    HW131400   3.526   0.553   9.053  2.0516 -1.1173  2.1173
 6588SOL    HW231401   3.655   0.484   9.071  1.5807 -1.3903 -1.4505
 6589SOL     OW31402   2.052   3.000   1.418 -0.1690  0.5687  0.2200
 6589SOL    HW131403   2.030   3.035   1.332  0.1757  1.7471  0.5968
 6589SOL    HW231404   1.978   3.036   1.467  1.2024 -0.3229  2.9380
 6590SOL     OW31405   4.150   4.686   2.685 -0.4365  0.4291  0.3599
 6590SOL    HW131406   4.173   4.674   2.592  1.5212 -4.1113  1.4660
 6590SOL    HW231407   4.087   4.614   2.694  0.2088 -0.2972 -0.8731
 6591SOL     OW31408   3.556   0.000   8.059 -0.6064  0.0100  0.0482
 6591SOL    HW131409   3.504   0.065   8.013 -0.1792 -0.9219 -1.7599
 6591SOL    HW231410   3.495   4.671   8.086  0.4215 -0.9361 -0.0312
 6592SOL     OW31411   0.580   2.145   7.790 -0.5537  0.4891 -0.2931
 6592SOL    HW131412   0.603   2.176   7.877  2.4693 -3.0727  0.1666
 6592SOL    HW231413   0.648   2.080   7.770 -1.7138 -0.8308  0.0004
 6593SOL     OW31414   3.920   2.986   4.487  0.0572 -0.3658 -0.5502
 6593SOL    HW131415   3.938   2.922   4.555 -1.0988  1.2192  1.2323
 6593SOL    HW231416   3.882   2.920   4.429 -0.2627  1.8285 -2.8831
 6594SOL     OW31417   3.686   2.006   7.132  0.3351  1.1084  0.1854
 6594SOL    HW131418   3.735   1.926   7.153  1.5773  2.1784  1.4150
 6594SOL    HW231419   3.757   2.071   7.123  1.8780 -0.9754 -2.5756
 6595SOL     OW31420   2.667   3.494  15.246 -0.5209 -0.6432 -0.4990
 6595SOL    HW131421   2.572   3.509  15.244 -0.4436 -0.1142  0.1160
 6595SOL    HW231422   2.695   3.581  15.218  1.3051 -1.1184 -0.0888
 6596SOL     OW31423   3.658   2.953   4.793  0.6361  0.0164 -0.0647
 6596SOL    HW131424   3.752   2.964   4.775  1.1788 -1.9421  1.5233
 6596SOL    HW231425   3.652   2.858   4.804  1.2646  0.1444  1.4208
 6597SOL     OW31426   3.000   3.865   5.866  0.0002 -0.3024 -0.2397
 6597SOL    HW131427   3.094   3.854   5.885  0.0924 -0.2534 -0.6629
 6597SOL    HW231428   2.965   3.776   5.861 -1.7397  0.3874 -0.2596
 6598SOL     OW31429   1.404   2.990   2.693  0.0612 -0.7875  0.2931
 6598SOL    HW131430   1.498   2.985   2.714  0.5969 -0.4645 -1.9623
 6598SOL    HW231431   1.406   3.042   2.612 -1.1280 -0.4619  0.4818
 6599SOL     OW31432   4.704   2.250   6.767 -0.1793  0.8271 -0.0038
 6599SOL    HW131433   4.736   2.164   6.796  1.0924  2.1713  2.5391
 6599SOL    HW231434   0.036   2.312   6.778 -0.9530  1.4365  1.5010
 6600SOL     OW31435   2.354   4.701   8.432 -0.3293 -0.0843  0.4343
 6600SOL    HW131436   2.299   4.675   8.359  0.1108 -0.4356  0.2238
 6600SOL    HW231437   2.277   4.726   8.482 -1.2703  1.2056 -1.6794
 6601SOL     OW31438   3.257   0.553   2.628  0.4478  0.3396  0.0722
 6601SOL    HW131439   3.170   0.550   2.668 -0.1202 -0.9764 -1.2479
 6601SOL    HW231440   3.293   0.485   2.685  1.3748  0.3470 -0.5052
 6602SOL     OW31441   4.390   0.521   4.430 -0.5133 -0.7741  0.2026
 6602SOL    HW131442   4.433   0.585   4.375 -0.4038 -1.1777 -0.1785
 6602SOL    HW231443   4.405   0.532   4.524 -1.6957  2.9528 -0.0791
 6603SOL     OW31444   3.529   3.735  15.229  0.5105 -0.0297  0.2653
 6603SOL    HW131445   3.535   3.726  15.134 -1.0399 -0.6760  0.2207
 6603SOL    HW231446   3.617   3.709  15.257  1.4582  1.9124 -0.9349
 6604SOL     OW31447   0.661   3.434  13.501 -0.0387 -0.1798 -0.1251
 6604SOL    HW131448   0.650   3.523  13.536 -0.4700 -1.8713  4.0474
 6604SOL    HW231449   0.579   3.423  13.452  0.2740 -1.0720 -0.4351
 6605SOL     OW31450   0.423   1.232   5.598  0.0486 -0.0903 -0.6295
 6605SOL    HW131451   0.375   1.219   5.516 -0.0836  1.4529 -0.7897
 6605SOL    HW231452   0.442   1.139   5.614  0.8426  0.0954 -0.5202
 6606SOL     OW31453   0.058   4.596   2.033  0.4681 -0.1558 -0.5168
 6606SOL    HW131454   0.076   4.645   1.952 -2.2253  1.3589 -0.2268
 6606SOL    HW231455   0.117   4.639   2.095  1.7527  1.3759 -2.7948
 6607SOL     OW31456   1.569   1.859   4.314 -0.5087  0.4371  0.2038
 6607SOL    HW131457   1.566   1.915   4.236  2.0966  0.5990  0.2132
 6607SOL    HW231458   1.475   1.864   4.329 -0.7901 -1.4978 -0.9804
 6608SOL     OW31459   0.427   0.376   7.216  0.0082 -0.0231  0.1985
 6608SOL    HW131460   0.441   0.360   7.123 -0.6979 -0.3871  0.1553
 6608SOL    HW231461   0.402   0.468   7.212  2.4211  0.5380 -2.4092
 6609SOL     OW31462   1.960   4.085  12.038 -0.1416 -0.0500 -0.4404
 6609SOL    HW131463   2.042   4.079  11.989  0.0981  0.7853 -0.1425
 6609SOL    HW231464   1.886   4.077  11.978  0.0740 -0.9106 -0.6022
 6610SOL     OW31465   3.079   4.181   5.590 -0.4081 -0.2725  0.3008
 6610SOL    HW131466   3.135   4.107   5.611  0.4490  0.5357  0.8737
 6610SOL    HW231467   3.071   4.182   5.495  0.8483  1.0374  0.2160
 6611SOL     OW31468   1.768   1.116   3.047 -0.6987 -0.1858  0.0561
 6611SOL    HW131469   1.828   1.145   2.979 -0.0261  0.8852  1.0991
 6611SOL    HW231470   1.807   1.166   3.119  0.8318  1.6712 -2.0465
 6612SOL     OW31471   2.292   4.662   3.338  0.0307  0.1536 -0.1965
 6612SOL    HW131472   2.276   4.681   3.246  1.2788  1.6193 -0.1157
 6612SOL    HW231473   2.309   4.569   3.327 -0.4128  0.1986 -1.2178
 6613SOL     OW31474   1.652   3.971   2.975 -0.4211  0.4249 -0.7328
 6613SOL    HW131475   1.589   3.956   3.045  1.3864 -1.9086  0.3940
 6613SOL    HW231476   1.696   3.886   2.970 -0.5928  0.3067 -0.2343
 6614SOL     OW31477   1.965   1.676   3.051  0.4009  0.6114 -0.1715
 6614SOL    HW131478   1.932   1.687   3.141  0.3854  1.5866 -0.3044
 6614SOL    HW231479   1.907   1.719   2.988 -0.2992  0.4327  0.3475
 6615SOL     OW31480   4.016   3.162   1.875 -0.0800 -0.3046  0.7483
 6615SOL    HW131481   4.019   3.238   1.934  0.3934  0.8284 -0.7248
 6615SOL    HW231482   3.930   3.166   1.835  0.0736  2.1187  0.6233
 6616SOL     OW31483   0.820   1.313   8.372  0.4255 -0.1201 -0.1836
 6616SOL    HW131484   0.831   1.219   8.384 -1.5624 -0.6195 -2.3479
 6616SOL    HW231485   0.887   1.330   8.306 -1.9346  2.6562 -1.8458
 6617SOL     OW31486   4.492   3.690  10.032  0.3351 -0.2342 -0.0608
 6617SOL    HW131487   4.402   3.665  10.008  0.1322  1.5065 -1.1397
 6617SOL    HW231488   4.496   3.669  10.125 -0.3405  3.8762  0.9173
 6618SOL     OW31489   0.002   4.094  14.178  0.5463 -0.0246 -0.2587
 6618SOL    HW131490   0.042   4.178  14.157 -1.1731  0.2428 -2.5192
 6618SOL    HW231491   0.002   4.089  14.274  0.1011 -1.1144 -0.3071
 6619SOL     OW31492   0.653   3.353   4.313  0.4642 -0.5629  0.3003
 6619SOL    HW131493   0.648   3.399   4.396 -0.0735 -0.3013  0.1229
 6619SOL    HW231494   0.743   3.321   4.319  0.8036  0.0008 -1.6810
 6620SOL     OW31495   4.585   4.570   4.823  0.1003  0.2805 -0.3505
 6620SOL    HW131496   4.661   4.531   4.780 -0.6022 -0.5789 -0.8114
 6620SOL    HW231497   4.612   4.541   4.910  1.0497 -1.8116 -1.3520
 6621SOL     OW31498   4.257   2.445   9.896 -0.4809  0.3290 -0.2589
 6621SOL    HW131499   4.314   2.406   9.830 -0.9793 -1.1405  0.1657
 6621SOL    HW231500   4.308   2.418   9.972  1.0195  1.2942 -0.9370
 6622SOL     OW31501   1.322   3.521   6.999  0.7226  0.0589  0.2220
 6622SOL    HW131502   1.252   3.563   6.950  0.6262  0.8833  1.0696
 6622SOL    HW231503   1.388   3.590   6.989 -0.4962  1.1759  0.0245
 6623SOL     OW31504   0.540   0.400   2.529 -0.2579 -0.1048  0.4936
 6623SOL    HW131505   0.445   0.389   2.536 -0.5419  0.7724 -1.7648
 6623SOL    HW231506   0.567   0.383   2.619  0.0475  0.3693  0.4891
 6624SOL     OW31507   1.813   3.111  10.758 -0.0564  0.2893  0.4336
 6624SOL    HW131508   1.843   3.024  10.731 -1.1122  0.1049 -0.1269
 6624SOL    HW231509   1.788   3.097  10.849 -1.2701 -2.0913 -0.2696
 6625SOL     OW31510   0.938   0.861   2.690 -0.0666 -0.0467 -0.0954
 6625SOL    HW131511   1.012   0.884   2.746  0.0827  0.2195 -0.3950
 6625SOL    HW231512   0.890   0.811   2.756  0.2314  1.6569  1.4138
 6626SOL     OW31513   0.572   4.232   6.728 -0.7314 -0.1445 -0.8231
 6626SOL    HW131514   0.628   4.160   6.699 -1.7101  0.3854 -4.1243
 6626SOL    HW231515   0.572   4.293   6.653 -1.4159 -0.8179 -1.3725
 6627SOL     OW31516   3.722   1.171  10.234  0.1329 -0.1309  0.0097
 6627SOL    HW131517   3.723   1.135  10.323  3.8333 -2.2282 -0.8597
 6627SOL    HW231518   3.654   1.238  10.241  0.4035  0.1905 -0.4147
 6628SOL     OW31519   0.116   3.598   5.747 -0.0520 -0.0857  0.0357
 6628SOL    HW131520   0.035   3.643   5.723 -0.3819 -0.9155 -0.3876
 6628SOL    HW231521   0.170   3.666   5.706  0.1194  0.5862  1.3591
 6629SOL     OW31522   0.107   3.804  11.461 -0.3385  0.3353  0.1720
 6629SOL    HW131523   0.044   3.805  11.389 -1.7677  1.3114  1.4395
 6629SOL    HW231524   0.109   3.895  11.491  4.0044  0.0890  0.5957
 6630SOL     OW31525   1.223   2.625   5.997 -0.1431  0.2722  0.3606
 6630SOL    HW131526   1.173   2.667   5.927 -1.0641 -1.6079 -0.1088
 6630SOL    HW231527   1.184   2.665   6.075  2.2686  1.3081  1.0364
 6631SOL     OW31528   3.428   2.649  15.468  0.5184 -0.6464 -0.0813
 6631SOL    HW131529   3.395   2.569  15.427 -0.0191 -0.2508 -0.4209
 6631SOL    HW231530   3.522   2.631  15.474  0.7814  0.5161 -0.7546
 6632SOL     OW31531   1.400   0.779   3.149 -0.5086 -0.1159 -0.4794
 6632SOL    HW131532   1.451   0.774   3.068  0.3346 -0.0450  0.0408
 6632SOL    HW231533   1.323   0.832   3.132  0.0640  1.8046  2.8228
 6633SOL     OW31534   0.850   3.482  11.745  0.1945 -0.0877  0.1342
 6633SOL    HW131535   0.810   3.479  11.832  0.2777 -1.0904  0.1304
 6633SOL    HW231536   0.811   3.404  11.707  0.1823  0.1680 -0.3843
 6634SOL     OW31537   0.501   3.598   7.614  0.0508 -0.0993  0.0355
 6634SOL    HW131538   0.519   3.504   7.619 -1.6168 -0.3831  0.9533
 6634SOL    HW231539   0.580   3.620   7.565  0.0281 -2.2842 -0.9835
 6635SOL     OW31540   3.680   1.752  15.045 -0.9314 -0.4820 -0.3540
 6635SOL    HW131541   3.656   1.699  14.969  1.9773 -0.5261 -1.2337
 6635SOL    HW231542   3.773   1.742  15.064 -0.6762  0.1978 -1.2547
 6636SOL     OW31543   3.227   4.364   5.414  0.6776  0.5930 -0.7406
 6636SOL    HW131544   3.150   4.386   5.362 -1.8524  1.7151  3.4900
 6636SOL    HW231545   3.279   4.442   5.396 -0.5101  1.5059 -0.2023
 6637SOL     OW31546   1.301   3.165   1.881 -0.2534  0.6627 -0.5370
 6637SOL    HW131547   1.362   3.097   1.852 -2.3257 -0.4810 -2.1563
 6637SOL    HW231548   1.290   3.199   1.793 -2.3571  1.2538 -0.0525
 6638SOL     OW31549   1.367   0.104   9.805  0.1975  0.1230 -0.1754
 6638SOL    HW131550   1.321   0.070   9.729 -1.1494 -1.2669  1.2483
 6638SOL    HW231551   1.458   0.109   9.775  0.9878 -2.0067  1.8640
 6639SOL     OW31552   1.744   1.980   3.123  0.6158 -0.1254 -0.3573
 6639SOL    HW131553   1.712   1.891   3.109  1.4816 -0.3327 -0.9789
 6639SOL    HW231554   1.816   1.964   3.184 -1.2787  2.1053  2.4670
 6640SOL     OW31555   3.468   4.016   6.863  0.5957 -0.0966  0.3167
 6640SOL    HW131556   3.472   3.928   6.825  0.6798 -0.1336  0.4099
 6640SOL    HW231557   3.372   4.021   6.869  0.4907 -0.8868 -0.7498
 6641SOL     OW31558   3.658   4.177  17.403  0.2214  0.0668 -0.1827
 6641SOL    HW131559   3.716   4.207  17.333 -0.2354 -0.3520 -0.7402
 6641SOL    HW231560   3.675   4.085  17.382 -1.0605 -0.2607  0.2119
 6642SOL     OW31561   0.927   3.673   5.436 -0.2818  0.5836 -0.0017
 6642SOL    HW131562   0.845   3.625   5.423  0.3383 -0.4101 -0.2420
 6642SOL    HW231563   0.897   3.760   5.411  0.8745  0.5311 -1.6278
 6643SOL     OW31564   1.000   1.658   3.281 -0.0556 -0.3820 -0.0075
 6643SOL    HW131565   0.972   1.594   3.346  0.6394 -0.8709 -0.1945
 6643SOL    HW231566   1.002   1.735   3.339  0.7766  0.0836 -0.6570
 6644SOL     OW31567   1.272   1.017   6.313 -0.2029 -0.5320  0.1455
 6644SOL    HW131568   1.291   0.976   6.397 -1.8062 -1.6505 -0.0366
 6644SOL    HW231569   1.290   0.942   6.257  1.3967  0.9270 -1.2862
 6645SOL     OW31570   1.599   3.933  12.430  0.1939  0.1227  0.2984
 6645SOL    HW131571   1.677   3.969  12.389  0.6174 -0.7820  0.3098
 6645SOL    HW231572   1.522   3.978  12.394 -0.1964 -0.7508  0.0318
 6646SOL     OW31573   2.355   3.706   2.241 -0.1247  0.0935 -0.2376
 6646SOL    HW131574   2.289   3.637   2.245 -1.0153  0.8486 -1.9441
 6646SOL    HW231575   2.425   3.668   2.295 -0.7929 -0.2795  0.3662
 6647SOL     OW31576   0.844   2.188   9.734 -0.3024 -0.4919 -0.1208
 6647SOL    HW131577   0.806   2.271   9.704  0.0314 -0.1334  0.4524
 6647SOL    HW231578   0.908   2.228   9.793  0.2344  0.8346 -1.6067
 6648SOL     OW31579   0.320   0.534  14.061  0.6094 -0.1646 -0.5910
 6648SOL    HW131580   0.289   0.443  14.067  1.0311 -0.2296  0.6461
 6648SOL    HW231581   0.315   0.546  13.967 -0.8847 -3.0742 -0.9023
 6649SOL     OW31582   1.946   0.230  14.043  0.3674  0.1671  0.1314
 6649SOL    HW131583   1.878   0.288  14.010  0.5996  0.6126  0.4389
 6649SOL    HW231584   2.016   0.291  14.062  0.4146  0.3121 -0.5176
 6650SOL     OW31585   2.714   2.417   7.741  0.0794 -0.5074 -0.0580
 6650SOL    HW131586   2.701   2.387   7.831 -1.5362 -0.7028 -0.3651
 6650SOL    HW231587   2.703   2.512   7.751 -1.6892 -0.7046 -0.2471
 6651SOL     OW31588   4.250   2.034  15.125  0.2898  0.9178 -0.0900
 6651SOL    HW131589   4.238   1.953  15.175  0.6373  1.6525  1.1646
 6651SOL    HW231590   4.195   2.011  15.050  1.2460 -0.2645 -0.4296
 6652SOL     OW31591   1.058   1.875   4.628  0.2647  0.8059  0.2045
 6652SOL    HW131592   1.060   1.961   4.588 -0.4971 -0.3558 -2.3227
 6652SOL    HW231593   1.128   1.883   4.693 -1.3006 -0.0019  1.9676
 6653SOL     OW31594   3.029   0.845  13.182 -0.0590  0.6489  0.0798
 6653SOL    HW131595   3.090   0.897  13.234  3.7968 -0.9778 -2.8082
 6653SOL    HW231596   3.032   0.759  13.224 -0.6565  1.0867  1.0205
 6654SOL     OW31597   1.722   4.368   7.412 -0.6648 -0.1916  0.2263
 6654SOL    HW131598   1.667   4.430   7.461  0.5316 -0.5753  2.0109
 6654SOL    HW231599   1.803   4.377   7.460 -0.9151  2.8415  0.0636
 6655SOL     OW31600   3.226   2.182   8.464  0.1398  0.0995 -0.2335
 6655SOL    HW131601   3.142   2.201   8.421  0.8569  0.8950 -1.2970
 6655SOL    HW231602   3.263   2.124   8.397  0.5064 -0.4828  0.4750
 6656SOL     OW31603   0.676   1.162   8.798 -0.4748 -0.4275  0.1428
 6656SOL    HW131604   0.759   1.138   8.755  0.0539  0.7724  0.4819
 6656SOL    HW231605   0.708   1.223   8.864  1.5115 -1.3465  0.0333
 6657SOL     OW31606   1.477   4.725   2.886 -0.2984  0.1649 -0.3927
 6657SOL    HW131607   1.512   0.063   2.840  0.6081 -1.1790 -1.9860
 6657SOL    HW231608   1.488   4.653   2.824  0.5555 -0.7185  0.7689
 6658SOL     OW31609   4.203   0.134   3.478  0.4625  0.3700  0.2088
 6658SOL    HW131610   4.239   0.102   3.561 -1.4430 -0.3764  0.7368
 6658SOL    HW231611   4.132   0.071   3.472 -1.5038  2.5960  0.1446
 6659SOL     OW31612   2.944   4.466  12.753  0.3888 -0.0692 -0.7621
 6659SOL    HW131613   3.030   4.508  12.756  0.8093 -0.9056 -1.3796
 6659SOL    HW231614   2.910   4.483  12.841 -2.3301  1.5623 -2.1383
 6660SOL     OW31615   1.002   3.151   8.959  0.3375  0.1399  0.4438
 6660SOL    HW131616   0.985   3.059   8.943  1.2468  0.0154  0.1994
 6660SOL    HW231617   0.956   3.194   8.888  0.8899 -0.2483 -0.1509
 6661SOL     OW31618   4.676   2.781  15.833  0.7977  0.5528  0.0743
 6661SOL    HW131619   4.599   2.828  15.865  1.1472  1.7731 -0.9146
 6661SOL    HW231620   0.009   2.829  15.873 -0.2807  1.7579  0.5803
 6662SOL     OW31621   0.291   1.257   7.416 -0.1722  0.2082  0.6009
 6662SOL    HW131622   0.258   1.347   7.409  0.1611  0.3306  0.6266
 6662SOL    HW231623   0.266   1.241   7.508  1.1308  0.8880  1.0715
 6663SOL     OW31624   1.304   1.345   1.694 -0.2015  0.0373 -0.3018
 6663SOL    HW131625   1.226   1.389   1.729 -1.5989  0.0665 -3.4097
 6663SOL    HW231626   1.260   1.283   1.636  3.3278 -2.3402 -0.4558
 6664SOL     OW31627   4.089   2.174   4.835  0.0426 -0.8153  0.9834
 6664SOL    HW131628   4.173   2.200   4.874  0.8392 -0.1214 -1.1849
 6664SOL    HW231629   4.124   2.106   4.777 -1.0010 -2.1113  1.8638
 6665SOL     OW31630   4.498   4.031   8.262  0.2388  0.4595  0.1982
 6665SOL    HW131631   4.562   3.965   8.290 -2.0841 -1.0145  2.0120
 6665SOL    HW231632   4.547   4.113   8.276  2.6786 -0.6539 -1.7784
 6666SOL     OW31633   3.922   2.559   4.165 -0.1569  0.3279  0.3373
 6666SOL    HW131634   4.017   2.570   4.174  0.1180 -1.6352 -0.1839
 6666SOL    HW231635   3.913   2.590   4.075 -0.9903 -2.0358 -0.3761
 6667SOL     OW31636   0.783   2.964   2.814  0.2190 -0.2355  0.0541
 6667SOL    HW131637   0.802   3.008   2.897 -1.1111  0.5040 -0.0293
 6667SOL    HW231638   0.749   2.884   2.855  0.2268 -0.4577 -0.3792
 6668SOL     OW31639   3.002   1.680  12.799 -1.1215 -0.4978  0.2649
 6668SOL    HW131640   3.041   1.624  12.867  2.9175  0.1288 -1.5605
 6668SOL    HW231641   3.038   1.638  12.721 -0.0609 -1.1779  1.1236
 6669SOL     OW31642   2.756   0.222   8.671 -0.0948  0.1330  0.0434
 6669SOL    HW131643   2.755   0.246   8.578  1.4593 -2.3532 -0.6381
 6669SOL    HW231644   2.849   0.227   8.694 -0.2731  1.5066  0.4545
 6670SOL     OW31645   2.743   1.907  13.327  0.2713  0.1297 -0.4315
 6670SOL    HW131646   2.743   1.857  13.408 -2.2661  1.8047  0.5903
 6670SOL    HW231647   2.804   1.975  13.355 -2.0563  1.8451  0.4561
 6671SOL     OW31648   2.268   4.638  10.954 -0.0579 -0.5609 -0.1398
 6671SOL    HW131649   2.283   4.668  10.864  0.5692 -1.4769 -0.3446
 6671SOL    HW231650   2.354   4.601  10.974  0.4836 -0.5492 -2.4789
 6672SOL     OW31651   1.311   0.985  12.470  0.3670  0.1971 -0.0941
 6672SOL    HW131652   1.277   1.068  12.503  1.2336  0.8097 -0.7549
 6672SOL    HW231653   1.237   0.937  12.433 -0.0681 -0.2267  1.3461
 6673SOL     OW31654   2.605   3.540   9.016 -0.0756  0.1443 -0.7426
 6673SOL    HW131655   2.587   3.449   8.994 -1.6562  0.2213  0.2195
 6673SOL    HW231656   2.516   3.574   9.022  0.4210  1.3159  0.1111
 6674SOL     OW31657   1.783   4.297   8.557  0.0894 -0.2743 -0.7231
 6674SOL    HW131658   1.878   4.283   8.550  0.3178  0.2694  1.1374
 6674SOL    HW231659   1.778   4.297   8.653 -1.7675 -1.4343 -0.8366
 6675SOL     OW31660   1.090   2.125   4.479 -0.2087  0.4148 -0.2716
 6675SOL    HW131661   1.160   2.163   4.533  0.4303  0.3440 -1.0454
 6675SOL    HW231662   1.090   2.190   4.410  0.7300  0.8837  0.1652
 6676SOL     OW31663   4.544   0.047   4.438 -0.2268  0.2676  0.2055
 6676SOL    HW131664   4.478   0.002   4.491 -2.1749 -2.2599 -4.3419
 6676SOL    HW231665   4.496   0.111   4.386  1.2808 -0.3120 -1.9635
 6677SOL     OW31666   1.342   2.819   7.395 -0.6157  0.9289 -0.2969
 6677SOL    HW131667   1.402   2.834   7.468  0.9900 -0.2294 -1.3928
 6677SOL    HW231668   1.299   2.742   7.431 -0.8204 -0.3802 -3.3494
 6678SOL     OW31669   0.801   2.586   9.879 -0.1872 -0.6499  0.2193
 6678SOL    HW131670   0.794   2.617   9.969 -0.9206 -2.0200  0.6320
 6678SOL    HW231671   0.896   2.594   9.875 -0.3331  0.7918 -0.3461
 6679SOL     OW31672   1.854   0.606   9.856 -0.7864  0.0880  0.2301
 6679SOL    HW131673   1.775   0.620   9.803  0.2013  0.8289 -1.0628
 6679SOL    HW231674   1.914   0.559   9.798 -1.9553 -0.8306 -0.2511
 6680SOL     OW31675   0.587   3.387   5.561 -0.0452  0.4146 -0.0122
 6680SOL    HW131676   0.652   3.430   5.617 -2.7511  2.4255  1.6395
 6680SOL    HW231677   0.527   3.347   5.624  0.6319  2.6324  2.0644
 6681SOL     OW31678   4.540   0.447   5.864 -0.0699 -0.6395 -0.0380
 6681SOL    HW131679   4.609   0.507   5.834 -1.4096  0.7604 -0.2703
 6681SOL    HW231680   4.492   0.504   5.924  0.2469 -0.6932  0.2677
 6682SOL     OW31681   4.291   2.899   5.007 -0.4472 -0.0374  0.6241
 6682SOL    HW131682   4.363   2.857   5.055 -0.7005 -1.3552 -0.1635
 6682SOL    HW231683   4.221   2.851   5.051 -0.5366 -1.4831 -1.0950
 6683SOL     OW31684   3.004   1.677   1.478 -0.1047  0.2118 -0.5423
 6683SOL    HW131685   3.062   1.643   1.410  1.3535  1.2169  0.1898
 6683SOL    HW231686   3.045   1.761   1.501 -0.7690  0.5044 -0.4348
 6684SOL     OW31687   1.487   0.701   1.454 -0.5012 -0.3308 -0.8219
 6684SOL    HW131688   1.408   0.740   1.493  1.2462  0.9635  1.4383
 6684SOL    HW231689   1.510   0.762   1.384 -1.3539  0.1713 -0.6661
 6685SOL     OW31690   1.646   0.547   5.981 -0.2736 -0.0011  0.3521
 6685SOL    HW131691   1.711   0.612   6.007  0.1083 -0.4616  0.5588
 6685SOL    HW231692   1.683   0.505   5.903 -2.4125  0.5411 -0.9517
 6686SOL     OW31693   1.744   4.498   3.370  0.2623 -0.1863 -0.0761
 6686SOL    HW131694   1.754   4.403   3.357  0.9281 -0.1368  0.0915
 6686SOL    HW231695   1.734   4.536   3.283 -1.1981 -0.3909  0.0029
 6687SOL     OW31696   2.920   0.202   8.146  0.3406 -0.2361 -0.2399
 6687SOL    HW131697   2.917   0.115   8.187 -0.9694 -1.1458 -2.2533
 6687SOL    HW231698   2.827   0.218   8.128 -0.0004 -1.3162  0.4981
 6688SOL     OW31699   2.032   2.079  16.899 -0.3902 -0.0932 -0.1801
 6688SOL    HW131700   1.981   2.010  16.942 -2.2415  4.3572  4.7861
 6688SOL    HW231701   1.968   2.137  16.859 -1.8846 -0.4121  1.7361
 6689SOL     OW31702   1.335   2.931  11.955 -0.6653 -0.5945  0.1977
 6689SOL    HW131703   1.418   2.897  11.922 -0.0610 -0.9871  2.1409
 6689SOL    HW231704   1.366   3.001  12.012 -1.2604 -0.8251  0.8066
 6690SOL     OW31705   2.174   3.938   3.784 -0.1029  0.3065  0.4623
 6690SOL    HW131706   2.136   4.024   3.802 -0.9082  0.3349 -1.3452
 6690SOL    HW231707   2.130   3.878   3.844  0.8622 -0.9781 -0.0953
 6691SOL     OW31708   0.935   3.994   3.532 -0.2350 -0.6144 -0.5296
 6691SOL    HW131709   0.886   3.978   3.451  1.1180  1.0218 -1.6673
 6691SOL    HW231710   0.878   3.950   3.594  0.8096  0.3942  1.1492
 6692SOL     OW31711   0.148   2.878   1.583  1.0854 -0.1693 -0.0828
 6692SOL    HW131712   0.240   2.855   1.572  0.7799 -0.6578 -1.7550
 6692SOL    HW231713   0.150   2.859   1.677 -0.7155  2.2560  0.4429
 6693SOL     OW31714   2.526   4.393   5.349 -0.3099  0.4115  0.0094
 6693SOL    HW131715   2.566   4.306   5.356 -0.5311  0.4456  1.8107
 6693SOL    HW231716   2.604   4.447   5.363 -0.4337  0.4409  0.6089
 6694SOL     OW31717   4.012   3.802   5.656 -0.1322  0.3712  0.1692
 6694SOL    HW131718   3.927   3.844   5.648  0.7027  1.8692 -0.8396
 6694SOL    HW231719   3.983   3.715   5.629 -0.8498  0.6396  0.0973
 6695SOL     OW31720   0.743   0.352   7.308  0.1796 -0.3664 -0.2255
 6695SOL    HW131721   0.819   0.403   7.334 -0.6583  0.6281  0.2551
 6695SOL    HW231722   0.698   0.405   7.242 -1.7310 -2.3510 -0.5147
 6696SOL     OW31723   1.333   1.735  11.641  0.2813 -0.0454 -0.1595
 6696SOL    HW131724   1.378   1.656  11.672  1.7215  0.9306  0.2651
 6696SOL    HW231725   1.264   1.703  11.583  0.0085 -1.3974  0.9182
 6697SOL     OW31726   2.289   0.098   7.845 -0.4365 -0.5234  0.3572
 6697SOL    HW131727   2.248   0.014   7.866 -0.3314 -0.4266  0.9728
 6697SOL    HW231728   2.312   0.093   7.753 -0.3431  1.4225  0.2783
 6698SOL     OW31729   4.594   4.640  17.711 -0.2960 -0.3430  0.0493
 6698SOL    HW131730   4.550   4.558  17.732 -0.4780 -0.4533 -0.7730
 6698SOL    HW231731   4.662   4.651   0.021  0.5416  3.1233 -1.3763
 6699SOL     OW31732   1.933   1.804   1.112 -0.1329  0.1791  0.5958
 6699SOL    HW131733   1.951   1.872   1.177 -1.9212  0.1538  1.1127
 6699SOL    HW231734   1.837   1.811   1.108 -0.0989  0.1573 -0.2252
 6700SOL     OW31735   4.551   3.459   7.981  0.3049  0.3025  0.2836
 6700SOL    HW131736   4.488   3.523   8.013 -1.0347 -0.4527 -0.8585
 6700SOL    HW231737   4.514   3.382   8.023  2.2323  0.0496  1.5072
 6701SOL     OW31738   1.227   2.944   4.412  0.1173  0.2596  0.0326
 6701SOL    HW131739   1.223   2.987   4.498  1.2053  2.9853 -1.2894
 6701SOL    HW231740   1.308   2.896   4.427 -0.2189 -0.4505 -0.4111
 6702SOL     OW31741   3.216   1.632  17.132  1.1743  0.2007  0.0113
 6702SOL    HW131742   3.126   1.608  17.155  1.8375 -2.1749  0.1101
 6702SOL    HW231743   3.265   1.586  17.200  0.7642 -0.0574  0.1323
 6703SOL     OW31744   0.907   1.841   4.250 -0.5446  0.1032 -0.1912
 6703SOL    HW131745   0.913   1.796   4.334  1.6729  1.1970  0.2502
 6703SOL    HW231746   0.928   1.763   4.198  1.1818  0.7519 -0.4908
 6704SOL     OW31747   4.454   3.999   4.473  0.5709  0.2481 -0.6365
 6704SOL    HW131748   4.487   3.957   4.553 -4.6246 -3.8627 -0.6065
 6704SOL    HW231749   4.378   4.044   4.509  0.8444 -0.7720  1.2826
 6705SOL     OW31750   4.004   0.824   6.108 -0.2329 -0.2865 -0.5472
 6705SOL    HW131751   3.917   0.814   6.071 -0.0082  1.2245 -1.4782
 6705SOL    HW231752   4.057   0.800   6.032  0.4132  3.1341 -1.1867
 6706SOL     OW31753   0.778   4.097  12.462  0.0732 -0.1710 -0.4218
 6706SOL    HW131754   0.689   4.132  12.476 -0.0645 -0.3400 -0.8854
 6706SOL    HW231755   0.763   4.005  12.483  0.9184 -0.1693  0.1972
 6707SOL     OW31756   1.882   1.210   2.571  0.0469 -0.3173  0.0320
 6707SOL    HW131757   1.899   1.123   2.605 -3.7682 -1.2638 -0.5281
 6707SOL    HW231758   1.834   1.174   2.497 -1.2174  2.0012 -0.2859
 6708SOL     OW31759   1.342   2.542   4.625  0.1258 -0.1697  0.0148
 6708SOL    HW131760   1.412   2.513   4.683 -1.0686  0.9797  2.0170
 6708SOL    HW231761   1.378   2.522   4.538  1.9735  2.4104  0.1737
 6709SOL     OW31762   1.930   4.558   5.208 -0.3005 -0.5406  0.0365
 6709SOL    HW131763   1.870   4.513   5.149 -1.4385  1.4834 -0.3429
 6709SOL    HW231764   1.934   4.509   5.290  1.5800  0.1063  0.3363
 6710SOL     OW31765   0.285   0.962   6.585 -0.1398 -0.1738  0.0621
 6710SOL    HW131766   0.309   1.053   6.567 -0.4622  0.6176  3.5953
 6710SOL    HW231767   0.366   0.912   6.592 -0.5198 -0.9474 -1.0590
 6711SOL     OW31768   3.007   0.309  14.447 -0.2370  0.0364  0.0605
 6711SOL    HW131769   2.922   0.270  14.467  0.5620 -1.6125  0.2432
 6711SOL    HW231770   3.004   0.329  14.354  1.4110 -0.3192 -0.0755
 6712SOL     OW31771   1.710   0.755   7.173 -0.0256 -0.0982  0.0814
 6712SOL    HW131772   1.671   0.837   7.142 -3.2775 -1.5360  0.3805
 6712SOL    HW231773   1.749   0.726   7.090  0.1706 -0.7166  0.3950
 6713SOL     OW31774   1.163   3.344  14.033 -0.2669  0.3014 -0.3538
 6713SOL    HW131775   1.192   3.420  13.983  1.3854 -0.0791  0.0385
 6713SOL    HW231776   1.069   3.357  14.018 -0.1209 -0.1705 -1.6769
 6714SOL     OW31777   3.250   1.001  11.933 -0.5809 -0.2416 -0.0974
 6714SOL    HW131778   3.319   1.066  11.945  1.7428 -2.3515 -2.0636
 6714SOL    HW231779   3.275   0.980  11.843 -0.0651  0.8293 -0.2027
 6715SOL     OW31780   2.412   2.636   2.562  0.0068  0.1135 -0.3396
 6715SOL    HW131781   2.392   2.588   2.481  2.9095 -1.8455  0.1243
 6715SOL    HW231782   2.377   2.723   2.545  0.1042 -0.0142 -1.2074
 6716SOL     OW31783   0.367   2.999   4.562 -0.2473  0.1028 -0.2892
 6716SOL    HW131784   0.358   3.093   4.577 -0.6679 -0.4306  2.7568
 6716SOL    HW231785   0.458   3.001   4.531 -0.2242 -0.7624 -0.2863
 6717SOL     OW31786   4.278   1.458   5.148  0.3225  0.2597 -0.0896
 6717SOL    HW131787   4.289   1.383   5.207  0.3274  2.4682  2.7058
 6717SOL    HW231788   4.252   1.419   5.064 -0.5056 -1.6764  1.0599
 6718SOL     OW31789   1.816   3.495   8.142  0.0190 -0.3292 -0.3030
 6718SOL    HW131790   1.898   3.461   8.177  0.3177  0.7750  0.0746
 6718SOL    HW231791   1.816   3.581   8.185 -1.3750  0.2853 -1.4989
 6719SOL     OW31792   1.086   1.434   1.138 -0.1539 -0.0766  0.1254
 6719SOL    HW131793   1.091   1.359   1.078 -1.9644 -0.0236 -0.0925
 6719SOL    HW231794   1.052   1.404   1.223  2.4673  0.5669  1.4342
 6720SOL     OW31795   1.773   2.264   3.116  0.1013 -0.1122  0.2190
 6720SOL    HW131796   1.751   2.173   3.134  0.5774 -0.1188  0.7585
 6720SOL    HW231797   1.812   2.296   3.197 -1.4395  2.0535  0.1236
 6721SOL     OW31798   3.116   3.560   1.928 -0.1653  0.0453 -0.6807
 6721SOL    HW131799   3.022   3.541   1.916 -0.3998  1.6454 -1.3332
 6721SOL    HW231800   3.118   3.572   2.022  3.4999  1.2179 -0.9374
 6722SOL     OW31801   0.553   2.887   5.178  0.1244 -0.6232  0.0146
 6722SOL    HW131802   0.502   2.816   5.138 -1.2769  0.1298  0.4658
 6722SOL    HW231803   0.550   2.857   5.269 -3.4112 -0.2210  0.0480
 6723SOL     OW31804   2.757   2.258   6.394  0.1801  0.4711 -0.1810
 6723SOL    HW131805   2.741   2.346   6.429  1.6301 -0.2505  2.2521
 6723SOL    HW231806   2.672   2.216   6.406  0.9713 -1.7605 -2.4962
 6724SOL     OW31807   2.355   2.089   2.559 -0.0542  0.8424 -0.0155
 6724SOL    HW131808   2.319   2.133   2.637  2.2857  1.3042  0.7985
 6724SOL    HW231809   2.275   2.075   2.507  1.5807 -2.8061 -1.5271
 6725SOL     OW31810   1.586   1.351   8.455  0.1202 -0.4460  0.0787
 6725SOL    HW131811   1.670   1.316   8.484  0.9187 -0.0265 -1.7196
 6725SOL    HW231812   1.580   1.430   8.508  0.4096 -1.1878  1.2156
 6726SOL     OW31813   3.795   3.551   2.847  0.3298 -0.2322  0.3980
 6726SOL    HW131814   3.774   3.515   2.761  0.1640  1.2418 -0.1655
 6726SOL    HW231815   3.838   3.476   2.888 -1.1674 -0.9658  0.6016
 6727SOL     OW31816   0.374   0.322   6.323  0.3675  0.1620  0.6835
 6727SOL    HW131817   0.376   0.307   6.418 -2.3579  0.3434  0.7765
 6727SOL    HW231818   0.444   0.270   6.283 -0.2884 -1.3878  1.5352
 6728SOL     OW31819   1.013   2.537   6.948 -0.2283  1.1763  0.2495
 6728SOL    HW131820   1.051   2.512   6.864  0.4454  1.0225  0.5933
 6728SOL    HW231821   1.089   2.587   6.978  0.7965 -0.0834 -0.2108
 6729SOL     OW31822   1.162   3.618   3.595  0.0573 -0.2731  0.4336
 6729SOL    HW131823   1.181   3.524   3.597  0.3419 -0.3137 -2.9400
 6729SOL    HW231824   1.109   3.628   3.516  1.2262  1.3848 -0.1305
 6730SOL     OW31825   2.716   1.430  14.440 -0.3738  0.2192 -0.0074
 6730SOL    HW131826   2.733   1.435  14.534  2.3919 -3.2516 -0.2984
 6730SOL    HW231827   2.621   1.419  14.432 -0.6055  1.3052  1.2727
 6731SOL     OW31828   1.577   3.738   5.649  0.5496 -0.5968 -0.5666
 6731SOL    HW131829   1.491   3.761   5.684  0.3948 -2.8241  0.5317
 6731SOL    HW231830   1.567   3.757   5.556  0.3431 -1.7434 -0.7837
 6732SOL     OW31831   1.344   1.872  16.803  0.0331  0.1472 -0.0634
 6732SOL    HW131832   1.278   1.901  16.866  1.9072  0.3111  1.8251
 6732SOL    HW231833   1.381   1.957  16.782  1.7276 -0.0326  2.1877
 6733SOL     OW31834   0.038   0.762   7.998 -0.3663 -0.6927  0.1910
 6733SOL    HW131835   0.011   0.757   8.090  0.3962  0.7936  0.5077
 6733SOL    HW231836   0.123   0.807   8.004 -1.2066  0.8319  0.6763
 6734SOL     OW31837   0.602   3.445   6.534 -0.3739  0.5703 -0.2155
 6734SOL    HW131838   0.688   3.470   6.502 -0.5055  1.2660 -0.0193
 6734SOL    HW231839   0.558   3.383   6.476 -1.5343  1.4328 -0.2452
 6735SOL     OW31840   0.646   3.778   0.709 -0.0419  0.0562 -0.0892
 6735SOL    HW131841   0.725   3.800   0.760  0.0460 -2.8778  1.0341
 6735SOL    HW231842   0.584   3.769   0.781 -0.0578 -0.2957 -0.1483
 6736SOL     OW31843   0.935   2.787   7.746 -0.0890  0.2295 -0.4798
 6736SOL    HW131844   0.920   2.739   7.664 -1.3426  0.0344 -0.1382
 6736SOL    HW231845   0.882   2.867   7.742 -0.5049 -0.1083 -1.6210
 6737SOL     OW31846   0.725   3.136   9.343 -0.2740 -0.6533 -0.3964
 6737SOL    HW131847   0.765   3.085   9.414 -2.4146 -0.2326  1.1466
 6737SOL    HW231848   0.634   3.120   9.372  0.0119 -0.8250  0.4080
 6738SOL     OW31849   1.033   3.460   8.144  0.3554  0.2203 -1.1017
 6738SOL    HW131850   0.977   3.382   8.147 -0.7473  1.0078 -1.2382
 6738SOL    HW231851   1.049   3.481   8.052 -0.7906 -1.0462 -1.5899
 6739SOL     OW31852   1.254   1.857   4.795  0.7727 -0.1618 -0.0025
 6739SOL    HW131853   1.212   1.788   4.846  0.7612 -0.0368  0.1574
 6739SOL    HW231854   1.279   1.922   4.862  2.2165  0.0124 -0.7016
 6740SOL     OW31855   2.492   0.860   7.718 -0.6577  0.2098  0.0689
 6740SOL    HW131856   2.467   0.951   7.731 -0.5543  0.1472  0.7129
 6740SOL    HW231857   2.414   0.833   7.669 -0.1939 -1.1377  0.0716
 6741SOL     OW31858   0.921   2.230   1.519 -0.0651  0.3070 -0.2511
 6741SOL    HW131859   0.938   2.177   1.441  1.1091 -0.1187  0.2925
 6741SOL    HW231860   0.900   2.157   1.578 -1.0643  0.8405  0.0501
 6742SOL     OW31861   1.083   3.746  11.422  0.1960 -0.9869 -0.1303
 6742SOL    HW131862   1.084   3.656  11.455 -1.4849  0.1547  2.9889
 6742SOL    HW231863   1.157   3.779  11.472 -0.3906  0.1240 -0.0022
 6743SOL     OW31864   1.989   4.123   4.099 -0.3731 -0.1791  0.2020
 6743SOL    HW131865   1.926   4.125   4.171  0.7251 -0.5991  1.1729
 6743SOL    HW231866   1.995   4.029   4.085  0.6734 -0.4373  2.3824
 6744SOL     OW31867   3.091   0.746  12.912 -0.0863 -0.1222 -0.0357
 6744SOL    HW131868   3.045   0.662  12.906  0.7212 -0.4551 -1.5173
 6744SOL    HW231869   3.042   0.790  12.981  0.3431  0.0128  0.1795
 6745SOL     OW31870   2.239   2.571   5.451  0.1716  0.3133 -0.0879
 6745SOL    HW131871   2.331   2.544   5.455  0.8869  3.0601  1.6739
 6745SOL    HW231872   2.194   2.486   5.446  0.1533  0.3688 -0.8811
 6746SOL     OW31873   3.984   0.666   8.101  0.2902 -0.3193 -0.0943
 6746SOL    HW131874   3.975   0.571   8.093  1.4788 -0.3770 -0.6673
 6746SOL    HW231875   3.918   0.690   8.166 -0.7231 -0.1018 -1.1967
 6747SOL     OW31876   3.552   0.261   2.327  0.4145 -0.0140  0.2057
 6747SOL    HW131877   3.611   0.314   2.380  0.5589  0.9901 -0.9686
 6747SOL    HW231878   3.479   0.323   2.332 -0.0890 -0.6095  0.3003
 6748SOL     OW31879   1.784   2.938   7.442  0.2163  0.1565  0.1792
 6748SOL    HW131880   1.716   2.987   7.394  1.6929 -1.9667 -4.0529
 6748SOL    HW231881   1.804   2.986   7.522  0.7453 -0.2720  0.3012
 6749SOL     OW31882   2.730   1.574   8.019  0.1801  0.0265 -0.3912
 6749SOL    HW131883   2.673   1.648   7.998 -0.0909  0.5015  2.0647
 6749SOL    HW231884   2.796   1.582   7.950 -0.4793 -2.6324 -1.3538
 6750SOL     OW31885   0.528   1.491   3.301  0.0064  0.2402  0.3004
 6750SOL    HW131886   0.594   1.495   3.370 -1.2053  1.3054  1.3875
 6750SOL    HW231887   0.567   1.549   3.236 -0.9688  1.7940  1.1227
 6751SOL     OW31888   0.145   2.438   8.171 -0.1033  0.5105  0.0190
 6751SOL    HW131889   0.228   2.399   8.146 -0.2741 -0.1994  0.5623
 6751SOL    HW231890   0.101   2.446   8.087 -0.0790  2.0669  0.1490
 6752SOL     OW31891   2.776   1.683   4.972 -0.6067 -0.1390  0.2508
 6752SOL    HW131892   2.716   1.672   4.898 -1.2619 -1.9209  1.0575
 6752SOL    HW231893   2.767   1.592   5.000 -3.1592  0.9494  2.8353
 6753SOL     OW31894   4.591   3.106   1.630 -0.7764  0.1415  1.2208
 6753SOL    HW131895   4.654   3.055   1.579 -0.7075  1.3942  0.0551
 6753SOL    HW231896   4.536   3.141   1.560 -0.5892 -0.7929  0.5921
 6754SOL     OW31897   4.228   1.716   4.365  0.6973  0.1850  0.0224
 6754SOL    HW131898   4.265   1.804   4.358  1.5155 -0.1375  0.3521
 6754SOL    HW231899   4.191   1.725   4.277 -0.5668  2.1455  0.7703
 6755SOL     OW31900   1.282   3.765   3.048 -0.0571 -0.3030  0.3237
 6755SOL    HW131901   1.320   3.734   2.966 -0.9183 -1.8612  0.4997
 6755SOL    HW231902   1.193   3.790   3.024  0.0889 -1.2505 -1.1686
 6756SOL     OW31903   0.180   1.039   7.267  0.3950 -0.4072  0.6556
 6756SOL    HW131904   0.230   1.109   7.309  1.8752  0.4177 -2.4646
 6756SOL    HW231905   0.101   1.087   7.244 -0.3113 -0.8497  2.1695
 6757SOL     OW31906   4.319   3.554   4.287 -0.0891  0.0156  0.0681
 6757SOL    HW131907   4.399   3.606   4.298  0.4166 -1.2951  2.7051
 6757SOL    HW231908   4.365   3.470   4.285  2.0195  1.3104 -3.8104
 6758SOL     OW31909   1.077   2.618  10.311  0.4240 -0.0364  0.1916
 6758SOL    HW131910   0.988   2.652  10.322  0.2835 -0.9774  2.0218
 6758SOL    HW231911   1.110   2.659  10.231  0.6364  1.1809  0.9188
 6759SOL     OW31912   1.205   2.731   5.609  0.0765 -0.3849 -0.5649
 6759SOL    HW131913   1.299   2.711   5.603 -0.1015 -1.4076  0.0768
 6759SOL    HW231914   1.164   2.659   5.562 -1.4988  1.5137 -2.1139
 6760SOL     OW31915   3.851   2.980   9.016 -0.1892  0.1538  0.0421
 6760SOL    HW131916   3.877   2.975   9.108  1.0111 -0.7824 -0.3436
 6760SOL    HW231917   3.859   3.075   9.004 -0.3784  0.0822 -0.6189
 6761SOL     OW31918   4.530   1.811   6.263  0.3359 -0.6563  0.4027
 6761SOL    HW131919   4.522   1.790   6.356 -0.5383 -0.6453  0.3383
 6761SOL    HW231920   4.560   1.901   6.270 -1.7852  0.1420 -0.8605
 6762SOL     OW31921   0.766   3.315  16.676 -0.4736  0.0209  0.6703
 6762SOL    HW131922   0.837   3.331  16.738  0.2669  0.8090 -0.3818
 6762SOL    HW231923   0.747   3.407  16.654 -1.4912 -0.1215  0.9770
 6763SOL     OW31924   0.356   0.580   8.107 -0.1510 -0.2159 -0.2252
 6763SOL    HW131925   0.434   0.575   8.163 -0.7326  1.2734  0.7254
 6763SOL    HW231926   0.340   0.674   8.115 -2.3943 -0.6448  0.2116
 6764SOL     OW31927   1.353   2.006   8.028  0.5832 -0.0964  0.5167
 6764SOL    HW131928   1.305   1.925   8.046  0.6119 -0.0058  0.9855
 6764SOL    HW231929   1.288   2.067   8.061  0.9805 -0.5801  2.1784
 6765SOL     OW31930   1.693   4.145   5.154  0.2998 -0.3129 -0.3374
 6765SOL    HW131931   1.709   4.153   5.248 -0.0993 -0.9731 -0.2051
 6765SOL    HW231932   1.634   4.069   5.146 -0.3326  0.0031  1.2574
 6766SOL     OW31933   3.768   3.986  10.266 -0.3178 -0.1879 -0.5208
 6766SOL    HW131934   3.720   3.966  10.346  0.6309 -1.0376 -0.1723
 6766SOL    HW231935   3.701   3.968  10.201 -1.1152 -3.5199  1.2465
 6767SOL     OW31936   0.643   4.009   3.988 -0.1835 -0.8077  0.0660
 6767SOL    HW131937   0.596   4.041   4.066 -1.7326 -2.4555 -0.1866
 6767SOL    HW231938   0.715   3.960   4.027  1.0657  0.3745 -0.7954
 6768SOL     OW31939   4.317   3.608   0.062 -0.7925  0.5068  0.0572
 6768SOL    HW131940   4.293   3.528   0.109  2.6295 -1.2221 -1.0954
 6768SOL    HW231941   4.272   3.667   0.122  0.0232  0.3653  0.8097
 6769SOL     OW31942   4.484   1.624   5.565  0.0986 -0.4770  0.1534
 6769SOL    HW131943   4.408   1.575   5.598 -0.4837  0.9719  0.9469
 6769SOL    HW231944   4.455   1.710   5.535  0.3100  0.3108  2.2145
 6770SOL     OW31945   2.211   2.197   0.703  0.1304  0.7940  0.2500
 6770SOL    HW131946   2.128   2.183   0.657  1.2854  0.1650 -1.6516
 6770SOL    HW231947   2.257   2.113   0.699 -0.8304  0.1324  3.1691
 6771SOL     OW31948   1.580   2.571   3.987  0.3056  0.0436  0.3395
 6771SOL    HW131949   1.561   2.539   4.075 -3.4448  1.3954  0.0186
 6771SOL    HW231950   1.527   2.519   3.927  1.0996 -0.9160  0.4612
 6772SOL     OW31951   2.821   4.178   3.917 -0.0030 -0.0860  0.0719
 6772SOL    HW131952   2.749   4.139   3.965  0.3866  0.2434  0.9155
 6772SOL    HW231953   2.808   4.270   3.940 -3.0305 -0.7855  1.1794
 6773SOL     OW31954   2.801   4.672   1.951  0.2242 -0.4165  0.1603
 6773SOL    HW131955   2.762   4.711   2.029 -0.1239 -3.2342  1.3976
 6773SOL    HW231956   2.736   4.691   1.884  1.1899 -1.7043 -1.1586
 6774SOL     OW31957   3.550   1.954   7.388 -0.4162  0.0065 -0.2062
 6774SOL    HW131958   3.583   1.996   7.309 -0.3716  2.9991  1.3813
 6774SOL    HW231959   3.454   1.960   7.384 -0.4577 -0.0815  0.6178
 6775SOL     OW31960   0.929   0.753   6.870 -0.1051 -0.5083  0.3387
 6775SOL    HW131961   1.024   0.740   6.873 -0.1857 -1.5987 -1.7383
 6775SOL    HW231962   0.904   0.676   6.820  1.6886 -0.1374 -1.1267
 6776SOL     OW31963   3.694   0.286   7.863  0.1775  0.5492 -0.4277
 6776SOL    HW131964   3.659   0.322   7.782  1.7685 -1.2135 -1.8970
 6776SOL    HW231965   3.613   0.251   7.900  1.6258  0.6827  2.9291
 6777SOL     OW31966   1.433   0.277   7.344 -1.0322 -0.2532  0.6215
 6777SOL    HW131967   1.444   0.266   7.439 -1.8378  0.8768  0.8420
 6777SOL    HW231968   1.346   0.316   7.355 -1.3466 -0.4566 -1.2383
 6778SOL     OW31969   1.382   1.859  17.391 -0.1987  0.1206 -0.4789
 6778SOL    HW131970   1.315   1.921  17.362 -0.7149  1.1239  2.9225
 6778SOL    HW231971   1.398   1.807  17.312  0.0568 -1.3623  0.5426
 6779SOL     OW31972   4.725   3.526  14.885  0.1357  0.2213 -0.1379
 6779SOL    HW131973   0.016   3.590  14.821  0.7089  1.3851  1.3163
 6779SOL    HW231974   4.651   3.573  14.923 -1.1549  0.4053 -2.8592
 6780SOL     OW31975   1.494   3.561   2.091  0.0369  0.3634  0.8062
 6780SOL    HW131976   1.549   3.634   2.064  0.2964  0.0096  0.3888
 6780SOL    HW231977   1.419   3.614   2.118 -0.2519  0.5011 -0.2821
 6781SOL     OW31978   1.678   1.711   3.474 -0.4429  0.0288 -0.0437
 6781SOL    HW131979   1.632   1.710   3.390  1.9205 -2.2424 -1.3012
 6781SOL    HW231980   1.765   1.687   3.442 -0.9642 -0.9927 -0.6929
 6782SOL     OW31981   4.024   2.279   5.596 -0.2175  0.0841  0.2083
 6782SOL    HW131982   4.056   2.219   5.528 -2.2176 -1.9494  1.0501
 6782SOL    HW231983   3.979   2.211   5.647  1.8088 -0.3297  1.4202
 6783SOL     OW31984   2.912   1.422   3.774  0.4652 -0.0066  0.1859
 6783SOL    HW131985   2.863   1.455   3.699  0.5015 -1.2256 -0.3690
 6783SOL    HW231986   2.915   1.330   3.749  2.0451 -0.3627  1.6793
 6784SOL     OW31987   3.437   4.307   0.464 -0.3826 -0.1071  0.0938
 6784SOL    HW131988   3.463   4.242   0.398  1.4294 -2.0476  2.7512
 6784SOL    HW231989   3.400   4.377   0.410  1.0486  1.6878  1.4523
 6785SOL     OW31990   1.328   2.990   5.711 -0.3584  0.2779 -0.6731
 6785SOL    HW131991   1.370   3.011   5.628  1.2343  0.3567  0.1550
 6785SOL    HW231992   1.278   2.909   5.702  0.5588 -0.3360 -0.2976
 6786SOL     OW31993   2.534   4.081   2.745  0.2456 -0.1043 -1.0782
 6786SOL    HW131994   2.446   4.089   2.708 -0.7075  3.0940  1.8392
 6786SOL    HW231995   2.533   3.992   2.780 -0.5548  0.5871  0.6935
 6787SOL     OW31996   1.936   2.887   4.591  0.0194  0.2382 -0.6412
 6787SOL    HW131997   2.007   2.854   4.646 -0.9614  0.2400  0.6140
 6787SOL    HW231998   1.974   2.972   4.568  1.4691  0.1516  1.4810
 6788SOL     OW31999   1.826   4.113   8.321 -0.0326 -0.0733 -0.1395
 6788SOL    HW132000   1.846   4.111   8.414 -1.4898  1.0579  0.1910
 6788SOL    HW232001   1.738   4.076   8.324 -0.6858  1.3349 -1.3729
 6789SOL     OW32002   4.327   1.986   7.385  0.0410  0.2386  0.3473
 6789SOL    HW132003   4.253   1.978   7.445  1.0355  1.4455  1.7180
 6789SOL    HW232004   4.288   2.032   7.311  2.3530  3.1891  0.9548
 6790SOL     OW32005   4.180   4.288   6.844 -0.5501  0.0515  0.1196
 6790SOL    HW132006   4.221   4.203   6.826 -2.3064 -0.8066  0.2526
 6790SOL    HW232007   4.110   4.274   6.907 -1.3293 -0.9420 -0.9902
 6791SOL     OW32008   2.361   1.635   8.177  0.5276  0.1894  0.1709
 6791SOL    HW132009   2.268   1.635   8.156  1.0009 -0.1157 -1.9453
 6791SOL    HW232010   2.389   1.722   8.148 -0.7145 -0.0813 -1.8570
 6792SOL     OW32011   0.094   3.943  10.252 -0.8020 -0.0309  0.4524
 6792SOL    HW132012   0.076   3.889  10.175 -0.3180  1.6327 -0.8453
 6792SOL    HW232013   0.147   3.883  10.304  2.2247  1.8066 -0.4771
 6793SOL     OW32014   3.569   2.020   7.995  0.0756 -0.3349 -0.4238
 6793SOL    HW132015   3.625   2.012   8.072  0.4314 -0.8407 -0.7307
 6793SOL    HW232016   3.604   1.946   7.945  0.0196  0.3423 -1.4678
 6794SOL     OW32017   1.356   1.800   3.135 -0.5127  0.4800  0.0938
 6794SOL    HW132018   1.291   1.854   3.091 -1.9476 -1.9447 -0.7315
 6794SOL    HW232019   1.298   1.725   3.146 -3.2477  2.4773 -0.9322
 6795SOL     OW32020   3.031   4.412   5.765 -0.0471 -0.0867 -0.3319
 6795SOL    HW132021   3.049   4.329   5.722  0.9886 -1.2532  2.3044
 6795SOL    HW232022   2.952   4.395   5.817  0.0032 -1.3775 -0.6854
 6796SOL     OW32023   4.402   1.887   6.041  0.7803 -0.5447 -0.5235
 6796SOL    HW132024   4.468   1.872   5.972  0.7322 -0.8736 -0.5011
 6796SOL    HW232025   4.433   1.844   6.121  0.1883  0.2789  0.1459
 6797SOL     OW32026   2.464   0.887   2.117 -0.0024 -0.0792  0.3138
 6797SOL    HW132027   2.535   0.841   2.073 -0.9793 -0.3048 -1.0087
 6797SOL    HW232028   2.459   0.965   2.062 -0.8504  0.1021  0.6498
 6798SOL     OW32029   3.653   3.333  10.693 -0.5211  0.7090  0.1189
 6798SOL    HW132030   3.721   3.399  10.694 -0.5457  0.7279  0.7862
 6798SOL    HW232031   3.663   3.297  10.605  0.2518 -0.3865  0.6494
 6799SOL     OW32032   3.917   0.410  17.133 -0.4257 -0.1663  0.4943
 6799SOL    HW132033   3.964   0.421  17.050 -0.1405 -1.2537  0.5093
 6799SOL    HW232034   3.842   0.465  17.110 -1.7476 -1.2103  2.2975
 6800SOL     OW32035   4.299   0.314   6.444  0.2167  0.5411  0.1414
 6800SOL    HW132036   4.322   0.228   6.480  1.2187  0.1794 -1.3854
 6800SOL    HW232037   4.314   0.294   6.352 -0.2138 -0.3793  0.2698
 6801SOL     OW32038   2.412   3.307   4.784  0.1682  0.4102  0.4418
 6801SOL    HW132039   2.357   3.256   4.843 -0.0862 -0.1741 -0.3022
 6801SOL    HW232040   2.478   3.325   4.851  0.7864  0.3000 -0.1365
 6802SOL     OW32041   3.821   1.576   5.713 -0.0115 -0.2491 -0.2896
 6802SOL    HW132042   3.828   1.671   5.719  0.9878 -0.2112 -2.0024
 6802SOL    HW232043   3.850   1.560   5.803 -1.6506  0.8150  0.4283
 6803SOL     OW32044   3.321   3.189   1.236  0.6734  0.2795 -0.5169
 6803SOL    HW132045   3.244   3.160   1.284  0.6579 -1.4465 -1.6031
 6803SOL    HW232046   3.401   3.149   1.271 -0.6058  0.0306  2.1088
 6804SOL     OW32047   0.593   0.768   1.759  0.2948 -0.3318  0.0468
 6804SOL    HW132048   0.556   0.683   1.783 -0.0318  0.3369  1.9378
 6804SOL    HW232049   0.505   0.797   1.734  1.5775  1.2203 -2.6653
 6805SOL     OW32050   2.286   1.921   0.740 -0.0629  0.7017 -0.2042
 6805SOL    HW132051   2.381   1.932   0.741  0.1655 -1.2644 -0.7053
 6805SOL    HW232052   2.262   1.888   0.826  2.0797  0.5488  0.3335
 6806SOL     OW32053   2.643   0.573   6.679  0.2511  0.1177 -0.7935
 6806SOL    HW132054   2.596   0.525   6.747  1.0464 -0.4739 -0.6605
 6806SOL    HW232055   2.591   0.653   6.679  1.3255  0.8373 -2.2680
 6807SOL     OW32056   3.296   1.698   4.087 -0.5763 -0.1033 -0.1838
 6807SOL    HW132057   3.290   1.740   4.001 -0.8834 -3.3785 -1.7908
 6807SOL    HW232058   3.379   1.736   4.117  0.6129 -1.9989 -1.0768
 6808SOL     OW32059   3.920   0.821   5.701 -0.2103  0.5660  0.1599
 6808SOL    HW132060   3.920   0.798   5.608 -3.3591 -2.2458  0.8550
 6808SOL    HW232061   3.971   0.902   5.708  2.0236 -0.6661 -1.7562
 6809SOL     OW32062   1.234   2.862   8.113 -0.2409  0.1685 -0.0594
 6809SOL    HW132063   1.293   2.935   8.133  1.6476 -1.2277 -0.5689
 6809SOL    HW232064   1.240   2.853   8.018  0.9428 -2.4140  0.2745
 6810SOL     OW32065   4.622   1.758  12.958  0.0818  0.3149 -0.1278
 6810SOL    HW132066   4.533   1.761  12.992 -0.6630  0.9404 -2.1296
 6810SOL    HW232067   4.652   1.848  12.977  0.9215  0.1333 -0.5746
 6811SOL     OW32068   2.201   4.609  11.402 -0.3013  0.2695 -0.4563
 6811SOL    HW132069   2.147   4.649  11.334  1.2610  0.3326 -1.6431
 6811SOL    HW232070   2.224   4.523  11.368  3.6683  0.9156  0.6194
 6812SOL     OW32071   2.975   0.567  16.644  0.0016  0.6036 -0.0732
 6812SOL    HW132072   3.053   0.524  16.679 -1.2545 -0.6666  1.1384
 6812SOL    HW232073   2.941   0.506  16.580 -2.3797  0.2764  1.5143
 6813SOL     OW32074   3.922   0.146   0.600  0.0693  0.4961  0.6305
 6813SOL    HW132075   3.898   0.225   0.551  0.6619  0.4043  0.2001
 6813SOL    HW232076   3.919   0.079   0.531 -1.8258  0.1207  1.0822
 6814SOL     OW32077   1.828   1.809   0.532 -0.1172  0.0234 -0.0448
 6814SOL    HW132078   1.922   1.797   0.520 -0.4545  0.7464 -3.3849
 6814SOL    HW232079   1.831   1.851   0.618 -1.4902 -0.6033  0.3246
 6815SOL     OW32080   1.127   0.688   2.456  0.1034 -0.2782 -0.3306
 6815SOL    HW132081   1.089   0.775   2.472  0.6510 -0.4289  1.7355
 6815SOL    HW232082   1.138   0.657   2.545  1.6768 -0.3271 -0.5568
 6816SOL     OW32083   3.084   2.457   3.792 -0.6098  0.1263 -0.1641
 6816SOL    HW132084   3.128   2.531   3.750 -1.1772 -0.6664 -2.1456
 6816SOL    HW232085   2.995   2.490   3.784 -0.6955 -0.2161 -0.5963
 6817SOL     OW32086   3.392   0.153   1.946 -0.0295 -0.0380 -0.1890
 6817SOL    HW132087   3.379   0.228   2.004 -0.0752  0.8805 -1.4077
 6817SOL    HW232088   3.330   0.168   1.875  0.1287 -0.7339 -0.4747
 6818SOL     OW32089   4.634   2.159   5.219  0.8885 -0.1381 -0.5531
 6818SOL    HW132090   4.612   2.067   5.208  1.1136 -0.2342 -0.2018
 6818SOL    HW232091   4.620   2.186   5.128 -1.0882  0.5748 -0.0507
 6819SOL     OW32092   2.810   1.202   6.345 -0.5781 -0.2274 -0.1059
 6819SOL    HW132093   2.759   1.205   6.264  0.6774 -0.1985 -0.9051
 6819SOL    HW232094   2.761   1.151   6.409 -0.2065 -0.1912  0.2066
 6820SOL     OW32095   0.946   2.457   9.635  0.0860 -0.3186  0.1303
 6820SOL    HW132096   0.984   2.412   9.711  0.1770  0.4784  0.5613
 6820SOL    HW232097   1.003   2.534   9.624 -1.6614  0.6260 -2.2134
 6821SOL     OW32098   1.601   1.521   3.684  0.1412 -0.6718  0.5514
 6821SOL    HW132099   1.627   1.595   3.630  2.1032 -0.2547  2.0830
 6821SOL    HW232100   1.675   1.462   3.695  0.6873 -0.0895 -0.0131
 6822SOL     OW32101   1.211   2.911   3.843 -0.2021  0.5555 -0.2380
 6822SOL    HW132102   1.301   2.940   3.858 -0.4143  1.1266 -0.0954
 6822SOL    HW232103   1.183   2.871   3.925 -1.1135 -2.3318 -1.9578
 6823SOL     OW32104   3.632   0.619   2.476 -0.1945  0.5047  0.3730
 6823SOL    HW132105   3.658   0.569   2.398  0.2738 -0.6106  1.2313
 6823SOL    HW232106   3.613   0.545   2.534  1.8832 -1.6514 -1.6636
 6824SOL     OW32107   3.494   3.805   7.708  0.3523 -0.1370  0.0901
 6824SOL    HW132108   3.501   3.886   7.759 -1.5492 -0.4835  0.9096
 6824SOL    HW232109   3.419   3.836   7.658  0.3450 -0.2590  0.0258
 6825SOL     OW32110   0.572   1.384   8.260 -0.4707 -0.6874 -0.1098
 6825SOL    HW132111   0.504   1.372   8.327 -0.2991  0.8877  0.3534
 6825SOL    HW232112   0.648   1.357   8.312 -0.0078 -1.0832 -0.9842
 6826SOL     OW32113   3.518   4.564  15.514 -0.2107  0.0361 -0.0368
 6826SOL    HW132114   3.455   4.607  15.456 -0.4356  0.1855  0.3140
 6826SOL    HW232115   3.599   4.611  15.493  0.4435 -0.4298  1.4311
 6827SOL     OW32116   3.808   2.277   1.378  0.7402  0.2831 -0.1834
 6827SOL    HW132117   3.769   2.354   1.337  0.1222  0.0331 -0.0614
 6827SOL    HW232118   3.763   2.270   1.462  0.5455  3.0138 -0.0467
 6828SOL     OW32119   3.280   2.715   9.321 -0.0306  0.0990  0.2561
 6828SOL    HW132120   3.375   2.708   9.328 -0.2635 -1.7210  1.5806
 6828SOL    HW232121   3.260   2.661   9.245 -0.4231  1.3641 -0.5354
 6829SOL     OW32122   2.796   1.016   4.213  0.1422 -0.2101  0.2738
 6829SOL    HW132123   2.747   1.094   4.186 -2.2818 -2.4591 -1.7432
 6829SOL    HW232124   2.870   1.054   4.261  0.7209  0.1257 -0.8793
 6830SOL     OW32125   0.244   0.328   2.046  0.7494 -0.0262  0.2763
 6830SOL    HW132126   0.305   0.306   1.976  2.2638 -3.0714  2.5650
 6830SOL    HW232127   0.178   0.379   1.999 -0.6531  0.1995  2.4388
 6831SOL     OW32128   1.317   2.861   9.061  0.0253 -0.1008 -0.0918
 6831SOL    HW132129   1.249   2.800   9.032 -0.0265 -0.2538  0.3532
 6831SOL    HW232130   1.291   2.879   9.151 -1.2599  2.6282 -1.0102
 6832SOL     OW32131   1.182   1.279   6.490 -0.0752 -0.6364  0.3254
 6832SOL    HW132132   1.095   1.290   6.452 -0.5053 -1.3604  1.0774
 6832SOL    HW232133   1.212   1.216   6.425 -4.8678 -0.4127 -2.1054
 6833SOL     OW32134   4.217   1.844   2.035  0.0518  0.3813 -0.3784
 6833SOL    HW132135   4.256   1.929   2.013  1.3181  0.0711  0.6681
 6833SOL    HW232136   4.296   1.790   2.041 -0.1391  0.2126  0.5130
 6834SOL     OW32137   4.367   1.249  11.050 -0.3593 -0.1840  0.4299
 6834SOL    HW132138   4.384   1.316  11.116 -0.4156 -0.2458  0.5065
 6834SOL    HW232139   4.331   1.177  11.101 -2.3203 -0.1598 -0.9323
 6835SOL     OW32140   2.109   2.298   8.350 -0.3270  0.4233  0.1858
 6835SOL    HW132141   2.038   2.322   8.290  0.4486 -1.0492 -1.3292
 6835SOL    HW232142   2.058   2.279   8.429 -0.4503  2.5345  0.6016
 6836SOL     OW32143   2.425   3.717   4.234  0.3468  0.0807 -0.6019
 6836SOL    HW132144   2.499   3.677   4.280 -1.6725 -1.4649  1.3650
 6836SOL    HW232145   2.430   3.810   4.255 -1.4242 -0.1870  1.0560
 6837SOL     OW32146   2.831   0.880   1.893 -0.5297  0.1285 -0.0538
 6837SOL    HW132147   2.826   0.937   1.971 -1.3200 -1.1067  0.8075
 6837SOL    HW232148   2.810   0.948   1.829 -1.2885  0.0067  0.0576
 6838SOL     OW32149   1.351   1.241   7.798  0.2788  0.5096  0.0072
 6838SOL    HW132150   1.367   1.170   7.859  0.0874 -1.8903 -2.7212
 6838SOL    HW232151   1.392   1.314   7.844 -1.3295 -0.7773  3.4763
 6839SOL     OW32152   2.989   3.974   8.526 -0.4115 -0.2568  0.4631
 6839SOL    HW132153   3.082   3.971   8.503  0.1168  1.2601  2.3790
 6839SOL    HW232154   2.941   3.945   8.448  1.7410 -1.5149 -0.3986
 6840SOL     OW32155   2.423   1.998   5.736  0.0029 -0.3296 -0.1568
 6840SOL    HW132156   2.389   1.954   5.814 -0.7492  2.3154  0.9908
 6840SOL    HW232157   2.515   1.974   5.734  0.7091  2.3353  1.7486
 6841SOL     OW32158   4.034   2.863   2.229 -0.4095 -0.1176  0.2276
 6841SOL    HW132159   4.087   2.785   2.214  1.1392  1.3285 -1.8851
 6841SOL    HW232160   3.948   2.820   2.229 -0.4544 -0.0231  1.3703
 6842SOL     OW32161   4.571   0.175   5.777 -0.1693  0.7635  0.2039
 6842SOL    HW132162   4.530   0.120   5.843 -0.8734  1.8861  0.6928
 6842SOL    HW232163   4.602   0.250   5.828 -1.0473  3.1228 -2.7233
 6843SOL     OW32164   0.624   2.435  16.314 -0.4173  0.8534 -0.1111
 6843SOL    HW132165   0.672   2.397  16.241  0.7303  0.2906  0.9289
 6843SOL    HW232166   0.686   2.470  16.378 -0.3978 -0.4378  0.5802
 6844SOL     OW32167   1.358   1.879   1.691  0.1756 -0.0135 -0.5579
 6844SOL    HW132168   1.416   1.805   1.671  0.2930  0.7250 -2.9341
 6844SOL    HW232169   1.389   1.906   1.777  1.9883  0.2138 -1.2776
 6845SOL     OW32170   0.530   3.893   1.661 -0.0472 -0.3923 -0.0511
 6845SOL    HW132171   0.545   3.807   1.699 -1.1095  0.4390  2.2600
 6845SOL    HW232172   0.439   3.892   1.630  0.2933  0.9083 -1.1200
 6846SOL     OW32173   1.636   4.025   1.619  0.0082  0.3813  0.1369
 6846SOL    HW132174   1.573   4.044   1.550 -0.0550 -1.4822 -0.2947
 6846SOL    HW232175   1.594   4.064   1.696  1.2204 -2.2224  2.1334
 6847SOL     OW32176   3.143   1.171   4.887  0.4381 -0.8471 -0.2701
 6847SOL    HW132177   3.197   1.226   4.829  1.9076 -1.2870  0.6663
 6847SOL    HW232178   3.119   1.093   4.837 -0.3388 -0.7113 -0.1077
 6848SOL     OW32179   0.745   4.249   2.941  0.1239  0.6507  0.3740
 6848SOL    HW132180   0.671   4.189   2.937 -1.8031  3.0221  0.0301
 6848SOL    HW232181   0.810   4.183   2.964 -1.3751 -0.8690  0.2234
 6849SOL     OW32182   4.632   2.630   1.305  0.7034 -0.1927 -0.4015
 6849SOL    HW132183   4.675   2.704   1.348  1.9977 -0.9352 -0.3986
 6849SOL    HW232184   4.619   2.676   1.222  0.7005 -0.2783 -0.4481
 6850SOL     OW32185   0.851   1.238   2.331 -0.4024  0.2211 -0.1453
 6850SOL    HW132186   0.777   1.185   2.359  0.4035 -0.6775  0.2970
 6850SOL    HW232187   0.831   1.325   2.364 -0.0974  0.7576 -1.3855
 6851SOL     OW32188   3.409   1.075   6.670  0.0448 -0.3481  0.4444
 6851SOL    HW132189   3.325   1.120   6.659  0.9515  1.3975  0.6288
 6851SOL    HW232190   3.431   1.116   6.754  1.6301  0.5086 -0.3800
 6852SOL     OW32191   2.135   4.379   2.651 -0.0506 -0.3959 -0.2384
 6852SOL    HW132192   2.043   4.369   2.628 -0.2806  0.1621  0.4454
 6852SOL    HW232193   2.165   4.345   2.567  0.8185 -0.7390  0.2063
 6853SOL     OW32194   2.624   0.545   7.535  0.4857 -0.2833 -0.4675
 6853SOL    HW132195   2.660   0.524   7.621 -2.9835 -0.8284  0.8407
 6853SOL    HW232196   2.706   0.562   7.489 -0.2669  0.0891 -1.6881
 6854SOL     OW32197   2.391   1.946  16.664  0.3288 -0.3642 -0.0724
 6854SOL    HW132198   2.368   1.969  16.754  4.1887 -1.7883  1.3022
 6854SOL    HW232199   2.438   1.864  16.681  1.8194  0.7842  1.3785
 6855SOL     OW32200   2.019   3.379   9.437  0.6195  0.1638 -0.2129
 6855SOL    HW132201   1.976   3.332   9.365  0.4070  1.2100 -0.7801
 6855SOL    HW232202   2.066   3.443   9.383  1.2192  3.0493  3.7240
 6856SOL     OW32203   0.764   3.360  12.665  0.0323 -0.7659 -0.2583
 6856SOL    HW132204   0.826   3.390  12.599  2.3988 -1.9674  1.4004
 6856SOL    HW232205   0.818   3.310  12.728  1.0071  0.1820 -0.3453
 6857SOL     OW32206   0.268   1.698  17.142 -0.1933 -0.2578 -0.3082
 6857SOL    HW132207   0.286   1.791  17.151 -0.3879 -0.3024  0.5165
 6857SOL    HW232208   0.311   1.679  17.059 -0.7220 -1.2656 -0.3569
 6858SOL     OW32209   2.468   4.079   0.291 -0.0156 -0.4850 -0.0715
 6858SOL    HW132210   2.494   4.004   0.237  0.1028 -1.0037  0.7098
 6858SOL    HW232211   2.515   4.070   0.374 -2.2736 -0.4568  1.2019
 6859SOL     OW32212   3.009   2.250   3.131 -0.0914 -0.1080 -0.0663
 6859SOL    HW132213   3.069   2.191   3.176  0.1217  0.8873  0.9693
 6859SOL    HW232214   2.931   2.237   3.185  1.8779 -4.8866  1.6598
 6860SOL     OW32215   0.396   1.610   5.870  0.3903  0.1277  0.0580
 6860SOL    HW132216   0.469   1.603   5.809  0.1469 -0.0121 -0.2202
 6860SOL    HW232217   0.364   1.521   5.881 -2.2128  0.7808 -2.1046
 6861SOL     OW32218   3.501   1.486   5.449 -0.6219 -0.0427  0.2463
 6861SOL    HW132219   3.597   1.495   5.449 -0.3841 -2.4579 -2.4553
 6861SOL    HW232220   3.476   1.565   5.402  2.3325  0.6475 -0.1746
 6862SOL     OW32221   1.526   3.384  16.743  0.2554  0.7632  0.1767
 6862SOL    HW132222   1.579   3.363  16.820  0.4566  0.4086 -0.0543
 6862SOL    HW232223   1.473   3.305  16.738  2.1841 -0.5140 -0.1760
 6863SOL     OW32224   2.278   3.605   0.804  0.3584 -0.6251 -0.4021
 6863SOL    HW132225   2.260   3.664   0.877 -0.8718 -0.5828 -0.7437
 6863SOL    HW232226   2.373   3.612   0.793  0.6144 -1.6884  1.1407
 6864SOL     OW32227   1.786   2.467   4.865 -0.2296 -0.2278  0.3078
 6864SOL    HW132228   1.796   2.558   4.892  1.4967 -0.7231  1.3538
 6864SOL    HW232229   1.693   2.454   4.845 -0.6852  1.3438  1.4222
 6865SOL     OW32230   3.234   0.339  15.283  0.4976  0.3231  0.2535
 6865SOL    HW132231   3.254   0.253  15.321 -1.1783  0.5421  1.6350
 6865SOL    HW232232   3.168   0.370  15.345  1.3876  0.1026  1.3173
 6866SOL     OW32233   3.547   4.728   0.184  0.1058  0.0752 -0.1145
 6866SOL    HW132234   3.571   4.645   0.142 -0.3340  0.1283 -0.4757
 6866SOL    HW232235   3.542   0.048   0.109 -5.2624  2.0504  1.7914
 6867SOL     OW32236   4.122   3.380   2.061 -0.5882 -0.0078  0.2437
 6867SOL    HW132237   4.068   3.451   2.095 -3.4993 -1.5848 -1.0765
 6867SOL    HW232238   4.211   3.408   2.083  0.1431 -1.1427 -1.2736
 6868SOL     OW32239   4.116   2.652   6.692 -0.1183  0.2934 -0.0542
 6868SOL    HW132240   4.210   2.637   6.687 -0.5177 -2.0360 -0.1923
 6868SOL    HW232241   4.099   2.604   6.611 -0.5131  1.6428 -0.7784
 6869SOL     OW32242   1.985   2.223   4.667 -0.6352  0.3643 -0.2199
 6869SOL    HW132243   2.015   2.133   4.654 -3.8173 -0.5972 -1.0465
 6869SOL    HW232244   2.039   2.278   4.610  0.7289  0.2997  1.0209
 6870SOL     OW32245   4.520   0.984   4.101  0.3661 -0.1616 -0.3446
 6870SOL    HW132246   4.438   0.961   4.144 -0.3198  0.7486 -1.1866
 6870SOL    HW232247   4.538   1.077   4.088 -2.0673  0.3567  0.0778
 6871SOL     OW32248   2.060   2.978   8.638 -0.0065  0.2442 -0.4164
 6871SOL    HW132249   2.027   2.952   8.724  0.2930 -2.8679 -1.2194
 6871SOL    HW232250   2.125   2.908   8.636 -1.3479 -0.9781 -2.0249
 6872SOL     OW32251   1.452   3.279  10.856  0.1474  0.0410 -0.2761
 6872SOL    HW132252   1.474   3.207  10.798 -1.5745 -0.5781 -0.1711
 6872SOL    HW232253   1.364   3.247  10.875 -0.0358 -1.3525 -3.4368
 6873SOL     OW32254   4.126   3.068   8.716  0.2497  0.3395  0.5476
 6873SOL    HW132255   4.077   3.150   8.702 -0.7027 -0.2001  0.7267
 6873SOL    HW232256   4.059   3.001   8.705  1.1402 -0.3408 -0.8054
 6874SOL     OW32257   2.097   1.947   9.069  0.2999 -0.2365 -0.2861
 6874SOL    HW132258   2.079   1.946   9.163  2.1103  0.3926  0.0553
 6874SOL    HW232259   2.140   1.863   9.054  0.3070 -0.5828  1.6716
 6875SOL     OW32260   0.619   1.864   4.199 -0.0881  0.2280 -0.1272
 6875SOL    HW132261   0.714   1.850   4.203 -0.1808 -0.3918 -0.1933
 6875SOL    HW232262   0.620   1.902   4.111  0.7411  0.7453  0.1037
 6876SOL     OW32263   4.607   0.831   7.788 -0.6704 -0.2100 -0.0528
 6876SOL    HW132264   4.526   0.780   7.793 -1.8837  1.7298  0.2068
 6876SOL    HW232265   4.665   0.785   7.849  3.3663  3.3563 -1.2167
 6877SOL     OW32266   3.866   0.943   2.327 -0.0926 -0.1022 -0.2010
 6877SOL    HW132267   3.775   0.971   2.325 -0.5313 -1.4636  1.3980
 6877SOL    HW232268   3.869   0.872   2.391  1.0759  1.8208  1.8983
 6878SOL     OW32269   2.341   2.889   0.949  0.0941  0.4238 -0.0939
 6878SOL    HW132270   2.379   2.904   1.036 -0.6064  1.3681  0.0513
 6878SOL    HW232271   2.364   2.970   0.905 -0.0139 -0.1424 -1.1753
 6879SOL     OW32272   4.402   4.553  15.323  0.0403  0.8291  0.4002
 6879SOL    HW132273   4.407   4.497  15.245 -0.4624  0.3949  0.6773
 6879SOL    HW232274   4.414   4.477  15.380  0.3533 -1.1299 -2.2322
 6880SOL     OW32275   0.582   3.025   4.385 -0.0719 -0.0608  0.1026
 6880SOL    HW132276   0.584   3.121   4.388  2.1437 -0.0247 -2.5376
 6880SOL    HW232277   0.671   3.003   4.412 -0.7848  0.3406  2.7350
 6881SOL     OW32278   4.464   3.172  14.520 -0.3307  0.0737  0.1638
 6881SOL    HW132279   4.440   3.154  14.611  1.0506  0.9526  0.7023
 6881SOL    HW232280   4.546   3.124  14.504 -1.1991 -1.5975  0.6473
 6882SOL     OW32281   1.537   4.023   5.967  0.2054 -0.1598 -0.6989
 6882SOL    HW132282   1.469   3.956   5.961 -0.3934  0.3582  0.2281
 6882SOL    HW232283   1.591   4.006   5.890 -1.1974 -0.4333 -1.6233
 6883SOL     OW32284   2.263   0.747   9.527 -0.2539  0.5575 -0.0550
 6883SOL    HW132285   2.267   0.726   9.620 -0.2732 -2.3861 -0.7128
 6883SOL    HW232286   2.202   0.685   9.487  0.3563  1.0503 -1.7873
 6884SOL     OW32287   3.038   1.478  10.322 -0.5665  0.3488  0.0228
 6884SOL    HW132288   3.006   1.440  10.240  0.2280  0.6521 -0.4278
 6884SOL    HW232289   3.010   1.415  10.389  2.0780 -2.4509 -1.5300
 6885SOL     OW32290   0.048   4.733   1.317 -0.0826  0.2559 -0.2190
 6885SOL    HW132291   0.026   4.686   1.398 -1.0180 -0.5375 -0.9273
 6885SOL    HW232292   0.018   0.078   1.351 -1.2236  0.2025 -1.0893
 6886SOL     OW32293   1.282   0.578   3.913  0.6789  0.2177  0.2253
 6886SOL    HW132294   1.316   0.638   3.846 -0.9259  0.1425 -0.6637
 6886SOL    HW232295   1.307   0.627   3.992 -1.7808  0.7162  0.6904
 6887SOL     OW32296   0.169   1.472   5.616  0.0132 -0.0549  0.1554
 6887SOL    HW132297   0.140   1.550   5.663 -0.2769 -0.0322 -0.0567
 6887SOL    HW232298   0.241   1.449   5.674 -0.1283 -1.0023 -0.0486
 6888SOL     OW32299   0.086   0.681  13.358 -0.1055 -0.3643  0.1945
 6888SOL    HW132300   0.063   0.638  13.441 -1.8182 -0.3503 -0.2827
 6888SOL    HW232301   0.077   0.603  13.303 -0.3525  0.2514 -0.6227
 6889SOL     OW32302   4.704   2.369  13.615 -0.1997  0.1043 -0.3426
 6889SOL    HW132303   0.020   2.300  13.581  1.6523  1.0680  0.6814
 6889SOL    HW232304   4.720   2.362  13.710 -0.1216 -0.4498 -0.3993
 6890SOL     OW32305   3.569   0.952   2.729 -0.0681  0.3749  0.2034
 6890SOL    HW132306   3.509   1.000   2.786  0.5145 -0.3056  1.3660
 6890SOL    HW232307   3.652   0.956   2.776  0.1634  1.6907 -0.3054
 6891SOL     OW32308   4.179   1.057   1.791  0.2012  0.1367  0.1823
 6891SOL    HW132309   4.113   1.024   1.729  3.1912 -0.8904 -2.4806
 6891SOL    HW232310   4.159   1.149   1.776  0.6544  0.2587  0.3350
 6892SOL     OW32311   2.773   1.319   3.998 -0.1692 -0.5021 -0.1506
 6892SOL    HW132312   2.859   1.334   3.960  0.7755 -1.9645  1.4188
 6892SOL    HW232313   2.781   1.369   4.080  0.1331  0.9734 -1.0786
 6893SOL     OW32314   0.605   1.562   3.896  0.0411  0.4013 -0.3884
 6893SOL    HW132315   0.515   1.536   3.877 -0.4474  0.2976  2.0978
 6893SOL    HW232316   0.587   1.655   3.912 -1.8547 -0.0216 -0.0872
 6894SOL     OW32317   4.172   3.041   6.060  0.2681  0.6917  0.2758
 6894SOL    HW132318   4.100   2.980   6.077  1.0335 -0.1845  0.3289
 6894SOL    HW232319   4.172   3.082   6.147 -0.6280 -0.5827  0.8829
 6895SOL     OW32320   4.614   4.135  16.856 -0.2094 -0.7580 -0.1706
 6895SOL    HW132321   4.546   4.201  16.848 -1.4756 -1.9546  0.5454
 6895SOL    HW232322   4.682   4.197  16.830 -0.6750 -0.1884 -0.0138
 6896SOL     OW32323   2.552   4.025  13.783  0.0082 -0.1330  0.2780
 6896SOL    HW132324   2.605   4.095  13.820  4.2336 -3.1173 -0.1039
 6896SOL    HW232325   2.606   3.946  13.791 -0.7822 -0.7876 -0.8182
 6897SOL     OW32326   1.291   0.784   1.928  0.3333  0.1122 -0.1068
 6897SOL    HW132327   1.227   0.852   1.906  0.2062 -0.8085 -2.5804
 6897SOL    HW232328   1.281   0.783   2.023  1.6083 -0.4385  0.0175
 6898SOL     OW32329   0.505   3.341   4.836  0.2755 -0.3227 -0.5098
 6898SOL    HW132330   0.431   3.281   4.848  0.8532 -0.7311  1.0131
 6898SOL    HW232331   0.554   3.284   4.777  1.3548 -0.0797  0.1546
 6899SOL     OW32332   3.059   0.996   3.927 -0.4641 -0.0011  1.2247
 6899SOL    HW132333   3.088   0.907   3.908  0.5075  0.0890  2.2890
 6899SOL    HW232334   3.121   1.034   3.865  0.2746 -0.4611  1.6878
 6900SOL     OW32335   4.466   3.807   2.367 -0.2857 -0.1876  0.8172
 6900SOL    HW132336   4.530   3.872   2.335 -1.6914  0.9932  0.4061
 6900SOL    HW232337   4.449   3.767   2.282 -0.8167 -0.0232  0.8473
 6901SOL     OW32338   2.049   0.639  16.478  0.5639  0.2821 -0.3426
 6901SOL    HW132339   2.037   0.584  16.401  1.3550  0.5098 -0.6243
 6901SOL    HW232340   1.980   0.703  16.461 -1.0108 -1.2645  0.1768
 6902SOL     OW32341   0.587   1.494   2.632  0.6370  0.1700 -0.3991
 6902SOL    HW132342   0.574   1.457   2.720 -0.7967 -1.2863 -1.2259
 6902SOL    HW232343   0.664   1.441   2.611 -0.8800 -3.2611  2.7039
 6903SOL     OW32344   1.739   2.287  12.269  0.2079  0.2129 -0.1292
 6903SOL    HW132345   1.647   2.311  12.257  0.2150  1.2419  1.9692
 6903SOL    HW232346   1.735   2.198  12.235  0.7991  0.0879  0.1301
 6904SOL     OW32347   3.181   1.228   6.637  0.5247  0.3326 -0.5967
 6904SOL    HW132348   3.122   1.262   6.704  1.1466 -1.9201  1.0895
 6904SOL    HW232349   3.150   1.265   6.554 -0.5214  1.1897  0.1736
 6905SOL     OW32350   3.902   0.414   2.789  0.5277  0.5634  0.0739
 6905SOL    HW132351   3.854   0.345   2.743 -1.0465  1.5409  0.2331
 6905SOL    HW232352   3.984   0.369   2.809  1.1838  1.1955 -1.1982
 6906SOL     OW32353   1.295   3.543   2.596  0.6527  0.4012 -0.1960
 6906SOL    HW132354   1.292   3.493   2.515 -0.6227 -0.3404  0.3058
 6906SOL    HW232355   1.220   3.495   2.631  1.3142  0.5124  1.4090
 6907SOL     OW32356   1.249   2.089   9.566  0.2266  0.6453 -0.5291
 6907SOL    HW132357   1.306   2.135   9.504  2.1925 -2.0835 -0.7458
 6907SOL    HW232358   1.164   2.091   9.522  0.5674 -1.2935 -1.2634
 6908SOL     OW32359   1.018   3.488   4.862 -0.2273  0.1951 -0.3473
 6908SOL    HW132360   0.943   3.547   4.858  0.1773  0.4389 -4.2339
 6908SOL    HW232361   1.090   3.547   4.883  1.0374 -0.8084 -1.8892
 6909SOL     OW32362   4.144   3.404   1.750 -0.4884  0.2987 -0.3262
 6909SOL    HW132363   4.090   3.395   1.829 -0.0201  0.8130  0.0499
 6909SOL    HW232364   4.179   3.492   1.764  0.4621 -0.1582  0.1267
 6910SOL     OW32365   4.616   4.638   1.532 -0.4123  0.3394 -0.0993
 6910SOL    HW132366   4.575   4.552   1.528 -0.1086  0.2236 -0.7961
 6910SOL    HW232367   4.639   4.649   1.624  0.7382  0.2761 -0.3733
 6911SOL     OW32368   3.626   2.746   8.929  0.4275 -0.3262 -0.5568
 6911SOL    HW132369   3.592   2.812   8.990  0.4698 -0.0361 -0.8478
 6911SOL    HW232370   3.704   2.719   8.978  0.5442  0.3830 -0.3410
 6912SOL     OW32371   3.970   3.498  12.218  0.6913 -0.1414 -0.3404
 6912SOL    HW132372   4.063   3.502  12.239  0.9543 -2.4969 -1.0407
 6912SOL    HW232373   3.933   3.511  12.305  0.3002 -2.0318 -0.2282
 6913SOL     OW32374   2.487   1.997   8.195 -0.2005  0.1040  0.4640
 6913SOL    HW132375   2.559   2.048   8.232 -0.3668  0.5764  0.1320
 6913SOL    HW232376   2.436   1.986   8.276 -2.1120  0.7760 -0.6666
 6914SOL     OW32377   1.238   2.312   0.197 -0.1060 -0.3919 -0.0673
 6914SOL    HW132378   1.231   2.232   0.145  0.4164 -1.2101  1.1273
 6914SOL    HW232379   1.235   2.272   0.283  0.7747 -1.0459 -0.3442
 6915SOL     OW32380   3.147   1.077  16.047 -0.0158 -0.8769  0.4715
 6915SOL    HW132381   3.062   1.055  16.084 -0.6951 -0.4400 -0.8500
 6915SOL    HW232382   3.175   1.164  16.077 -0.4265 -0.5796 -0.0156
 6916SOL     OW32383   1.225   2.466  12.225  0.1216 -0.1066  0.2933
 6916SOL    HW132384   1.201   2.556  12.202  1.5238  0.0109 -0.7339
 6916SOL    HW232385   1.249   2.422  12.143  0.9516  1.0873 -0.1124
 6917SOL     OW32386   0.074   2.329  14.660 -0.0285  0.0502  0.1574
 6917SOL    HW132387   0.055   2.421  14.643  0.0787 -0.3196 -1.9644
 6917SOL    HW232388   4.727   2.292  14.675  0.8076 -1.9507  0.0814
 6918SOL     OW32389   0.384   2.318   4.725 -0.3885 -0.1184  0.2280
 6918SOL    HW132390   0.420   2.297   4.812 -0.9641 -0.2318  0.4348
 6918SOL    HW232391   0.443   2.390   4.703 -2.5229  1.4852 -0.2463
 6919SOL     OW32392   2.954   1.741  15.743 -0.2060  0.1554  0.6695
 6919SOL    HW132393   2.958   1.789  15.660  0.4628 -2.5918 -0.9218
 6919SOL    HW232394   2.864   1.709  15.739 -0.3840  0.7674 -0.1245
 6920SOL     OW32395   3.041   2.181   6.781  0.0704  0.0852  0.2414
 6920SOL    HW132396   3.003   2.269   6.781  0.6192  0.2981 -3.8073
 6920SOL    HW232397   2.964   2.130   6.755  1.4655 -0.8182 -2.0653
 6921SOL     OW32398   4.356   1.637   6.819  0.5410 -0.3851  0.5231
 6921SOL    HW132399   4.262   1.626   6.829  0.3444  1.2582  0.5337
 6921SOL    HW232400   4.365   1.731   6.837  2.1107 -0.3879 -0.2025
 6922SOL     OW32401   2.296   4.681  10.440  0.2937 -0.0134  0.0656
 6922SOL    HW132402   2.239   0.018  10.432 -1.2575 -1.2975 -1.0434
 6922SOL    HW232403   2.323   4.681  10.348  1.2792 -1.0882  0.3461
 6923SOL     OW32404   2.971   4.283   6.728  0.0814 -0.0239 -0.1430
 6923SOL    HW132405   3.021   4.335   6.665  0.8651 -2.2402 -1.3265
 6923SOL    HW232406   2.975   4.191   6.702  0.0882  0.3303 -1.4033
 6924SOL     OW32407   1.425   2.769  12.212  0.0664 -0.3793 -0.0988
 6924SOL    HW132408   1.439   2.713  12.135  0.9887 -0.5188  0.1660
 6924SOL    HW232409   1.461   2.716  12.283 -0.1175  1.7561  1.5849
 6925SOL     OW32410   3.572   1.263   8.800  0.8306 -0.7161 -0.1018
 6925SOL    HW132411   3.532   1.250   8.886 -3.5094  3.4607 -1.4869
 6925SOL    HW232412   3.518   1.211   8.740 -0.9320  1.6866 -0.5929
 6926SOL     OW32413   1.183   3.387   6.630  0.2772  0.2043  0.1025
 6926SOL    HW132414   1.090   3.363   6.633  0.6122 -1.0036  0.6867
 6926SOL    HW232415   1.189   3.447   6.556 -1.3480  0.5532  0.2476
 6927SOL     OW32416   0.975   1.483  14.041  0.2918 -0.0495 -0.5342
 6927SOL    HW132417   0.882   1.498  14.024 -0.1093 -2.2556 -0.2410
 6927SOL    HW232418   1.001   1.427  13.969  0.1253 -1.8060  0.7768
 6928SOL     OW32419   1.237   3.370   7.418 -0.3071  0.4893  0.4460
 6928SOL    HW132420   1.330   3.364   7.437 -0.4167 -0.7075  0.6092
 6928SOL    HW232421   1.223   3.456   7.377 -1.0046  0.1034 -0.1313
 6929SOL     OW32422   4.047   0.630  12.532  0.4406  0.4286 -0.2773
 6929SOL    HW132423   4.078   0.540  12.541 -0.5653  0.1633  0.5941
 6929SOL    HW232424   3.952   0.616  12.524  0.5879  0.0685 -1.3156
 6930SOL     OW32425   1.152   3.935   5.785  0.5023 -0.9473 -0.6909
 6930SOL    HW132426   1.161   4.030   5.789  1.7172 -1.0279 -1.4943
 6930SOL    HW232427   1.185   3.905   5.870  0.8879 -0.4680 -0.6747
 6931SOL     OW32428   0.695   3.066  12.976  0.2200  0.1087  0.5130
 6931SOL    HW132429   0.715   2.976  13.000  0.0252 -0.0451  0.0963
 6931SOL    HW232430   0.779   3.086  12.935  0.6997 -1.9321  0.5250
 6932SOL     OW32431   1.896   2.412   2.213 -0.4357 -0.2171 -0.5312
 6932SOL    HW132432   1.808   2.424   2.247  1.0073  2.7705  2.0996
 6932SOL    HW232433   1.877   2.438   2.123  0.9711 -2.9062 -1.6389
 6933SOL     OW32434   3.442   4.278   8.067  0.1212  0.2514 -0.6582
 6933SOL    HW132435   3.428   4.296   7.974 -0.0080 -0.4686 -0.7756
 6933SOL    HW232436   3.524   4.231   8.084  0.5483  0.6570 -1.5654
 6934SOL     OW32437   1.099   3.008  12.061  0.0342 -0.5524  0.0820
 6934SOL    HW132438   1.077   3.072  11.993  0.4452  1.4087  1.7980
 6934SOL    HW232439   1.184   2.978  12.027  0.0786 -0.2302 -0.0934
 6935SOL     OW32440   0.972   3.438  16.825  0.2124  0.0690  0.1187
 6935SOL    HW132441   0.962   3.510  16.763 -0.4273 -0.7006 -0.6744
 6935SOL    HW232442   1.064   3.461  16.842  0.6632 -1.4201 -0.3194
 6936SOL     OW32443   2.813   2.228  14.506  0.1876  0.6644  0.0799
 6936SOL    HW132444   2.763   2.161  14.552 -0.9056  2.8898  2.1013
 6936SOL    HW232445   2.870   2.171  14.454  1.4710  0.7230  1.4367
 6937SOL     OW32446   3.828   4.389   8.086 -0.1723 -0.6763  0.1469
 6937SOL    HW132447   3.909   4.436   8.100 -0.0328 -1.0786  0.6575
 6937SOL    HW232448   3.773   4.454   8.042 -1.6622 -1.5456  0.6832
 6938SOL     OW32449   3.969   4.499   4.719 -0.3327 -0.0287  0.3009
 6938SOL    HW132450   3.878   4.472   4.705 -0.2935  1.1410 -2.1720
 6938SOL    HW232451   3.983   4.561   4.648  0.7908 -0.5612  0.0689
 6939SOL     OW32452   3.809   1.298  10.985  0.0086  0.0853  0.4507
 6939SOL    HW132453   3.769   1.232  10.929  0.9011 -0.5161  0.5328
 6939SOL    HW232454   3.903   1.287  10.968 -0.0244  0.4883 -0.0109
 6940SOL     OW32455   0.549   0.570   5.074 -0.2933 -0.1910 -0.0626
 6940SOL    HW132456   0.511   0.512   5.008 -3.0693 -0.1153  1.4244
 6940SOL    HW232457   0.642   0.559   5.058 -0.2066  0.1100  0.2381
 6941SOL     OW32458   2.137   2.011   3.586 -0.3370  0.3943 -0.3724
 6941SOL    HW132459   2.051   2.010   3.627  1.2543 -1.0845  2.9599
 6941SOL    HW232460   2.131   2.078   3.517  0.1665  0.6391 -0.1834
 6942SOL     OW32461   2.800   0.905   1.608 -0.2242  0.6595  0.3318
 6942SOL    HW132462   2.795   0.816   1.575 -1.2551  0.7008  0.3746
 6942SOL    HW232463   2.771   0.949   1.528 -0.5773 -2.4924 -1.2294
 6943SOL     OW32464   0.559   0.199   2.268 -0.0672 -0.3301 -0.0012
 6943SOL    HW132465   0.464   0.197   2.264 -0.0852  1.0186 -0.0383
 6943SOL    HW232466   0.569   0.269   2.332 -1.1100 -1.8365  1.8208
 6944SOL     OW32467   3.348   1.856   6.600  0.1803 -0.0741  0.5113
 6944SOL    HW132468   3.273   1.900   6.559 -0.4109  1.0552  2.7847
 6944SOL    HW232469   3.323   1.865   6.692 -0.0891  4.0936  0.0283
 6945SOL     OW32470   4.297   0.076   7.508  0.2882 -0.3634  0.7327
 6945SOL    HW132471   4.340   0.051   7.426  2.7359 -1.5706  2.3804
 6945SOL    HW232472   4.208   0.077   7.473  0.8126  2.8312 -0.5008
 6946SOL     OW32473   0.985   2.211  11.410  0.4812 -0.0450  0.3505
 6946SOL    HW132474   1.025   2.176  11.330  0.7159 -1.4738  1.0923
 6946SOL    HW232475   1.015   2.153  11.480 -1.7059  0.6690  1.8794
 6947SOL     OW32476   0.641   4.497  15.226  0.2749 -0.2940  0.1984
 6947SOL    HW132477   0.639   4.403  15.210  3.3249  0.0747 -2.3782
 6947SOL    HW232478   0.728   4.508  15.265  1.5680 -1.4424 -2.4118
 6948SOL     OW32479   3.560   4.538   6.563  0.0230 -0.2360  0.0318
 6948SOL    HW132480   3.464   4.538   6.564  0.0056 -1.8724 -2.3595
 6948SOL    HW232481   3.582   4.604   6.629 -1.0741  0.3371 -0.1715
 6949SOL     OW32482   2.182   2.773   1.302 -0.3182 -0.7172  0.0966
 6949SOL    HW132483   2.112   2.734   1.250 -0.7918 -1.0500  0.9767
 6949SOL    HW232484   2.147   2.862   1.309  4.6501  1.5200 -3.3270
 6950SOL     OW32485   4.449   1.735   9.311  0.0459 -0.6190  0.3134
 6950SOL    HW132486   4.444   1.647   9.350  0.6959 -1.2569 -1.0591
 6950SOL    HW232487   4.529   1.723   9.261  0.3379  0.9555  0.4256
 6951SOL     OW32488   2.176   1.777   0.966  0.1542 -0.1251  0.0407
 6951SOL    HW132489   2.092   1.803   1.004 -0.0640 -0.6375 -0.0939
 6951SOL    HW232490   2.244   1.780   1.034 -0.4334 -1.9295  0.7040
 6952SOL     OW32491   3.113   2.978  10.703  0.3497  0.3423  0.3088
 6952SOL    HW132492   3.084   3.047  10.761 -0.6287  2.0046 -2.1557
 6952SOL    HW232493   3.035   2.947  10.656  0.3387 -0.6405  0.9674
 6953SOL     OW32494   0.404   3.329  12.426  0.5328  0.4473 -0.5780
 6953SOL    HW132495   0.430   3.339  12.518 -0.2214 -3.3984  0.0576
 6953SOL    HW232496   0.324   3.277  12.434  1.5172 -1.1431 -1.3033
 6954SOL     OW32497   1.190   4.663  10.548 -0.1729  0.5562 -0.1691
 6954SOL    HW132498   1.201   4.654  10.642 -1.6078  0.3738 -0.0162
 6954SOL    HW232499   1.157   0.013  10.546 -0.5905  0.3610 -1.9735
 6955SOL     OW32500   4.710   1.281   5.503 -0.1398  0.1390 -0.5735
 6955SOL    HW132501   4.641   1.279   5.436  0.3564  1.1693 -1.1098
 6955SOL    HW232502   4.729   1.375   5.507  0.4984  0.0720 -1.9846
 6956SOL     OW32503   1.883   3.046   7.096 -0.3430  0.7537  0.4098
 6956SOL    HW132504   1.789   3.035   7.111 -0.0239 -2.6942 -0.1616
 6956SOL    HW232505   1.897   3.141   7.103  0.9173  0.5794  0.2809
 6957SOL     OW32506   1.841   1.999  15.009  0.3650 -0.4162 -0.1081
 6957SOL    HW132507   1.823   1.956  14.925 -1.0914 -0.2776  0.1254
 6957SOL    HW232508   1.750   2.029  15.022  0.6522 -0.2530  1.5222
 6958SOL     OW32509   1.163   0.401  11.002 -0.7581 -0.4549  0.3048
 6958SOL    HW132510   1.124   0.361  11.080 -0.8689 -0.7603  0.0952
 6958SOL    HW232511   1.088   0.417  10.945  0.4447 -0.2816 -1.2260
 6959SOL     OW32512   2.921   4.546   6.455  0.3368  0.4678 -0.2130
 6959SOL    HW132513   2.981   4.475   6.434  1.1882  0.4036  2.4077
 6959SOL    HW232514   2.918   4.551   6.551 -0.6750  1.4661 -0.2884
 6960SOL     OW32515   0.217   3.146  12.401 -0.0364  0.1132 -0.2659
 6960SOL    HW132516   0.232   3.124  12.309 -0.8160 -1.2435 -0.0680
 6960SOL    HW232517   0.130   3.185  12.404 -0.1505 -0.2885  1.3964
 6961SOL     OW32518   0.010   1.228   3.712 -0.4908  0.1760  0.0747
 6961SOL    HW132519   0.049   1.171   3.646 -0.3353  0.8037 -0.3808
 6961SOL    HW232520   4.661   1.192   3.712  0.0078 -1.0316  0.9829
 6962SOL     OW32521   3.426   4.601  15.228  0.1529 -1.1018 -0.6476
 6962SOL    HW132522   3.505   4.653  15.213 -2.2019  2.6446  0.1839
 6962SOL    HW232523   3.362   4.635  15.166  0.8181  2.0926  0.3984
 6963SOL     OW32524   4.561   0.568   9.486 -0.0352  0.4318 -0.2899
 6963SOL    HW132525   4.592   0.648   9.443 -1.2019  1.8806  1.5470
 6963SOL    HW232526   4.594   0.500   9.427  2.8557  0.8463  0.8122
 6964SOL     OW32527   3.824   1.657   3.408 -0.2233 -0.2014  0.2807
 6964SOL    HW132528   3.802   1.675   3.499 -0.7580  1.8108 -0.2515
 6964SOL    HW232529   3.743   1.623   3.369  0.2465 -0.9384 -0.0647
 6965SOL     OW32530   4.543   0.023   6.473  0.1207 -0.0670 -0.1763
 6965SOL    HW132531   4.606   0.061   6.412  1.0720 -1.5194 -0.1170
 6965SOL    HW232532   4.566   0.081   6.546  0.0091  0.4018 -0.5200
 6966SOL     OW32533   1.469   0.445  10.337  0.5657 -0.3162  0.4934
 6966SOL    HW132534   1.412   0.412  10.407 -1.1290  1.5489 -0.0022
 6966SOL    HW232535   1.438   0.387  10.268  0.9794  0.4211 -0.3100
 6967SOL     OW32536   3.924   0.630   1.453  0.3201  0.2738  0.1835
 6967SOL    HW132537   3.842   0.588   1.477  1.1187 -1.5571 -0.3126
 6967SOL    HW232538   3.978   0.558   1.420 -0.0393  0.2015 -0.2561
 6968SOL     OW32539   2.303   3.076   7.746 -0.3889 -0.5110  0.3719
 6968SOL    HW132540   2.388   3.087   7.789  0.2240 -0.6744 -0.8077
 6968SOL    HW232541   2.312   2.993   7.699  2.0936 -0.4789  0.8174
 6969SOL     OW32542   4.213   1.910   2.297 -0.2568  0.1556  0.6998
 6969SOL    HW132543   4.219   1.878   2.207 -0.5826 -1.1502  1.1475
 6969SOL    HW232544   4.304   1.915   2.326  0.4625 -0.9316 -1.3322
 6970SOL     OW32545   3.209   3.763   1.468 -0.1844 -0.6161 -0.0498
 6970SOL    HW132546   3.227   3.714   1.549 -0.9631 -0.1011  0.4450
 6970SOL    HW232547   3.185   3.689   1.412 -0.8799  1.1574 -2.0451
 6971SOL     OW32548   2.589   3.654   7.972  0.1877 -0.5443 -0.5958
 6971SOL    HW132549   2.539   3.701   7.905  1.5771 -0.0918 -1.3048
 6971SOL    HW232550   2.679   3.664   7.941  0.5115 -0.6602  0.3033
 6972SOL     OW32551   2.061   0.913   6.725  0.2113 -0.4481 -0.5144
 6972SOL    HW132552   2.027   0.977   6.663  0.0207 -0.8293 -0.8068
 6972SOL    HW232553   2.028   0.956   6.804 -0.2462  1.2289 -1.6214
 6973SOL     OW32554   3.528   3.668   1.175 -0.1053  0.2120  0.5110
 6973SOL    HW132555   3.501   3.606   1.243  1.3119 -0.6076  0.3450
 6973SOL    HW232556   3.542   3.613   1.098  0.2073 -0.6058  1.1502
 6974SOL     OW32557   2.804   2.950  10.662 -0.0294 -0.6390 -0.4572
 6974SOL    HW132558   2.732   3.000  10.698 -0.2941 -2.3348  1.3690
 6974SOL    HW232559   2.815   2.871  10.714  2.2978  0.7201  1.1403
 6975SOL     OW32560   0.408   2.092   6.740  0.3098  0.0184 -0.1111
 6975SOL    HW132561   0.366   2.176   6.758 -0.8607 -0.5066 -0.3731
 6975SOL    HW232562   0.472   2.085   6.811 -1.9296 -1.0391  1.7865
 6976SOL     OW32563   3.731   3.045  14.873  0.4788  0.3399  0.2368
 6976SOL    HW132564   3.658   3.007  14.825  0.5316 -1.1967  1.3564
 6976SOL    HW232565   3.738   2.978  14.941 -0.3153 -0.2607 -0.2713
 6977SOL     OW32566   2.736   2.579   8.308  0.5711 -0.7476  0.0232
 6977SOL    HW132567   2.659   2.632   8.287  0.3099 -1.4889 -0.8702
 6977SOL    HW232568   2.787   2.589   8.228  3.1654  2.0747  2.0386
 6978SOL     OW32569   0.972   1.447   7.478 -0.6545 -0.4201  0.0020
 6978SOL    HW132570   1.038   1.428   7.411  0.4432 -0.5324  1.1131
 6978SOL    HW232571   0.963   1.355   7.504 -1.6496 -0.0111  1.1139
 6979SOL     OW32572   4.493   2.391  16.721  0.0643 -0.1666 -0.2691
 6979SOL    HW132573   4.461   2.370  16.633 -0.0116 -0.3117 -0.2072
 6979SOL    HW232574   4.454   2.476  16.742 -0.3558  0.3038 -2.8474
 6980SOL     OW32575   3.243   4.574   7.392 -0.3366  0.0928  0.1935
 6980SOL    HW132576   3.242   4.666   7.366  1.9042  0.2583  0.6475
 6980SOL    HW232577   3.179   4.557   7.461 -0.3258 -0.7028  0.0108
 6981SOL     OW32578   0.408   4.493   5.942  0.4162  0.0254 -0.2233
 6981SOL    HW132579   0.381   4.537   6.023 -2.6737 -0.2932 -1.0834
 6981SOL    HW232580   0.317   4.483   5.913  0.1189  2.6871 -0.2366
 6982SOL     OW32581   0.580   0.370   3.730  0.1792 -0.1396  0.7335
 6982SOL    HW132582   0.636   0.357   3.807 -1.0129  1.1076  1.8099
 6982SOL    HW232583   0.569   0.284   3.689  0.0910  0.4217 -0.4208
 6983SOL     OW32584   1.956   0.497   4.802 -0.2380  0.4704 -0.6043
 6983SOL    HW132585   2.029   0.558   4.791  1.6356 -2.0362 -1.9842
 6983SOL    HW232586   1.954   0.450   4.719  2.3055  0.5754 -0.7288
 6984SOL     OW32587   0.886   4.702   6.505 -0.3930  0.4178 -0.0484
 6984SOL    HW132588   0.882   4.609   6.526  0.6185  0.6406  1.1596
 6984SOL    HW232589   0.845   0.001   6.582 -0.0837 -1.0402  0.8417
 6985SOL     OW32590   1.966   3.942   1.104  0.5569 -0.3051 -0.1109
 6985SOL    HW132591   1.907   3.997   1.052  1.8369  0.4597 -0.7492
 6985SOL    HW232592   2.030   4.004   1.139 -0.9175  0.0299  1.9901
 6986SOL     OW32593   3.468   3.124   5.621  0.1571  0.0940  0.1257
 6986SOL    HW132594   3.508   3.209   5.604 -0.8171  0.8185  1.4472
 6986SOL    HW232595   3.540   3.074   5.659  0.0115 -0.0641  0.1939
 6987SOL     OW32596   3.337   1.827   2.697 -0.1306 -0.3317  0.1663
 6987SOL    HW132597   3.379   1.819   2.783 -1.0100 -1.8853  0.4393
 6987SOL    HW232598   3.255   1.874   2.710 -0.3307 -0.7586  0.4472
 6988SOL     OW32599   4.199   1.941   4.686 -0.5655 -0.5345 -0.6041
 6988SOL    HW132600   4.269   1.876   4.690 -0.8679 -0.9039 -1.2471
 6988SOL    HW232601   4.238   2.009   4.631 -2.3849  0.4023 -0.7192
 6989SOL     OW32602   4.302   4.454  10.124 -0.0327 -0.6774  0.7240
 6989SOL    HW132603   4.346   4.408  10.195  0.5082  1.7716  1.9723
 6989SOL    HW232604   4.331   4.544  10.137 -0.0553 -0.5564 -0.0285
 6990SOL     OW32605   4.389   2.110   3.903 -0.0393  0.1127 -0.2179
 6990SOL    HW132606   4.481   2.086   3.909 -0.7699 -2.9610 -1.5602
 6990SOL    HW232607   4.386   2.195   3.947  1.0502  0.0246  0.0285
 6991SOL     OW32608   0.660   4.168   7.171 -0.0897  0.1515  0.4707
 6991SOL    HW132609   0.600   4.104   7.132  1.4593  0.9586 -3.2028
 6991SOL    HW232610   0.595   4.213   7.225 -0.0539 -0.8134  1.3307
 6992SOL     OW32611   4.388   2.569   2.202  0.4663 -0.0012 -0.1894
 6992SOL    HW132612   4.357   2.518   2.128  1.9237 -0.6070 -0.3970
 6992SOL    HW232613   4.328   2.532   2.267 -0.8440 -1.2214 -2.0857
 6993SOL     OW32614   1.870   1.571   2.222 -0.0778 -0.2624  0.0912
 6993SOL    HW132615   1.955   1.560   2.266  1.0799  0.1034 -2.0678
 6993SOL    HW232616   1.859   1.481   2.191  0.5644  0.1434 -1.2973
 6994SOL     OW32617   0.310   0.988   2.055 -0.2305 -0.5664  0.1952
 6994SOL    HW132618   0.333   1.017   2.143  0.7476  0.5930 -0.4275
 6994SOL    HW232619   0.303   1.076   2.016  1.9459  0.1074  1.3354
 6995SOL     OW32620   2.410   0.491  10.680 -0.3472  0.8874 -0.1376
 6995SOL    HW132621   2.441   0.489  10.589  0.1190  3.2571 -0.0383
 6995SOL    HW232622   2.492   0.523  10.718 -1.9748  2.1188  2.3191
 6996SOL     OW32623   3.733   2.527   3.287 -1.0678 -0.1241 -0.2760
 6996SOL    HW132624   3.745   2.580   3.366 -2.2876 -0.7102  0.2854
 6996SOL    HW232625   3.823   2.533   3.255 -1.5477  0.3498 -1.5441
 6997SOL     OW32626   2.834   3.941   8.273  0.4433  0.0982 -0.0199
 6997SOL    HW132627   2.765   3.878   8.252  0.5706 -0.3583  0.9311
 6997SOL    HW232628   2.892   3.926   8.199 -0.1468  2.2714 -0.9352
 6998SOL     OW32629   0.333   3.592  17.060 -0.0069  0.0185 -0.0359
 6998SOL    HW132630   0.362   3.505  17.087 -1.5740 -0.3883  0.3696
 6998SOL    HW232631   0.243   3.573  17.031  0.1612 -2.7135  1.2401
 6999SOL     OW32632   1.468   2.622  13.708  0.0496  0.0928 -0.9753
 6999SOL    HW132633   1.464   2.688  13.778  3.0147 -0.4548 -0.3173
 6999SOL    HW232634   1.517   2.552  13.751 -0.4394 -0.0648 -0.6660
 7000SOL     OW32635   1.642   3.874   3.958  1.0297  0.0642  0.3279
 7000SOL    HW132636   1.660   3.816   3.884  1.0269  0.1041  0.2961
 7000SOL    HW232637   1.686   3.822   4.026  0.0483 -1.3391 -0.1039
 7001SOL     OW32638   1.355   0.764   3.724  0.7655 -0.1382  0.0067
 7001SOL    HW132639   1.324   0.853   3.740 -1.5719 -0.9701  0.1638
 7001SOL    HW232640   1.383   0.775   3.633  1.1359  2.2829  0.4276
 7002SOL     OW32641   1.237   2.263   4.239  0.8089  0.5482  0.1357
 7002SOL    HW132642   1.215   2.188   4.184  1.5740 -0.3363  1.0219
 7002SOL    HW232643   1.203   2.334   4.185  0.4836  0.1697 -0.1600
 7003SOL     OW32644   2.214   0.049  14.308  0.1003  0.5177  0.0072
 7003SOL    HW132645   2.233   4.717  14.248 -0.9366  0.8140 -0.6783
 7003SOL    HW232646   2.283   0.029  14.371  1.2439 -0.7769 -1.6874
 7004SOL     OW32647   1.035   3.321   6.080  0.3424  0.4867 -0.3217
 7004SOL    HW132648   0.968   3.350   6.141  0.2594 -0.9627  0.2590
 7004SOL    HW232649   0.980   3.295   6.005  0.4921  1.2380 -0.6938
 7005SOL     OW32650   3.398   0.324   6.046 -0.2517 -0.3676 -0.1355
 7005SOL    HW132651   3.345   0.245   6.039  0.9291 -1.0142 -1.9986
 7005SOL    HW232652   3.477   0.288   6.088  0.2122  0.1727 -0.5334
 7006SOL     OW32653   0.463   2.499   6.622 -0.2299 -0.2606 -0.5762
 7006SOL    HW132654   0.537   2.474   6.566  1.0180  1.3088  0.3457
 7006SOL    HW232655   0.393   2.456   6.573  2.2171 -3.9916 -0.8053
 7007SOL     OW32656   1.258   0.716   7.042 -0.4724 -0.4468  0.2344
 7007SOL    HW132657   1.264   0.740   7.134  0.6869 -2.1995  0.6154
 7007SOL    HW232658   1.227   0.798   7.004 -3.2388 -1.1868  0.8212
 7008SOL     OW32659   3.522   4.463  15.744  0.0212 -0.5681  0.6192
 7008SOL    HW132660   3.609   4.495  15.769  0.2437 -0.5452 -0.1649
 7008SOL    HW232661   3.517   4.504  15.658  2.0040 -0.6408  0.4644
 7009SOL     OW32662   0.237   4.318   3.477  0.7863 -0.9467  0.3023
 7009SOL    HW132663   0.278   4.267   3.547  0.4694  1.8446  2.5631
 7009SOL    HW232664   0.172   4.253   3.452  0.4175 -0.5632  0.2581
 7010SOL     OW32665   2.508   4.303   7.047 -0.0367  0.4460 -0.4063
 7010SOL    HW132666   2.514   4.360   7.123 -0.1879 -0.4058  0.2355
 7010SOL    HW232667   2.417   4.315   7.019 -0.8272 -3.2434  0.6960
 7011SOL     OW32668   1.307   3.726   2.211  0.0825 -0.0900  0.1662
 7011SOL    HW132669   1.281   3.818   2.210  0.6056  0.0693  1.1328
 7011SOL    HW232670   1.367   3.745   2.283  3.3123  0.7018 -2.7862
 7012SOL     OW32671   2.506   2.327  11.958  0.4090 -0.3117 -0.3161
 7012SOL    HW132672   2.516   2.401  12.019  0.0468  1.5519 -2.4997
 7012SOL    HW232673   2.496   2.247  12.009 -1.8314 -1.1392 -2.0744
 7013SOL     OW32674   3.334   2.253   8.700 -0.1514  0.1654 -0.2075
 7013SOL    HW132675   3.384   2.172   8.708 -1.3030 -0.3920  1.6289
 7013SOL    HW232676   3.287   2.242   8.618 -0.2623 -5.8407  0.6809
 7014SOL     OW32677   0.385   0.894  17.553 -0.1572 -0.0299 -0.6361
 7014SOL    HW132678   0.316   0.959  17.569 -0.9376 -1.6905  2.7204
 7014SOL    HW232679   0.337   0.812  17.557  1.3526 -1.1592 -5.3217
 7015SOL     OW32680   1.008   0.092   4.152  0.0900 -0.1250 -0.3613
 7015SOL    HW132681   1.101   0.118   4.154  0.2047 -0.5379 -0.2515
 7015SOL    HW232682   1.026   4.739   4.134  2.2594  0.3807 -0.8768
 7016SOL     OW32683   4.317   2.983   8.467  0.2537 -0.4366  0.1332
 7016SOL    HW132684   4.391   2.925   8.447 -0.7042 -1.5154 -0.2752
 7016SOL    HW232685   4.279   2.938   8.543  0.5428 -0.0291  0.5225
 7017SOL     OW32686   0.178   4.065   0.092 -0.2888 -0.0465  0.5082
 7017SOL    HW132687   0.144   4.146   0.055 -0.4266  0.7027  2.3177
 7017SOL    HW232688   0.216   4.017   0.018 -0.1237  0.0478  0.5344
 7018SOL     OW32689   2.139   0.181   4.731  0.1106  0.2278 -0.7309
 7018SOL    HW132690   2.155   0.196   4.825  1.8728  2.1477 -1.3336
 7018SOL    HW232691   2.230   0.178   4.703  0.2668  0.7500 -0.2904
 7019SOL     OW32692   3.621   2.954   8.487 -0.0456 -0.5386 -0.5976
 7019SOL    HW132693   3.574   2.873   8.507  0.6805 -0.9125 -0.3810
 7019SOL    HW232694   3.632   2.990   8.576  1.8963  0.0360 -1.0785
 7020SOL     OW32695   4.685   2.283   3.596 -0.3505 -0.5810  0.0375
 7020SOL    HW132696   4.726   2.259   3.679  1.0388  1.8114  0.0586
 7020SOL    HW232697   4.617   2.340   3.633 -1.3376 -0.7527 -1.4928
 7021SOL     OW32698   4.076   3.735   2.438 -0.3059  0.4372 -0.1746
 7021SOL    HW132699   4.072   3.777   2.352 -1.7804  1.2787  0.2950
 7021SOL    HW232700   4.131   3.795   2.488 -0.3250 -0.2758  0.6982
 7022SOL     OW32701   4.511   3.958  10.986 -0.4342  0.1742  0.2554
 7022SOL    HW132702   4.575   3.893  11.013 -1.0705 -0.3969  0.3788
 7022SOL    HW232703   4.572   4.032  10.987 -1.4348  1.0337 -1.0972
 7023SOL     OW32704   4.284   1.085   8.665  0.1333  0.7407 -0.4137
 7023SOL    HW132705   4.297   1.178   8.683 -0.8107  0.2348  2.8375
 7023SOL    HW232706   4.335   1.049   8.738  0.2288  1.5665 -0.0734
 7024SOL     OW32707   1.543   4.619   8.749 -0.7139  0.5099  0.3616
 7024SOL    HW132708   1.546   4.557   8.676  0.9106  0.8727  0.1178
 7024SOL    HW232709   1.472   4.677   8.722 -0.3959  0.2550 -1.0000
 7025SOL     OW32710   0.275   2.955   7.646 -0.4091  0.1879 -0.2215
 7025SOL    HW132711   0.186   2.928   7.625 -0.0932  0.3177 -1.6994
 7025SOL    HW232712   0.310   2.924   7.563 -3.0635 -2.2059 -0.4294
 7026SOL     OW32713   3.939   3.756   1.310 -0.6454  0.3816 -0.0913
 7026SOL    HW132714   3.853   3.750   1.353 -0.4953 -0.3684  0.1186
 7026SOL    HW232715   3.918   3.791   1.223 -3.0110 -1.4949 -0.3025
 7027SOL     OW32716   1.669   0.998   0.300 -0.0092 -0.3044  0.5864
 7027SOL    HW132717   1.730   1.025   0.231 -3.1435  1.5719 -1.4311
 7027SOL    HW232718   1.725   0.990   0.377 -1.7217 -0.0722  1.8324
 7028SOL     OW32719   4.672   1.197   4.416  0.1318  0.9707 -0.3710
 7028SOL    HW132720   4.690   1.228   4.327 -0.3062  0.2545 -0.7157
 7028SOL    HW232721   4.702   1.268   4.472  0.4468 -0.5881  1.4236
 7029SOL     OW32722   1.511   0.342  11.959 -0.2886 -0.8900  1.2003
 7029SOL    HW132723   1.433   0.294  11.932  0.4892 -1.8235  0.5867
 7029SOL    HW232724   1.474   0.430  11.969 -0.2572 -0.6856 -0.3565
 7030SOL     OW32725   3.418   4.147   4.625  0.6156  0.1690  0.1602
 7030SOL    HW132726   3.463   4.189   4.698 -1.1713  2.8090 -0.2689
 7030SOL    HW232727   3.401   4.222   4.567  1.4546 -0.9026 -1.4788
 7031SOL     OW32728   3.558   2.516   1.572 -0.1146 -0.4555 -0.4882
 7031SOL    HW132729   3.464   2.502   1.583 -0.4463  1.6725 -0.5716
 7031SOL    HW232730   3.591   2.427   1.573 -1.3621 -0.9301 -1.6651
 7032SOL     OW32731   4.669   1.796  17.751  0.3310 -0.0637  0.4152
 7032SOL    HW132732   0.025   1.786  17.756 -0.0161 -2.9468  1.7287
 7032SOL    HW232733   4.657   1.852   0.071 -0.1423  1.9102 -1.1226
 7033SOL     OW32734   2.393   3.332   7.784 -0.9406  0.0235  0.2444
 7033SOL    HW132735   2.411   3.305   7.874 -1.6016  0.7390  0.5912
 7033SOL    HW232736   2.332   3.265   7.752  1.1222 -2.3700  1.3346
 7034SOL     OW32737   0.008   1.702   5.682  0.5639 -0.0988  0.7050
 7034SOL    HW132738   4.657   1.690   5.654  1.6746 -1.8420 -2.1868
 7034SOL    HW232739   0.008   1.797   5.673  1.8542 -0.3199 -1.5673
 7035SOL     OW32740   3.072   0.787   8.351  0.0119  0.2488  0.2895
 7035SOL    HW132741   3.020   0.797   8.271  0.1173 -0.9047  0.0714
 7035SOL    HW232742   3.150   0.741   8.318 -0.6736 -0.6202 -0.1339
 7036SOL     OW32743   1.225   3.245   4.554 -0.1310 -0.2861 -0.0094
 7036SOL    HW132744   1.157   3.306   4.583 -1.4297 -1.3651 -0.7504
 7036SOL    HW232745   1.215   3.260   4.460 -2.4808  1.7557  0.5563
 7037SOL     OW32746   3.836   0.684   3.826  0.7266  0.7348  0.2739
 7037SOL    HW132747   3.779   0.702   3.751 -0.3638 -1.2479  0.6159
 7037SOL    HW232748   3.899   0.756   3.831  1.2930  0.3751 -1.9150
 7038SOL     OW32749   0.387   0.545   9.770  0.0921 -0.3329 -0.1922
 7038SOL    HW132750   0.413   0.631   9.802 -3.6012  0.8998 -0.4991
 7038SOL    HW232751   0.316   0.579   9.716  0.0301 -1.2260 -0.6885
 7039SOL     OW32752   3.640   2.651  11.526 -0.3153 -0.0900 -0.0145
 7039SOL    HW132753   3.694   2.592  11.578 -3.7041 -3.5427 -0.3994
 7039SOL    HW232754   3.698   2.674  11.453 -1.8158 -0.5593 -1.3596
 7040SOL     OW32755   4.660   3.268   4.953  0.0377 -0.1860 -0.1143
 7040SOL    HW132756   4.735   3.293   5.007 -0.2333 -0.2753  0.3086
 7040SOL    HW232757   4.660   3.175   4.977 -1.1042 -0.1672 -0.0404
 7041SOL     OW32758   1.568   3.663   5.025 -0.1407  0.0020 -0.2142
 7041SOL    HW132759   1.618   3.603   4.969  0.9171  0.9044 -0.2596
 7041SOL    HW232760   1.516   3.600   5.074 -0.1963  1.2480  1.3251
 7042SOL     OW32761   3.835   4.373   5.763 -0.2941 -0.0573 -0.9100
 7042SOL    HW132762   3.885   4.302   5.722  0.3166  0.4134 -0.9833
 7042SOL    HW232763   3.817   4.331   5.847 -0.2958  0.8191 -0.4711
 7043SOL     OW32764   3.552   3.458   4.314  0.3480 -0.0651  0.0541
 7043SOL    HW132765   3.634   3.457   4.363  1.2540 -1.6983 -1.4654
 7043SOL    HW232766   3.513   3.544   4.328 -2.4353 -0.8155 -2.9621
 7044SOL     OW32767   1.282   2.335   8.757  0.2956 -0.0123 -0.2301
 7044SOL    HW132768   1.272   2.385   8.838 -1.5581  2.2737 -1.8408
 7044SOL    HW232769   1.191   2.307   8.746  0.5121 -0.4811 -0.8278
 7045SOL     OW32770   3.820   1.642   6.095  0.7593  0.5559  0.0668
 7045SOL    HW132771   3.803   1.737   6.092  0.0154  0.4775  1.3527
 7045SOL    HW232772   3.735   1.600   6.107  1.3489 -0.7763 -0.4636
 7046SOL     OW32773   2.422   3.793   3.618 -0.1332  0.0946  0.4426
 7046SOL    HW132774   2.492   3.845   3.657 -1.6216  0.3734  2.7839
 7046SOL    HW232775   2.343   3.832   3.657  0.0742  1.6865 -0.7336
 7047SOL     OW32776   2.455   0.086   4.025 -0.8433  0.0916 -0.1989
 7047SOL    HW132777   2.365   0.085   4.056  0.2951 -0.6148  3.0865
 7047SOL    HW232778   2.497   0.153   4.078  1.3297 -0.2028 -1.5164
 7048SOL     OW32779   3.171   3.660  10.262 -0.3256  0.2630 -0.6426
 7048SOL    HW132780   3.128   3.639  10.179  0.6078 -1.6264 -0.6521
 7048SOL    HW232781   3.228   3.588  10.286 -2.3408 -1.3361 -0.6287
 7049SOL     OW32782   0.428   3.002  11.279 -0.5281  0.0843  0.0558
 7049SOL    HW132783   0.475   2.941  11.223 -0.7776 -0.8423  0.8528
 7049SOL    HW232784   0.491   2.998  11.351  0.4388  1.5098 -0.6983
 7050SOL     OW32785   1.871   2.966   6.029  0.2607  0.2977  0.2179
 7050SOL    HW132786   1.832   3.053   6.034 -2.4982 -0.8898  0.0462
 7050SOL    HW232787   1.806   2.916   6.079 -0.5999  0.3695 -0.8020
 7051SOL     OW32788   2.028   3.183   4.431 -0.3249 -0.2586  0.1333
 7051SOL    HW132789   2.035   3.163   4.524  0.2190 -1.8982 -0.2609
 7051SOL    HW232790   2.078   3.108   4.398 -1.1970 -0.5935 -0.4167
 7052SOL     OW32791   1.895   3.163   5.827  0.4730 -0.0277 -0.0806
 7052SOL    HW132792   1.812   3.119   5.815  0.4869  0.0540 -0.4761
 7052SOL    HW232793   1.964   3.096   5.822 -0.7878 -1.2583 -0.8577
 7053SOL     OW32794   4.142   1.356   1.832 -0.5162 -0.0187  0.4788
 7053SOL    HW132795   4.192   1.417   1.887  0.0303 -1.6006  1.7238
 7053SOL    HW232796   4.048   1.372   1.845 -0.5679  0.5311 -0.5877
 7054SOL     OW32797   1.658   1.484   1.165  0.3362 -0.4274  0.2792
 7054SOL    HW132798   1.627   1.499   1.075  0.5372  0.8623  0.4247
 7054SOL    HW232799   1.672   1.574   1.195 -1.3766 -0.4688  1.2066
 7055SOL     OW32800   3.094   3.963  11.161 -0.0342  0.1211 -0.4310
 7055SOL    HW132801   3.088   3.869  11.175  0.9465  0.1033 -0.1362
 7055SOL    HW232802   3.163   3.969  11.095 -0.9370  0.4803 -1.3606
 7056SOL     OW32803   4.399   1.874   5.471 -0.0341 -0.2676  0.1250
 7056SOL    HW132804   4.427   1.965   5.485 -0.0187 -0.1744 -0.5251
 7056SOL    HW232805   4.316   1.891   5.425 -1.0896 -2.1077  1.3247
 7057SOL     OW32806   1.155   1.659   8.503  0.1973  0.0829 -0.6550
 7057SOL    HW132807   1.060   1.652   8.506 -0.0896  3.1096 -2.0666
 7057SOL    HW232808   1.174   1.582   8.450 -0.6592  0.7477 -1.9228
 7058SOL     OW32809   3.598   4.604  11.792  0.1984  0.1056  0.0739
 7058SOL    HW132810   3.514   4.649  11.782 -0.9211 -1.5984  1.7768
 7058SOL    HW232811   3.581   4.562  11.877  1.8116 -1.0758 -0.1865
 7059SOL     OW32812   4.027   3.175   8.111  0.2048  0.3868  0.7279
 7059SOL    HW132813   4.087   3.126   8.055  1.1457 -1.0164  2.9593
 7059SOL    HW232814   4.081   3.216   8.178 -0.7994  0.0473  1.7587
 7060SOL     OW32815   3.580   4.165   1.480 -0.1916  0.0335 -0.1576
 7060SOL    HW132816   3.581   4.243   1.425  1.4129 -1.1423 -1.7659
 7060SOL    HW232817   3.612   4.202   1.562 -1.8936  0.5343  0.2856
 7061SOL     OW32818   1.431   1.686  14.984  0.3573  0.3831 -0.1915
 7061SOL    HW132819   1.510   1.634  14.969  0.4458  0.5566 -0.3306
 7061SOL    HW232820   1.395   1.642  15.061  3.0812  0.7634  1.3295
 7062SOL     OW32821   0.867   2.079   8.954  0.3526 -0.1252 -0.4193
 7062SOL    HW132822   0.914   1.996   8.955  0.6033  0.0275  0.3589
 7062SOL    HW232823   0.779   2.046   8.969  0.1830 -0.1984 -1.5759
 7063SOL     OW32824   3.998   3.949   7.687 -0.5296  0.4804 -0.3133
 7063SOL    HW132825   3.985   4.034   7.645 -3.0689 -1.2295 -2.9947
 7063SOL    HW232826   4.090   3.928   7.670 -1.1196 -0.5427 -2.2979
 7064SOL     OW32827   0.193   2.868  15.975  0.3151  0.5381 -0.4112
 7064SOL    HW132828   0.205   2.961  15.991 -1.0989  1.2439 -3.4611
 7064SOL    HW232829   0.200   2.835  16.064 -0.3797  0.9248 -0.2150
 7065SOL     OW32830   3.584   1.399  17.342 -0.0827  0.1215 -0.3254
 7065SOL    HW132831   3.613   1.485  17.314 -3.0499  0.9838 -0.7330
 7065SOL    HW232832   3.527   1.412  17.418 -1.5763  0.7879 -1.5528
 7066SOL     OW32833   3.330   2.339   4.983  0.6368  0.0798  0.7609
 7066SOL    HW132834   3.350   2.409   4.920 -1.4521 -0.6586 -0.7292
 7066SOL    HW232835   3.289   2.375   5.061  0.2023  2.0545 -0.3668
 7067SOL     OW32836   2.750   0.045  11.131  0.2678 -0.0708  0.1812
 7067SOL    HW132837   2.692   0.115  11.161 -0.4432 -0.0595 -1.2036
 7067SOL    HW232838   2.827   0.075  11.180 -0.2731 -4.1431  3.6357
 7068SOL     OW32839   4.575   1.769   8.560 -0.7629 -0.7486 -0.0232
 7068SOL    HW132840   4.547   1.854   8.526 -2.3121 -1.2723 -0.0920
 7068SOL    HW232841   4.647   1.746   8.501  0.6603 -0.1526  1.4695
 7069SOL     OW32842   3.528   1.406   2.751  0.0280 -0.0333  0.0855
 7069SOL    HW132843   3.595   1.368   2.808 -0.1009 -0.5702 -0.1164
 7069SOL    HW232844   3.459   1.444   2.806  1.5411 -1.2401  2.8277
 7070SOL     OW32845   2.683   1.152   9.912 -0.0811  0.5635 -0.0789
 7070SOL    HW132846   2.695   1.214   9.841 -0.5501  1.0524  0.2735
 7070SOL    HW232847   2.773   1.140   9.945  0.1691  2.5016 -0.0738
 7071SOL     OW32848   3.290   0.201  13.909 -0.2955  0.2748 -0.2449
 7071SOL    HW132849   3.374   0.162  13.885 -0.6740  0.4439 -1.8361
 7071SOL    HW232850   3.323   0.234  13.992  1.3160 -2.7692  0.3092
 7072SOL     OW32851   0.814   4.516  11.546  0.5465 -0.8518 -0.0284
 7072SOL    HW132852   0.890   4.458  11.558  0.1777 -1.0251  1.4003
 7072SOL    HW232853   0.754   4.461  11.596 -0.7773 -0.0479 -0.7485
 7073SOL     OW32854   0.792   2.032   7.629 -0.5424  0.4382 -0.4764
 7073SOL    HW132855   0.882   2.028   7.660 -0.9518 -0.1311  0.6475
 7073SOL    HW232856   0.750   1.948   7.648  1.1067  0.0077  1.2533
 7074SOL     OW32857   3.586   0.295   8.755  0.2616  0.1163  0.1119
 7074SOL    HW132858   3.560   0.300   8.847 -1.1969 -0.0346 -0.2950
 7074SOL    HW232859   3.638   0.374   8.742  0.0691  0.1192 -0.6673
 7075SOL     OW32860   3.279   3.435  14.604  0.3169 -0.7847 -0.1923
 7075SOL    HW132861   3.324   3.454  14.687  1.1529 -0.4015 -0.7357
 7075SOL    HW232862   3.255   3.524  14.577  0.0114 -0.8598 -0.1724
 7076SOL     OW32863   1.323   2.515   9.760 -0.1736  0.2051 -0.0550
 7076SOL    HW132864   1.307   2.590   9.704 -0.8803 -1.8160 -2.5685
 7076SOL    HW232865   1.277   2.519   9.844  0.7758 -2.5224  0.6054
 7077SOL     OW32866   2.491   1.494   5.323 -0.0017  0.4277 -0.8558
 7077SOL    HW132867   2.483   1.585   5.293 -0.5412 -0.6098 -3.8954
 7077SOL    HW232868   2.476   1.455   5.237  0.7159 -0.5369 -0.5339
 7078SOL     OW32869   1.963   1.816   5.243 -0.3698  0.1301  0.0776
 7078SOL    HW132870   1.998   1.728   5.250 -1.4477 -0.2772  0.3480
 7078SOL    HW232871   1.911   1.814   5.163 -0.3837 -1.5890  0.1353
 7079SOL     OW32872   0.627   0.762  14.676 -0.1945 -0.5146 -0.1986
 7079SOL    HW132873   0.701   0.762  14.615 -0.2038  2.2505 -0.1817
 7079SOL    HW232874   0.660   0.803  14.755 -0.0250  1.1124 -1.1217
 7080SOL     OW32875   2.102   0.430  14.608  0.0081  0.1369  0.5944
 7080SOL    HW132876   2.054   0.457  14.530 -0.7567 -1.3105  0.5655
 7080SOL    HW232877   2.144   0.353  14.569 -0.6601  0.3620 -0.5689
 7081SOL     OW32878   2.141   2.635   8.556  0.5577  0.0776 -0.0498
 7081SOL    HW132879   2.192   2.686   8.618  0.7260  2.3098 -2.0274
 7081SOL    HW232880   2.100   2.583   8.625  1.4247 -2.4664 -1.4222
 7082SOL     OW32881   1.261   1.942   2.398 -0.1874  0.0728 -0.2166
 7082SOL    HW132882   1.335   1.889   2.427 -0.4805 -0.2245 -0.0203
 7082SOL    HW232883   1.220   1.974   2.478  1.6251  1.4810  0.1716
 7083SOL     OW32884   1.168   0.250   7.005 -0.0121  0.0044 -0.2198
 7083SOL    HW132885   1.206   0.335   6.981 -0.5268  0.7491  1.5926
 7083SOL    HW232886   1.228   0.191   6.959 -0.3807 -1.9109  1.7537
 7084SOL     OW32887   3.032   0.858   7.428 -0.4530 -0.0442  0.2933
 7084SOL    HW132888   3.123   0.830   7.416 -0.5578 -0.2720  0.0404
 7084SOL    HW232889   3.044   0.928   7.492  1.1346  0.0159 -0.0575
 7085SOL     OW32890   3.866   1.037   1.371 -0.2607 -0.3768 -0.2502
 7085SOL    HW132891   3.833   1.113   1.419 -1.2949 -0.0691 -1.4518
 7085SOL    HW232892   3.960   1.054   1.371 -0.3180 -0.0615  0.1013
 7086SOL     OW32893   1.914   4.576   2.955 -0.2436 -0.1656 -0.3167
 7086SOL    HW132894   1.868   4.497   2.928 -0.7229 -0.4984  1.5119
 7086SOL    HW232895   1.995   4.570   2.904 -1.2808  0.0121 -1.9707
 7087SOL     OW32896   0.184   0.487   8.300  0.1091  0.2631 -0.0843
 7087SOL    HW132897   0.107   0.538   8.274  0.7969  0.6879 -1.2751
 7087SOL    HW232898   0.249   0.499   8.231 -0.6015 -3.4295 -1.4245
 7088SOL     OW32899   1.610   3.598   8.980  0.4512  0.1647  0.3930
 7088SOL    HW132900   1.637   3.518   8.935 -1.6583  0.6886 -1.8362
 7088SOL    HW232901   1.574   3.648   8.906  0.6106 -0.7072 -0.2774
 7089SOL     OW32902   3.984   3.763   7.021  0.0868 -0.3084  0.5051
 7089SOL    HW132903   4.039   3.685   7.033  1.4370  0.3925 -1.2134
 7089SOL    HW232904   3.943   3.777   7.107 -2.3664 -1.1244 -0.5181
 7090SOL     OW32905   2.266   2.279   5.383  0.0849  0.4808 -0.4396
 7090SOL    HW132906   2.249   2.185   5.394 -0.5757  0.7718  1.0810
 7090SOL    HW232907   2.341   2.271   5.324  0.9492  0.7589  0.6251
 7091SOL     OW32908   4.516   2.819   5.371 -0.9000  0.8749 -0.3080
 7091SOL    HW132909   4.561   2.879   5.429  2.2452 -2.8422  1.0329
 7091SOL    HW232910   4.514   2.867   5.288 -0.3836 -1.6083 -1.7407
 7092SOL     OW32911   1.961   2.870   8.984 -0.1327 -0.9829  0.5181
 7092SOL    HW132912   1.894   2.939   8.984  1.0220  0.1284  0.8747
 7092SOL    HW232913   2.002   2.869   9.070  2.1523  1.9333 -0.5269
 7093SOL     OW32914   1.267   4.030   3.196  0.0407  0.0486  0.3505
 7093SOL    HW132915   1.332   3.983   3.144 -0.3308 -1.9065  1.6306
 7093SOL    HW232916   1.263   3.976   3.276  0.3438 -2.5725 -1.3938
 7094SOL     OW32917   1.052   3.721  15.289 -1.2207  0.1403 -0.6605
 7094SOL    HW132918   1.129   3.740  15.343 -1.2693 -0.1142 -0.5023
 7094SOL    HW232919   0.988   3.692  15.353 -0.0962  1.4691  1.0630
 7095SOL     OW32920   0.456   2.936   0.962 -0.0280  0.1381 -0.2390
 7095SOL    HW132921   0.410   2.919   1.044  0.4915 -0.3418 -0.0465
 7095SOL    HW232922   0.461   2.843   0.941  0.8235 -0.1479  1.2965
 7096SOL     OW32923   2.039   4.367   3.425 -0.4758 -0.6532 -0.2012
 7096SOL    HW132924   2.040   4.446   3.370 -0.9889 -0.5357 -0.0416
 7096SOL    HW232925   1.987   4.405   3.496  0.5517 -0.9724  0.7371
 7097SOL     OW32926   1.013   2.308   5.937 -0.5709  0.4596 -0.6624
 7097SOL    HW132927   0.997   2.220   5.902  0.6815  0.0009 -0.0907
 7097SOL    HW232928   1.080   2.339   5.876 -0.4593  3.0511  0.7977
 7098SOL     OW32929   1.934   4.378   8.274  0.1866  0.1205 -0.4602
 7098SOL    HW132930   2.016   4.332   8.292  0.0769  0.3103  0.5425
 7098SOL    HW232931   1.880   4.307   8.310  0.9235  0.6215  1.6521
 7099SOL     OW32932   3.682   2.837  14.346  0.8549 -0.2171 -0.2795
 7099SOL    HW132933   3.609   2.833  14.284 -3.6980 -1.4343  5.0484
 7099SOL    HW232934   3.672   2.762  14.405 -0.9685 -0.6168 -1.0963
 7100SOL     OW32935   3.327   3.267   3.526  0.4012 -0.0486  0.1544
 7100SOL    HW132936   3.322   3.301   3.436 -1.9026  0.4494  0.4661
 7100SOL    HW232937   3.378   3.341   3.559  1.2243 -1.1140  1.3082
 7101SOL     OW32938   1.000   0.828   3.961 -0.3998  0.1232  0.1950
 7101SOL    HW132939   0.956   0.907   3.928  0.3218  0.1760 -0.6262
 7101SOL    HW232940   0.965   0.828   4.050 -1.2023  0.9345 -0.1212
 7102SOL     OW32941   4.057   3.791   6.578 -0.6119  0.1356  0.5554
 7102SOL    HW132942   3.976   3.805   6.627 -1.4829 -3.3218  0.1001
 7102SOL    HW232943   4.108   3.749   6.647  1.5198  1.4170 -0.2298
 7103SOL     OW32944   0.496   1.644  10.283 -1.0480  0.0030  0.2766
 7103SOL    HW132945   0.554   1.673  10.354 -1.7389  0.1798  0.7692
 7103SOL    HW232946   0.554   1.663  10.209  0.2484 -0.7609  1.0851
 7104SOL     OW32947   0.343   3.354   1.740  0.0897 -0.2892 -0.5801
 7104SOL    HW132948   0.306   3.289   1.680  0.6242  1.6280 -2.9651
 7104SOL    HW232949   0.279   3.424   1.747 -0.6971 -0.8329 -2.3479
 7105SOL     OW32950   3.600   1.830   3.864 -0.1153 -0.0846  0.3170
 7105SOL    HW132951   3.548   1.752   3.849  2.6416 -1.9832  0.6586
 7105SOL    HW232952   3.660   1.803   3.934  2.7351  2.3481 -1.1879
 7106SOL     OW32953   2.586   4.136  17.050 -0.1462  0.2722 -0.3159
 7106SOL    HW132954   2.547   4.049  17.054  0.9600 -0.1098  1.9625
 7106SOL    HW232955   2.508   4.186  17.024 -0.9302 -1.3449 -1.0856
 7107SOL     OW32956   4.658   0.831   8.801 -0.2931 -0.2443  0.2207
 7107SOL    HW132957   4.622   0.759   8.854  0.6472 -0.8480  0.0495
 7107SOL    HW232958   4.584   0.890   8.814 -0.2181  0.5769 -2.9693
 7108SOL     OW32959   2.315   3.570   6.247 -0.4671  0.3886 -0.2773
 7108SOL    HW132960   2.248   3.570   6.179 -1.8870 -3.4113  1.1319
 7108SOL    HW232961   2.257   3.579   6.323  0.0521 -0.5257  0.2280
 7109SOL     OW32962   0.917   3.823  12.214  0.1188 -0.5525  0.3310
 7109SOL    HW132963   0.849   3.758  12.229  0.3107 -0.6385  0.8296
 7109SOL    HW232964   0.855   3.894  12.228 -0.3233 -0.8853  0.0623
 7110SOL     OW32965   4.568   4.628   8.400  0.6610 -0.4426 -0.2109
 7110SOL    HW132966   4.478   4.602   8.382  0.2662  0.0034  1.1582
 7110SOL    HW232967   4.609   4.616   8.314  0.6953 -5.0354  0.4504
 7111SOL     OW32968   0.082   3.846   4.340  0.3729 -0.3883  0.4765
 7111SOL    HW132969   0.133   3.876   4.265  1.5305  1.5230  2.0183
 7111SOL    HW232970   0.010   3.798   4.300  0.6058  0.5513 -1.0436
 7112SOL     OW32971   3.618   3.214   2.296 -0.5090  0.2169 -0.1145
 7112SOL    HW132972   3.712   3.229   2.304 -0.3914 -0.4496 -0.2625
 7112SOL    HW232973   3.577   3.283   2.349 -2.5023 -1.9491  1.1762
 7113SOL     OW32974   0.612   2.656   4.264 -0.3993  0.2478 -0.2204
 7113SOL    HW132975   0.693   2.697   4.234 -0.4440  0.0601 -0.6053
 7113SOL    HW232976   0.545   2.717   4.233  0.6734  1.3619 -0.3349
 7114SOL     OW32977   3.299   1.279   2.653 -0.1136 -0.2666 -0.4079
 7114SOL    HW132978   3.361   1.310   2.587  0.6243  0.8286  0.8122
 7114SOL    HW232979   3.318   1.333   2.730 -1.9277  0.0775 -0.1906
 7115SOL     OW32980   3.876   3.756   3.189 -0.3206 -0.6638  0.2926
 7115SOL    HW132981   3.922   3.821   3.243 -1.2354  0.6511 -0.5284
 7115SOL    HW232982   3.788   3.792   3.181 -0.2636 -0.3297  1.1320
 7116SOL     OW32983   0.577   4.594   4.539  1.0841 -0.4065  0.4596
 7116SOL    HW132984   0.609   4.585   4.449  1.7335 -1.4394  0.7960
 7116SOL    HW232985   0.506   4.658   4.531  0.5907 -0.9807  0.2888
 7117SOL     OW32986   1.605   4.504   1.921  0.4085 -0.6349 -0.5200
 7117SOL    HW132987   1.632   4.450   1.847 -1.2386 -1.5210 -0.4699
 7117SOL    HW232988   1.605   4.440   1.993 -1.5831  0.3506  0.3600
 7118SOL     OW32989   2.275   1.062   3.288  0.0026  0.0327  0.1669
 7118SOL    HW132990   2.309   1.078   3.199  0.1460 -0.6301  0.1002
 7118SOL    HW232991   2.187   1.040   3.259 -0.2257 -0.6907  1.4256
 7119SOL     OW32992   3.580   1.576   3.012  0.1029  0.1552  0.2071
 7119SOL    HW132993   3.514   1.645   3.018  2.0667  1.9624  0.8251
 7119SOL    HW232994   3.649   1.628   2.971 -2.2919  0.2322 -3.6839
 7120SOL     OW32995   3.659   1.616   1.694 -0.0324 -0.7895 -0.3695
 7120SOL    HW132996   3.648   1.551   1.763 -0.0611 -0.7265 -0.3156
 7120SOL    HW232997   3.572   1.645   1.666  1.6040  1.7788 -2.7683
 7121SOL     OW32998   0.778   1.515  11.175 -0.4883 -0.1344  0.3366
 7121SOL    HW132999   0.764   1.602  11.137 -0.2515 -1.2333 -2.2991
 7121SOL    HW233000   0.693   1.493  11.211  0.0282  1.7409  2.6768
 7122SOL     OW33001   2.730   3.442  17.144  0.3036  0.6845 -0.2704
 7122SOL    HW133002   2.758   3.510  17.206 -1.5304 -1.0497  2.4758
 7122SOL    HW233003   2.670   3.490  17.087 -0.9683  0.4714  0.8802
 7123SOL     OW33004   3.805   3.138   1.707 -0.2088 -0.2508 -0.6828
 7123SOL    HW133005   3.835   3.048   1.699  0.4864 -0.0320 -0.6224
 7123SOL    HW233006   3.712   3.135   1.687 -0.0058  0.0733 -1.6452
 7124SOL     OW33007   4.243   4.516   5.199 -0.1748 -0.3025  0.4300
 7124SOL    HW133008   4.337   4.499   5.194 -0.1505 -0.8167  2.7119
 7124SOL    HW233009   4.207   4.512   5.110 -0.9136  1.1043  0.6562
 7125SOL     OW33010   1.175   2.651   2.129  0.1903 -0.4016 -0.2956
 7125SOL    HW133011   1.187   2.744   2.114  1.6167 -0.4969  0.2313
 7125SOL    HW233012   1.234   2.645   2.204 -1.0064  1.8119  0.8131
 7126SOL     OW33013   2.479   4.068  13.045 -0.2580 -0.1730  0.6984
 7126SOL    HW133014   2.416   4.026  13.103  2.0466 -2.9685  1.1624
 7126SOL    HW233015   2.562   4.051  13.090 -0.5329 -2.2393  0.4319
 7127SOL     OW33016   0.517   1.566   5.263 -0.2726  0.0158 -0.5842
 7127SOL    HW133017   0.599   1.525   5.292 -0.4762 -1.1414 -1.6292
 7127SOL    HW233018   0.506   1.510   5.186 -1.2939 -0.4728 -0.0731
 7128SOL     OW33019   3.451   0.253  15.446  0.3472  0.2104  0.0918
 7128SOL    HW133020   3.521   0.188  15.457  0.6107  0.5298  0.3008
 7128SOL    HW233021   3.387   0.219  15.509 -0.2799  2.2209  0.5163
 7129SOL     OW33022   4.077   3.756   3.513 -0.2065 -0.7340  0.5368
 7129SOL    HW133023   4.144   3.740   3.447  1.2046 -0.3276  1.8822
 7129SOL    HW233024   4.019   3.817   3.466  3.7499  1.5789 -1.3341
 7130SOL     OW33025   4.205   1.746   7.185  0.1706  0.4694 -0.2071
 7130SOL    HW133026   4.186   1.685   7.114 -0.0600  0.5027 -0.1711
 7130SOL    HW233027   4.298   1.758   7.162  0.7209 -0.2526  1.5963
 7131SOL     OW33028   3.751   3.691  10.896 -0.0544  0.1476  0.1364
 7131SOL    HW133029   3.846   3.686  10.893 -0.0384  0.5482  0.0799
 7131SOL    HW233030   3.731   3.784  10.886  3.2428  0.6048 -2.0938
 7132SOL     OW33031   3.015   4.500   6.925 -0.3529 -0.7144 -0.0336
 7132SOL    HW133032   3.110   4.489   6.918 -0.1877 -0.2348  1.4956
 7132SOL    HW233033   2.988   4.416   6.889 -0.5414 -0.8274  0.3708
 7133SOL     OW33034   0.088   2.213   9.669 -0.6756 -0.1591  0.3277
 7133SOL    HW133035   0.168   2.179   9.707  1.0867  1.7272 -1.6575
 7133SOL    HW233036   0.041   2.239   9.748 -0.9899 -0.3910  0.2196
 7134SOL     OW33037   2.500   3.201   3.123  0.7370 -0.1790 -0.1809
 7134SOL    HW133038   2.576   3.157   3.159 -0.5107  0.5048  3.2651
 7134SOL    HW233039   2.431   3.143   3.155 -0.8603  2.4044  1.0994
 7135SOL     OW33040   4.283   4.376   7.581  0.1998  0.0003  0.1883
 7135SOL    HW133041   4.225   4.322   7.635  0.2433 -0.5809 -0.3449
 7135SOL    HW233042   4.219   4.437   7.543  0.8212 -0.2369 -1.2606
 7136SOL     OW33043   3.787   3.366   7.733  0.6218 -0.3679 -0.6569
 7136SOL    HW133044   3.874   3.351   7.771  0.9730 -0.2530 -1.4185
 7136SOL    HW233045   3.743   3.300   7.786  1.0661  0.8256  1.2106
 7137SOL     OW33046   2.848   0.559   1.908  0.3603 -0.1139  0.7860
 7137SOL    HW133047   2.929   0.596   1.872 -1.6153  1.8095 -1.7206
 7137SOL    HW233048   2.810   0.537   1.823  0.0873  2.9535  0.0924
 7138SOL     OW33049   0.927   1.536  15.424 -0.2132  0.0227 -0.5519
 7138SOL    HW133050   0.935   1.547  15.519  0.4200  0.7764 -0.6907
 7138SOL    HW233051   0.920   1.441  15.414 -0.4223 -0.0617  0.3279
 7139SOL     OW33052   1.021   0.361   5.844 -0.1144 -0.1832  0.0610
 7139SOL    HW133053   1.031   0.455   5.858  1.8966 -0.4370  0.3901
 7139SOL    HW233054   1.110   0.347   5.877 -0.6937  0.4490  1.8536
 7140SOL     OW33055   4.651   4.067   0.793  0.2422 -0.4091  0.0090
 7140SOL    HW133056   4.567   4.030   0.819 -0.5399  1.3532 -0.0427
 7140SOL    HW233057   4.627   4.097   0.706  0.2995 -0.2927  0.0334
 7141SOL     OW33058   2.598   2.788   7.140  0.1476  0.0787 -1.0864
 7141SOL    HW133059   2.533   2.858   7.145  0.0649  0.1827 -3.5661
 7141SOL    HW233060   2.677   2.842   7.133 -0.1480  0.4906 -1.1876
 7142SOL     OW33061   0.638   0.860   5.628 -0.5061 -0.6455  0.0888
 7142SOL    HW133062   0.554   0.815   5.621 -1.5329  1.5582 -1.6774
 7142SOL    HW233063   0.708   0.796   5.619  0.5563  0.3222  1.5016
 7143SOL     OW33064   1.754   3.915   8.733 -0.1909 -0.0046 -0.4714
 7143SOL    HW133065   1.831   3.876   8.690  0.3716 -0.1496  0.6756
 7143SOL    HW233066   1.691   3.843   8.731 -1.5745  1.1340  2.7543
 7144SOL     OW33067   1.577   4.163  12.603 -0.1839  0.4667 -0.6935
 7144SOL    HW133068   1.668   4.174  12.578  0.3842  0.5733  1.4501
 7144SOL    HW233069   1.571   4.069  12.586 -3.3117  0.7373 -1.1485
 7145SOL     OW33070   3.032   2.791  16.738 -0.1391  0.4064 -0.1683
 7145SOL    HW133071   3.003   2.722  16.798  1.7171 -0.1228  0.1111
 7145SOL    HW233072   3.122   2.768  16.718 -0.4182 -1.6651  1.0200
 7146SOL     OW33073   0.357   2.095   7.641  0.1598  0.7913  0.0454
 7146SOL    HW133074   0.435   2.114   7.691  0.6545  0.6444 -0.6730
 7146SOL    HW233075   0.387   2.033   7.575  1.2725  0.5062  0.8312
 7147SOL     OW33076   1.686   1.238   1.263  0.3274 -0.0579 -0.0568
 7147SOL    HW133077   1.679   1.196   1.177 -1.3930 -0.1628  0.1343
 7147SOL    HW233078   1.663   1.330   1.245  0.4131  0.2641  1.4676
 7148SOL     OW33079   0.736   3.677   6.144 -0.1725  0.0005 -0.2883
 7148SOL    HW133080   0.643   3.656   6.137  0.0718 -0.7122 -1.2581
 7148SOL    HW233081   0.759   3.737   6.073  0.2752  0.6471  0.3975
 7149SOL     OW33082   4.535   2.435  15.021  0.0481  0.5004 -0.5284
 7149SOL    HW133083   4.442   2.447  15.040 -0.6974 -1.9934 -2.6280
 7149SOL    HW233084   4.512   2.417  14.929 -1.1070 -0.3406 -0.0682
 7150SOL     OW33085   3.891   4.433   3.208 -0.0735  0.1293 -0.3441
 7150SOL    HW133086   3.943   4.374   3.154 -1.7253 -0.0025 -1.7967
 7150SOL    HW233087   3.820   4.456   3.147 -1.3510  0.0171  1.1031
 7151SOL     OW33088   0.927   0.030   5.066 -0.2068 -0.6850 -0.0560
 7151SOL    HW133089   0.843   0.073   5.071 -0.6572 -1.4560 -0.9525
 7151SOL    HW233090   0.918   4.705   5.136  0.7372 -0.1419  0.5803
 7152SOL     OW33091   0.220   1.813   7.840  0.4308 -0.1254 -0.5522
 7152SOL    HW133092   0.227   1.721   7.865  0.1996 -0.4701 -1.7682
 7152SOL    HW233093   0.140   1.807   7.789 -0.0338  1.4591  0.0036
 7153SOL     OW33094   1.538   1.886   5.886 -0.2890 -0.0267  0.2321
 7153SOL    HW133095   1.523   1.979   5.904 -0.5924  0.5633 -3.1306
 7153SOL    HW233096   1.563   1.903   5.795 -0.8898  1.3731  0.3125
 7154SOL     OW33097   2.145   3.925   5.465  0.1266  0.4314  0.0126
 7154SOL    HW133098   2.128   3.843   5.512  0.9800 -0.5496 -1.3768
 7154SOL    HW233099   2.218   3.976   5.500  0.1400  0.5753 -0.2295
 7155SOL     OW33100   3.217   4.351   9.175  0.1833  0.5210  0.4710
 7155SOL    HW133101   3.255   4.301   9.247 -0.9200 -1.0602 -0.0474
 7155SOL    HW233102   3.127   4.343   9.207  0.6912 -1.2372  1.4337
 7156SOL     OW33103   4.420   2.935   2.850  0.3808 -0.1742 -0.0827
 7156SOL    HW133104   4.464   2.980   2.922 -0.1523  1.0611 -0.5301
 7156SOL    HW233105   4.489   2.904   2.790 -0.5286  0.5688 -1.5154
 7157SOL     OW33106   3.189   1.733   5.404 -0.1539  0.0526 -0.6045
 7157SOL    HW133107   3.119   1.686   5.449  0.8509  0.3169  1.2623
 7157SOL    HW233108   3.243   1.753   5.481 -0.2080  0.4185 -0.6629
 7158SOL     OW33109   0.730   2.685   1.665  0.5959  0.1623 -0.2831
 7158SOL    HW133110   0.723   2.668   1.758 -1.1205  2.6325  0.0429
 7158SOL    HW233111   0.740   2.593   1.638 -1.2091 -0.1329 -0.0016
 7159SOL     OW33112   2.653   0.886   7.503 -0.4295  0.5893  0.0690
 7159SOL    HW133113   2.572   0.918   7.464  0.6227  1.1946 -1.5981
 7159SOL    HW233114   2.610   0.858   7.585  0.5724 -0.9699  0.0524
 7160SOL     OW33115   0.080   0.429   7.351 -0.5509 -0.5270 -1.0574
 7160SOL    HW133116   0.167   0.388   7.362  1.5282  3.7158 -1.8961
 7160SOL    HW233117   0.066   0.456   7.441 -1.2307 -0.7514 -1.1000
 7161SOL     OW33118   1.451   1.697  10.258  0.0189 -0.0771 -0.0049
 7161SOL    HW133119   1.441   1.680  10.165 -0.8437 -3.8154  0.7759
 7161SOL    HW233120   1.438   1.611  10.298 -1.2168 -0.0481 -0.3420
 7162SOL     OW33121   3.875   0.085   7.801  0.2234 -0.4748  0.4460
 7162SOL    HW133122   3.843   0.102   7.713 -1.7253 -2.9729  0.6595
 7162SOL    HW233123   3.815   0.149   7.840 -0.1558 -1.1302  0.9564
 7163SOL     OW33124   1.937   1.894   3.298  0.0509  0.5566  0.0384
 7163SOL    HW133125   1.973   1.944   3.372 -1.3427 -1.4043  2.0353
 7163SOL    HW233126   1.929   1.806   3.335 -1.5442  1.0011  0.7626
 7164SOL     OW33127   4.386   1.273   2.221  0.2599  0.0982  0.0344
 7164SOL    HW133128   4.297   1.306   2.237  0.3398  0.0968  0.4952
 7164SOL    HW233129   4.377   1.188   2.265 -0.0832 -0.4764 -1.1331
 7165SOL     OW33130   1.570   1.635  11.333 -0.2966  0.5608 -0.4226
 7165SOL    HW133131   1.499   1.573  11.320  0.8399 -0.9552  0.5646
 7165SOL    HW233132   1.549   1.701  11.267  0.9510 -1.8346 -3.1666
 7166SOL     OW33133   0.974   3.097   5.284 -0.1390  0.2286 -0.0650
 7166SOL    HW133134   1.053   3.043   5.286  0.0825  0.5666  0.1821
 7166SOL    HW233135   0.912   3.036   5.245  0.0633  0.2798 -0.4767
 7167SOL     OW33136   3.838   2.325   8.935 -0.2226  0.3073  0.4668
 7167SOL    HW133137   3.873   2.414   8.942  1.2968 -0.3246  1.1763
 7167SOL    HW233138   3.903   2.281   8.991  1.2005  2.2304  0.3106
 7168SOL     OW33139   4.442   3.811  10.395  0.0459 -0.2619 -0.4443
 7168SOL    HW133140   4.473   3.876  10.332  1.0099 -0.0287  0.2710
 7168SOL    HW233141   4.455   3.732  10.342 -0.9449 -1.7509  1.5308
 7169SOL     OW33142   0.354   4.546   6.692  0.0987  0.1539  0.2529
 7169SOL    HW133143   0.428   4.577   6.639 -0.6234  0.8877 -0.3211
 7169SOL    HW233144   0.398   4.532   6.776  0.6478 -1.1688 -0.2499
 7170SOL     OW33145   4.151   1.219   3.295  0.6297 -0.3943 -0.0731
 7170SOL    HW133146   4.245   1.232   3.309  0.3664  2.9011 -1.3334
 7170SOL    HW233147   4.154   1.157   3.222 -2.6967 -0.7884  0.1604
 7171SOL     OW33148   0.086   0.783   5.002  0.7503 -0.3135  0.1569
 7171SOL    HW133149   0.181   0.781   5.001  0.7567 -0.1470  0.7296
 7171SOL    HW233150   0.068   0.690   4.993 -0.1507 -0.1048 -0.3041
 7172SOL     OW33151   2.258   4.565   5.242 -0.3350 -0.1499 -0.1354
 7172SOL    HW133152   2.249   4.517   5.160  0.2968  1.8264 -1.3490
 7172SOL    HW233153   2.208   4.645   5.226 -0.7501 -0.6317 -1.2725
 7173SOL     OW33154   2.041   0.934   8.753 -0.4416 -0.1049 -0.1607
 7173SOL    HW133155   2.126   0.956   8.791 -0.2968  0.8316 -1.0127
 7173SOL    HW233156   1.981   0.971   8.818 -1.7500 -0.7471 -1.0025
 7174SOL     OW33157   4.310   3.895   9.351 -0.2449 -0.3017 -0.6620
 7174SOL    HW133158   4.347   3.823   9.299  0.8350 -0.2117 -0.0056
 7174SOL    HW233159   4.317   3.871   9.443  0.5110 -0.5575 -0.7850
 7175SOL     OW33160   1.238   0.004   8.758 -0.7429 -0.1599  0.4704
 7175SOL    HW133161   1.302   0.003   8.829 -1.1388  0.0633  0.8297
 7175SOL    HW233162   1.194   4.659   8.767  1.9181 -1.4300  1.4346
 7176SOL     OW33163   3.702   2.510   5.538  0.2630 -0.4254  0.0112
 7176SOL    HW133164   3.645   2.577   5.501  1.4526  0.9389  0.6682
 7176SOL    HW233165   3.726   2.533   5.628  0.1947 -0.9492  0.1636
 7177SOL     OW33166   2.945   4.344   5.034 -0.0965 -0.3796 -0.0514
 7177SOL    HW133167   3.024   4.356   4.981  0.9591 -0.2461  1.5502
 7177SOL    HW233168   2.893   4.413   4.991  1.9408  0.1625 -1.6719
 7178SOL     OW33169   0.640   2.950   8.914  0.5341  0.3734 -0.1544
 7178SOL    HW133170   0.673   2.917   8.830  2.3879 -2.5568  1.7530
 7178SOL    HW233171   0.622   2.874   8.968 -2.2727  1.9994  1.1832
 7179SOL     OW33172   3.709   4.682  15.176 -0.3832 -0.3778 -0.1677
 7179SOL    HW133173   3.678   0.011  15.117  0.8209 -0.4882 -0.9419
 7179SOL    HW233174   3.767   4.630  15.120 -0.0414 -1.0651  0.8177
 7180SOL     OW33175   3.707   4.116   4.979  0.5110 -0.5114 -0.2059
 7180SOL    HW133176   3.796   4.081   4.972  0.8868  0.4622 -0.1627
 7180SOL    HW233177   3.727   4.209   4.976 -1.0430 -0.1589  0.5281
 7181SOL     OW33178   3.002   4.661   1.428  0.1316 -0.1931 -0.3050
 7181SOL    HW133179   2.973   4.650   1.519 -0.5665 -0.9259 -0.6183
 7181SOL    HW233180   3.065   4.589   1.429 -0.3911 -0.6443  0.7455
 7182SOL     OW33181   1.309   2.793   0.458 -0.0430 -0.4188 -0.5810
 7182SOL    HW133182   1.293   2.879   0.417 -0.1728 -0.4589 -0.6146
 7182SOL    HW233183   1.386   2.818   0.509  0.6019 -1.6452 -0.9723
 7183SOL     OW33184   2.161   0.868   5.001  0.2663 -0.0871  0.2421
 7183SOL    HW133185   2.087   0.822   5.040 -0.7884 -0.5583 -2.3273
 7183SOL    HW233186   2.121   0.926   4.936 -1.2179 -0.7438  0.5707
 7184SOL     OW33187   0.898   4.545   4.587  0.2360 -0.0014  0.4395
 7184SOL    HW133188   0.887   4.621   4.530 -0.4840  0.0575  0.6582
 7184SOL    HW233189   0.823   4.557   4.644  0.7107 -1.2161  1.3188
 7185SOL     OW33190   0.340   2.763   4.200 -0.1404 -0.2004  0.2141
 7185SOL    HW133191   0.326   2.718   4.283 -0.5499 -1.6653 -0.6470
 7185SOL    HW233192   0.255   2.753   4.156  2.1568  2.3546 -4.9135
 7186SOL     OW33193   4.100   3.447   2.619 -0.4973 -0.2535  0.3612
 7186SOL    HW133194   4.072   3.414   2.704  0.9053 -0.8674  0.5721
 7186SOL    HW233195   4.033   3.515   2.609  1.4482  1.7768  1.0905
 7187SOL     OW33196   1.908   0.723   3.151 -0.9053  0.4998  0.2969
 7187SOL    HW133197   1.913   0.747   3.244  2.7673  1.6713 -0.1930
 7187SOL    HW233198   1.825   0.675   3.158 -1.1268  1.0342  1.3653
 7188SOL     OW33199   3.007   2.442  10.106  0.0412 -0.1674  0.3875
 7188SOL    HW133200   2.956   2.523  10.112  2.9017  1.6329  0.6596
 7188SOL    HW233201   3.062   2.452  10.184 -0.3761  1.3514  0.4919
 7189SOL     OW33202   3.481   3.175   4.502  0.4934 -0.0886 -0.8474
 7189SOL    HW133203   3.525   3.117   4.440  0.5241  0.4038 -1.2796
 7189SOL    HW233204   3.532   3.255   4.512  0.7824 -0.6235  2.2306
 7190SOL     OW33205   0.744   0.542   0.881 -0.0633 -0.0725  0.0805
 7190SOL    HW133206   0.661   0.560   0.836  0.4485  1.3142 -0.3054
 7190SOL    HW233207   0.755   0.455   0.844  0.4785 -0.2105  0.5782
 7191SOL     OW33208   0.980   4.429  17.550 -0.0908  0.0776 -0.1828
 7191SOL    HW133209   0.991   4.468  17.637 -3.4284 -0.5611  0.5185
 7191SOL    HW233210   1.011   4.505  17.501 -2.6098 -0.5171 -2.6395
 7192SOL     OW33211   3.165   0.721   2.406 -0.9298  0.6773 -0.2018
 7192SOL    HW133212   3.177   0.668   2.485 -0.6396 -0.8883 -1.3072
 7192SOL    HW233213   3.130   0.647   2.357 -0.8024  0.5847 -0.1526
 7193SOL     OW33214   2.897   3.347   7.338 -0.5109 -0.7450  0.7719
 7193SOL    HW133215   2.845   3.330   7.259 -0.0226 -0.4262  0.3845
 7193SOL    HW233216   2.892   3.442   7.343  0.3005 -0.5588 -2.0066
 7194SOL     OW33217   2.531   0.305   2.006 -0.2026  0.3582  0.0415
 7194SOL    HW133218   2.574   0.280   1.924 -0.0749  0.4371  0.0849
 7194SOL    HW233219   2.442   0.331   1.980 -0.8813  0.8003  2.7866
 7195SOL     OW33220   2.025   4.577   7.329  0.2655 -0.4482 -0.6206
 7195SOL    HW133221   2.116   4.566   7.300  0.7577 -0.8610  1.0943
 7195SOL    HW233222   1.974   4.590   7.249  0.2357 -0.7183 -0.6453
 7196SOL     OW33223   1.535   4.536   6.736  0.2310 -0.4666 -0.2841
 7196SOL    HW133224   1.628   4.516   6.732  0.2729  0.1542 -2.1430
 7196SOL    HW233225   1.525   4.616   6.685  2.7792 -0.5269 -0.8360
 7197SOL     OW33226   1.654   3.517   6.230  0.3205 -0.4212 -0.4508
 7197SOL    HW133227   1.723   3.582   6.217  0.1098 -0.0634  0.2285
 7197SOL    HW233228   1.701   3.436   6.248  0.1370 -0.2392  0.8711
 7198SOL     OW33229   3.086   3.421  14.274  0.5117 -0.0360  0.1871
 7198SOL    HW133230   3.042   3.479  14.336 -2.3243 -1.9232 -0.1053
 7198SOL    HW233231   3.140   3.361  14.326 -0.1001  0.1951  1.0852
 7199SOL     OW33232   0.851   0.000   7.196  0.3374  0.5257 -0.0126
 7199SOL    HW133233   0.842   0.010   7.291  1.4681  0.2637  0.1297
 7199SOL    HW233234   0.774   0.048   7.165 -0.6235 -0.3901  0.9620
 7200SOL     OW33235   0.267   4.338  13.031 -0.0061  1.3227 -0.1745
 7200SOL    HW133236   0.198   4.273  13.024  1.3458  0.0182 -1.3656
 7200SOL    HW233237   0.336   4.290  13.078 -1.0557 -0.4290 -0.4679
 7201SOL     OW33238   3.134   0.080   7.325 -0.8817  0.1129  0.0620
 7201SOL    HW133239   3.177   0.123   7.250 -0.9850  1.6100  0.8498
 7201SOL    HW233240   3.077   0.151   7.354 -0.2117  0.3448  0.7987
 7202SOL     OW33241   1.008   2.499   3.414  0.1490 -0.3174 -0.0828
 7202SOL    HW133242   1.048   2.565   3.357 -0.4230  1.2607  1.3465
 7202SOL    HW233243   1.066   2.472   3.485 -0.1943  0.2493  0.4215
 7203SOL     OW33244   1.803   3.648  17.620 -0.0123 -0.4045  0.0265
 7203SOL    HW133245   1.764   3.600  17.694 -0.3624  0.0875  0.1597
 7203SOL    HW233246   1.833   3.724  17.669  1.4304 -1.0401  0.1389
 7204SOL     OW33247   1.225   0.578   5.624  0.3347  0.1898  0.0946
 7204SOL    HW133248   1.253   0.669   5.633  0.4597  0.4537 -2.7752
 7204SOL    HW233249   1.167   0.574   5.700  1.6854  0.1589  1.1204
 7205SOL     OW33250   3.132   3.586   8.397  0.5061 -0.0107  0.0321
 7205SOL    HW133251   3.040   3.567   8.383  1.0406 -2.6092  0.0918
 7205SOL    HW233252   3.178   3.541   8.326  0.6791 -0.2541  0.3020
 7206SOL     OW33253   4.268   4.148   4.292  0.3458 -0.1115 -0.5002
 7206SOL    HW133254   4.281   4.055   4.275  1.6332  0.1555 -0.9870
 7206SOL    HW233255   4.239   4.157   4.383  1.2023  2.2924 -0.4602
 7207SOL     OW33256   1.380   3.604   9.424  0.3928 -0.4485 -0.3176
 7207SOL    HW133257   1.392   3.555   9.343  1.7980 -0.2083 -0.2632
 7207SOL    HW233258   1.322   3.545   9.472 -2.2151  0.6870 -2.0945
 7208SOL     OW33259   1.694   2.802   4.661 -0.0832 -0.6681  0.2159
 7208SOL    HW133260   1.776   2.846   4.638 -0.0657  0.4928  2.4710
 7208SOL    HW233261   1.724   2.715   4.637  0.1993 -0.0690 -1.6312
 7209SOL     OW33262   2.354   1.326   6.815 -0.2424  0.0086 -0.1928
 7209SOL    HW133263   2.333   1.417   6.798  0.4421  0.3809  0.9398
 7209SOL    HW233264   2.300   1.292   6.743 -1.7800  1.5801  0.2341
 7210SOL     OW33265   1.455   4.079  17.215 -0.2314 -0.1070 -0.0520
 7210SOL    HW133266   1.548   4.072  17.238 -0.7993  1.3015  2.6847
 7210SOL    HW233267   1.456   4.014  17.144 -1.1883 -2.7474  2.3832
 7211SOL     OW33268   2.476   0.259   3.346  0.5404  0.2331  0.0328
 7211SOL    HW133269   2.510   0.172   3.326  0.7624  0.2479  0.3448
 7211SOL    HW233270   2.487   0.301   3.261  2.3285  0.1741  0.2284
 7212SOL     OW33271   4.086   4.255  17.575 -0.4269 -0.3047  0.4876
 7212SOL    HW133272   4.044   4.334  17.540  4.0958  1.5586 -0.7896
 7212SOL    HW233273   4.010   4.200  17.557  1.3731 -1.4493 -3.6686
 7213SOL     OW33274   1.443   4.110   9.190  0.0435 -0.1424  0.0986
 7213SOL    HW133275   1.439   4.122   9.285 -1.9751 -0.6548  0.0730
 7213SOL    HW233276   1.455   4.018   9.169  0.3572  0.6594 -3.1261
 7214SOL     OW33277   1.410   3.681   6.716 -0.0966 -0.0353 -0.4638
 7214SOL    HW133278   1.428   3.714   6.804 -2.4704  1.9391 -0.7142
 7214SOL    HW233279   1.500   3.700   6.689 -0.0971  0.5616 -0.0539
 7215SOL     OW33280   0.665   0.941  17.564 -0.4551  0.2349  0.0398
 7215SOL    HW133281   0.658   1.031  17.595 -1.0843 -0.0375  0.6685
 7215SOL    HW233282   0.583   0.922  17.519 -0.7424  1.4512  0.0534
 7216SOL     OW33283   4.543   3.453   3.625  0.3276 -0.5075 -0.0079
 7216SOL    HW133284   4.607   3.523   3.621  2.0387 -2.0704 -0.1122
 7216SOL    HW233285   4.538   3.429   3.532 -1.2094 -0.2021 -0.0057
 7217SOL     OW33286   2.458   2.764   3.413  0.0627  0.1715 -0.1522
 7217SOL    HW133287   2.451   2.782   3.507 -1.6836  0.5640 -0.3717
 7217SOL    HW233288   2.416   2.679   3.405 -2.2386  1.5479 -2.9256
 7218SOL     OW33289   2.501   0.288   9.179  0.6605 -0.4191  0.4978
 7218SOL    HW133290   2.470   0.217   9.235  3.6850 -2.6827 -0.6636
 7218SOL    HW233291   2.576   0.245   9.137 -0.3938 -2.3803  0.6379
 7219SOL     OW33292   1.325   0.469   6.983 -0.2189  0.0508  0.4356
 7219SOL    HW133293   1.301   0.554   7.020 -2.7116 -0.0816 -0.9211
 7219SOL    HW233294   1.413   0.463   7.021 -2.2021 -0.1769  5.0079
 7220SOL     OW33295   1.949   3.999   2.428 -0.0796  0.4495  0.4796
 7220SOL    HW133296   2.033   3.961   2.403  0.7822  1.5797  1.6543
 7220SOL    HW233297   1.953   3.998   2.523 -1.4259  1.0569  0.5401
 7221SOL     OW33298   2.712   3.607   7.661  0.1717  0.5184 -0.0219
 7221SOL    HW133299   2.776   3.638   7.725  0.2455  0.2422  0.0394
 7221SOL    HW233300   2.775   3.545   7.625 -1.2001 -0.9012  0.0213
 7222SOL     OW33301   3.157   2.889   4.704 -0.6387 -0.5402  0.3429
 7222SOL    HW133302   3.130   2.980   4.717 -1.6976 -1.0981  2.0508
 7222SOL    HW233303   3.249   2.904   4.683 -1.5293  0.9759 -2.4405
 7223SOL     OW33304   0.500   1.501   5.619  0.7289 -0.2937 -0.2573
 7223SOL    HW133305   0.459   1.532   5.539 -2.5640 -2.9368  0.4160
 7223SOL    HW233306   0.492   1.406   5.610  1.0606 -0.1593 -1.9941
 7224SOL     OW33307   1.246   0.550  13.545  0.4287 -0.0764  0.3215
 7224SOL    HW133308   1.164   0.598  13.555 -0.1440 -0.6087 -1.7810
 7224SOL    HW233309   1.299   0.619  13.505 -2.2244  2.0371  0.4723
 7225SOL     OW33310   1.881   1.869  15.727 -0.4646 -0.7992 -0.1517
 7225SOL    HW133311   1.976   1.863  15.720 -0.2341  2.4016  0.3177
 7225SOL    HW233312   1.859   1.832  15.641 -2.7122  0.4018 -0.0924
 7226SOL     OW33313   2.722   0.143   6.098 -0.5659 -0.3289  0.0596
 7226SOL    HW133314   2.714   0.237   6.078 -0.9163  0.2271  2.8094
 7226SOL    HW233315   2.684   0.144   6.186 -1.4850 -0.1627 -0.3354
 7227SOL     OW33316   1.240   3.272   1.644 -0.2228  0.2244  0.1370
 7227SOL    HW133317   1.159   3.317   1.622 -0.6156 -0.2854  0.5238
 7227SOL    HW233318   1.301   3.345   1.650  1.2218 -0.8799 -1.3470
 7228SOL     OW33319   2.051   1.008   3.154 -0.1561 -0.1016  0.3401
 7228SOL    HW133320   2.072   0.981   3.064 -0.4592  2.1245 -0.4057
 7228SOL    HW233321   1.971   1.061   3.145 -0.5567 -0.7682  0.0156
 7229SOL     OW33322   1.962   2.967   8.048 -0.4397  0.2158  0.0430
 7229SOL    HW133323   1.878   2.978   8.093  0.2570  2.4249  0.8545
 7229SOL    HW233324   1.942   2.952   7.956 -1.6258 -0.0134  0.3462
 7230SOL     OW33325   2.907   3.248   3.175 -0.1405  0.3965 -0.0034
 7230SOL    HW133326   2.830   3.203   3.210 -0.8414  0.1126 -1.9265
 7230SOL    HW233327   2.948   3.257   3.262 -0.1341  0.3106  0.0025
 7231SOL     OW33328   4.689   0.947   4.571 -0.0679  0.3094 -0.3531
 7231SOL    HW133329   4.616   0.896   4.535  0.3818 -2.3206  2.4191
 7231SOL    HW233330   4.693   1.006   4.496 -0.6104 -2.2101 -2.3772
 7232SOL     OW33331   2.361   1.880   1.915 -0.0823 -0.6867  0.0618
 7232SOL    HW133332   2.304   1.942   1.871  1.1516 -0.8359 -1.7408
 7232SOL    HW233333   2.442   1.929   1.932 -1.0162  1.2274 -1.0482
 7233SOL     OW33334   1.475   3.554  10.795 -0.1136 -0.2152  0.0645
 7233SOL    HW133335   1.397   3.499  10.807 -0.7130  0.7122  0.4199
 7233SOL    HW233336   1.527   3.488  10.749 -1.4219  1.3296 -3.6012
 7234SOL     OW33337   2.883   4.202   7.164 -0.1533 -0.1948 -0.1788
 7234SOL    HW133338   2.964   4.182   7.212 -0.2211  0.5349  0.2373
 7234SOL    HW233339   2.848   4.273   7.217  0.7645 -1.0076  1.5256
 7235SOL     OW33340   1.890   2.618   8.892  0.7670  0.6528 -0.2930
 7235SOL    HW133341   1.813   2.584   8.938  1.8942  0.1794  1.2194
 7235SOL    HW233342   1.893   2.708   8.925 -0.0312  1.2732 -1.9230
 7236SOL     OW33343   0.595   3.609   0.099 -0.3112 -0.1314  0.2890
 7236SOL    HW133344   0.675   3.660   0.108 -1.6594  1.5545  2.7261
 7236SOL    HW233345   0.627   3.535   0.046  1.8737  1.2397 -0.2879
 7237SOL     OW33346   3.064   0.287  17.133 -0.7269 -0.7033 -0.1033
 7237SOL    HW133347   2.999   0.219  17.122  0.7165 -2.3371  1.4253
 7237SOL    HW233348   3.129   0.259  17.198 -0.4540  0.0727 -0.0360
 7238SOL     OW33349   2.735   1.691  12.934  0.0445  0.5537 -0.6374
 7238SOL    HW133350   2.776   1.658  13.014  0.4653 -0.7105 -1.3807
 7238SOL    HW233351   2.805   1.675  12.871  0.8261 -2.0351  0.9328
 7239SOL     OW33352   1.682   3.682   3.763 -0.0220  0.1307  0.0244
 7239SOL    HW133353   1.749   3.741   3.729  1.3745 -1.4276  0.0536
 7239SOL    HW233354   1.722   3.596   3.750 -2.2363 -1.0158  0.9015
 7240SOL     OW33355   3.243   4.342   2.147 -0.3506  0.4391 -0.0706
 7240SOL    HW133356   3.240   4.365   2.054  1.8149  1.3977  0.0983
 7240SOL    HW233357   3.163   4.387   2.174  0.6023  1.7957  0.4896
 7241SOL     OW33358   2.742   3.827   2.128 -0.3915 -0.6759 -0.3220
 7241SOL    HW133359   2.753   3.740   2.090  1.2773  0.2068 -1.8188
 7241SOL    HW233360   2.836   3.844   2.135 -0.1943 -2.0638  0.3470
 7242SOL     OW33361   4.174   2.486   3.973 -0.4990 -0.1287  0.2843
 7242SOL    HW133362   4.119   2.500   3.896 -0.7432 -0.4999  0.3903
 7242SOL    HW233363   4.217   2.571   3.980 -1.4679  0.5058 -1.4507
 7243SOL     OW33364   0.772   3.248   9.116 -0.1984 -0.0812 -0.1104
 7243SOL    HW133365   0.764   3.211   9.204 -0.4619 -1.5414 -0.7479
 7243SOL    HW233366   0.783   3.168   9.064  1.3934  0.9364 -1.3507
 7244SOL     OW33367   3.987   1.946  11.880  0.0028 -0.2440 -0.0702
 7244SOL    HW133368   4.022   1.987  11.800 -1.1047  1.6929  0.4374
 7244SOL    HW233369   4.067   1.955  11.931  0.2693  1.4087 -0.7589
 7245SOL     OW33370   0.941   1.029  10.667  0.0586 -0.2279  0.4993
 7245SOL    HW133371   0.935   1.088  10.591  2.5698 -0.4059  0.1785
 7245SOL    HW233372   1.029   0.991  10.668 -0.5696 -1.6396  2.0961
 7246SOL     OW33373   2.163   1.448   7.346 -0.4354 -0.5049  0.5387
 7246SOL    HW133374   2.105   1.485   7.413 -0.3903  2.0206 -0.8061
 7246SOL    HW233375   2.239   1.506   7.339 -0.6711  0.0203  2.2667
 7247SOL     OW33376   1.344   3.938   5.493 -0.4976 -0.3748 -0.2732
 7247SOL    HW133377   1.362   3.855   5.448  1.2723 -0.8249  1.2751
 7247SOL    HW233378   1.249   3.928   5.503 -0.5977  0.2264 -0.6146
 7248SOL     OW33379   4.291   3.512   2.240  0.0853  0.1704  0.1190
 7248SOL    HW133380   4.373   3.478   2.276  1.5879  1.6366 -1.9763
 7248SOL    HW233381   4.318   3.596   2.205 -0.2245  1.0739  2.0260
 7249SOL     OW33382   2.691   1.334   1.991  0.2732 -0.3531 -0.1048
 7249SOL    HW133383   2.605   1.368   1.967 -0.8382 -2.0530  1.5270
 7249SOL    HW233384   2.746   1.402   1.950  0.4124  0.5291  1.5559
 7250SOL     OW33385   3.080   1.213   2.897 -0.2595 -0.4220 -0.5523
 7250SOL    HW133386   3.145   1.284   2.891 -0.4294 -0.0375  1.8207
 7250SOL    HW233387   3.107   1.152   2.829  0.1001 -1.6940  0.7242
 7251SOL     OW33388   2.686   0.445   4.838 -0.1055 -0.5298  0.1475
 7251SOL    HW133389   2.661   0.489   4.919 -1.4392 -0.5324 -0.2477
 7251SOL    HW233390   2.642   0.505   4.777 -1.4747 -0.3287  1.3304
 7252SOL     OW33391   2.998   3.388   3.964  0.2323 -0.3899 -0.6920
 7252SOL    HW133392   2.931   3.449   3.996  0.0295 -0.3390 -1.2066
 7252SOL    HW233393   3.041   3.356   4.043  0.1121  1.3100  0.0674
 7253SOL     OW33394   4.586   1.943  10.837 -0.4332  0.2639 -0.4397
 7253SOL    HW133395   4.560   2.005  10.905 -0.7919 -0.9499  0.5410
 7253SOL    HW233396   4.583   1.867  10.896 -0.4330 -0.4070 -1.3146
 7254SOL     OW33397   4.216   1.561   4.018  0.2628  0.0881 -0.0403
 7254SOL    HW133398   4.263   1.520   3.945 -1.2319  2.7880 -2.5484
 7254SOL    HW233399   4.212   1.489   4.082  1.4881  1.6722  1.8080
 7255SOL     OW33400   0.308   1.597   6.274  0.1993 -0.0782  1.0374
 7255SOL    HW133401   0.284   1.506   6.292  0.0835  0.1455  2.0236
 7255SOL    HW233402   0.331   1.583   6.182 -1.9877  1.6353  0.2278
 7256SOL     OW33403   2.678   0.715   2.080 -0.0125  0.0724 -0.5694
 7256SOL    HW133404   2.732   0.772   2.026  2.1669 -1.4091  0.0309
 7256SOL    HW233405   2.724   0.632   2.069 -2.5582 -1.4378  0.1985
 7257SOL     OW33406   4.539   2.155   3.287 -0.6628 -0.0757 -0.0634
 7257SOL    HW133407   4.566   2.153   3.195 -1.0279 -1.2561 -0.1354
 7257SOL    HW233408   4.482   2.232   3.279  0.3231  0.5447 -1.2140
 7258SOL     OW33409   1.637   4.547   4.760 -0.3986 -0.4274  0.4482
 7258SOL    HW133410   1.552   4.521   4.796  0.1434 -1.7636  0.7661
 7258SOL    HW233411   1.685   4.534   4.842 -0.3666  1.6035  0.7612
 7259SOL     OW33412   4.028   4.521  10.034 -0.0193 -0.3302 -0.1788
 7259SOL    HW133413   3.989   4.434  10.044 -3.9081  1.2269 -1.7875
 7259SOL    HW233414   4.110   4.504  10.080 -0.3246  1.8139  1.1470
 7260SOL     OW33415   1.538   1.833   8.606 -0.0291 -0.2283 -0.2200
 7260SOL    HW133416   1.526   1.738   8.609 -1.2348 -0.0797 -0.3000
 7260SOL    HW233417   1.613   1.842   8.548 -0.1794 -0.0052 -0.3797
 7261SOL     OW33418   4.330   4.116   8.620  0.7521  0.1751  0.4755
 7261SOL    HW133419   4.308   4.100   8.711  1.1158 -1.6182  0.2533
 7261SOL    HW233420   4.422   4.091   8.625  0.3046 -1.8099 -0.8991
 7262SOL     OW33421   2.711   1.999  16.479  0.4808 -0.1753  0.7727
 7262SOL    HW133422   2.666   1.948  16.412 -0.1346  1.1629  0.1733
 7262SOL    HW233423   2.789   2.015  16.426 -1.1265  1.6425 -1.0014
 7263SOL     OW33424   0.037   1.738   8.743 -0.3346  0.6830 -0.3570
 7263SOL    HW133425   0.074   1.825   8.761 -0.7500  1.0021 -1.0382
 7263SOL    HW233426   4.696   1.751   8.693 -0.9493  1.2658  0.7629
 7264SOL     OW33427   4.289   0.354   5.766 -0.0908 -0.3533 -0.0445
 7264SOL    HW133428   4.281   0.325   5.857 -1.6775 -2.1681 -0.7532
 7264SOL    HW233429   4.382   0.377   5.773 -0.8658  2.1989  1.7637
 7265SOL     OW33430   0.509   3.610   5.329 -0.1629 -0.2061 -0.4886
 7265SOL    HW133431   0.467   3.548   5.390  0.7609 -0.3891 -0.0389
 7265SOL    HW233432   0.577   3.552   5.294  1.9447  1.2717  1.1625
 7266SOL     OW33433   1.405   2.782   9.572 -0.2077  0.1213 -0.8061
 7266SOL    HW133434   1.327   2.824   9.607  0.1056  2.9165 -3.3939
 7266SOL    HW233435   1.429   2.856   9.517  0.9662 -0.8791 -1.6526
 7267SOL     OW33436   1.983   0.558   9.474  0.6391 -0.4026  0.5336
 7267SOL    HW133437   1.932   0.544   9.394  0.9600  0.3807  0.1829
 7267SOL    HW233438   1.929   0.630   9.507  1.0383  0.3982 -0.5227
 7268SOL     OW33439   3.776   0.195   2.637 -0.3565 -0.2618  0.2002
 7268SOL    HW133440   3.781   0.116   2.691  0.1500 -1.3606 -1.4164
 7268SOL    HW233441   3.756   0.163   2.549 -0.0826 -2.0310  0.7815
 7269SOL     OW33442   1.243   2.630   6.539 -0.4189  0.0994  0.3745
 7269SOL    HW133443   1.197   2.692   6.482  1.0045  0.5848 -0.2404
 7269SOL    HW233444   1.294   2.688   6.596 -0.9787  2.1997 -1.2713
 7270SOL     OW33445   0.763   3.929   4.352 -0.3578 -0.8322 -0.0312
 7270SOL    HW133446   0.692   3.886   4.400 -0.2204 -0.9829  0.0380
 7270SOL    HW233447   0.832   3.887   4.404 -0.2358 -1.2775 -0.5582
 7271SOL     OW33448   0.632   0.344   8.068 -0.4664 -0.8091 -0.2504
 7271SOL    HW133449   0.611   0.412   8.005  0.0641 -0.9489 -0.5810
 7271SOL    HW233450   0.550   0.295   8.060 -1.3236  0.5250  0.3793
 7272SOL     OW33451   2.382   1.632   2.603  0.0338  0.1451  0.0375
 7272SOL    HW133452   2.318   1.669   2.542  0.1446 -0.2415 -0.3165
 7272SOL    HW233453   2.367   1.685   2.682 -1.4955 -0.4800  0.1582
 7273SOL     OW33454   4.579   3.586   5.383 -0.9696  0.1334 -0.1458
 7273SOL    HW133455   4.558   3.678   5.396 -1.7116  0.0484 -0.7597
 7273SOL    HW233456   4.500   3.541   5.415 -0.2716 -1.3538 -0.4904
 7274SOL     OW33457   3.490   0.022  11.227 -0.3714 -0.1912  0.4951
 7274SOL    HW133458   3.484   0.078  11.305 -2.7463 -0.9231  0.8540
 7274SOL    HW233459   3.484   0.085  11.155 -0.2112 -0.3148  0.3749
 7275SOL     OW33460   3.998   2.776   8.008 -0.1714  0.2815 -1.0560
 7275SOL    HW133461   3.989   2.698   8.062 -0.6788  1.6053  0.7661
 7275SOL    HW233462   3.965   2.844   8.066 -0.1689 -1.7212  1.2707
 7276SOL     OW33463   1.594   2.424  14.625  0.3341 -0.4506 -0.1860
 7276SOL    HW133464   1.608   2.338  14.586 -2.1160 -0.7342 -0.4309
 7276SOL    HW233465   1.511   2.446  14.583 -0.1007 -2.2891 -0.2681
 7277SOL     OW33466   3.884   1.724   4.971 -0.2273 -0.4630 -0.0674
 7277SOL    HW133467   3.841   1.677   4.900  0.9388 -1.2303 -0.2650
 7277SOL    HW233468   3.972   1.692   4.950  0.8010  1.4651  1.3024
 7278SOL     OW33469   2.342   1.202   4.892 -0.2795 -0.4796 -0.5013
 7278SOL    HW133470   2.348   1.158   4.977 -0.7030 -0.9285 -0.7127
 7278SOL    HW233471   2.266   1.255   4.917  1.4921  1.5794  0.6018
 7279SOL     OW33472   2.432   1.715   5.935 -0.1923 -0.3744  0.0944
 7279SOL    HW133473   2.358   1.657   5.952 -0.0446 -0.5474  0.1336
 7279SOL    HW233474   2.390   1.798   5.959  3.3330  1.1968  0.7630
 7280SOL     OW33475   2.647   2.596   8.668 -1.0353 -0.3909  0.0151
 7280SOL    HW133476   2.720   2.579   8.608 -1.1517  0.3183 -0.3377
 7280SOL    HW233477   2.674   2.553   8.749 -2.8069 -0.9685  0.2884
 7281SOL     OW33478   3.014   3.168   4.617 -0.1676  0.3489  0.0951
 7281SOL    HW133479   2.934   3.216   4.639  0.0685  1.3354 -1.2111
 7281SOL    HW233480   3.060   3.230   4.561  0.4596 -0.5231 -0.3601
 7282SOL     OW33481   0.563   4.392   6.507  0.0795  0.3977 -0.0752
 7282SOL    HW133482   0.521   4.352   6.431  1.0815 -0.6799 -0.0695
 7282SOL    HW233483   0.651   4.397   6.470  0.1184  0.1452 -0.0205
 7283SOL     OW33484   0.949   2.585   5.578  0.1325 -0.1359 -0.5255
 7283SOL    HW133485   1.015   2.523   5.607 -1.5209 -1.5175  0.2612
 7283SOL    HW233486   0.869   2.535   5.594  0.2500 -0.8304 -2.0988
 7284SOL     OW33487   0.833   2.855   3.456  0.1577  0.2388 -0.0950
 7284SOL    HW133488   0.754   2.844   3.403  1.2273  0.2967 -1.6868
 7284SOL    HW233489   0.833   2.782   3.517  1.4909  0.6485  0.4020
 7285SOL     OW33490   3.833   0.779  13.892  0.2558 -0.2840  0.0174
 7285SOL    HW133491   3.900   0.723  13.853 -1.9440 -1.7092 -1.7482
 7285SOL    HW233492   3.762   0.748  13.836 -1.3913  2.0785  0.7881
 7286SOL     OW33493   4.115   2.782  12.085 -0.3113 -0.0420 -0.0352
 7286SOL    HW133494   4.022   2.758  12.087 -0.2414 -0.3062  0.1124
 7286SOL    HW233495   4.128   2.795  11.991 -2.8188  0.0614 -0.3644
 7287SOL     OW33496   3.048   3.946   8.102  0.0222 -0.4819 -0.4983
 7287SOL    HW133497   3.116   3.890   8.138  0.5832  0.6054  0.1536
 7287SOL    HW233498   3.084   4.034   8.116 -0.8381 -0.4320  1.3232
 7288SOL     OW33499   0.564   2.809  16.879 -0.4256  0.2949  0.4707
 7288SOL    HW133500   0.555   2.714  16.878  0.6091  0.2259 -2.6005
 7288SOL    HW233501   0.654   2.819  16.909 -0.1570 -0.3598 -0.1109
 7289SOL     OW33502   0.433   1.862  16.024 -0.5612  0.0078 -0.1928
 7289SOL    HW133503   0.526   1.871  16.003 -0.4426  1.3115  0.9019
 7289SOL    HW233504   0.432   1.865  16.120 -4.0155 -0.4662 -0.2185
 7290SOL     OW33505   3.982   3.970  10.674  0.2340  0.6137  0.0698
 7290SOL    HW133506   3.940   4.022  10.743 -0.2078  0.7145 -0.2741
 7290SOL    HW233507   3.929   3.988  10.596  1.2318 -1.1931 -1.0294
 7291SOL     OW33508   4.025   1.207   7.480 -0.4225  0.5830 -0.1997
 7291SOL    HW133509   4.071   1.274   7.530  0.8224 -0.9816  0.7171
 7291SOL    HW233510   4.099   1.162   7.438 -0.7579 -1.0308  0.9567
 7292SOL     OW33511   3.875   3.836   6.760 -0.3443  0.1241  0.5627
 7292SOL    HW133512   3.895   3.929   6.764 -1.0337  0.3134 -0.3365
 7292SOL    HW233513   3.927   3.799   6.831 -1.0433 -0.3385  0.8404
 7293SOL     OW33514   2.012   3.303   7.538 -0.3533  0.0806 -0.2716
 7293SOL    HW133515   1.928   3.283   7.578 -0.1822  0.2763  0.1866
 7293SOL    HW233516   2.062   3.225   7.559 -0.1920 -0.0651 -1.1915
 7294SOL     OW33517   3.530   4.207   2.029  0.1733 -0.5815 -0.6554
 7294SOL    HW133518   3.506   4.148   1.958 -0.5392 -1.6852  0.4928
 7294SOL    HW233519   3.511   4.292   1.990  1.6670 -0.4268 -1.0542
 7295SOL     OW33520   2.119   3.619   1.917 -0.6161 -0.5145  0.3236
 7295SOL    HW133521   2.205   3.591   1.950 -0.3809 -0.1480  0.0144
 7295SOL    HW233522   2.144   3.662   1.836 -0.0191  0.9102  1.2623
 7296SOL     OW33523   4.310   1.604   1.336  0.2239 -0.0859 -0.5926
 7296SOL    HW133524   4.368   1.530   1.352 -0.6995 -0.0992  2.7998
 7296SOL    HW233525   4.310   1.599   1.241  0.7331  0.4496 -0.6215
 7297SOL     OW33526   3.177   3.817   6.114  0.0986 -0.2638  0.2461
 7297SOL    HW133527   3.084   3.807   6.092 -0.3070 -0.2167  1.9683
 7297SOL    HW233528   3.193   3.734   6.161  2.1080  0.1543  0.2866
 7298SOL     OW33529   0.192   0.459   3.642 -0.2714  0.2102 -0.6065
 7298SOL    HW133530   0.199   0.433   3.550 -2.5989 -1.3790 -0.3301
 7298SOL    HW233531   0.188   0.378   3.692  2.4018 -0.7682 -2.0158
 7299SOL     OW33532   4.067   3.191   4.826  0.3020 -0.1015 -0.1268
 7299SOL    HW133533   4.157   3.168   4.800 -0.0593  0.2565 -1.6363
 7299SOL    HW233534   4.027   3.203   4.740  1.7081  0.1935 -0.7446
 7300SOL     OW33535   4.691   3.052   2.553 -0.0959  0.1195  0.2022
 7300SOL    HW133536   0.004   3.038   2.475 -0.5482  0.9776 -0.2597
 7300SOL    HW233537   4.607   3.049   2.508 -0.2106  0.5175  0.3904
 7301SOL     OW33538   1.075   2.656   3.812 -0.6097  0.7576 -0.2924
 7301SOL    HW133539   1.140   2.725   3.801  0.1975 -0.2292 -1.6043
 7301SOL    HW233540   1.003   2.705   3.772 -0.0085  0.4012 -1.8064
 7302SOL     OW33541   0.334   1.355   5.852 -0.3735 -0.0306 -0.4522
 7302SOL    HW133542   0.260   1.297   5.872  0.3357 -0.5939  0.5217
 7302SOL    HW233543   0.365   1.329   5.766 -0.8637  0.5910 -0.8164
 7303SOL     OW33544   1.259   1.479  10.718 -0.1767  0.3519 -1.1243
 7303SOL    HW133545   1.166   1.458  10.720 -0.3179  1.1255  1.0405
 7303SOL    HW233546   1.255   1.552  10.781  0.1902  0.6161 -1.4054
 7304SOL     OW33547   4.597   4.195   4.285 -0.2507 -0.1468  0.0366
 7304SOL    HW133548   4.566   4.116   4.329 -1.6276  0.8294  0.8067
 7304SOL    HW233549   4.588   4.250   4.363  0.8878 -0.4471  0.3834
 7305SOL     OW33550   0.961   2.598   8.535 -0.1939 -0.0715 -0.3147
 7305SOL    HW133551   0.937   2.617   8.444 -0.7457 -1.2978 -0.4290
 7305SOL    HW233552   1.053   2.624   8.532 -0.3254  0.1649 -2.0364
 7306SOL     OW33553   1.737   1.026   4.495 -0.4156  0.5454  0.2062
 7306SOL    HW133554   1.686   0.955   4.535 -0.6040 -0.4338 -1.7604
 7306SOL    HW233555   1.730   1.103   4.551 -1.7634  0.5170  0.0648
 7307SOL     OW33556   0.182   4.640  16.271  0.6289  0.4757 -0.4881
 7307SOL    HW133557   0.116   4.705  16.292  1.4123  0.6769  1.3228
 7307SOL    HW233558   0.217   4.615  16.356 -1.2389 -0.0904  0.0998
 7308SOL     OW33559   2.955   3.263   3.720 -0.4091  0.3192 -0.6100
 7308SOL    HW133560   2.960   3.309   3.804 -1.5362  0.4772 -0.6293
 7308SOL    HW233561   2.926   3.178   3.752 -1.2102  1.3419  1.4279
 7309SOL     OW33562   0.466   2.569   8.736  0.1880 -0.3040  0.1411
 7309SOL    HW133563   0.533   2.605   8.678  1.1033 -1.7188  0.3179
 7309SOL    HW233564   0.511   2.536   8.814 -0.8547 -1.5220  0.2385
 7310SOL     OW33565   3.731   3.815  15.906  0.1466 -0.1837 -0.5038
 7310SOL    HW133566   3.678   3.864  15.843 -0.6438 -1.5571 -0.9109
 7310SOL    HW233567   3.791   3.770  15.846 -0.0352  0.2257 -0.9889
 7311SOL     OW33568   2.351   1.017   2.320 -0.4877  0.7028  0.3116
 7311SOL    HW133569   2.275   0.960   2.329  1.4284 -1.7827  0.7111
 7311SOL    HW233570   2.398   0.967   2.254 -0.8326  0.4253  0.2766
 7312SOL     OW33571   0.511   4.463   2.018  0.5547 -0.0911  0.1035
 7312SOL    HW133572   0.559   4.477   1.937 -1.1157  0.4278 -0.7930
 7312SOL    HW233573   0.484   4.374   1.998  0.2066  0.0881 -0.2273
 7313SOL     OW33574   2.828   3.714   2.770  0.6226 -0.0427  0.1661
 7313SOL    HW133575   2.896   3.684   2.830  0.7774 -1.0636 -0.5228
 7313SOL    HW233576   2.867   3.798   2.747  0.8981 -0.0294  0.6832
 7314SOL     OW33577   3.537   3.482   8.201  0.0356  0.2827 -0.0855
 7314SOL    HW133578   3.533   3.536   8.122 -1.0307  1.6268  0.8874
 7314SOL    HW233579   3.608   3.421   8.183  2.4255  1.9938  3.4362
 7315SOL     OW33580   1.168   3.956  13.943  0.6873  0.0197  0.0076
 7315SOL    HW133581   1.177   3.960  13.848 -2.7999  1.9355 -0.2295
 7315SOL    HW233582   1.072   3.959  13.946  0.6878 -0.4717  0.4643
 7316SOL     OW33583   0.696   3.238   7.308 -0.1555 -0.0398  0.0873
 7316SOL    HW133584   0.697   3.218   7.215  0.4610  0.0640  0.0732
 7316SOL    HW233585   0.683   3.151   7.348 -1.2799  0.0729 -0.0383
 7317SOL     OW33586   3.602   3.123   1.167  0.4444 -0.1390  0.8417
 7317SOL    HW133587   3.678   3.171   1.201  1.6208 -1.8986  0.6904
 7317SOL    HW233588   3.574   3.082   1.249 -0.9711  0.8812  0.8569
 7318SOL     OW33589   2.503   3.168   5.918  0.1537 -0.2224  0.0247
 7318SOL    HW133590   2.598   3.178   5.926  0.2118 -1.6063  1.1005
 7318SOL    HW233591   2.480   3.213   5.999 -0.9574  1.3514 -1.1824
 7319SOL     OW33592   4.645   0.801  16.402  0.3424 -0.5978 -0.4023
 7319SOL    HW133593   4.622   0.871  16.341  0.6301  0.5638  0.8227
 7319SOL    HW233594   4.729   0.773  16.367  0.3246  0.9786 -1.6808
 7320SOL     OW33595   4.146   4.173   3.339  0.0043  0.3283 -0.0104
 7320SOL    HW133596   4.209   4.216   3.397 -0.8473 -1.0954  1.9513
 7320SOL    HW233597   4.174   4.220   3.260 -1.0288  1.1881  0.1253
 7321SOL     OW33598   1.445   0.213   6.825  0.3062  1.1371 -0.2007
 7321SOL    HW133599   1.424   0.301   6.857  0.3238  1.2515 -0.5066
 7321SOL    HW233600   1.515   0.192   6.887 -0.5170 -2.3929 -0.4648
 7322SOL     OW33601   2.172   2.415   1.350 -0.1814  0.0545 -0.2054
 7322SOL    HW133602   2.202   2.331   1.384  0.6956 -0.5667 -2.5671
 7322SOL    HW233603   2.171   2.407   1.255  0.5004  4.6415 -0.5802
 7323SOL     OW33604   2.578   3.739   2.632 -0.2623 -0.0743 -0.3305
 7323SOL    HW133605   2.658   3.695   2.660 -1.4405 -1.1043  1.4231
 7323SOL    HW233606   2.606   3.809   2.573  2.4154 -2.3345 -1.7144
 7324SOL     OW33607   0.200   1.441   2.214  0.6671  0.0621 -0.3957
 7324SOL    HW133608   0.239   1.445   2.301  2.1263  0.0507 -1.0555
 7324SOL    HW233609   0.165   1.352   2.211 -0.6928  0.7209 -3.6095
 7325SOL     OW33610   2.355   1.627  10.427 -0.2859 -0.3558  0.2118
 7325SOL    HW133611   2.404   1.555  10.387 -0.4858 -1.8059  2.5959
 7325SOL    HW233612   2.410   1.653  10.501  0.6802 -0.8727 -0.3131
 7326SOL     OW33613   2.256   2.474   9.540  0.4047  0.4662  0.1674
 7326SOL    HW133614   2.231   2.383   9.553  3.7330 -0.6670 -1.3820
 7326SOL    HW233615   2.323   2.486   9.608  1.3227 -1.2065 -0.4508
 7327SOL     OW33616   4.540   1.542   2.237  0.4214  0.7755  0.1831
 7327SOL    HW133617   4.532   1.483   2.162  1.8275  1.1866 -0.2839
 7327SOL    HW233618   4.625   1.580   2.212 -0.2599  2.0811 -0.1755
 7328SOL     OW33619   0.938   3.500  15.176 -0.2243 -0.4350  0.7605
 7328SOL    HW133620   0.864   3.519  15.233 -1.4359 -1.2838 -0.5451
 7328SOL    HW233621   0.994   3.578  15.174  0.4686 -0.9626 -0.3386
 7329SOL     OW33622   3.378   1.729   0.543  0.1366  0.2431  0.1287
 7329SOL    HW133623   3.313   1.694   0.604  1.0198  1.3818  1.7515
 7329SOL    HW233624   3.328   1.721   0.462  0.8715 -4.5130  0.1649
 7330SOL     OW33625   1.939   3.169   5.080  0.0871  0.5290  0.4873
 7330SOL    HW133626   1.937   3.214   5.164 -2.4084 -1.1118  1.3034
 7330SOL    HW233627   1.866   3.213   5.037 -0.3536 -1.1611 -0.4925
 7331SOL     OW33628   3.152   2.768   0.236  0.0963 -0.5457  0.0592
 7331SOL    HW133629   3.198   2.821   0.171  0.7400 -0.4557  0.5892
 7331SOL    HW233630   3.110   2.834   0.291  1.6733  1.1553 -0.7962
 7332SOL     OW33631   2.826   0.839   6.127 -0.6999 -0.0170 -0.0809
 7332SOL    HW133632   2.903   0.816   6.075 -1.7362  0.6791 -1.8989
 7332SOL    HW233633   2.847   0.805   6.214 -2.4554 -0.9381  0.0015
 7333SOL     OW33634   3.845   4.692   5.182  0.0339  0.6183 -0.5422
 7333SOL    HW133635   3.831   4.733   5.268  2.6074  0.6580 -0.1320
 7333SOL    HW233636   3.821   0.021   5.121 -1.1079  2.4037  1.8898
 7334SOL     OW33637   0.854   3.266   7.538  0.2439 -0.7876  0.1307
 7334SOL    HW133638   0.804   3.214   7.600 -1.4563  0.9726  0.2651
 7334SOL    HW233639   0.805   3.260   7.456 -1.4386 -0.8043  1.1366
 7335SOL     OW33640   1.788   0.792  15.986 -0.3806 -0.6381 -0.0743
 7335SOL    HW133641   1.763   0.879  15.956 -0.2606 -0.0236  1.6182
 7335SOL    HW233642   1.806   0.760  15.898  0.1005  0.7849 -0.4836
 7336SOL     OW33643   0.669   0.569  12.191  0.3650 -0.2954 -0.0313
 7336SOL    HW133644   0.589   0.552  12.241  0.6296 -0.4397  0.3360
 7336SOL    HW233645   0.741   0.554  12.252  0.0825  1.1651  0.6470
 7337SOL     OW33646   3.789   1.542   5.434 -0.1066 -0.3422 -0.0795
 7337SOL    HW133647   3.822   1.567   5.520 -1.1739  2.1721 -0.4101
 7337SOL    HW233648   3.805   1.620   5.382 -3.3617 -0.1255 -0.7854
 7338SOL     OW33649   0.123   3.549   5.350  0.3027  0.1104 -0.4093
 7338SOL    HW133650   0.165   3.493   5.416 -0.5183  1.3338  1.1246
 7338SOL    HW233651   0.035   3.548   5.386  0.0251 -0.4506 -1.0898
 7339SOL     OW33652   0.282   3.140   5.941 -0.0586  0.0271 -0.5806
 7339SOL    HW133653   0.232   3.221   5.940  0.5809  0.4172 -0.5867
 7339SOL    HW233654   0.212   3.079   5.966 -2.9094  2.7595 -1.8778
 7340SOL     OW33655   3.608   4.305  10.717 -0.0930 -0.0007  0.5189
 7340SOL    HW133656   3.611   4.378  10.656  0.7578 -0.2169  0.2999
 7340SOL    HW233657   3.643   4.344  10.797  2.1325 -1.1151  0.1030
 7341SOL     OW33658   2.138   3.178   3.172 -0.0468  0.1540 -0.2651
 7341SOL    HW133659   2.098   3.246   3.227  1.0587 -0.3333  1.1343
 7341SOL    HW233660   2.060   3.123   3.166 -0.3158  0.7321 -2.1686
 7342SOL     OW33661   4.561   2.361   1.392  0.9829 -0.3344  0.3486
 7342SOL    HW133662   4.468   2.368   1.368  1.2452  2.4248  0.1864
 7342SOL    HW233663   4.568   2.425   1.463 -2.1341  1.1182 -0.6550
 7343SOL     OW33664   4.634   3.635   4.587  0.2891  0.2271  0.3640
 7343SOL    HW133665   4.562   3.574   4.598  1.1075 -0.5256  1.4841
 7343SOL    HW233666   4.629   3.675   4.500  1.0472 -3.2703 -1.2928
 7344SOL     OW33667   2.439   1.769  12.749  0.4593  0.0119  0.2147
 7344SOL    HW133668   2.492   1.817  12.686 -1.2289  0.1071 -1.1231
 7344SOL    HW233669   2.354   1.812  12.753 -0.3339 -1.5943  0.6649
 7345SOL     OW33670   2.036   4.326   5.376 -0.4471 -0.2609 -0.6537
 7345SOL    HW133671   1.995   4.253   5.330 -3.1029  0.5426  0.4407
 7345SOL    HW233672   2.129   4.314   5.354 -0.2157  1.3709 -0.5168
 7346SOL     OW33673   3.330   0.389   1.379  0.5294 -0.3060  0.4623
 7346SOL    HW133674   3.349   0.478   1.349 -0.4036  0.2368  1.4744
 7346SOL    HW233675   3.417   0.354   1.361  1.1963  1.9527 -0.7096
 7347SOL     OW33676   0.320   2.692   4.466 -0.3102  0.2549 -0.0869
 7347SOL    HW133677   0.335   2.786   4.461 -0.7218  0.2524 -1.3755
 7347SOL    HW233678   0.314   2.670   4.559 -0.3519 -0.9856 -0.3845
 7348SOL     OW33679   1.489   2.990   1.763 -0.7501  0.3623  0.0695
 7348SOL    HW133680   1.452   2.904   1.785 -2.3793  0.4707 -2.2275
 7348SOL    HW233681   1.544   2.972   1.687 -1.7395 -2.5903  0.0587
 7349SOL     OW33682   2.396   1.874   5.126 -0.0455 -0.1882 -0.4456
 7349SOL    HW133683   2.356   1.792   5.153 -0.1619 -0.2855 -0.9072
 7349SOL    HW233684   2.360   1.891   5.039  2.1862 -1.2897 -1.5921
 7350SOL     OW33685   2.457   4.002  15.381 -0.7086 -0.3696 -0.3922
 7350SOL    HW133686   2.455   3.919  15.334 -0.7112 -0.4414 -0.2651
 7350SOL    HW233687   2.426   3.973  15.467 -3.9147 -0.6948 -1.6598
 7351SOL     OW33688   1.044   4.265   4.804  0.5640 -0.5518 -0.4458
 7351SOL    HW133689   1.014   4.276   4.894  0.3469  0.6501 -0.6630
 7351SOL    HW233690   0.964   4.256   4.753 -0.8485 -0.1893  1.7135
 7352SOL     OW33691   2.750   3.209   8.473  0.2583  0.2511  0.1424
 7352SOL    HW133692   2.700   3.277   8.518 -2.0280 -0.7123 -0.8886
 7352SOL    HW233693   2.812   3.178   8.539 -1.3207  0.8069  1.9012
 7353SOL     OW33694   3.463   3.136   4.953  0.1959  0.2601 -0.5758
 7353SOL    HW133695   3.457   3.203   4.884  1.1954  1.0323  0.0792
 7353SOL    HW233696   3.532   3.079   4.919 -1.3881 -0.7683 -2.0411
 7354SOL     OW33697   4.022   1.645   1.278  0.1335  0.4270 -0.3109
 7354SOL    HW133698   3.976   1.628   1.361  1.5798 -1.2206  0.1498
 7354SOL    HW233699   4.106   1.606   1.301 -0.8441 -0.9538  0.9522
 7355SOL     OW33700   4.369   2.258   6.550 -0.0060 -0.2233 -0.0231
 7355SOL    HW133701   4.450   2.305   6.531  0.6183 -0.8965  0.9444
 7355SOL    HW233702   4.324   2.259   6.466 -1.1079  0.6996  0.5621
 7356SOL     OW33703   2.508   3.746   1.715 -0.0681  0.4255 -0.0384
 7356SOL    HW133704   2.602   3.728   1.715 -0.1570 -0.0518  2.0814
 7356SOL    HW233705   2.484   3.697   1.793  0.4673  0.6799  0.2881
 7357SOL     OW33706   3.636   1.620   2.207  0.6182 -0.3075 -0.3604
 7357SOL    HW133707   3.659   1.548   2.266  0.0696 -0.0791  0.1274
 7357SOL    HW233708   3.673   1.691   2.260  0.0121  0.4328 -0.9327
 7358SOL     OW33709   4.590   3.612   1.707  0.2616 -0.1430  0.0113
 7358SOL    HW133710   4.536   3.688   1.684  1.5717  1.5353  2.5161
 7358SOL    HW233711   4.604   3.579   1.618 -0.8710  0.1637 -0.2756
 7359SOL     OW33712   1.343   2.201  15.760  0.2905 -0.2412  0.0253
 7359SOL    HW133713   1.275   2.267  15.751 -0.8038 -1.3954 -0.2680
 7359SOL    HW233714   1.429   2.244  15.752  0.0997  0.2710  0.7250
 7360SOL     OW33715   3.320   3.298   5.150  0.2923  0.3701 -0.8280
 7360SOL    HW133716   3.401   3.262   5.115  0.8596  1.1527 -0.3165
 7360SOL    HW233717   3.258   3.274   5.081  0.8209  0.7443 -1.4294
 7361SOL     OW33718   4.128   4.485  14.094  0.4356  0.1047 -0.0499
 7361SOL    HW133719   4.182   4.431  14.035 -0.1245  1.6574 -1.9759
 7361SOL    HW233720   4.190   4.550  14.126 -0.0573 -0.0141  1.1414
 7362SOL     OW33721   1.913   2.823   2.176 -0.1804  0.1114  0.3122
 7362SOL    HW133722   1.910   2.750   2.114 -0.5210 -0.3060  0.8187
 7362SOL    HW233723   1.984   2.880   2.148  0.1030  0.3542  1.4937
 7363SOL     OW33724   0.108   1.344   2.685  0.4354  0.1706 -0.4635
 7363SOL    HW133725   0.062   1.428   2.691 -0.2869 -0.2509 -0.1342
 7363SOL    HW233726   0.098   1.333   2.590 -0.7669  1.5075 -0.4942
 7364SOL     OW33727   3.306   0.802   4.820 -0.4063 -0.6047  0.1600
 7364SOL    HW133728   3.294   0.707   4.811  0.2523 -0.5059 -1.7040
 7364SOL    HW233729   3.342   0.798   4.909  0.3844  0.9675 -0.0987
 7365SOL     OW33730   1.593   2.981   8.810  0.1556  0.4378 -0.1107
 7365SOL    HW133731   1.504   2.986   8.846  0.2394 -2.0982  0.4063
 7365SOL    HW233732   1.596   2.887   8.795 -2.4088  0.4420 -0.6288
 7366SOL     OW33733   4.495   1.622   4.429 -0.1261  0.8022 -0.0674
 7366SOL    HW133734   4.400   1.632   4.419 -0.0530  0.5928 -0.9225
 7366SOL    HW233735   4.519   1.698   4.376  2.0051  0.3486  0.2584
 7367SOL     OW33736   4.316   4.058   8.896  0.0900  0.2033 -0.3260
 7367SOL    HW133737   4.320   3.966   8.921 -0.3675  0.5859  1.1852
 7367SOL    HW233738   4.277   4.099   8.973 -0.5218 -1.0434  0.0293
 7368SOL     OW33739   2.191   3.244   1.690 -0.1937  0.1029 -0.1556
 7368SOL    HW133740   2.234   3.162   1.711 -1.2704 -0.0227  1.5917
 7368SOL    HW233741   2.261   3.285   1.639  1.3473 -0.5773  1.4127
 7369SOL     OW33742   2.154   3.574   9.296 -0.5559  0.1368 -0.1149
 7369SOL    HW133743   2.234   3.530   9.266 -0.5746  0.8818 -1.2202
 7369SOL    HW233744   2.186   3.662   9.317  1.5049 -0.7338  0.4076
 7370SOL     OW33745   0.792   1.780   4.652  0.2274 -0.4516 -0.5163
 7370SOL    HW133746   0.882   1.797   4.627 -0.0489  0.2088 -1.0775
 7370SOL    HW233747   0.795   1.821   4.738 -1.8353  3.5462 -2.3438
 7371SOL     OW33748   1.721   2.760   1.807  0.0194  0.1065  0.1994
 7371SOL    HW133749   1.654   2.697   1.835  0.8366 -0.4294  0.9119
 7371SOL    HW233750   1.691   2.776   1.717 -0.7544 -0.3717  0.3704
 7372SOL     OW33751   3.964   0.203  14.976  0.2570  0.1176  0.3191
 7372SOL    HW133752   3.983   0.233  15.065  0.8689 -0.5225  0.4135
 7372SOL    HW233753   3.872   0.225  14.965  0.0281  0.5178  2.9654
 7373SOL     OW33754   2.055   1.724   8.236 -0.0868 -0.4423  0.1299
 7373SOL    HW133755   2.126   1.754   8.292 -1.9464  2.1131  1.1377
 7373SOL    HW233756   2.002   1.801   8.217 -0.1071 -0.8211 -1.3547
 7374SOL     OW33757   0.753   3.490   5.264 -0.2996 -0.8235  0.7349
 7374SOL    HW133758   0.830   3.435   5.280  0.2684 -0.0653  0.6159
 7374SOL    HW233759   0.729   3.469   5.174  0.7177  1.6689 -0.1010
 7375SOL     OW33760   1.823   1.869   5.982  0.5674 -0.2418  0.0835
 7375SOL    HW133761   1.863   1.872   5.895  0.2059 -1.8904 -0.1325
 7375SOL    HW233762   1.732   1.884   5.956  0.8021  0.9808 -0.0137
 7376SOL     OW33763   0.414   3.333   2.634 -0.1386 -0.3515  0.0219
 7376SOL    HW133764   0.477   3.298   2.571  0.0993  1.1099 -0.5640
 7376SOL    HW233765   0.336   3.357   2.585 -0.4809 -2.2605 -0.3402
 7377SOL     OW33766   0.067   3.666  12.498 -0.2686 -0.6087 -0.2055
 7377SOL    HW133767   0.109   3.636  12.417  0.5785  1.9395 -0.6967
 7377SOL    HW233768   0.140   3.678  12.558 -0.5706 -0.9113  0.2159
 7378SOL     OW33769   4.473   1.148  16.457  0.3152  0.1122 -0.1813
 7378SOL    HW133770   4.563   1.139  16.427  0.3809 -2.0194  0.6785
 7378SOL    HW233771   4.423   1.128  16.378 -2.5292 -0.3147  1.7235
 7379SOL     OW33772   2.824   0.884   2.285 -0.0568  0.1163 -0.5757
 7379SOL    HW133773   2.804   0.925   2.369 -1.5718 -4.1494  1.1166
 7379SOL    HW233774   2.763   0.811   2.287  0.4363 -0.2661  0.8310
 7380SOL     OW33775   3.897   2.847   3.318  0.4029 -0.1905  0.1280
 7380SOL    HW133776   3.808   2.838   3.283  0.1690 -1.2013  1.0178
 7380SOL    HW233777   3.874   2.878   3.406  3.0758  0.6383  0.5231
 7381SOL     OW33778   0.287   2.811   8.758 -0.1149  0.2406 -0.4961
 7381SOL    HW133779   0.361   2.756   8.782 -0.2937 -0.6423 -1.9304
 7381SOL    HW233780   0.224   2.806   8.830 -1.2778 -0.9557 -1.5918
 7382SOL     OW33781   3.928   1.705   3.129  0.2051 -0.1644  0.0590
 7382SOL    HW133782   3.910   1.692   3.222  1.1173  2.3667  0.5872
 7382SOL    HW233783   3.990   1.778   3.125 -1.0026  0.7984 -1.4459
 7383SOL     OW33784   3.869   4.661   6.534  0.7231  0.4221 -0.2262
 7383SOL    HW133785   3.852   4.639   6.625 -0.0576  0.2225 -0.4178
 7383SOL    HW233786   3.920   4.586   6.504  1.0734 -0.6956  3.2371
 7384SOL     OW33787   3.351   4.373   8.623  0.1800 -0.4288 -0.1406
 7384SOL    HW133788   3.401   4.454   8.630  0.5488 -0.4494 -2.5515
 7384SOL    HW233789   3.286   4.380   8.693  2.5274  2.8650  1.6841
 7385SOL     OW33790   2.590   0.722   3.608 -0.1145  0.0264 -0.5222
 7385SOL    HW133791   2.534   0.705   3.532 -0.3499  2.9983 -1.0428
 7385SOL    HW233792   2.543   0.792   3.655 -1.1633  0.8248 -2.7483
 7386SOL     OW33793   1.108   3.984  12.295  0.0273  0.0747  0.2991
 7386SOL    HW133794   1.081   4.053  12.235  0.8125 -0.8101 -1.0569
 7386SOL    HW233795   1.066   3.908  12.254  2.3526 -0.5208 -1.0009
 7387SOL     OW33796   3.602   0.573   4.918  0.2484  0.1944 -0.1121
 7387SOL    HW133797   3.514   0.536   4.916  0.3001  0.0364  0.5757
 7387SOL    HW233798   3.580   0.660   4.951  1.3218  0.9575 -1.3761
 7388SOL     OW33799   0.729   3.055   7.705 -0.0535  0.0671  0.2234
 7388SOL    HW133800   0.650   3.032   7.753 -1.6532  0.5396 -2.1851
 7388SOL    HW233801   0.784   3.087   7.777  0.4322  1.0728 -0.5998
 7389SOL     OW33802   0.630   3.144   5.423  0.2322 -0.1802 -0.0457
 7389SOL    HW133803   0.647   3.232   5.457  1.4914 -0.1216 -0.7745
 7389SOL    HW233804   0.542   3.130   5.455 -1.0740  0.9232 -3.1247
 7390SOL     OW33805   0.961   3.989   4.682  0.3623 -0.1986 -0.1914
 7390SOL    HW133806   0.916   4.047   4.621 -1.0189 -0.1598  0.8843
 7390SOL    HW233807   0.953   3.905   4.637 -0.8924 -0.3061  0.2292
 7391SOL     OW33808   4.097   0.113   8.776  0.4364 -0.4599 -0.4660
 7391SOL    HW133809   4.145   0.089   8.697 -0.6095  3.8901 -2.4317
 7391SOL    HW233810   4.048   0.189   8.743  0.2334 -0.1413  0.5390
 7392SOL     OW33811   4.340   4.251   3.107 -0.5670  0.0721 -0.2189
 7392SOL    HW133812   4.419   4.262   3.055  0.3416 -0.7481  1.0140
 7392SOL    HW233813   4.345   4.332   3.159  1.7387 -0.0263 -0.3127
 7393SOL     OW33814   3.883   1.592   4.448  0.2265  0.2956  0.6153
 7393SOL    HW133815   3.810   1.544   4.487  0.6145 -0.3700  0.5248
 7393SOL    HW233816   3.843   1.677   4.463 -0.8425 -0.5068  2.3139
 7394SOL     OW33817   1.717   2.752  12.503 -0.2825  0.2050  0.0101
 7394SOL    HW133818   1.652   2.785  12.565  0.0291 -1.5672  1.2674
 7394SOL    HW233819   1.724   2.662  12.534 -0.8505  0.4454  0.8258
 7395SOL     OW33820   2.744   0.395   9.385 -0.2025 -0.4125  0.2831
 7395SOL    HW133821   2.766   0.413   9.477  1.7732  0.1994 -0.3075
 7395SOL    HW233822   2.669   0.335   9.391 -2.4044  2.2740 -0.0993
 7396SOL     OW33823   0.536   1.790   4.548 -0.1864 -0.2730 -0.1923
 7396SOL    HW133824   0.611   1.776   4.607  0.6640  1.0208 -0.9683
 7396SOL    HW233825   0.468   1.750   4.603 -0.8652  0.4404 -0.5243
 7397SOL     OW33826   0.164   2.645  13.528  0.3886  0.0091 -0.0438
 7397SOL    HW133827   0.085   2.658  13.475  0.5924  0.5776 -0.2081
 7397SOL    HW233828   0.219   2.583  13.481 -0.1296 -2.0870  2.0910
 7398SOL     OW33829   2.350   1.212   5.729 -0.0461 -0.0200  0.1834
 7398SOL    HW133830   2.331   1.235   5.820 -0.2629  0.3553  0.0446
 7398SOL    HW233831   2.404   1.288   5.706 -1.4468  1.2238  1.0451
 7399SOL     OW33832   3.450   2.485   4.463 -0.1035 -0.2366 -0.6518
 7399SOL    HW133833   3.528   2.506   4.412 -1.4753 -1.8565 -3.4205
 7399SOL    HW233834   3.476   2.537   4.539 -0.8727  2.5904 -2.3261
 7400SOL     OW33835   0.826   4.665  14.162 -0.6187  0.0916  0.1755
 7400SOL    HW133836   0.907   4.644  14.209  0.0958 -0.1121 -1.1679
 7400SOL    HW233837   0.778   4.585  14.185 -1.7670  1.3284  2.0853
 7401SOL     OW33838   2.865   4.738   5.253  0.2026 -0.1163 -0.0407
 7401SOL    HW133839   2.891   0.075   5.202  0.4307  0.2596  0.6480
 7401SOL    HW233840   2.777   4.721   5.219 -0.3734  1.3256  0.7440
 7402SOL     OW33841   1.942   1.808   8.654 -0.1027  0.2251  0.4103
 7402SOL    HW133842   1.933   1.882   8.713 -0.7422 -0.0112  0.6139
 7402SOL    HW233843   1.916   1.849   8.571 -2.0142  2.4090  2.1100
 7403SOL     OW33844   4.050   1.739   6.198 -0.3089 -0.1220  0.7056
 7403SOL    HW133845   4.053   1.644   6.203 -1.6866 -0.2778 -1.6148
 7403SOL    HW233846   3.985   1.743   6.128 -2.2048 -0.6966  2.4378
 7404SOL     OW33847   2.510   0.381  14.967 -0.2905  0.0687 -0.2224
 7404SOL    HW133848   2.495   0.423  14.882 -2.9881  0.3804  0.4133
 7404SOL    HW233849   2.533   0.452  15.026 -2.3057 -0.6275  1.3732
 7405SOL     OW33850   0.944   2.466  11.294 -0.0310 -0.1963 -0.8536
 7405SOL    HW133851   0.955   2.381  11.336  3.4378  0.2742 -0.8718
 7405SOL    HW233852   0.888   2.450  11.218  0.6608 -0.3898 -1.3212
 7406SOL     OW33853   2.368   0.175   5.510  0.4277 -0.2327 -0.2807
 7406SOL    HW133854   2.434   0.115   5.475  0.2406  0.1424 -1.3038
 7406SOL    HW233855   2.301   0.108   5.518  1.1191 -0.7482  1.1325
 7407SOL     OW33856   3.679   0.217  15.079 -0.0708  0.1458  0.0084
 7407SOL    HW133857   3.618   0.270  15.131 -1.7818 -0.0301 -1.8295
 7407SOL    HW233858   3.638   0.225  14.993 -2.7613  2.5589  1.4829
 7408SOL     OW33859   2.933   3.814   9.131  0.6532 -0.4317  0.4808
 7408SOL    HW133860   2.971   3.902   9.130  1.0148 -0.6285 -2.9261
 7408SOL    HW233861   2.968   3.775   9.051  1.0758  3.6620 -1.3200
 7409SOL     OW33862   0.599   0.839   6.681 -0.7583 -0.4029 -0.2817
 7409SOL    HW133863   0.645   0.883   6.609 -0.8057  0.9656  0.5360
 7409SOL    HW233864   0.589   0.754   6.637  2.4610 -1.2852  0.6592
 7410SOL     OW33865   1.115   1.197   1.011 -0.3624  0.2505  0.1543
 7410SOL    HW133866   1.112   1.126   1.075  0.2645  0.2605  0.1926
 7410SOL    HW233867   1.068   1.161   0.936  2.0302 -0.3625 -1.0716
 7411SOL     OW33868   0.328   0.198   2.972  0.1025  0.0607 -0.3707
 7411SOL    HW133869   0.363   0.186   3.061  1.5039  1.5679 -0.7264
 7411SOL    HW233870   0.251   0.252   2.990  1.6749  2.1630 -0.0029
 7412SOL     OW33871   2.171   2.773   8.047  0.6658 -0.1961  0.4057
 7412SOL    HW133872   2.127   2.692   8.021 -0.5197  0.4464  0.4124
 7412SOL    HW233873   2.100   2.837   8.053 -1.0578 -2.1529  0.3743
 7413SOL     OW33874   1.585   1.404   3.199  0.5695  0.0223  0.3790
 7413SOL    HW133875   1.627   1.415   3.114 -2.4201  1.4768 -0.9463
 7413SOL    HW233876   1.528   1.330   3.177 -0.5622  1.0516 -0.1660
 7414SOL     OW33877   1.721   2.517   7.293  0.0625 -0.1395 -0.4337
 7414SOL    HW133878   1.724   2.562   7.377  1.1455  0.7619 -0.9517
 7414SOL    HW233879   1.737   2.592   7.236 -0.3260  0.2414 -0.0376
 7415SOL     OW33880   0.299   0.559  13.112 -0.3789  0.0433 -0.4935
 7415SOL    HW133881   0.206   0.544  13.095 -0.1575 -1.7799 -0.1023
 7415SOL    HW233882   0.326   0.467  13.116  1.9684  0.8510  2.2067
 7416SOL     OW33883   4.696   1.390   5.132  0.4827  0.0986 -0.2599
 7416SOL    HW133884   4.680   1.302   5.164  0.5011  1.7672  4.3096
 7416SOL    HW233885   4.685   1.442   5.212  3.7080  0.0419  0.2381
 7417SOL     OW33886   2.310   2.486  16.647 -0.6003 -0.1798 -0.2999
 7417SOL    HW133887   2.366   2.435  16.587  0.6782 -1.4815  1.9682
 7417SOL    HW233888   2.255   2.417  16.683 -0.0384  0.2181  1.3324
 7418SOL     OW33889   1.551   0.207   6.573 -0.1236 -0.1211 -0.1787
 7418SOL    HW133890   1.521   0.201   6.664  0.9445  1.4374  0.2801
 7418SOL    HW233891   1.585   0.118   6.568  0.5138  0.1473 -0.6645
 7419SOL     OW33892   4.596   4.015   6.236  0.2685  0.2913 -0.1091
 7419SOL    HW133893   4.622   3.955   6.306 -0.2175 -0.9666 -1.0131
 7419SOL    HW233894   4.655   4.087   6.259 -2.2760  1.9567  1.1881
 7420SOL     OW33895   0.656   1.211  12.995  0.0485 -0.1831  0.2999
 7420SOL    HW133896   0.612   1.242  12.916 -0.9170 -1.7685  0.2203
 7420SOL    HW233897   0.677   1.121  12.971  0.4381  0.3662 -1.3378
 7421SOL     OW33898   1.849   1.854   0.798  0.0875 -0.4780 -0.7322
 7421SOL    HW133899   1.917   1.910   0.837  1.6022 -1.4073 -2.0712
 7421SOL    HW233900   1.802   1.841   0.881 -0.4497  1.5725 -0.7086
 7422SOL     OW33901   0.835   2.085   5.846 -0.4282  0.3714  0.7183
 7422SOL    HW133902   0.836   2.043   5.932  0.7793  0.9781  1.0020
 7422SOL    HW233903   0.740   2.102   5.847 -0.6345 -0.8177  1.2772
 7423SOL     OW33904   1.069   3.916   4.921 -0.3423 -0.2131 -0.1243
 7423SOL    HW133905   0.992   3.897   4.975 -0.7687  0.9451 -0.3352
 7423SOL    HW233906   1.031   3.972   4.854 -1.1126  3.4170  3.3208
 7424SOL     OW33907   1.782   1.058  10.723  0.2751 -0.4024  0.3059
 7424SOL    HW133908   1.750   1.143  10.693  0.3281 -0.2034  0.8149
 7424SOL    HW233909   1.734   1.001  10.664  1.1107 -0.3649 -0.4125
 7425SOL     OW33910   1.239   2.646  10.533  0.0633  0.2420  0.4727
 7425SOL    HW133911   1.178   2.657  10.460 -0.7009 -1.9448  0.7598
 7425SOL    HW233912   1.244   2.551  10.544  0.7343  0.1139 -0.9821
 7426SOL     OW33913   2.462   1.136   9.428 -0.5107  0.1102  0.1605
 7426SOL    HW133914   2.514   1.098   9.499  1.0733 -2.2443 -2.2392
 7426SOL    HW233915   2.511   1.218   9.426  0.8057 -0.6905 -0.3145
 7427SOL     OW33916   2.330   0.749  15.900 -0.0922  0.4757 -0.1495
 7427SOL    HW133917   2.304   0.753  15.992  0.0335  2.9355 -0.2331
 7427SOL    HW233918   2.293   0.824  15.855 -0.8188 -0.8386 -1.7255
 7428SOL     OW33919   4.020   3.850   2.163 -0.8863 -0.2856  0.5984
 7428SOL    HW133920   4.078   3.922   2.189  0.0450 -0.0880 -2.0466
 7428SOL    HW233921   3.945   3.895   2.123  0.4396  0.2777 -1.1888
 7429SOL     OW33922   0.557   4.138  11.782 -0.0447 -0.3022  0.2775
 7429SOL    HW133923   0.478   4.124  11.834 -0.2989 -0.3118 -0.1116
 7429SOL    HW233924   0.619   4.171  11.847 -0.4824  0.5390  0.2622
 7430SOL     OW33925   0.367   1.685   4.738 -0.1052  0.2357  0.5081
 7430SOL    HW133926   0.322   1.616   4.690  0.6839 -0.2140  0.4191
 7430SOL    HW233927   0.377   1.642   4.822  1.3297  0.4527  0.4472
 7431SOL     OW33928   0.308   0.024   4.178  0.2603  0.5899 -0.5481
 7431SOL    HW133929   0.312   4.668   4.187  0.1932  0.5723 -0.7061
 7431SOL    HW233930   0.272   0.028   4.089 -0.8422  1.0582 -0.0728
 7432SOL     OW33931   4.021   4.468  17.242 -0.1094 -1.0647  0.0205
 7432SOL    HW133932   3.979   4.478  17.328 -1.8119  0.1969 -0.9651
 7432SOL    HW233933   4.113   4.476  17.268 -0.5142 -1.7957  1.6974
 7433SOL     OW33934   3.810   1.720   3.673 -0.1289 -0.6320  0.2832
 7433SOL    HW133935   3.888   1.774   3.682  0.0400 -0.7771 -0.3294
 7433SOL    HW233936   3.769   1.731   3.759  0.0104 -1.2477  0.4307
 7434SOL     OW33937   0.398   3.293  13.567  0.5346  0.2480  0.2758
 7434SOL    HW133938   0.439   3.319  13.484  2.6584 -1.6713  0.7036
 7434SOL    HW233939   0.316   3.342  13.559 -0.0631 -0.2220  3.6815
 7435SOL     OW33940   0.284   0.124  15.016  0.3562 -0.6055  0.0245
 7435SOL    HW133941   0.369   0.102  15.054  2.7686  3.3078 -3.1396
 7435SOL    HW233942   0.228   0.148  15.090 -3.3849 -1.4352 -2.5055
 7436SOL     OW33943   3.642   2.600   7.937 -0.0370 -0.0052 -0.1931
 7436SOL    HW133944   3.593   2.547   7.874 -2.3759  0.6226  1.1070
 7436SOL    HW233945   3.628   2.691   7.913  1.0449 -0.0668 -1.0356
 7437SOL     OW33946   1.876   0.955   2.645  0.1597 -0.1132  0.1195
 7437SOL    HW133947   1.895   0.956   2.738 -0.0319 -0.9622  0.1618
 7437SOL    HW233948   1.903   0.869   2.614 -1.9376 -0.1809 -1.5582
 7438SOL     OW33949   0.898   2.688   0.593  0.6871 -0.0787  0.2732
 7438SOL    HW133950   0.891   2.610   0.647  0.6824 -0.6497 -0.5478
 7438SOL    HW233951   0.833   2.655   0.531 -1.0978  1.1096  1.5012
 7439SOL     OW33952   1.280   2.736  11.768 -0.5304  0.0693  0.0462
 7439SOL    HW133953   1.324   2.781  11.840 -1.6042  2.3426 -0.7066
 7439SOL    HW233954   1.344   2.667  11.750 -0.0387  1.3588 -3.0462
 7440SOL     OW33955   2.658   2.983   6.398 -0.1659 -0.5246 -0.0671
 7440SOL    HW133956   2.653   3.071   6.358 -2.1868 -0.2416  0.8302
 7440SOL    HW233957   2.743   2.980   6.442  0.3228  1.1779 -0.8602
 7441SOL     OW33958   0.413   2.953   1.876 -0.1382  0.2799  0.3207
 7441SOL    HW133959   0.470   2.915   1.810 -0.5158  1.1446 -0.5141
 7441SOL    HW233960   0.361   2.875   1.897  1.4286 -0.7245  0.4374
 7442SOL     OW33961   2.479   1.682  13.001  0.3288 -0.3638 -0.2226
 7442SOL    HW133962   2.450   1.682  12.910  1.0495 -0.7960 -0.4483
 7442SOL    HW233963   2.573   1.680  12.983  0.1064  2.5755 -1.5450
 7443SOL     OW33964   1.395   4.502  13.080 -0.1628 -0.2506 -0.3055
 7443SOL    HW133965   1.331   4.480  13.148  0.7146  0.1550  0.6499
 7443SOL    HW233966   1.449   4.423  13.082 -0.4796 -0.4518  0.1926
 7444SOL     OW33967   3.986   0.925  16.792 -0.2799  0.0291  1.2582
 7444SOL    HW133968   4.052   0.929  16.861  0.4551 -1.0800  0.6120
 7444SOL    HW233969   4.001   1.016  16.767 -1.5277 -0.8851 -2.8990
 7445SOL     OW33970   4.086   3.238  14.487  0.0044  0.6617  0.0479
 7445SOL    HW133971   3.998   3.207  14.465 -0.3933  1.8580 -0.0837
 7445SOL    HW233972   4.143   3.174  14.444 -0.3349  0.5175 -0.1874
 7446SOL     OW33973   0.800   4.083  12.175  0.0682  0.5494  0.1893
 7446SOL    HW133974   0.894   4.093  12.156 -0.1009  0.2227 -0.8362
 7446SOL    HW233975   0.806   4.072  12.270  0.0952  0.4062  0.1705
 7447SOL     OW33976   1.559   0.452   5.673  0.2751 -0.1003 -0.0379
 7447SOL    HW133977   1.653   0.461   5.658  0.6128 -0.5827  1.8262
 7447SOL    HW233978   1.555   0.413   5.760  0.2518  0.7566  0.3428
 7448SOL     OW33979   2.848   0.675   5.325 -0.6019  0.3556  0.1330
 7448SOL    HW133980   2.850   0.762   5.365  2.6302  0.2391  0.2741
 7448SOL    HW233981   2.816   0.694   5.237 -0.1742 -0.6990 -0.2556
 7449SOL     OW33982   2.605   2.160   9.420 -0.4330 -0.0949  0.3609
 7449SOL    HW133983   2.591   2.151   9.326  1.3054  2.8653 -0.2190
 7449SOL    HW233984   2.636   2.073   9.445  0.8781  0.0093 -0.9032
 7450SOL     OW33985   1.529   2.093  11.046 -0.4574 -0.5890  0.3705
 7450SOL    HW133986   1.620   2.066  11.032 -0.1164  0.4778  0.5424
 7450SOL    HW233987   1.538   2.182  11.080  2.2596 -1.0691  0.9042
 7451SOL     OW33988   4.150   3.557   7.814  0.0281 -0.4050 -0.9797
 7451SOL    HW133989   4.093   3.517   7.881  0.9840 -0.8369 -0.4220
 7451SOL    HW233990   4.127   3.649   7.822 -2.5058 -1.1011 -0.0705
 7452SOL     OW33991   0.981   1.342   1.369 -0.3891  0.7878 -0.0757
 7452SOL    HW133992   0.913   1.284   1.336  1.6709 -2.1538  0.8507
 7452SOL    HW233993   0.940   1.383   1.445  1.7503 -0.5150  1.7954
 7453SOL     OW33994   4.117   1.425   1.548 -0.4364  0.1272  0.1453
 7453SOL    HW133995   4.166   1.365   1.604 -1.8182  2.1152  3.4873
 7453SOL    HW233996   4.128   1.387   1.460  1.4504  0.1927  0.3625
 7454SOL     OW33997   2.886   0.217   7.519  0.2570  0.1376  0.0680
 7454SOL    HW133998   2.823   0.236   7.588  0.8038  1.9407  0.0656
 7454SOL    HW233999   2.827   0.181   7.452 -1.7893  3.1752  0.2352
 7455SOL     OW34000   0.485   2.649   0.975  0.1392 -0.3630 -0.1538
 7455SOL    HW134001   0.416   2.595   1.012 -0.4824 -1.0422 -2.3260
 7455SOL    HW234002   0.544   2.650   1.050  0.5899  1.3810 -0.5334
 7456SOL     OW34003   2.339   3.033   9.074  0.1867 -0.3827  0.2420
 7456SOL    HW134004   2.409   3.043   9.009  0.2851  3.1388  0.8854
 7456SOL    HW234005   2.273   2.987   9.024 -0.9434 -0.9613  2.2516
 7457SOL     OW34006   2.212   0.192   3.410  0.1702  0.1561 -0.1980
 7457SOL    HW134007   2.201   0.097   3.407 -0.2697  0.2129 -0.3106
 7457SOL    HW234008   2.303   0.199   3.381  0.0977 -1.5496 -0.8309
 7458SOL     OW34009   1.760   0.791   2.396  0.2231  0.0856  0.0279
 7458SOL    HW134010   1.730   0.752   2.479 -1.3106 -0.5601 -0.8303
 7458SOL    HW234011   1.747   0.884   2.411  0.6952  0.3206 -1.0522
 7459SOL     OW34012   0.255   2.513  13.150 -0.8407 -0.0599 -0.4055
 7459SOL    HW134013   0.298   2.453  13.089 -0.0772  1.2921 -1.2154
 7459SOL    HW234014   0.293   2.598  13.124  0.1580 -0.0331  1.1148
 7460SOL     OW34015   3.457   0.815   6.758  0.3237  0.5305  0.3594
 7460SOL    HW134016   3.376   0.765   6.743 -0.0063  2.0085 -2.8081
 7460SOL    HW234017   3.432   0.904   6.732 -1.0521  0.0263 -0.0658
 7461SOL     OW34018   1.448   3.770  11.197  0.3707  0.8880  0.0501
 7461SOL    HW134019   1.521   3.831  11.197 -1.0709  2.6612 -3.2982
 7461SOL    HW234020   1.390   3.814  11.135 -0.5818 -1.2101 -0.5814
 7462SOL     OW34021   4.392   1.593   8.022  0.1944  0.7075 -0.5222
 7462SOL    HW134022   4.414   1.502   8.042 -0.4707  0.0314 -2.8458
 7462SOL    HW234023   4.298   1.580   8.034  0.6013 -0.1218  1.8225
 7463SOL     OW34024   2.853   3.156  10.493  0.1668  0.0059  0.5206
 7463SOL    HW134025   2.831   3.072  10.533 -3.2458  0.3269 -0.7484
 7463SOL    HW234026   2.832   3.219  10.562 -1.2632 -0.8304  0.8540
 7464SOL     OW34027   1.169   0.800  13.754 -0.3853 -0.1897  0.2230
 7464SOL    HW134028   1.082   0.812  13.716 -0.2361 -1.1463 -0.4415
 7464SOL    HW234029   1.213   0.880  13.725 -1.6357  0.8775  1.3270
 7465SOL     OW34030   2.725   3.114   8.000 -0.0246 -0.1309 -0.3645
 7465SOL    HW134031   2.671   3.190   8.020 -2.2512 -1.4020 -1.6147
 7465SOL    HW234032   2.810   3.152   8.023  1.3668 -1.9879 -2.4039
 7466SOL     OW34033   1.812   2.687   8.262 -0.0755 -0.1739  0.3492
 7466SOL    HW134034   1.755   2.747   8.311 -0.1446 -0.5225  0.7011
 7466SOL    HW234035   1.792   2.607   8.312  0.2076  0.4172  1.4041
 7467SOL     OW34036   0.188   0.889   3.043  0.6869  0.0300  0.4315
 7467SOL    HW134037   0.249   0.875   2.970  2.8646  3.3307  1.6017
 7467SOL    HW234038   0.244   0.868   3.118 -0.1635  0.3299  1.1565
 7468SOL     OW34039   1.029   3.196   1.949  0.6375  0.1557  0.3456
 7468SOL    HW134040   1.124   3.195   1.946  0.6361 -0.0583  0.3681
 7468SOL    HW234041   1.014   3.203   2.043 -2.1301  0.9613 -0.1577
 7469SOL     OW34042   4.379   4.414  15.582  0.3147  0.1774  0.3239
 7469SOL    HW134043   4.299   4.384  15.539  0.2579  0.5578  0.1684
 7469SOL    HW234044   4.408   4.331  15.621  1.7155  0.9022  0.8141
 7470SOL     OW34045   3.155   3.112   7.966 -0.0812 -0.1762 -0.5499
 7470SOL    HW134046   3.113   3.082   8.046  2.1936  0.2261  0.8090
 7470SOL    HW234047   3.189   3.025   7.946 -0.0206 -0.6399  1.6144
 7471SOL     OW34048   1.323   1.197   5.056  0.2286  0.3508 -0.7055
 7471SOL    HW134049   1.306   1.110   5.093 -0.3537  0.0413 -1.7165
 7471SOL    HW234050   1.403   1.185   5.006  0.2596  0.7881 -0.7647
 7472SOL     OW34051   1.137   4.350   5.269 -0.2502  0.1169 -0.1129
 7472SOL    HW134052   1.213   4.310   5.312 -2.2874 -1.2420  2.1615
 7472SOL    HW234053   1.184   4.431   5.248 -0.4975  0.5101  0.8425
 7473SOL     OW34054   0.001   3.931   0.236  1.0180 -0.1102 -0.0428
 7473SOL    HW134055   0.075   3.973   0.192 -0.2063  2.0560 -0.0490
 7473SOL    HW234056   4.721   3.854   0.182  1.0145 -1.6494  2.1730
 7474SOL     OW34057   3.704   0.475   4.538 -0.2440  0.4248  0.1330
 7474SOL    HW134058   3.665   0.540   4.480  0.5722  0.0519 -0.8325
 7474SOL    HW234059   3.767   0.433   4.479  0.2032  0.3143  0.6874
 7475SOL     OW34060   0.056   0.866   3.798  0.0143  0.1428  0.3721
 7475SOL    HW134061   0.047   0.949   3.845  1.0232  0.1885  0.4730
 7475SOL    HW234062   0.132   0.821   3.835  0.9282 -0.3742 -2.1866
 7476SOL     OW34063   4.737   2.729   5.985 -0.3668 -0.1830  0.0093
 7476SOL    HW134064   4.723   2.823   5.999  1.4701  0.3736 -1.9514
 7476SOL    HW234065   4.714   2.703   6.074 -0.9149  0.9968  0.2142
 7477SOL     OW34066   4.664   1.602   9.798 -0.3362 -0.8015  0.3098
 7477SOL    HW134067   4.654   1.507   9.786  0.0839 -1.2267  3.2148
 7477SOL    HW234068   4.706   1.618   9.883 -1.4740  5.7603 -0.4218
 7478SOL     OW34069   2.195   4.681   3.093 -0.3239 -0.0258 -0.2561
 7478SOL    HW134070   2.182   0.034   3.073 -1.7592 -0.2531 -0.3964
 7478SOL    HW234071   2.223   4.645   3.009  1.5031  1.9460 -0.4775
 7479SOL     OW34072   1.588   1.178   4.979 -0.2813  0.3409  0.0729
 7479SOL    HW134073   1.612   1.086   4.987 -2.2068  0.0276  2.0652
 7479SOL    HW234074   1.661   1.218   5.026  0.1740  0.1403 -0.4605
 7480SOL     OW34075   3.261   4.004   8.439 -0.0038 -0.2673  0.3948
 7480SOL    HW134076   3.344   4.041   8.469  1.2197 -2.6386 -0.0793
 7480SOL    HW234077   3.287   3.994   8.348 -0.0130  1.5827  0.1817
 7481SOL     OW34078   0.049   1.986  12.800  0.3040  0.3155  0.1314
 7481SOL    HW134079   0.007   2.014  12.881 -2.0539 -1.6841 -0.3931
 7481SOL    HW234080   0.134   1.952  12.828 -0.3603 -1.1426  0.3986
 7482SOL     OW34081   4.003   4.415   9.201 -0.5415  0.2930  0.3177
 7482SOL    HW134082   3.969   4.326   9.203 -1.7420  0.7245 -0.6604
 7482SOL    HW234083   3.965   4.467   9.130 -1.8926 -0.4718  0.4819
 7483SOL     OW34084   1.360   0.293   6.376  0.1148  0.5323 -0.2087
 7483SOL    HW134085   1.420   0.267   6.446 -2.5678 -0.0292  1.8708
 7483SOL    HW234086   1.343   0.212   6.328 -1.7859  1.2863 -0.8144
 7484SOL     OW34087   3.024   2.728   6.200  0.4783  0.6788 -0.0876
 7484SOL    HW134088   3.082   2.714   6.124  2.5884  1.9180  1.2883
 7484SOL    HW234089   3.085   2.746   6.272 -2.2669  2.6577  1.7177
 7485SOL     OW34090   1.023   0.801   8.786  0.0352  0.4344 -0.6301
 7485SOL    HW134091   0.954   0.839   8.732 -1.1592  0.1169  0.6680
 7485SOL    HW234092   1.022   0.720   8.735  2.6579  0.8323 -1.3028
 7486SOL     OW34093   1.365   3.326   0.833  0.6504  0.4013  0.5073
 7486SOL    HW134094   1.289   3.331   0.775  0.9210 -1.1190  0.0179
 7486SOL    HW234095   1.355   3.413   0.872 -0.0768  0.9022 -0.7979
 7487SOL     OW34096   2.698   0.507   4.405 -0.1819 -0.2348  0.5497
 7487SOL    HW134097   2.624   0.466   4.362  0.1332  0.0489 -0.2573
 7487SOL    HW234098   2.703   0.590   4.358 -1.2221 -1.9440 -2.5772
 7488SOL     OW34099   4.587   2.847   6.942 -0.0471  0.1409  1.0115
 7488SOL    HW134100   4.505   2.813   6.978  0.7262 -1.1590  1.5628
 7488SOL    HW234101   4.657   2.804   6.992  2.5959  0.6206 -2.2592
 7489SOL     OW34102   2.487   3.985   3.942 -0.0395 -0.1025 -0.0264
 7489SOL    HW134103   2.399   3.951   3.925  0.3833 -1.4515  0.4203
 7489SOL    HW234104   2.475   4.013   4.033 -3.5150 -1.4058 -0.0716
 7490SOL     OW34105   0.821   0.419   2.820  0.3131 -0.0062 -0.1141
 7490SOL    HW134106   0.830   0.437   2.913 -1.1329  0.4499 -0.0526
 7490SOL    HW234107   0.731   0.450   2.806  0.2678  0.2479  0.7690
 7491SOL     OW34108   2.732   1.142   3.177  0.2898  0.2051  0.1306
 7491SOL    HW134109   2.679   1.083   3.123  0.7889  0.8339 -1.0340
 7491SOL    HW234110   2.761   1.210   3.116  2.3194 -2.0096 -1.3609
 7492SOL     OW34111   0.041   2.538  10.801  0.1092  0.3057 -0.3191
 7492SOL    HW134112   4.706   2.598  10.796 -0.3831 -0.2211  0.5810
 7492SOL    HW234113   0.076   2.556  10.889 -2.3598 -1.0333  0.9375
 7493SOL     OW34114   1.138   1.192   2.347  0.3749 -0.5383  0.8010
 7493SOL    HW134115   1.058   1.240   2.325  1.3186 -0.0496 -1.6108
 7493SOL    HW234116   1.175   1.177   2.260  0.4246  1.2557  0.4958
 7494SOL     OW34117   4.391   1.119   4.448  0.6706  0.0573 -0.3600
 7494SOL    HW134118   4.484   1.131   4.427  0.9340  0.2285  0.9230
 7494SOL    HW234119   4.387   1.025   4.467  1.8355 -0.1358 -1.0413
 7495SOL     OW34120   3.079   3.240   4.177  0.7292 -0.4866  0.5405
 7495SOL    HW134121   3.063   3.246   4.272 -1.3115  3.1243 -0.0621
 7495SOL    HW234122   3.171   3.265   4.173  0.1955  1.3528 -0.2601
 7496SOL     OW34123   0.620   3.877   8.898  0.2202  0.3331 -0.5808
 7496SOL    HW134124   0.677   3.939   8.942 -1.8329  2.0397 -0.3196
 7496SOL    HW234125   0.679   3.849   8.828  0.8479  0.4502 -0.0930
 7497SOL     OW34126   3.719   3.674  14.140  0.5921  0.2927  0.7901
 7497SOL    HW134127   3.758   3.678  14.227  3.0625 -0.3587 -0.2714
 7497SOL    HW234128   3.680   3.587  14.136  3.2757 -0.9174  1.1452
 7498SOL     OW34129   0.747   3.651   7.495  0.1366  0.3059 -0.0156
 7498SOL    HW134130   0.827   3.612   7.459  0.3630  0.5197  0.2477
 7498SOL    HW234131   0.773   3.743   7.484  1.3578  0.0971  1.1465
 7499SOL     OW34132   2.692   4.416  11.207  0.1040 -0.5324 -0.0117
 7499SOL    HW134133   2.676   4.338  11.259  1.7917 -0.9187 -0.0634
 7499SOL    HW234134   2.757   4.384  11.145  2.5531  0.3149  2.1371
 7500SOL     OW34135   0.818   2.133   5.476  0.3348  0.3481  0.6625
 7500SOL    HW134136   0.733   2.115   5.517  0.4866 -0.5401  0.5673
 7500SOL    HW234137   0.852   2.047   5.453  0.8782  1.6812 -3.3576
 7501SOL     OW34138   1.831   4.158  12.570  0.1790 -0.2554  0.5033
 7501SOL    HW134139   1.868   4.123  12.650 -1.1447  0.2363  1.3263
 7501SOL    HW234140   1.890   4.118  12.506  0.2887 -1.1357  1.1544
 7502SOL     OW34141   1.020   1.659  10.422  0.3509  0.0751 -1.0666
 7502SOL    HW134142   1.062   1.723  10.365  0.5815  0.6500 -0.2592
 7502SOL    HW234143   1.095   1.634  10.477 -1.3675 -0.9438  0.8122
 7503SOL     OW34144   3.536   1.744   4.765 -0.4786 -1.0163 -0.2991
 7503SOL    HW134145   3.528   1.740   4.670  3.6605  0.5351 -0.7440
 7503SOL    HW234146   3.586   1.826   4.769 -0.0330 -1.2680 -0.6641
 7504SOL     OW34147   0.219   2.156   8.496 -0.0360 -0.0122  0.1833
 7504SOL    HW134148   0.205   2.234   8.549 -3.6313 -1.6361  1.6188
 7504SOL    HW234149   0.136   2.152   8.448  0.3207 -1.3474 -0.3192
 7505SOL     OW34150   2.376   0.408   6.130  0.2126  0.3071  0.3248
 7505SOL    HW134151   2.296   0.370   6.093 -0.7981  3.0424 -0.2912
 7505SOL    HW234152   2.383   0.498   6.097 -1.2142  0.4212  0.3315
 7506SOL     OW34153   4.015   4.096   6.582 -0.5786 -0.1992  0.1581
 7506SOL    HW134154   3.930   4.140   6.579 -0.1109  0.8107  1.7705
 7506SOL    HW234155   4.026   4.086   6.677  3.0874 -1.8439 -0.4475
 7507SOL     OW34156   1.085   1.852   6.022  0.7644 -0.1993  0.4322
 7507SOL    HW134157   1.007   1.852   6.078 -1.0441 -1.1084 -2.0669
 7507SOL    HW234158   1.045   1.833   5.938  0.1130 -2.1676  1.1816
 7508SOL     OW34159   0.701   1.086   7.605 -0.9195  0.0368  1.0036
 7508SOL    HW134160   0.642   1.030   7.555  0.0982 -0.1384  0.0063
 7508SOL    HW234161   0.641   1.161   7.605  1.2893  1.8017  1.9934
 7509SOL     OW34162   2.277   2.827   8.305 -0.2516  0.2535  0.2284
 7509SOL    HW134163   2.262   2.740   8.342  0.5600 -0.3385 -0.8281
 7509SOL    HW234164   2.247   2.819   8.215  0.1795 -0.0317  0.1082
 7510SOL     OW34165   1.951   2.136   5.735  0.6078 -0.0544 -0.3686
 7510SOL    HW134166   1.902   2.192   5.676  1.2447  1.7156  0.7484
 7510SOL    HW234167   2.044   2.148   5.713  0.2769 -1.7599 -2.6526
 7511SOL     OW34168   3.697   3.257   6.729  0.2070 -0.0016  0.1105
 7511SOL    HW134169   3.728   3.259   6.819 -2.5280  1.7759  0.9760
 7511SOL    HW234170   3.787   3.256   6.694  0.0023  0.0361 -0.4143
 7512SOL     OW34171   0.399   2.322  15.228  0.3762  0.6351 -0.2734
 7512SOL    HW134172   0.306   2.311  15.246  0.4356  0.0902 -0.2987
 7512SOL    HW234173   0.429   2.233  15.251  1.6533  0.9438 -0.7863
 7513SOL     OW34174   1.771   0.715   6.894 -0.1299 -0.3199 -0.4737
 7513SOL    HW134175   1.770   0.802   6.854  0.6377 -0.9396 -1.8260
 7513SOL    HW234176   1.691   0.676   6.858  1.1151 -1.8808 -1.5182
 7514SOL     OW34177   2.223   0.811   7.660  0.4462 -0.7890 -0.6675
 7514SOL    HW134178   2.214   0.884   7.599  0.1863  1.0780  1.6121
 7514SOL    HW234179   2.262   0.741   7.608  0.2001 -1.1482 -0.3626
 7515SOL     OW34180   3.929   4.167   7.554 -0.3268 -0.1034  0.2094
 7515SOL    HW134181   3.837   4.142   7.555  0.1652 -1.9728 -0.9994
 7515SOL    HW234182   3.926   4.261   7.571  0.5774  0.0356 -0.4167
 7516SOL     OW34183   1.697   1.352   8.988  0.0066 -0.1938  0.0893
 7516SOL    HW134184   1.715   1.289   9.058 -0.1041 -0.0853  0.2162
 7516SOL    HW234185   1.630   1.403   9.034  0.9437 -0.0432  1.3060
 7517SOL     OW34186   0.382   3.951   8.841 -0.4987 -0.5498 -0.3986
 7517SOL    HW134187   0.477   3.941   8.836 -0.3130  1.3775 -0.8160
 7517SOL    HW234188   0.358   3.886   8.907  1.1788  0.0116  0.7590
 7518SOL     OW34189   4.331   1.705  12.099  0.3077 -0.3284 -0.5376
 7518SOL    HW134190   4.265   1.661  12.152  1.9022 -1.5748  0.3962
 7518SOL    HW234191   4.291   1.770  12.041 -1.4831 -0.4313  0.5698
 7519SOL     OW34192   4.320   2.386  11.150 -0.4365 -0.1762  0.1896
 7519SOL    HW134193   4.387   2.365  11.215 -0.4466 -3.1296 -0.7692
 7519SOL    HW234194   4.281   2.303  11.126 -0.7561 -0.7227  2.5949
 7520SOL     OW34195   2.779   3.030   7.202 -0.2227 -0.4249  0.1787
 7520SOL    HW134196   2.854   3.089   7.210 -1.3288  1.2440 -1.7006
 7520SOL    HW234197   2.728   3.070   7.273  1.6008 -2.6874  2.7768
 7521SOL     OW34198   4.333   1.046  11.215  0.2668  0.1762 -0.2416
 7521SOL    HW134199   4.284   1.078  11.291 -1.1574  0.8652 -1.4335
 7521SOL    HW234200   4.306   0.955  11.206  0.7042 -0.1066  1.3357
 7522SOL     OW34201   3.835   0.050  17.411  0.4344  0.2051  0.3039
 7522SOL    HW134202   3.787   4.720  17.457 -0.9818 -1.5267 -3.8510
 7522SOL    HW234203   3.808   0.130  17.455 -1.1659  1.1779 -2.4555
 7523SOL     OW34204   3.527   3.505   2.158 -0.0171 -0.8786  0.2584
 7523SOL    HW134205   3.568   3.472   2.238  0.4728  1.2342  0.8834
 7523SOL    HW234206   3.585   3.580   2.140  0.5531 -1.6629 -1.1710
 7524SOL     OW34207   2.286   3.893   8.968  0.6041 -0.2586 -0.0023
 7524SOL    HW134208   2.236   3.897   8.887  0.2266 -0.3694  0.2256
 7524SOL    HW234209   2.262   3.977   9.006  0.5565 -0.8622  1.3046
 7525SOL     OW34210   0.299   3.865   1.568  0.4158 -0.6930  0.3072
 7525SOL    HW134211   0.264   3.851   1.656 -1.5078 -0.7110 -0.4585
 7525SOL    HW234212   0.225   3.830   1.518  0.0863  1.1778 -0.5282
 7526SOL     OW34213   0.361   4.224   4.953 -0.0028  0.6695 -0.2619
 7526SOL    HW134214   0.375   4.194   5.043  0.0800  0.1528 -0.4501
 7526SOL    HW234215   0.352   4.148   4.897  1.1614 -0.9758  1.7841
 7527SOL     OW34216   1.621   1.646   4.648 -0.2396 -0.0507  0.0820
 7527SOL    HW134217   1.612   1.682   4.560 -1.9714 -2.0994 -0.5804
 7527SOL    HW234218   1.560   1.707   4.689 -1.5603 -2.4566  1.6836
 7528SOL     OW34219   2.655   2.549   3.633  0.3205  0.4573 -0.2727
 7528SOL    HW134220   2.617   2.635   3.618  2.3076  1.1390 -1.4956
 7528SOL    HW234221   2.705   2.555   3.714 -1.5458 -0.3940  0.9461
 7529SOL     OW34222   2.310   4.617  15.282 -0.4917 -0.6795 -0.1074
 7529SOL    HW134223   2.356   4.638  15.364  0.0305 -1.4360 -0.2008
 7529SOL    HW234224   2.283   4.698  15.240  1.3518  0.4764  0.9209
 7530SOL     OW34225   2.310   2.317  15.199 -0.2675 -0.0036 -0.2621
 7530SOL    HW134226   2.292   2.224  15.186 -1.2507  0.1207  0.2456
 7530SOL    HW234227   2.283   2.349  15.113 -1.7100  2.3428  1.0502
 7531SOL     OW34228   2.096   1.334   4.238  0.3616  0.0987 -0.1341
 7531SOL    HW134229   2.122   1.422   4.265 -0.4410  0.1687  0.3936
 7531SOL    HW234230   2.092   1.284   4.320  1.1415 -0.0828 -0.1986
 7532SOL     OW34231   4.554   4.410  16.836 -0.2212 -0.4962 -0.4346
 7532SOL    HW134232   4.488   4.467  16.875 -2.1509 -2.0463 -1.4018
 7532SOL    HW234233   4.565   4.466  16.759  0.3484  0.7259  0.5384
 7533SOL     OW34234   0.612   1.584   9.596  0.0546  0.3198  0.1302
 7533SOL    HW134235   0.567   1.517   9.647  0.2217 -0.8005 -1.2102
 7533SOL    HW234236   0.564   1.584   9.513 -1.1186 -0.1216  0.8081
 7534SOL     OW34237   2.590   0.120   7.037 -0.0453  0.2535 -0.1360
 7534SOL    HW134238   2.558   0.209   7.050  0.6856  0.2929  1.4112
 7534SOL    HW234239   2.676   0.140   7.001  0.7507 -0.2247  1.4904
 7535SOL     OW34240   2.531   4.447   6.283  0.4422 -0.4369 -0.3869
 7535SOL    HW134241   2.523   4.456   6.378  0.2974  0.1843 -0.4530
 7535SOL    HW234242   2.473   4.519   6.257  0.4713  0.8142  3.0306
 7536SOL     OW34243   0.686   1.139   2.807  0.2035 -0.2541  0.7844
 7536SOL    HW134244   0.755   1.196   2.772 -0.0657  0.3850  1.2798
 7536SOL    HW234245   0.728   1.059   2.837  1.3650  0.0239 -0.1156
 7537SOL     OW34246   1.653   2.938   2.849  0.4460  0.9713 -0.1352
 7537SOL    HW134247   1.635   2.847   2.874  0.4551  0.1971 -2.8454
 7537SOL    HW234248   1.748   2.943   2.838  0.7081 -1.0037  1.2926
 7538SOL     OW34249   2.882   4.088   5.767  0.2824  0.1686  0.0367
 7538SOL    HW134250   2.944   4.148   5.726 -1.1550  0.6226 -1.4730
 7538SOL    HW234251   2.930   4.014   5.805 -0.6949 -0.8219 -0.6552
 7539SOL     OW34252   1.511   1.671   6.089 -0.1383 -0.0786 -0.6290
 7539SOL    HW134253   1.421   1.640   6.081 -0.1279  0.0388 -1.1756
 7539SOL    HW234254   1.510   1.737   6.019 -2.3855  0.0052 -0.5162
 7540SOL     OW34255   2.867   4.638   6.148 -0.0615 -0.1664 -0.3163
 7540SOL    HW134256   2.865   4.626   6.242  0.3692 -1.6719 -0.5041
 7540SOL    HW234257   2.803   4.706   6.126 -0.3514 -0.3510 -0.0401
 7541SOL     OW34258   0.169   3.459   7.255  0.0451 -0.0215  0.3511
 7541SOL    HW134259   0.193   3.399   7.184 -0.2297 -0.4883  0.6542
 7541SOL    HW234260   0.248   3.512   7.261 -1.9364  3.2037 -1.8340
 7542SOL     OW34261   0.326   2.454  14.352  0.5157  0.9124 -0.2097
 7542SOL    HW134262   0.371   2.496  14.279 -0.0703 -1.8313 -2.1545
 7542SOL    HW234263   0.356   2.506  14.427  0.1298 -1.3062  1.5210
 7543SOL     OW34264   4.114   2.806   6.912  0.4870 -0.6766  0.3796
 7543SOL    HW134265   4.084   2.771   6.828 -2.7242  0.7956  0.9173
 7543SOL    HW234266   4.095   2.729   6.965 -0.9738 -0.8830 -0.4463
 7544SOL     OW34267   2.052   3.442   3.036 -0.6026  0.0262 -0.9724
 7544SOL    HW134268   2.116   3.373   3.053 -2.1032 -0.9954  0.5518
 7544SOL    HW234269   2.038   3.486   3.120  2.5356  1.7473 -1.3626
 7545SOL     OW34270   2.663   2.591   9.272  1.0095  0.0552 -0.0387
 7545SOL    HW134271   2.678   2.675   9.228  1.3831  1.2655  2.4046
 7545SOL    HW234272   2.574   2.574   9.243  1.0006  1.4086 -0.8157
 7546SOL     OW34273   3.121   3.381   9.373  0.4336 -0.3095 -0.5151
 7546SOL    HW134274   3.170   3.349   9.448 -0.3872 -2.6286 -0.9626
 7546SOL    HW234275   3.031   3.371   9.405  1.0701 -0.5458  1.1892
 7547SOL     OW34276   4.215   0.422   4.136 -0.0451  0.0930 -0.0817
 7547SOL    HW134277   4.196   0.374   4.055  1.6504  1.5172 -1.3199
 7547SOL    HW234278   4.131   0.430   4.181  0.3691  2.4809  0.3029
 7548SOL     OW34279   2.312   4.371   5.713 -0.2222  0.0320 -0.4318
 7548SOL    HW134280   2.376   4.306   5.685 -1.7446 -1.1990 -1.0271
 7548SOL    HW234281   2.233   4.318   5.706 -1.0333  0.9605  1.5792
 7549SOL     OW34282   0.896   0.353   1.917 -0.1172 -0.6318 -0.3468
 7549SOL    HW134283   0.867   0.317   1.833  0.8827 -3.5412  0.5675
 7549SOL    HW234284   0.960   0.294   1.955  1.4021  0.0149 -1.9015
 7550SOL     OW34285   3.414   2.763  12.088 -0.2702  0.2082 -0.0537
 7550SOL    HW134286   3.406   2.761  12.184  0.3849 -0.5273 -0.0183
 7550SOL    HW234287   3.332   2.801  12.056 -0.3335  0.4912  0.4431
 7551SOL     OW34288   1.637   0.162   2.728 -0.2496 -0.1218 -0.3872
 7551SOL    HW134289   1.706   0.110   2.769 -1.7053 -3.0060 -1.6736
 7551SOL    HW234290   1.638   0.245   2.776 -0.6615 -1.1757  1.4281
 7552SOL     OW34291   4.191   2.743   1.719  0.2910 -0.1382 -0.4829
 7552SOL    HW134292   4.137   2.738   1.798 -0.9090 -0.9638 -1.3700
 7552SOL    HW234293   4.191   2.839   1.723  0.6887 -0.1394 -0.5095
 7553SOL     OW34294   1.803   0.457  13.912 -0.4311  0.1141  0.8010
 7553SOL    HW134295   1.731   0.435  13.853  1.3407  0.0252 -1.3431
 7553SOL    HW234296   1.797   0.551  13.895 -0.6599  0.0943  0.7782
 7554SOL     OW34297   0.894   1.042   3.264 -0.4001 -0.1342 -0.0998
 7554SOL    HW134298   0.910   1.017   3.355  0.8064 -2.7930 -1.0417
 7554SOL    HW234299   0.829   1.112   3.271  0.5157  0.4653  2.3671
 7555SOL     OW34300   2.843   3.032   3.865 -0.0273  0.1605  0.0186
 7555SOL    HW134301   2.877   2.950   3.829  0.1400 -0.4812  1.6253
 7555SOL    HW234302   2.860   3.024   3.959 -3.7130  0.5663  0.6979
 7556SOL     OW34303   2.407   1.366   1.553 -0.6781  0.4267  0.1960
 7556SOL    HW134304   2.349   1.422   1.501  0.1441  0.6929 -0.4202
 7556SOL    HW234305   2.431   1.310   1.479 -1.0727  0.3096  0.1554
 7557SOL     OW34306   4.312   4.022   6.525  0.5526  0.4667 -0.1299
 7557SOL    HW134307   4.340   4.112   6.540 -1.1180  0.5189  2.7263
 7557SOL    HW234308   4.216   4.028   6.526  0.6009  1.2442 -0.6887
 7558SOL     OW34309   4.398   4.019   1.806  0.2277 -0.4431  0.2590
 7558SOL    HW134310   4.306   4.035   1.828 -0.0679 -1.5694 -0.1310
 7558SOL    HW234311   4.449   4.081   1.858 -1.3592  1.5240 -0.5235
 7559SOL     OW34312   3.096   3.262  10.420  0.3512  0.3094 -0.2679
 7559SOL    HW134313   3.009   3.225  10.430 -0.1342  1.0187 -1.8924
 7559SOL    HW234314   3.150   3.212  10.481  1.4187 -0.6661 -2.0146
 7560SOL     OW34315   3.809   0.383   8.456 -0.2922 -0.0156  0.0351
 7560SOL    HW134316   3.730   0.404   8.405  1.9676  0.7559 -3.1959
 7560SOL    HW234317   3.811   0.290   8.433 -1.9424 -0.1667  0.5145
 7561SOL     OW34318   1.816   3.136   3.525  0.0534 -0.3493  0.3617
 7561SOL    HW134319   1.808   3.069   3.458 -1.7676  1.3101 -1.0761
 7561SOL    HW234320   1.888   3.105   3.580  1.3494 -1.0854 -1.7422
 7562SOL     OW34321   3.514   3.740  17.340  0.2817  0.4365  0.1169
 7562SOL    HW134322   3.418   3.734  17.335  0.3433  1.1187 -1.5103
 7562SOL    HW234323   3.528   3.647  17.323  1.1904  0.9416 -1.7686
 7563SOL     OW34324   1.895   3.804   6.019 -0.3802  0.0629  0.0360
 7563SOL    HW134325   1.837   3.738   5.982  0.3158 -0.0634 -0.8216
 7563SOL    HW234326   1.982   3.763   6.013 -0.3852  0.2286 -1.0801
 7564SOL     OW34327   4.576   2.704   4.848 -0.0858  1.0656  0.8184
 7564SOL    HW134328   4.531   2.620   4.851 -1.2722  1.7053  1.0194
 7564SOL    HW234329   4.663   2.678   4.878 -1.2031 -2.4014  1.0064
 7565SOL     OW34330   3.729   0.095   7.530  0.1992  0.8787 -0.4395
 7565SOL    HW134331   3.667   0.165   7.510 -1.4396  0.2284  2.3207
 7565SOL    HW234332   3.682   0.022   7.492  1.1250  0.2945 -0.4471
 7566SOL     OW34333   0.033   0.454   1.897  0.0101 -0.0564 -0.1742
 7566SOL    HW134334   0.026   0.434   1.804  0.1519  1.6772 -0.5528
 7566SOL    HW234335   4.704   0.520   1.906 -0.5460 -0.4963 -1.2736
 7567SOL     OW34336   0.957   4.512   1.808 -0.1326 -0.1726  0.5454
 7567SOL    HW134337   0.955   4.441   1.872 -0.1885 -0.9439 -0.3078
 7567SOL    HW234338   0.873   4.557   1.817  0.0242  0.6316 -2.0305
 7568SOL     OW34339   4.426   3.800   6.642  0.2436  0.1728 -1.0591
 7568SOL    HW134340   4.379   3.871   6.599 -0.7629 -0.1222 -0.4532
 7568SOL    HW234341   4.361   3.734   6.664  1.6808  0.1289  3.0772
 7569SOL     OW34342   1.182   1.729  14.027  0.4773 -0.3150 -0.0453
 7569SOL    HW134343   1.231   1.714  13.946  1.1397 -1.5104  0.5884
 7569SOL    HW234344   1.105   1.776  13.996  2.2374  1.2198 -2.0854
 7570SOL     OW34345   2.804   2.335   4.757 -0.2130 -0.2363  0.9282
 7570SOL    HW134346   2.880   2.281   4.779  1.2887  1.1878 -0.7673
 7570SOL    HW234347   2.832   2.422   4.787 -1.0388  1.1161 -2.2539
 7571SOL     OW34348   4.695   4.315   3.357 -0.3835  0.0358 -0.4655
 7571SOL    HW134349   0.031   4.350   3.403 -0.6257  2.9174 -2.3142
 7571SOL    HW234350   4.710   4.360   3.274 -0.4222 -0.5750 -0.8004
 7572SOL     OW34351   2.648   3.622   3.884 -0.6265  0.1844  0.5951
 7572SOL    HW134352   2.717   3.687   3.871 -1.1563  0.6739  0.2301
 7572SOL    HW234353   2.651   3.568   3.805 -1.2372  0.8974  0.0845
 7573SOL     OW34354   3.545   4.693   4.757  0.0344 -0.2243  0.2013
 7573SOL    HW134355   3.632   4.671   4.724  0.4856 -1.0018  1.9243
 7573SOL    HW234356   3.543   4.636   4.834 -4.3631 -0.2146  0.1125
 7574SOL     OW34357   4.112   4.099   3.695 -0.4819 -0.2062 -0.8057
 7574SOL    HW134358   4.174   4.150   3.747  2.8722 -1.2599 -3.7452
 7574SOL    HW234359   4.157   4.017   3.712  1.8743  1.6876  2.1646
 7575SOL     OW34360   4.388   2.005   3.017 -0.2629 -0.0941 -0.3084
 7575SOL    HW134361   4.344   2.082   3.053 -1.5531 -0.0891 -1.8980
 7575SOL    HW234362   4.475   2.040   2.996  0.0599  0.1456  1.4151
 7576SOL     OW34363   4.648   4.538   4.349 -0.3192 -0.6336  0.8048
 7576SOL    HW134364   4.611   4.627   4.348 -0.8956 -0.8767  0.0160
 7576SOL    HW234365   4.661   4.519   4.256  1.1013  2.1565  0.4468
 7577SOL     OW34366   4.627   3.985   2.264  0.7531 -0.2191  0.1648
 7577SOL    HW134367   4.653   3.978   2.172 -2.1406  0.4017 -0.6957
 7577SOL    HW234368   4.669   4.066   2.292  0.7844  0.5658 -2.2057
 7578SOL     OW34369   4.236   3.632   6.762  0.1826 -0.1759  0.0120
 7578SOL    HW134370   4.206   3.543   6.745 -2.8839  0.7152  0.8348
 7578SOL    HW234371   4.231   3.632   6.858  0.1802  2.1732 -0.0004
 7579SOL     OW34372   0.035   0.239   3.708  0.0241 -0.3062  0.2723
 7579SOL    HW134373   0.049   0.193   3.625 -1.5206  0.6983 -0.5517
 7579SOL    HW234374   4.682   0.259   3.692 -0.3826 -1.6030  1.0039
 7580SOL     OW34375   3.159   1.000   2.723  0.2757 -0.0438  0.3800
 7580SOL    HW134376   3.150   0.982   2.816  0.1043  2.1361  0.7787
 7580SOL    HW234377   3.229   0.941   2.694  1.8418  1.5536  0.9464
 7581SOL     OW34378   0.562   2.916   7.885 -0.1886  0.2626 -0.4772
 7581SOL    HW134379   0.508   2.838   7.870  0.3660 -0.3827  0.8028
 7581SOL    HW234380   0.497   2.976   7.921 -0.0502  1.6004 -2.4660
 7582SOL     OW34381   0.468   1.281   6.076  0.3852 -0.1284  0.3497
 7582SOL    HW134382   0.560   1.290   6.051  0.4506  0.0136  0.6411
 7582SOL    HW234383   0.432   1.327   6.000  0.5557 -1.0600 -0.3018
 7583SOL     OW34384   1.513   0.294   3.276 -0.2103 -0.4546 -0.1328
 7583SOL    HW134385   1.460   0.248   3.211  0.1475 -2.2179  0.8088
 7583SOL    HW234386   1.601   0.280   3.243  0.2451  0.0652  0.8455
 7584SOL     OW34387   4.569   3.639   8.887 -0.4969  0.0942  0.1747
 7584SOL    HW134388   4.550   3.565   8.945 -1.0008  0.7324  0.8293
 7584SOL    HW234389   4.573   3.588   8.806  0.6374 -0.6033  0.6748
 7585SOL     OW34390   3.614   4.315   3.456 -0.3183  0.0832  0.0933
 7585SOL    HW134391   3.647   4.383   3.515 -1.9199  1.6474 -0.8143
 7585SOL    HW234392   3.688   4.256   3.467  0.7383  1.5780  1.0594
 7586SOL     OW34393   2.914   2.071   2.481  0.5892 -0.2577 -0.8937
 7586SOL    HW134394   2.819   2.080   2.472  0.3213 -0.7304  1.2287
 7586SOL    HW234395   2.951   2.149   2.439 -0.5819  1.2268  0.8158
 7587SOL     OW34396   0.147   2.028   9.461  0.3834  0.5891  0.3726
 7587SOL    HW134397   0.076   1.975   9.498 -0.5047  0.5510 -1.3956
 7587SOL    HW234398   0.109   2.114   9.447 -0.9531 -0.6796 -3.7998
 7588SOL     OW34399   1.356   1.497   5.215  0.1690  0.2939  0.1779
 7588SOL    HW134400   1.351   1.401   5.211  0.1199  0.2783  0.6435
 7588SOL    HW234401   1.288   1.515   5.150  1.9715  0.1795 -1.7487
 7589SOL     OW34402   3.509   0.547   9.339  0.3941  0.2351  0.5785
 7589SOL    HW134403   3.416   0.544   9.365  0.0930 -1.7272 -0.7347
 7589SOL    HW234404   3.535   0.455   9.336  2.0635  0.5816  3.7738
 7590SOL     OW34405   3.827   1.673   3.966 -0.9541  0.4893  0.6205
 7590SOL    HW134406   3.775   1.646   4.042  1.9131 -1.5064  1.8745
 7590SOL    HW234407   3.877   1.595   3.942  0.0119  0.5197  2.5156
 7591SOL     OW34408   0.207   0.901  12.785  0.2366  0.4314 -0.1790
 7591SOL    HW134409   0.278   0.930  12.728  0.7729  1.2713  0.9045
 7591SOL    HW234410   0.240   0.939  12.867  0.1935  0.7822 -0.3240
 7592SOL     OW34411   0.869   0.057   4.448  0.1756 -0.2939 -0.4104
 7592SOL    HW134412   0.932   0.080   4.380  0.2019  1.2772  0.1271
 7592SOL    HW234413   0.793   0.109   4.421  2.3743  3.7730  1.1358
 7593SOL     OW34414   0.172   1.000  17.303  0.0791 -0.1020 -0.3865
 7593SOL    HW134415   0.208   0.949  17.376 -1.6428  1.0958  1.2801
 7593SOL    HW234416   0.151   1.085  17.341 -1.0659 -0.5116 -0.1292
 7594SOL     OW34417   0.534   3.357   3.765  0.9130 -0.0921  0.4311
 7594SOL    HW134418   0.542   3.273   3.810  0.2112  0.5234  1.6993
 7594SOL    HW234419   0.455   3.389   3.809  0.4948  0.1885 -0.5331
 7595SOL     OW34420   0.862   1.515   3.836  0.2864 -0.4725  0.3789
 7595SOL    HW134421   0.772   1.547   3.839  0.1957 -0.6848 -0.1877
 7595SOL    HW234422   0.848   1.422   3.852  0.1884 -0.6835 -0.9855
 7596SOL     OW34423   3.696   0.084   9.838  0.2321  0.0421  0.4628
 7596SOL    HW134424   3.761   0.154   9.830  0.4762 -0.3711 -1.2103
 7596SOL    HW234425   3.740   0.004   9.810 -2.1958 -1.0277 -0.3174
 7597SOL     OW34426   3.223   0.827   1.271  0.1270  0.0195  1.0053
 7597SOL    HW134427   3.261   0.906   1.234  3.1130 -1.4097  1.0569
 7597SOL    HW234428   3.150   0.855   1.327 -0.8359 -1.5931  0.5471
 7598SOL     OW34429   4.646   0.908   1.870  0.2297  0.2354 -0.6472
 7598SOL    HW134430   4.552   0.892   1.879  0.6585 -0.2418  3.1214
 7598SOL    HW234431   4.663   0.946   1.956 -0.6790  1.0374 -0.8181
 7599SOL     OW34432   1.943   2.488   6.125  0.1464  0.1588  1.0355
 7599SOL    HW134433   2.000   2.446   6.061 -0.1544  1.3241  0.0174
 7599SOL    HW234434   1.913   2.411   6.175 -1.4564 -0.4621 -0.8789
 7600SOL     OW34435   3.482   2.357  10.338  0.0564 -0.0007 -0.3017
 7600SOL    HW134436   3.520   2.270  10.323 -2.8543 -1.1736 -0.7535
 7600SOL    HW234437   3.489   2.356  10.434 -1.6470  1.0080 -0.1755
 7601SOL     OW34438   4.258   2.226   3.105  0.3170  0.0661  0.1261
 7601SOL    HW134439   4.229   2.304   3.057 -1.5999  0.9113  2.6859
 7601SOL    HW234440   4.210   2.222   3.188  1.1740  2.5945  0.7510
 7602SOL     OW34441   3.359   3.245  16.197  0.3669  0.0196 -0.3490
 7602SOL    HW134442   3.277   3.267  16.240 -1.1189 -0.2812 -3.0039
 7602SOL    HW234443   3.375   3.153  16.218 -0.7827 -0.3386 -1.0539
 7603SOL     OW34444   4.166   4.062  12.459  0.5153 -0.4701  0.2185
 7603SOL    HW134445   4.167   3.983  12.404 -4.4324 -0.2643 -0.2184
 7603SOL    HW234446   4.088   4.104  12.422  0.8226 -0.3565 -0.2994
 7604SOL     OW34447   3.852   2.936   8.743  0.2647  0.0401  1.1781
 7604SOL    HW134448   3.854   2.931   8.839 -0.9250 -0.9254  1.1520
 7604SOL    HW234449   3.767   2.980   8.734 -0.5766 -1.6027  0.9976
 7605SOL     OW34450   3.929   4.500  12.292  0.4786 -0.3835 -0.2607
 7605SOL    HW134451   3.887   4.415  12.276 -2.3532  0.9350  0.2370
 7605SOL    HW234452   3.948   4.533  12.204  0.3220 -1.3656 -0.6724
 7606SOL     OW34453   1.204   4.470  15.551 -0.2647 -0.1314  0.0337
 7606SOL    HW134454   1.134   4.505  15.605  1.1924  0.5058  1.5175
 7606SOL    HW234455   1.251   4.413  15.613 -1.4388  1.7279  2.6491
 7607SOL     OW34456   4.652   0.141  16.547  0.1157 -0.2083 -0.6111
 7607SOL    HW134457   4.565   0.104  16.532 -0.1204 -0.7370  1.9909
 7607SOL    HW234458   4.616   0.204  16.610  3.5080 -0.9876  2.1419
 7608SOL     OW34459   0.463   1.845   6.136 -0.2770  0.0872 -0.6366
 7608SOL    HW134460   0.500   1.917   6.187 -0.3160 -0.3038 -0.0608
 7608SOL    HW234461   0.376   1.878   6.117 -0.0016  0.5482 -1.1184
 7609SOL     OW34462   1.562   0.023   2.293  0.8818 -0.0382  0.3684
 7609SOL    HW134463   1.505   0.025   2.370  1.0573  2.4481  0.4575
 7609SOL    HW234464   1.632   4.701   2.314  1.1557 -0.5855 -2.1749
 7610SOL     OW34465   0.716   1.816   2.960  0.1458  0.0412 -0.5403
 7610SOL    HW134466   0.794   1.834   3.014  1.9750  0.0725 -3.1999
 7610SOL    HW234467   0.645   1.782   3.015  0.3540  3.0582  1.5750
 7611SOL     OW34468   4.030   2.574   5.560  0.0782  0.0285  0.1705
 7611SOL    HW134469   4.064   2.487   5.581  0.3946 -0.1174 -0.9209
 7611SOL    HW234470   3.965   2.589   5.628  0.8341  2.4323  0.3713
 7612SOL     OW34471   2.299   2.707  16.028 -0.3066 -0.1045  0.8803
 7612SOL    HW134472   2.281   2.637  15.966  0.2252  0.3501  0.2147
 7612SOL    HW234473   2.253   2.678  16.107 -2.8184 -1.2937 -1.0068
 7613SOL     OW34474   0.231   4.279  12.444  0.5323  0.0654  0.0170
 7613SOL    HW134475   0.188   4.360  12.416 -0.2017 -0.7306 -1.1645
 7613SOL    HW234476   0.179   4.256  12.521  2.3055 -2.4176  0.4800
 7614SOL     OW34477   1.871   0.670   3.699  0.2204 -0.4695  0.0782
 7614SOL    HW134478   1.833   0.659   3.787 -0.3381  1.5796  0.0971
 7614SOL    HW234479   1.795   0.708   3.655  1.2995  0.1682 -1.2212
 7615SOL     OW34480   0.110   4.677   6.606 -0.0863 -0.0039 -0.6329
 7615SOL    HW134481   0.108   0.029   6.633 -0.6366  0.0620 -0.8934
 7615SOL    HW234482   0.180   4.641   6.660  0.4617  3.0631  0.6805
 7616SOL     OW34483   2.224   3.371   8.825  0.2710 -0.1951  0.1724
 7616SOL    HW134484   2.132   3.360   8.848  0.4142 -1.2136  0.2649
 7616SOL    HW234485   2.266   3.358   8.910 -1.9202 -0.4803  1.2208
 7617SOL     OW34486   0.495   2.305  14.923 -0.3051 -0.0917  0.1620
 7617SOL    HW134487   0.516   2.374  14.986  0.5955 -0.3253  0.1084
 7617SOL    HW234488   0.400   2.319  14.916 -0.2550 -0.2430 -0.8237
 7618SOL     OW34489   3.882   1.390   1.828  0.3674  1.0650  0.1979
 7618SOL    HW134490   3.810   1.433   1.874  0.8974  0.4053  1.6398
 7618SOL    HW234491   3.872   1.299   1.854  0.7698  1.4352  1.6303
 7619SOL     OW34492   4.692   1.761   5.197 -0.2462 -0.4920  0.0711
 7619SOL    HW134493   4.599   1.785   5.190  0.3678  1.9540  0.1045
 7619SOL    HW234494   4.724   1.815   5.125 -0.1359  0.2877  0.6963
 7620SOL     OW34495   2.245   0.583   6.477 -0.3736  0.1930  0.2446
 7620SOL    HW134496   2.194   0.503   6.493  0.6354 -0.5298 -0.1806
 7620SOL    HW234497   2.247   0.613   6.568 -0.0467  0.7044  0.0697
 7621SOL     OW34498   3.335   4.368   0.010  0.2243  0.4667 -0.0208
 7621SOL    HW134499   3.265   4.409  17.717  0.5704  0.1639 -0.7466
 7621SOL    HW234500   3.367   4.312  17.697 -1.2250  1.3562 -1.3995
 7622SOL     OW34501   0.116   4.137  16.584  0.4100  0.2012 -0.0301
 7622SOL    HW134502   0.134   4.200  16.654  0.7392  1.8365 -1.5792
 7622SOL    HW234503   0.122   4.057  16.634  2.6076  1.2122  1.3087
 7623SOL     OW34504   1.311   3.641  16.157  0.1474 -0.1552 -0.0590
 7623SOL    HW134505   1.394   3.675  16.123 -0.1136  0.2543 -0.2970
 7623SOL    HW234506   1.278   3.614  16.071  1.5993  0.2280 -0.7301
 7624SOL     OW34507   0.362   1.405   8.993 -0.0449  0.5425  0.1236
 7624SOL    HW134508   0.435   1.458   9.024 -0.0128  0.5888 -0.0351
 7624SOL    HW234509   0.383   1.319   9.030  0.8571  0.8011  0.2077
 7625SOL     OW34510   0.355   3.310  14.114  0.4935  0.0555  0.1773
 7625SOL    HW134511   0.339   3.404  14.115 -0.9429 -0.1791 -0.1694
 7625SOL    HW234512   0.339   3.294  14.021 -2.4216 -0.2556  0.7309
 7626SOL     OW34513   2.820   3.439   9.387  0.0423 -0.3262  0.1622
 7626SOL    HW134514   2.764   3.448   9.464 -0.2921  1.3722 -0.2789
 7626SOL    HW234515   2.793   3.513   9.332 -0.4560  0.6879  1.7878
 7627SOL     OW34516   0.251   2.111   5.369  0.1972  0.4922  0.3386
 7627SOL    HW134517   0.287   2.067   5.445  0.9071 -1.6940 -1.2696
 7627SOL    HW234518   0.159   2.100   5.393  0.4449  0.3660  1.2058
 7628SOL     OW34519   3.812   2.285   7.177  0.1694  0.2265  0.1869
 7628SOL    HW134520   3.829   2.269   7.270 -0.0202 -0.3669  0.1174
 7628SOL    HW234521   3.770   2.371   7.185  0.6462  0.5585 -0.9413
 7629SOL     OW34522   4.002   0.895   6.434 -0.4311  0.3349  0.0665
 7629SOL    HW134523   3.942   0.839   6.482  1.5730 -1.4714  0.4723
 7629SOL    HW234524   3.994   0.869   6.342  1.0163 -1.3058  0.4091
 7630SOL     OW34525   0.366   2.416  13.934  0.7501  0.3404  0.0250
 7630SOL    HW134526   0.422   2.411  14.011  2.4585  1.9709 -1.0981
 7630SOL    HW234527   0.385   2.503  13.900 -0.6102 -0.1328 -1.9342
 7631SOL     OW34528   0.644   2.059   3.996 -0.5996 -0.7244 -0.2147
 7631SOL    HW134529   0.660   2.129   4.060 -2.3258 -2.0882  1.6974
 7631SOL    HW234530   0.734   2.057   3.964 -0.4170  0.3245  0.2215
 7632SOL     OW34531   1.710   3.059  13.042  0.8066  0.0445 -0.1063
 7632SOL    HW134532   1.649   3.005  12.992 -1.1446  2.5189 -0.3790
 7632SOL    HW234533   1.747   2.993  13.101  0.5910 -0.0103 -0.0321
 7633SOL     OW34534   4.213   3.180  15.868  0.0095  0.1707 -0.1317
 7633SOL    HW134535   4.188   3.176  15.960 -2.5482 -0.9344 -0.8712
 7633SOL    HW234536   4.154   3.116  15.828 -1.4665  0.3876  1.6846
 7634SOL     OW34537   4.254   3.983   2.338 -0.4451  0.0996  0.1166
 7634SOL    HW134538   4.254   3.972   2.433 -1.1794  1.5113  0.2788
 7634SOL    HW234539   4.338   3.938   2.327 -0.0028  0.8781  0.3203
 7635SOL     OW34540   2.211   3.607   4.963 -0.5985 -0.5706  0.0315
 7635SOL    HW134541   2.199   3.690   5.008  0.7332  0.6240 -1.8116
 7635SOL    HW234542   2.158   3.551   5.019  1.5026 -0.7856  1.8028
 7636SOL     OW34543   4.633   1.109   6.837 -0.1578 -0.2828 -0.3702
 7636SOL    HW134544   4.654   1.202   6.849  0.4811 -0.4830  0.0514
 7636SOL    HW234545   4.640   1.103   6.741  1.8288  3.1355 -0.4325
 7637SOL     OW34546   0.739   2.028  17.592  0.2620 -0.2336  0.1170
 7637SOL    HW134547   0.781   2.111  17.612  0.3372 -0.7969  2.3430
 7637SOL    HW234548   0.674   2.021  17.662  0.2178  2.7668  0.3794
 7638SOL     OW34549   2.558   1.133   8.208  0.3533  0.2304  0.2559
 7638SOL    HW134550   2.572   1.152   8.301  2.8397  1.3855 -0.3543
 7638SOL    HW234551   2.506   1.210   8.187 -1.6384 -1.0212  0.5461
 7639SOL     OW34552   4.327   4.643   4.544 -0.0411 -0.2469  0.3933
 7639SOL    HW134553   4.256   4.586   4.515  1.0619 -1.9352  1.0011
 7639SOL    HW234554   4.285   4.730   4.544 -0.5417 -0.4954 -3.9924
 7640SOL     OW34555   0.577   4.269   5.995  0.1955 -0.0070  0.4269
 7640SOL    HW134556   0.591   4.359   6.024 -2.5371  0.6850 -0.4415
 7640SOL    HW234557   0.516   4.288   5.924  2.2766  2.1698 -0.7608
 7641SOL     OW34558   1.425   2.508   1.872  0.3559  0.7959  0.6574
 7641SOL    HW134559   1.348   2.461   1.903 -0.2741  1.8413  0.6718
 7641SOL    HW234560   1.387   2.593   1.849 -1.6138 -0.2229  0.1502
 7642SOL     OW34561   2.533   2.095   4.474  0.2896  0.9125  0.0342
 7642SOL    HW134562   2.587   2.017   4.465 -0.3849  0.4728 -0.2672
 7642SOL    HW234563   2.590   2.171   4.467 -0.0019  1.0734 -0.6024
 7643SOL     OW34564   0.408   4.075   5.515 -0.3114 -0.0506 -0.2587
 7643SOL    HW134565   0.477   4.018   5.481 -0.0096  0.6264 -0.7714
 7643SOL    HW234566   0.326   4.028   5.498 -0.9068  0.6452  0.6706
 7644SOL     OW34567   1.017   1.704   1.217 -0.8204 -0.2752  0.0888
 7644SOL    HW134568   0.931   1.676   1.247 -1.0062 -0.4688 -0.6470
 7644SOL    HW234569   1.058   1.624   1.183  0.6807  0.6166 -0.1744
 7645SOL     OW34570   3.963   2.513   1.771 -0.0764 -0.6618  0.1157
 7645SOL    HW134571   3.933   2.537   1.684 -1.3294 -0.8933  0.4917
 7645SOL    HW234572   4.014   2.438   1.740 -0.4255 -1.0301  0.4287
 7646SOL     OW34573   2.730   1.635   3.902  0.2822 -0.5921  0.0164
 7646SOL    HW134574   2.769   1.664   3.820  0.5468  1.3465  0.8164
 7646SOL    HW234575   2.763   1.545   3.908  2.8319  0.3407  0.2784
 7647SOL     OW34576   1.118   2.324  17.242  0.1374 -0.2329 -0.2344
 7647SOL    HW134577   1.044   2.353  17.295  1.0382  1.5090  0.0346
 7647SOL    HW234578   1.187   2.389  17.251  0.9956 -1.0671 -0.6834
 7648SOL     OW34579   1.556   2.542   6.337 -0.0873 -0.0992 -0.3252
 7648SOL    HW134580   1.523   2.624   6.299  0.4098  0.3543  0.2181
 7648SOL    HW234581   1.572   2.481   6.265  0.0211  0.4170 -0.7428
 7649SOL     OW34582   3.108   0.905   3.464  0.7843 -0.1036  0.5217
 7649SOL    HW134583   3.038   0.844   3.486  1.0865 -0.8354 -0.5302
 7649SOL    HW234584   3.065   0.960   3.399 -0.3261 -1.5162  0.0630
 7650SOL     OW34585   0.165   3.215   7.682 -0.1265 -0.2624  0.1431
 7650SOL    HW134586   0.207   3.300   7.669 -0.5651  0.0093  0.5083
 7650SOL    HW234587   0.241   3.157   7.675  0.2124  0.1509  0.4133
 7651SOL     OW34588   0.056   0.879  13.190 -0.0380 -0.1511 -0.2589
 7651SOL    HW134589   0.073   0.810  13.255  0.6800  2.0961  1.9253
 7651SOL    HW234590   0.087   0.839  13.108 -1.1992 -0.4538 -0.5517
 7652SOL     OW34591   1.675   1.210   9.225 -0.3442  0.0687 -0.5056
 7652SOL    HW134592   1.683   1.119   9.253  0.3925  0.3995  0.3880
 7652SOL    HW234593   1.663   1.255   9.309  0.8611 -0.4515 -0.0407
 7653SOL     OW34594   0.508   0.975   4.963  0.0348 -0.3900  0.4092
 7653SOL    HW134595   0.446   1.043   4.937  0.1365 -1.3912 -2.4336
 7653SOL    HW234596   0.582   1.000   4.909 -1.2330 -0.7319 -1.4901
 7654SOL     OW34597   4.482   1.525   9.486  0.5134 -0.3248 -0.2549
 7654SOL    HW134598   4.434   1.539   9.568 -1.4856 -1.8607 -1.1392
 7654SOL    HW234599   4.480   1.429   9.491  3.7113 -0.1908  2.8849
 7655SOL     OW34600   1.554   2.606   8.456  0.2468  0.1491  0.1738
 7655SOL    HW134601   1.484   2.639   8.399 -1.3647 -0.3974  1.8575
 7655SOL    HW234602   1.528   2.517   8.481  0.1090  0.2003  0.2097
 7656SOL     OW34603   1.759   2.917   9.411  0.2957  0.2539 -0.4259
 7656SOL    HW134604   1.780   2.945   9.500  0.3382 -0.8913 -0.0700
 7656SOL    HW234605   1.847   2.906   9.375  0.1465 -0.2295 -0.6492
 7657SOL     OW34606   3.717   2.019  16.187 -0.0419  0.1845 -0.2221
 7657SOL    HW134607   3.724   2.111  16.161  1.4996  0.1801  0.1433
 7657SOL    HW234608   3.631   2.005  16.148 -0.2165 -0.4738  0.3878
 7658SOL     OW34609   0.411   2.100   3.004  0.0918 -0.1396  0.1823
 7658SOL    HW134610   0.389   2.098   2.911 -1.1489 -1.0829  0.4837
 7658SOL    HW234611   0.413   2.195   3.011 -1.6372  0.0412 -1.7393
 7659SOL     OW34612   0.731   3.893   2.108 -0.0241 -0.2540 -0.1122
 7659SOL    HW134613   0.719   3.799   2.091 -1.2586 -0.1253  0.0313
 7659SOL    HW234614   0.793   3.891   2.182  0.6197  0.9734 -0.6296
 7660SOL     OW34615   4.622   3.225   5.519 -0.2284 -0.6864 -0.4021
 7660SOL    HW134616   4.597   3.311   5.552  3.1458  0.5403 -1.0225
 7660SOL    HW234617   4.608   3.178   5.601 -2.2989 -0.8719 -0.8480
 7661SOL     OW34618   3.955   1.229  14.940 -0.2370 -0.0502 -0.3204
 7661SOL    HW134619   3.971   1.146  14.985 -0.1273  0.2239  0.1479
 7661SOL    HW234620   4.011   1.214  14.865 -0.7699 -2.0682 -0.3098
 7662SOL     OW34621   0.934   0.311  16.609 -0.0165  0.0503  0.5374
 7662SOL    HW134622   0.845   0.312  16.573 -0.7274  0.5622  2.3011
 7662SOL    HW234623   0.931   0.395  16.655  1.2948  0.0908  0.5365
 7663SOL     OW34624   1.076   4.370  14.163 -0.4627 -0.7900  0.4476
 7663SOL    HW134625   1.055   4.371  14.070 -2.4663  1.7777  0.9373
 7663SOL    HW234626   1.137   4.296  14.170  1.6040  0.9474  0.6299
 7664SOL     OW34627   4.546   1.709  16.123 -0.5250 -0.0368 -0.0300
 7664SOL    HW134628   4.609   1.642  16.148 -0.6448 -0.2592 -0.3236
 7664SOL    HW234629   4.487   1.702  16.198  0.8984 -0.6672  1.0294
 7665SOL     OW34630   1.885   2.754  12.296  0.1739 -0.3170  0.0897
 7665SOL    HW134631   1.836   2.750  12.378 -2.0293  0.5175 -1.1778
 7665SOL    HW234632   1.942   2.826  12.321 -0.4379  0.4671 -0.7582
 7666SOL     OW34633   2.113   3.724   4.464  0.4261  0.0449  0.0514
 7666SOL    HW134634   2.018   3.729   4.457  0.3820  2.6916  2.5271
 7666SOL    HW234635   2.132   3.818   4.462 -0.0744  0.1603  0.5245
 7667SOL     OW34636   3.108   4.412   3.900 -0.1381 -0.0388 -0.3267
 7667SOL    HW134637   3.111   4.489   3.844  0.8195 -0.4980 -0.9105
 7667SOL    HW234638   3.144   4.340   3.849 -0.5737 -0.7486  0.3565
 7668SOL     OW34639   0.538   1.418   8.523  0.1476 -0.1416 -0.2207
 7668SOL    HW134640   0.516   1.503   8.485 -1.2878 -1.2930 -1.9898
 7668SOL    HW234641   0.457   1.402   8.570  0.3973 -0.2671  0.1655
 7669SOL     OW34642   3.596   2.139   6.032  0.1442  0.2757  0.3163
 7669SOL    HW134643   3.515   2.094   6.008  1.0234 -0.5920 -1.0303
 7669SOL    HW234644   3.549   2.189   6.099  1.3918  0.5166  1.0206
 7670SOL     OW34645   2.777   1.449  17.557  0.4604 -0.0121 -0.4389
 7670SOL    HW134646   2.774   1.467  17.463  0.8112  2.5549  0.0267
 7670SOL    HW234647   2.766   1.355  17.569  0.7931 -0.1473 -1.2186
 7671SOL     OW34648   2.705   3.637   9.248 -0.4984  0.0928 -0.2168
 7671SOL    HW134649   2.774   3.698   9.222 -1.8972  2.3358  1.3152
 7671SOL    HW234650   2.665   3.617   9.164  0.6045  1.4379 -1.0730
 7672SOL     OW34651   3.378   1.989   5.994  0.6391  0.0852  0.2861
 7672SOL    HW134652   3.419   1.953   5.916  1.9118  0.3653  0.8203
 7672SOL    HW234653   3.367   1.905   6.040 -1.6633 -1.1605 -2.5341
 7673SOL     OW34654   0.350   0.923   1.772 -0.6557 -0.2670  0.4014
 7673SOL    HW134655   0.273   0.968   1.806 -1.6642 -1.7161  0.0300
 7673SOL    HW234656   0.420   0.985   1.791 -1.1231  0.9327 -1.8196
 7674SOL     OW34657   0.074   2.954   0.153  0.5872  0.2541 -0.0512
 7674SOL    HW134658   0.022   3.032   0.135 -0.8325 -0.6707  0.1243
 7674SOL    HW234659   0.048   2.893   0.085 -1.3542 -0.7899  1.6418
 7675SOL     OW34660   0.157   4.621   8.299  0.0385 -0.0154 -0.0060
 7675SOL    HW134661   0.169   4.697   8.243 -1.4708  1.5279  1.7612
 7675SOL    HW234662   0.160   4.671   8.381 -1.1103  0.6290 -0.3623
 7676SOL     OW34663   1.584   2.088   4.568  0.2543 -0.2760 -0.2572
 7676SOL    HW134664   1.581   2.060   4.659 -1.0694 -1.0160 -0.5185
 7676SOL    HW234665   1.520   2.024   4.536 -0.6352  0.2705  0.4330
 7677SOL     OW34666   3.528   3.026  10.941  0.1161  0.1552 -0.6996
 7677SOL    HW134667   3.462   3.081  10.898 -0.6475 -1.4803 -1.6425
 7677SOL    HW234668   3.588   3.094  10.970  1.4026 -1.7758  1.1384
 7678SOL     OW34669   1.198   4.202   5.808  0.3390 -0.3444 -0.0180
 7678SOL    HW134670   1.121   4.253   5.831 -0.1183 -0.5683 -1.0414
 7678SOL    HW234671   1.266   4.246   5.859 -0.8122  1.0852  0.2600
 7679SOL     OW34672   3.193   0.912   0.137  0.1576 -0.5679 -0.3820
 7679SOL    HW134673   3.149   0.873   0.213  0.1576 -0.6529 -0.4252
 7679SOL    HW234674   3.235   0.990   0.173  0.2437 -1.3414  1.1867
 7680SOL     OW34675   3.000   4.626   7.530  0.2871 -0.1184 -0.0257
 7680SOL    HW134676   3.023   4.719   7.527 -1.8153  0.4027  0.1013
 7680SOL    HW234677   2.907   4.627   7.554  0.2844  1.2063 -0.0839
 7681SOL     OW34678   0.609   2.304   6.479  0.1827 -0.2458 -0.3881
 7681SOL    HW134679   0.602   2.218   6.520  1.8274 -0.6606 -0.9589
 7681SOL    HW234680   0.597   2.280   6.387 -0.7301  2.6816 -1.0272
 7682SOL     OW34681   0.901   1.254  15.286  0.3980  0.0889 -0.2241
 7682SOL    HW134682   0.992   1.229  15.267  1.0785  1.6738  0.9649
 7682SOL    HW234683   0.867   1.186  15.344  2.2987 -2.0666 -1.6541
 7683SOL     OW34684   2.222   2.399   3.213 -0.8576  0.0660 -0.5601
 7683SOL    HW134685   2.212   2.330   3.148 -0.7221  0.0056 -0.5172
 7683SOL    HW234686   2.168   2.472   3.181 -1.9855  0.0887  1.3997
 7684SOL     OW34687   1.136   3.725   8.981 -0.0653  0.0852 -0.6730
 7684SOL    HW134688   1.156   3.631   8.977  1.3409  0.3677 -0.5166
 7684SOL    HW234689   1.151   3.756   9.070 -1.7388 -2.7716  0.6056
 7685SOL     OW34690   3.749   4.108   4.371  0.0103  0.0440  0.1104
 7685SOL    HW134691   3.774   4.122   4.279  1.7725  0.0094  0.5746
 7685SOL    HW234692   3.822   4.144   4.422 -1.3300  2.1359  0.5676
 7686SOL     OW34693   1.141   2.734  12.207 -0.7186  0.3154  0.0566
 7686SOL    HW134694   1.100   2.776  12.131  1.0787  0.2005 -1.0038
 7686SOL    HW234695   1.235   2.751  12.199 -0.0746 -2.7512  1.0915
 7687SOL     OW34696   0.506   3.098   2.082 -0.3546  0.0790 -0.2226
 7687SOL    HW134697   0.551   3.175   2.046 -1.6332  1.1067  0.3585
 7687SOL    HW234698   0.485   3.049   2.002 -0.2724  0.8086 -0.6897
 7688SOL     OW34699   1.913   4.103   7.183  0.0845 -0.3499  0.1938
 7688SOL    HW134700   1.825   4.079   7.212  0.4827 -1.1921  0.7041
 7688SOL    HW234701   1.888   4.194   7.164 -1.4888 -1.0876 -1.2150
 7689SOL     OW34702   0.768   2.494   2.404  0.1052 -0.2404  0.1055
 7689SOL    HW134703   0.755   2.516   2.496 -0.4681 -0.3497  0.0511
 7689SOL    HW234704   0.678   2.493   2.372 -0.2304 -0.2908  1.0635
 7690SOL     OW34705   0.405   3.430   2.063 -0.8486 -0.0604  0.3052
 7690SOL    HW134706   0.349   3.458   1.990 -1.4911 -0.0454  0.8029
 7690SOL    HW234707   0.344   3.421   2.136 -2.0520  0.2755 -0.6527
 7691SOL     OW34708   3.578   3.680  16.745  0.0130  0.7509 -0.2814
 7691SOL    HW134709   3.555   3.759  16.795 -1.0526 -0.4827  1.1656
 7691SOL    HW234710   3.618   3.713  16.665 -0.5338  1.5942 -0.2146
 7692SOL     OW34711   3.901   4.421   3.473 -0.1021  0.4397 -0.1961
 7692SOL    HW134712   3.910   4.327   3.455  0.5964  0.6011 -0.6730
 7692SOL    HW234713   3.883   4.448   3.383 -1.0759  1.0203  0.1724
 7693SOL     OW34714   2.079   2.628   3.468  0.6025 -0.5128  0.2807
 7693SOL    HW134715   2.005   2.619   3.409  2.1574  1.2507 -1.9247
 7693SOL    HW234716   2.029   2.650   3.547  0.3085 -0.5052  0.0913
 7694SOL     OW34717   0.429   2.149  13.806 -0.5565 -0.0726  0.1920
 7694SOL    HW134718   0.407   2.232  13.848 -1.2780  0.6317 -1.5863
 7694SOL    HW234719   0.443   2.177  13.716 -0.8690  1.1475  0.5273
 7695SOL     OW34720   2.251   1.644   8.669 -0.6700  0.9653  0.0281
 7695SOL    HW134721   2.307   1.684   8.735  2.4238 -2.0173 -0.8257
 7695SOL    HW234722   2.179   1.613   8.724  2.7290 -2.5559  2.5147
 7696SOL     OW34723   4.417   2.461   4.844  0.0375  0.0164 -0.1797
 7696SOL    HW134724   4.433   2.384   4.899 -0.5422  1.0263  1.4025
 7696SOL    HW234725   4.446   2.430   4.758 -3.8510 -1.2327 -1.0204
 7697SOL     OW34726   0.238   1.673  11.512  0.2386  0.3771  0.1717
 7697SOL    HW134727   0.260   1.746  11.454  0.7004  1.5381  1.8243
 7697SOL    HW234728   0.144   1.685  11.523  0.4642 -2.1177  4.8687
 7698SOL     OW34729   2.214   2.953   4.430 -0.0468 -0.0927  0.1904
 7698SOL    HW134730   2.276   3.000   4.485  0.5303 -0.7470  0.0997
 7698SOL    HW234731   2.251   2.965   4.342 -1.3903 -0.3552 -0.4273
 7699SOL     OW34732   0.715   1.277  13.516  0.4602  0.1432 -0.3561
 7699SOL    HW134733   0.693   1.360  13.473 -1.1681 -0.5736 -0.8893
 7699SOL    HW234734   0.811   1.272  13.521  0.5320 -0.4663 -2.4988
 7700SOL     OW34735   1.428   1.424   2.175 -0.2804 -0.0110 -0.3723
 7700SOL    HW134736   1.378   1.502   2.200 -0.7717 -0.5737  0.3743
 7700SOL    HW234737   1.480   1.455   2.101  0.0214  1.2102  0.3563
 7701SOL     OW34738   4.027   3.221   4.266 -0.7492  0.1069 -0.4451
 7701SOL    HW134739   3.957   3.285   4.276 -1.0023 -0.4493  1.2795
 7701SOL    HW234740   4.080   3.254   4.193  1.4223 -1.1697  0.5673
 7702SOL     OW34741   0.234   1.405  12.155 -0.5207 -0.0365 -0.3772
 7702SOL    HW134742   0.157   1.439  12.201 -0.2447 -1.2353  0.9890
 7702SOL    HW234743   0.251   1.322  12.201 -4.0904  0.6341  2.2158
 7703SOL     OW34744   0.450   4.293   4.008  0.1356  0.0885  0.3856
 7703SOL    HW134745   0.382   4.300   3.941 -0.1479  0.0821  0.6719
 7703SOL    HW234746   0.520   4.348   3.973  1.4627 -0.7744  1.7293
 7704SOL     OW34747   0.390   0.138   1.181 -0.2355  0.3064 -0.0774
 7704SOL    HW134748   0.382   0.050   1.145  0.4823  1.0562 -2.0176
 7704SOL    HW234749   0.359   0.195   1.110  1.4330  0.8827 -0.3369
 7705SOL     OW34750   1.753   1.829   1.836  0.2080 -0.3191  0.7974
 7705SOL    HW134751   1.660   1.824   1.861  0.3730  0.1077  1.4985
 7705SOL    HW234752   1.787   1.744   1.863 -0.7364 -0.9676 -0.0374
 7706SOL     OW34753   3.166   3.376   1.070  0.2904  0.3598  0.2644
 7706SOL    HW134754   3.212   3.320   1.134 -0.9215  1.9175  2.5154
 7706SOL    HW234755   3.087   3.392   1.123  0.9309 -0.5413  1.4990
 7707SOL     OW34756   0.362   0.316   8.988  0.2573 -0.1732  0.1330
 7707SOL    HW134757   0.377   0.407   8.960  1.8880 -1.0560 -1.8299
 7707SOL    HW234758   0.332   0.277   8.906  0.0971  1.5493 -0.6360
 7708SOL     OW34759   4.100   1.383   5.435  0.2082 -0.4178 -0.3955
 7708SOL    HW134760   4.008   1.373   5.410 -0.2871 -0.5961  1.4594
 7708SOL    HW234761   4.143   1.309   5.391  0.4822  0.2861 -1.2999
 7709SOL     OW34762   0.168   1.015   8.299 -0.3587 -0.4541 -0.1950
 7709SOL    HW134763   0.076   1.031   8.320 -0.4126  0.8525 -1.4699
 7709SOL    HW234764   0.214   1.099   8.309  1.1267 -1.1234 -1.4127
 7710SOL     OW34765   0.460   1.179   6.749 -0.1735  0.0518 -0.5419
 7710SOL    HW134766   0.523   1.117   6.786 -0.3894 -0.2562 -0.6872
 7710SOL    HW234767   0.437   1.238   6.820 -1.6223  0.8585 -1.6777
 7711SOL     OW34768   3.701   2.689   8.659  0.0139 -0.2957  0.3794
 7711SOL    HW134769   3.679   2.714   8.749  0.2495  0.8164  0.1305
 7711SOL    HW234770   3.743   2.770   8.629  0.7915 -0.3942  1.1950
 7712SOL     OW34771   1.101   4.152   7.084 -0.4834 -0.2218 -0.3518
 7712SOL    HW134772   1.099   4.204   7.004 -0.9222 -0.7172 -0.6670
 7712SOL    HW234773   1.022   4.175   7.132  0.1929  0.0164  0.6322
 7713SOL     OW34774   4.362   0.272   4.321  0.5552 -0.5675 -0.1211
 7713SOL    HW134775   4.314   0.316   4.251 -1.9313 -0.7178  1.5005
 7713SOL    HW234776   4.364   0.344   4.384 -0.5655 -1.2763  0.7233
 7714SOL     OW34777   2.932   0.063   5.535 -0.3478 -0.8207 -0.0890
 7714SOL    HW134778   2.914   0.032   5.446 -1.2315 -0.3369 -0.0747
 7714SOL    HW234779   2.932   0.158   5.522 -0.3817 -0.7008  0.8198
 7715SOL     OW34780   0.425   4.559   3.636  0.6664  0.0563 -0.1278
 7715SOL    HW134781   0.499   4.579   3.580 -0.1723  0.5578 -1.0504
 7715SOL    HW234782   0.439   4.464   3.639  0.8580  0.0917  0.1581
 7716SOL     OW34783   3.611   2.884   5.851 -0.0444 -0.1268 -0.6068
 7716SOL    HW134784   3.524   2.846   5.847 -0.2131  0.4871 -2.7369
 7716SOL    HW234785   3.596   2.953   5.915 -2.0479  2.3028 -3.7320
 7717SOL     OW34786   1.694   1.374   6.399  0.3726  0.2488  0.3319
 7717SOL    HW134787   1.712   1.328   6.317 -0.5089 -1.6224  1.1841
 7717SOL    HW234788   1.599   1.366   6.392  0.3714  0.5850 -0.0353
 7718SOL     OW34789   1.109   0.148   2.320  0.4311  0.0221  0.0644
 7718SOL    HW134790   1.063   0.162   2.403  1.4186  1.3254  0.3982
 7718SOL    HW234791   1.114   0.052   2.316 -0.2575 -0.0615  1.1864
 7719SOL     OW34792   2.025   1.501   7.095 -0.2244  0.0579 -0.0083
 7719SOL    HW134793   2.017   1.591   7.128 -3.0886  0.4465 -1.7011
 7719SOL    HW234794   2.061   1.455   7.170  2.4221 -1.1036 -1.9505
 7720SOL     OW34795   2.977   1.880  12.149  0.5750  0.1125 -0.2782
 7720SOL    HW134796   2.907   1.946  12.140 -2.3798 -3.0633 -0.4287
 7720SOL    HW234797   2.988   1.850  12.059 -0.6073 -1.7007  0.2057
 7721SOL     OW34798   1.350   1.734   3.608  0.5092 -0.2501  0.2092
 7721SOL    HW134799   1.338   1.820   3.567 -1.2310 -1.7033 -2.3554
 7721SOL    HW234800   1.444   1.738   3.626  0.2442 -0.6082  1.6691
 7722SOL     OW34801   3.685   4.443   4.662 -0.2074  0.3634  0.0406
 7722SOL    HW134802   3.643   4.376   4.716  1.3271  0.6716  1.6102
 7722SOL    HW234803   3.675   4.406   4.574  0.6250  2.6730 -1.0174
 7723SOL     OW34804   0.095   3.730   4.068 -0.0239 -1.0537  0.7456
 7723SOL    HW134805   0.131   3.685   3.992  0.6547  2.6852 -1.1018
 7723SOL    HW234806   0.018   3.779   4.040 -0.3574 -2.2327 -0.4305
 7724SOL     OW34807   3.007   0.999   6.753  0.8339  0.0430  0.0955
 7724SOL    HW134808   3.053   1.061   6.809  2.2189 -0.1470 -0.8438
 7724SOL    HW234809   2.982   1.061   6.684  0.0340 -0.1888  0.1751
 7725SOL     OW34810   1.846   2.733   4.368  0.7113 -0.3431  0.2943
 7725SOL    HW134811   1.804   2.671   4.427  1.2896  0.2542  1.3284
 7725SOL    HW234812   1.901   2.784   4.428 -0.3644 -1.1085  1.9406
 7726SOL     OW34813   4.547   0.706   4.288 -0.0057  0.2867 -0.4248
 7726SOL    HW134814   4.637   0.715   4.258  0.2087  0.8207  0.3776
 7726SOL    HW234815   4.498   0.713   4.206 -1.2544 -0.1363  0.2856
 7727SOL     OW34816   2.369   4.561   7.574  0.2263 -0.7540 -0.1340
 7727SOL    HW134817   2.302   4.494   7.563  1.4070 -1.9971  0.3537
 7727SOL    HW234818   2.379   4.532   7.664 -0.0692  2.2864  0.8902
 7728SOL     OW34819   1.876   2.355  14.512 -0.3393 -0.0141 -0.3154
 7728SOL    HW134820   1.834   2.431  14.552 -3.1995 -0.8215 -1.7586
 7728SOL    HW234821   1.818   2.280  14.528  0.0733 -0.2433  0.0968
 7729SOL     OW34822   0.297   1.846   3.023  0.5182  0.1385  0.2051
 7729SOL    HW134823   0.244   1.854   3.102 -2.6769 -0.1927 -1.9173
 7729SOL    HW234824   0.315   1.938   3.001  2.8979 -0.6446 -1.1022
 7730SOL     OW34825   3.888   4.032   5.360  0.1205 -0.6181  0.1916
 7730SOL    HW134826   3.911   3.941   5.341  0.8545 -0.3516 -0.1756
 7730SOL    HW234827   3.938   4.031   5.441 -1.5064 -1.1907  1.1940
 7731SOL     OW34828   2.478   4.365  15.148 -0.0353  0.1512  1.2472
 7731SOL    HW134829   2.465   4.270  15.147 -2.1636  0.4333  1.1721
 7731SOL    HW234830   2.517   4.394  15.066 -0.2084 -1.1598  0.7096
 7732SOL     OW34831   4.005   1.787   8.167 -0.0561  0.7151  0.5117
 7732SOL    HW134832   4.032   1.814   8.079 -0.1634 -0.8427 -0.0106
 7732SOL    HW234833   3.915   1.761   8.145  0.9072 -0.9689 -1.4889
 7733SOL     OW34834   2.521   0.440   6.859 -0.7411 -0.6086 -0.2424
 7733SOL    HW134835   2.427   0.424   6.864 -1.0004  1.9979  2.6505
 7733SOL    HW234836   2.536   0.428   6.953  0.9285 -0.0508 -0.4285
 7734SOL     OW34837   0.216   3.422   2.253 -0.0973  0.3342  0.0557
 7734SOL    HW134838   0.214   3.447   2.346  0.4244  2.3622 -0.4944
 7734SOL    HW234839   0.121   3.427   2.243 -0.0539 -0.7861 -0.8355
 7735SOL     OW34840   4.575   1.617   3.829  0.0846 -0.0706  0.0996
 7735SOL    HW134841   4.568   1.686   3.763 -0.8681 -0.9390 -0.7211
 7735SOL    HW234842   4.638   1.563   3.781  1.2311  0.8635  0.5718
 7736SOL     OW34843   1.016   1.501   7.899  0.1225 -0.5540  0.0684
 7736SOL    HW134844   1.044   1.585   7.936  2.4658 -0.3191 -2.2460
 7736SOL    HW234845   1.088   1.495   7.836  1.0255 -1.3180  1.1560
 7737SOL     OW34846   4.334   2.763   6.140 -0.0689  0.7220 -0.6515
 7737SOL    HW134847   4.296   2.709   6.070  0.1462  1.3693 -1.2703
 7737SOL    HW234848   4.342   2.847   6.094 -0.6024  0.7752 -0.6538
 7738SOL     OW34849   0.401   1.869  16.784 -0.3155  0.0812 -0.4673
 7738SOL    HW134850   0.472   1.823  16.829  1.2218  0.7611 -2.1823
 7738SOL    HW234851   0.425   1.957  16.812  1.6463 -0.7417  0.4657
 7739SOL     OW34852   2.073   4.497   1.092  0.3747 -1.0677  0.1933
 7739SOL    HW134853   2.113   4.566   1.039 -0.8093 -0.5136  0.0345
 7739SOL    HW234854   1.987   4.534   1.110  1.0149 -1.0810  3.3440
 7740SOL     OW34855   3.383   1.433  15.889 -0.6469  0.2904  0.0452
 7740SOL    HW134856   3.295   1.468  15.900 -1.5510 -1.4801 -1.4832
 7740SOL    HW234857   3.382   1.405  15.798  0.8819  1.9810 -0.4741
 7741SOL     OW34858   0.304   2.047   7.119  0.8349 -0.1005  0.1384
 7741SOL    HW134859   0.255   2.098   7.184  0.2575 -4.0849  2.8318
 7741SOL    HW234860   0.396   2.068   7.136  0.0740  3.7613 -0.5256
 7742SOL     OW34861   3.383   2.033   3.519  0.2074 -0.8112 -0.1008
 7742SOL    HW134862   3.462   2.082   3.543  1.8775 -2.5610 -2.0804
 7742SOL    HW234863   3.395   1.951   3.567 -1.0131 -0.2947  1.0701
 7743SOL     OW34864   2.901   4.666   0.277 -0.0770 -0.1939  0.5264
 7743SOL    HW134865   2.837   4.713   0.330  1.3954 -1.9415  3.8673
 7743SOL    HW234866   2.880   4.694   0.188  1.1811  0.6446  0.5015
 7744SOL     OW34867   2.959   2.675   3.339  0.2420  0.2886 -0.0296
 7744SOL    HW134868   2.934   2.609   3.404  1.3288 -0.3139 -0.2191
 7744SOL    HW234869   2.934   2.630   3.257  1.5946  1.5816 -1.1449
 7745SOL     OW34870   1.406   0.383   4.438  0.5503  0.4100  0.6911
 7745SOL    HW134871   1.329   0.407   4.490  0.2667  0.8706  0.0565
 7745SOL    HW234872   1.401   0.288   4.449  1.2964  0.2156 -0.6722
 7746SOL     OW34873   4.199   4.498   9.382 -0.1528 -1.0028  0.5720
 7746SOL    HW134874   4.184   4.549   9.461  2.3547  0.6022  0.0240
 7746SOL    HW234875   4.115   4.458   9.359 -0.3011 -1.0876  1.2670
 7747SOL     OW34876   2.063   3.442   7.951  0.4318 -0.6149 -0.3406
 7747SOL    HW134877   2.007   3.395   7.890  0.2319 -4.0089  2.5049
 7747SOL    HW234878   2.071   3.375   8.018 -0.1376  1.8432  2.1883
 7748SOL     OW34879   0.732   0.656  16.664 -0.2320  0.7904 -0.2614
 7748SOL    HW134880   0.692   0.572  16.686 -0.9253  1.1180 -0.2516
 7748SOL    HW234881   0.817   0.639  16.705  0.2403  0.9476 -1.1833
 7749SOL     OW34882   0.943   1.620  16.379 -0.3708 -0.1809  0.1975
 7749SOL    HW134883   0.907   1.652  16.296 -2.6775 -1.3438  0.7334
 7749SOL    HW234884   1.018   1.674  16.402 -1.2981  1.0037  0.4542
 7750SOL     OW34885   1.939   3.159  10.086 -0.1319 -0.0596 -0.8143
 7750SOL    HW134886   1.873   3.123  10.145 -0.5563  2.0853  0.0030
 7750SOL    HW234887   1.954   3.083  10.030 -1.8921 -1.9365  1.2676
 7751SOL     OW34888   4.151   1.406   7.611 -0.8613  1.0861 -0.5223
 7751SOL    HW134889   4.096   1.477   7.646 -0.5560  0.2053  1.7522
 7751SOL    HW234890   4.173   1.450   7.529  1.7095  1.6768  0.4490
 7752SOL     OW34891   4.667   3.102   2.075  0.0809  0.0482  0.4474
 7752SOL    HW134892   4.590   3.156   2.059 -0.6815 -1.4199 -0.8642
 7752SOL    HW234893   4.736   3.140   2.021  0.9951 -0.6185  1.1428
 7753SOL     OW34894   1.539   0.432   7.152 -0.1662 -0.0860  0.6328
 7753SOL    HW134895   1.490   0.386   7.221 -1.3885  0.3144  0.0327
 7753SOL    HW234896   1.614   0.469   7.198 -0.0173 -1.0021  1.1275
 7754SOL     OW34897   4.411   4.175  17.669  0.1634  0.2092  0.1515
 7754SOL    HW134898   4.328   4.195  17.714  0.0389  1.2649 -0.5438
 7754SOL    HW234899   4.423   4.085  17.698  1.7356 -0.8011 -3.6667
 7755SOL     OW34900   4.058   4.568   6.029 -0.4790 -0.4445 -0.0192
 7755SOL    HW134901   3.994   4.639   6.035  1.3059  1.2460 -1.0093
 7755SOL    HW234902   4.008   4.500   6.074  0.0298  1.0112  2.7635
 7756SOL     OW34903   0.399   1.732   6.512  0.1413 -0.3432  0.4092
 7756SOL    HW134904   0.359   1.695   6.434  0.2156  0.1059  0.1605
 7756SOL    HW234905   0.443   1.650   6.532  2.1231  0.4617 -0.7136
 7757SOL     OW34906   1.818   1.036   2.088  0.0314  0.7197 -0.1193
 7757SOL    HW134907   1.743   0.993   2.128 -0.4296  0.3861 -1.3391
 7757SOL    HW234908   1.775   1.054   2.004  2.2422  1.7669 -1.0088
 7758SOL     OW34909   0.319   3.216  13.124 -0.1839 -0.5511  0.2110
 7758SOL    HW134910   0.322   3.272  13.046 -1.6195 -0.2501  0.3829
 7758SOL    HW234911   0.255   3.150  13.098  0.1280 -1.0472  0.7218
 7759SOL     OW34912   0.915   1.916   9.661  0.4934 -0.3333 -0.4054
 7759SOL    HW134913   0.975   1.976   9.706  1.3474 -1.3887 -0.1227
 7759SOL    HW234914   0.835   1.966   9.646 -1.0281 -3.0718 -1.4728
 7760SOL     OW34915   2.824   2.597   3.847  0.7326 -0.3613  0.3231
 7760SOL    HW134916   2.887   2.615   3.918  0.9858 -1.2830  0.3305
 7760SOL    HW234917   2.789   2.515   3.881  1.4781 -1.5038 -1.6613
 7761SOL     OW34918   4.713   2.184   4.282 -0.4505  0.1234  0.4451
 7761SOL    HW134919   0.017   2.267   4.262  0.7078 -0.1168  1.9994
 7761SOL    HW234920   0.035   2.149   4.346  0.1215  0.5234  0.1100
 7762SOL     OW34921   3.121   1.971  11.365 -0.2425  0.3417  0.2948
 7762SOL    HW134922   3.081   1.963  11.452  0.5321 -2.1347  0.4124
 7762SOL    HW234923   3.180   1.896  11.366 -1.6514 -0.7758 -1.5528
 7763SOL     OW34924   1.667   2.336  11.750 -0.0233 -0.2660 -0.3487
 7763SOL    HW134925   1.693   2.398  11.818  2.6692  0.2424 -1.8523
 7763SOL    HW234926   1.592   2.289  11.787 -0.8269  0.4097 -1.0928
 7764SOL     OW34927   1.657   1.113  15.564 -0.2205 -0.0618  0.3078
 7764SOL    HW134928   1.563   1.099  15.556  0.2221 -1.5071 -2.0511
 7764SOL    HW234929   1.670   1.188  15.506 -0.7247 -0.2872 -0.0845
 7765SOL     OW34930   4.348   4.566   8.980  0.4740  0.4787  0.3485
 7765SOL    HW134931   4.369   4.475   9.002 -1.3445  0.2126  0.9340
 7765SOL    HW234932   4.342   4.561   8.884  2.9855 -1.2110  0.2735
 7766SOL     OW34933   2.520   0.716   8.333  0.6178  0.1630  0.1352
 7766SOL    HW134934   2.536   0.690   8.424 -0.9458  1.4605  0.7897
 7766SOL    HW234935   2.510   0.811   8.344 -3.2288  0.0924 -2.6414
 7767SOL     OW34936   4.624   1.418  17.443  0.1610 -0.1049 -0.0982
 7767SOL    HW134937   4.580   1.426  17.527  2.1317  0.1154  0.9251
 7767SOL    HW234938   4.690   1.488  17.447  1.6886 -1.2966 -3.9237
 7768SOL     OW34939   2.436   0.719  13.829  0.4230  0.4153 -0.2168
 7768SOL    HW134940   2.511   0.760  13.871  1.7815 -0.1100 -2.0984
 7768SOL    HW234941   2.410   0.770  13.752  1.1079  1.8501  0.4967
 7769SOL     OW34942   1.068   3.480   5.666 -0.1021 -1.0523  0.2139
 7769SOL    HW134943   1.004   3.546   5.691 -1.9120 -3.3553  1.6122
 7769SOL    HW234944   1.051   3.476   5.572 -0.0322 -1.6527  0.2235
 7770SOL     OW34945   1.200   2.921   9.715  0.1711 -0.1507 -0.0255
 7770SOL    HW134946   1.211   3.009   9.680 -0.4721 -0.1934 -0.3435
 7770SOL    HW234947   1.140   2.936   9.788 -1.6332 -1.9457 -1.0957
 7771SOL     OW34948   4.728   1.097   7.988  0.2598 -0.1816 -0.1349
 7771SOL    HW134949   4.726   1.042   7.910  0.8539  0.2036 -0.4183
 7771SOL    HW234950   4.691   1.051   8.064  1.6601 -1.2341 -0.0824
 7772SOL     OW34951   1.015   2.894   4.860  0.8561  0.7440 -0.0520
 7772SOL    HW134952   1.104   2.914   4.831  0.6113  0.4619 -1.0133
 7772SOL    HW234953   0.976   2.980   4.875 -0.9422 -0.3032  1.2464
 7773SOL     OW34954   0.524   4.071  12.102 -0.8433 -0.1666  0.5077
 7773SOL    HW134955   0.618   4.088  12.105 -0.9518  0.6213 -0.6746
 7773SOL    HW234956   0.489   4.076  12.191 -3.1337  3.2120 -0.5840
 7774SOL     OW34957   2.226   0.785  12.465  0.0319  0.6202  0.1982
 7774SOL    HW134958   2.298   0.736  12.424 -0.0521  1.9492 -1.5535
 7774SOL    HW234959   2.152   0.756  12.412  0.5833 -1.0051  0.3168
 7775SOL     OW34960   0.529   1.220   4.103 -0.0422  0.0045  0.2412
 7775SOL    HW134961   0.599   1.197   4.163 -0.3470  2.5751  1.5979
 7775SOL    HW234962   0.489   1.134   4.092 -0.5749  0.4268 -1.2489
 7776SOL     OW34963   3.077   2.156   0.931  0.4396  0.7576 -0.1312
 7776SOL    HW134964   3.060   2.174   0.839 -0.1988  2.3785  0.3076
 7776SOL    HW234965   3.149   2.214   0.953  1.1473  0.6720 -2.2149
 7777SOL     OW34966   3.332   3.090   9.431  0.3353  0.4767 -0.0192
 7777SOL    HW134967   3.346   3.127   9.344 -0.5900  3.1481  0.9621
 7777SOL    HW234968   3.386   3.149   9.484  1.7507 -0.1489 -0.7406
 7778SOL     OW34969   3.323   4.329   2.420  0.8668 -0.0060 -0.3314
 7778SOL    HW134970   3.285   4.414   2.443  1.1271  0.4220 -1.4987
 7778SOL    HW234971   3.314   4.336   2.325  0.4119  0.4142 -0.2556
 7779SOL     OW34972   1.740   1.776  10.474 -0.1053  0.6228  0.3898
 7779SOL    HW134973   1.730   1.862  10.514 -2.3262  0.3632  0.4037
 7779SOL    HW234974   1.651   1.742  10.484  0.5715 -1.4996 -0.6451
 7780SOL     OW34975   3.008   1.934  12.814  0.1218  0.1878  0.2609
 7780SOL    HW134976   3.041   1.964  12.729 -2.0799  0.3228 -0.5498
 7780SOL    HW234977   3.012   1.839  12.807 -1.1152  0.1887 -0.4106
 7781SOL     OW34978   3.906   3.964  14.309 -0.1991 -0.1362 -0.1641
 7781SOL    HW134979   3.899   3.975  14.214  0.8465  0.2308 -0.2047
 7781SOL    HW234980   3.815   3.953  14.335  0.0482  0.8154  1.1068
 7782SOL     OW34981   1.186   2.531  11.594 -0.6305  0.1231 -0.3107
 7782SOL    HW134982   1.223   2.607  11.638 -2.6889  0.8292  0.2173
 7782SOL    HW234983   1.100   2.533  11.636 -0.0393  0.5917  0.8626
 7783SOL     OW34984   1.491   1.109   3.013 -0.2346  0.5122 -0.1950
 7783SOL    HW134985   1.586   1.105   3.024 -0.4006 -1.8899  0.4218
 7783SOL    HW234986   1.484   1.028   2.962  1.5222  0.6423 -0.6327
 7784SOL     OW34987   4.060   4.576   4.441 -0.3647  0.0615 -0.3313
 7784SOL    HW134988   3.994   4.542   4.381 -0.6777  1.4294 -0.7550
 7784SOL    HW234989   4.108   4.496   4.461  0.4694  0.1035 -2.2227
 7785SOL     OW34990   2.687   0.403  13.007  0.2805  0.2734 -0.2851
 7785SOL    HW134991   2.671   0.486  13.052  1.0807  0.3996 -0.2252
 7785SOL    HW234992   2.705   0.345  13.082  0.6929  2.5044  1.3642
 7786SOL     OW34993   0.318   1.946   4.779 -0.4866  0.0386 -0.1043
 7786SOL    HW134994   0.332   1.853   4.758 -1.6345  0.1060 -1.1824
 7786SOL    HW234995   0.251   1.962   4.712  0.3064  2.0490 -0.4201
 7787SOL     OW34996   4.110   1.285   6.360  0.0285  0.3664 -0.2808
 7787SOL    HW134997   4.044   1.223   6.328 -1.4285  2.1555 -0.7392
 7787SOL    HW234998   4.066   1.363   6.327 -0.3528  0.1435 -0.3009
 7788SOL     OW34999   2.075   0.459  11.944  0.5213  0.2841  0.1442
 7788SOL    HW135000   2.106   0.403  11.873  0.4149  0.3503  0.0446
 7788SOL    HW235001   2.134   0.436  12.015  0.2392 -0.7297  0.0413
 7789SOL     OW35002   2.536   2.467  15.840  0.2288  0.4256 -0.1279
 7789SOL    HW135003   2.543   2.526  15.765 -0.3171  2.3833  1.3824
 7789SOL    HW235004   2.584   2.520  15.903  2.2290  0.2415 -1.5070
 7790SOL     OW35005   0.015   1.124   3.452 -1.1243  0.0402  0.5377
 7790SOL    HW135006   0.029   1.212   3.418 -1.1870  0.1185  0.7119
 7790SOL    HW235007   4.690   1.093   3.389 -0.5005  2.9362 -1.5179
 7791SOL     OW35008   3.201   0.466  16.756 -0.7829 -0.2945  1.3290
 7791SOL    HW135009   3.267   0.464  16.687 -2.3526  1.2738 -0.2155
 7791SOL    HW235010   3.191   0.372  16.769 -0.4659 -0.3978  0.8444
 7792SOL     OW35011   4.107   0.021   9.836  0.0638  0.1615 -0.3667
 7792SOL    HW135012   4.064   4.709   9.904  0.8261  3.0435  2.3045
 7792SOL    HW235013   4.054   0.100   9.843  0.4476  0.2736  1.2721
 7793SOL     OW35014   0.491   0.069  10.281 -0.0861 -0.1952 -0.8385
 7793SOL    HW135015   0.423   0.002  10.286 -0.9157  0.7237  0.1681
 7793SOL    HW235016   0.447   0.137  10.230 -0.2423  0.6216  0.3939
 7794SOL     OW35017   3.677   3.731  14.994  0.1679  0.3458 -0.1746
 7794SOL    HW135018   3.716   3.813  15.026 -0.5878  1.0025 -0.9491
 7794SOL    HW235019   3.703   3.740  14.902 -0.7278  0.0951 -0.4487
 7795SOL     OW35020   4.151   0.131   7.141  0.5011 -0.2266 -0.5366
 7795SOL    HW135021   4.091   0.200   7.113 -2.3305 -2.0628  1.0080
 7795SOL    HW235022   4.094   0.054   7.136 -0.9010  0.8584 -1.0812
 7796SOL     OW35023   2.386   3.241   8.581 -0.2339 -0.2731  0.2013
 7796SOL    HW135024   2.349   3.190   8.509  1.8186 -3.6956  1.5438
 7796SOL    HW235025   2.314   3.260   8.640 -0.4008  0.8282 -0.3609
 7797SOL     OW35026   2.749   3.625   4.971 -0.0388 -0.2729 -0.3911
 7797SOL    HW135027   2.722   3.590   5.056  0.4184 -0.1735 -0.2014
 7797SOL    HW235028   2.685   3.589   4.911  0.0513  0.7302 -1.0906
 7798SOL     OW35029   1.745   4.352   4.968 -0.2474  0.1146  0.2163
 7798SOL    HW135030   1.726   4.293   5.041  1.3880 -1.5251 -0.6734
 7798SOL    HW235031   1.705   4.301   4.898 -0.5419  2.3869 -1.2779
 7799SOL     OW35032   4.685   4.723   7.181  0.0429 -0.5712  0.1042
 7799SOL    HW135033   4.591   4.733   7.192  0.1432  0.7545 -0.2306
 7799SOL    HW235034   4.689   4.641   7.132  1.8190 -0.1696 -0.4440
 7800SOL     OW35035   3.278   2.619   7.539  0.0236  0.1689  0.7443
 7800SOL    HW135036   3.224   2.552   7.496  2.3920 -1.3197  0.1000
 7800SOL    HW235037   3.324   2.650   7.461 -1.1859 -0.8837 -0.3954
 7801SOL     OW35038   3.458   4.341  17.472  0.1808 -1.0468 -0.4257
 7801SOL    HW135039   3.397   4.269  17.453 -1.8365  0.5720 -0.0439
 7801SOL    HW235040   3.540   4.311  17.433  2.5895  2.2237  2.1806
 7802SOL     OW35041   0.795   2.657   2.927 -0.0591  0.3096  0.5447
 7802SOL    HW135042   0.700   2.644   2.934 -0.5230  2.5611 -1.5362
 7802SOL    HW235043   0.815   2.690   3.015 -2.7629  1.8992  0.5754
 7803SOL     OW35044   0.414   1.277   3.417  0.0682 -0.3472 -0.1027
 7803SOL    HW135045   0.371   1.259   3.334 -1.8337 -0.5627  0.9470
 7803SOL    HW235046   0.432   1.368   3.393  1.7683 -0.6124  0.1295
 7804SOL     OW35047   0.412   2.369   5.667  0.0210  0.1376  0.3352
 7804SOL    HW135048   0.386   2.461   5.665 -1.6603 -0.3602 -0.8050
 7804SOL    HW235049   0.503   2.382   5.642 -0.5219  2.0322 -0.6691
 7805SOL     OW35050   3.529   1.093  11.165  0.1796 -0.1727 -0.5887
 7805SOL    HW135051   3.438   1.123  11.163  0.7943  1.6366 -1.0431
 7805SOL    HW235052   3.565   1.155  11.103  0.2537 -0.3123 -0.6849
 7806SOL     OW35053   3.299   3.968   6.554 -0.0192 -0.1745 -0.6023
 7806SOL    HW135054   3.320   3.942   6.644  0.2130  2.0209 -0.0283
 7806SOL    HW235055   3.209   4.000   6.558  0.0719 -0.1562  1.2904
 7807SOL     OW35056   4.198   3.495   3.382 -0.4088 -0.6480  0.0409
 7807SOL    HW135057   4.226   3.476   3.293  2.2759  2.7874  0.1295
 7807SOL    HW235058   4.229   3.586   3.375 -0.2798 -0.8013 -1.2691
 7808SOL     OW35059   2.095   0.610  14.917 -0.2625  0.0887 -0.5118
 7808SOL    HW135060   2.183   0.642  14.938 -1.4636  2.7626  0.4210
 7808SOL    HW235061   2.054   0.611  15.004  1.8157  2.0387  0.4457
 7809SOL     OW35062   0.223   1.552   4.570  0.1627  0.4594  0.1793
 7809SOL    HW135063   0.134   1.516   4.563  0.4783  0.2032 -2.4290
 7809SOL    HW235064   0.275   1.502   4.507  1.1434  0.9686  0.5968
 7810SOL     OW35065   0.612   3.755   8.165 -0.4343  0.4749 -0.1505
 7810SOL    HW135066   0.547   3.806   8.215  0.3049 -1.2228  2.5519
 7810SOL    HW235067   0.586   3.775   8.075 -0.7545  1.4640  0.1593
 7811SOL     OW35068   3.234   2.461  10.267  0.4371  0.0787 -0.1057
 7811SOL    HW135069   3.259   2.375  10.234  2.8527  1.0787 -0.8063
 7811SOL    HW235070   3.279   2.463  10.352  1.3650 -0.7552 -0.5848
 7812SOL     OW35071   2.558   3.308   4.541 -0.0660 -0.3761  0.0750
 7812SOL    HW135072   2.547   3.214   4.533 -0.9346 -0.4198  1.8325
 7812SOL    HW235073   2.494   3.334   4.608  1.2389 -0.3027  1.2746
 7813SOL     OW35074   0.234   2.788   5.856  0.3315 -0.1770  0.0330
 7813SOL    HW135075   0.214   2.813   5.766 -1.2597 -0.4336  0.3142
 7813SOL    HW235076   0.148   2.771   5.895  1.9320 -1.2712  3.1021
 7814SOL     OW35077   0.380   1.539  12.878 -0.2060 -0.1612  0.5873
 7814SOL    HW135078   0.293   1.556  12.843  0.2289 -0.1692 -0.5145
 7814SOL    HW235079   0.366   1.575  12.965 -1.3092 -1.8536  1.1156
 7815SOL     OW35080   4.040   4.703   3.953 -0.5835  0.2072 -0.3386
 7815SOL    HW135081   3.971   0.013   3.998 -2.0568 -1.2831 -0.9036
 7815SOL    HW235082   3.987   4.642   3.902 -0.0861 -0.3560 -0.1866
 7816SOL     OW35083   1.048   2.905   0.955 -0.1380 -0.4601  0.0101
 7816SOL    HW135084   1.124   2.959   0.931 -0.2830 -0.5345 -0.6145
 7816SOL    HW235085   1.038   2.837   0.888 -1.2082  0.5176 -0.8259
 7817SOL     OW35086   1.899   2.413   2.904  0.2221  0.2811 -0.5663
 7817SOL    HW135087   1.862   2.378   2.985  2.3855  0.1557  0.3560
 7817SOL    HW235088   1.879   2.506   2.908 -0.9438  0.0188 -0.2226
 7818SOL     OW35089   3.782   1.378   0.491  0.1294 -0.0555 -0.1683
 7818SOL    HW135090   3.740   1.463   0.503 -1.0481 -0.1021 -3.8645
 7818SOL    HW235091   3.713   1.334   0.440 -0.8344  0.6927  0.4893
 7819SOL     OW35092   4.326   0.459  13.030  0.0619 -0.1074  0.5330
 7819SOL    HW135093   4.327   0.550  13.056 -0.5125  0.2529 -0.6764
 7819SOL    HW235094   4.242   0.435  13.068 -0.0934  0.8075  0.7605
 7820SOL     OW35095   0.161   4.037  15.427  0.5126  0.0729  0.8028
 7820SOL    HW135096   0.079   4.012  15.468  0.4772 -3.0582 -1.1464
 7820SOL    HW235097   0.156   3.986  15.346 -2.7440 -2.1238  2.4051
 7821SOL     OW35098   1.245   2.480   3.007 -0.2234  0.2482  0.2976
 7821SOL    HW135099   1.198   2.550   3.054  0.6218  0.1451  1.2979
 7821SOL    HW235100   1.338   2.489   3.028  0.0175  1.2539 -1.1740
 7822SOL     OW35101   2.272   0.247   7.216 -0.1634 -0.2154 -0.0550
 7822SOL    HW135102   2.359   0.255   7.175 -0.0146 -1.1593  0.0948
 7822SOL    HW235103   2.285   0.221   7.307  0.3082 -1.6730 -0.5454
 7823SOL     OW35104   4.146   3.109  10.360  0.4959  0.3761  0.8724
 7823SOL    HW135105   4.101   3.073  10.284 -1.8099  1.8812  1.5272
 7823SOL    HW235106   4.137   3.202  10.338 -2.1465 -0.0575  0.1775
 7824SOL     OW35107   2.688   1.051   6.844  0.1295  0.2421 -0.5669
 7824SOL    HW135108   2.780   1.043   6.820  0.0071  1.4335 -1.4148
 7824SOL    HW235109   2.637   1.086   6.771 -3.1656 -0.2159  1.5245
 7825SOL     OW35110   0.339   3.768   5.145  0.1468 -0.5478 -0.0890
 7825SOL    HW135111   0.308   3.720   5.068  0.9363  2.3338 -2.1934
 7825SOL    HW235112   0.375   3.702   5.205  0.8521  2.3275  2.6462
 7826SOL     OW35113   3.985   2.620   3.192 -0.4860 -0.2297 -0.2545
 7826SOL    HW135114   3.966   2.708   3.224 -0.2445 -0.2584 -0.0336
 7826SOL    HW235115   4.077   2.610   3.215  0.8098  0.5114 -5.0552
 7827SOL     OW35116   0.042   2.146  12.237  0.4589  0.3334 -0.1102
 7827SOL    HW135117   0.061   2.107  12.322  0.0554  1.2997  0.4152
 7827SOL    HW235118   4.688   2.163  12.226  0.0719 -2.3513 -1.2035
 7828SOL     OW35119   4.546   1.988   9.246  0.2823  0.0124  0.0789
 7828SOL    HW135120   4.471   2.048   9.250  0.5261  0.3306 -0.1308
 7828SOL    HW235121   4.514   1.918   9.303 -2.7659  0.6839 -0.7594
 7829SOL     OW35122   3.320   2.555   3.229  0.3941 -0.4712 -0.2441
 7829SOL    HW135123   3.378   2.596   3.164 -0.4471  1.2197  0.0832
 7829SOL    HW235124   3.348   2.464   3.243 -1.0880 -0.9102 -0.1634
 7830SOL     OW35125   3.370   3.742   8.452  0.1224 -0.4293 -0.4955
 7830SOL    HW135126   3.367   3.838   8.447  1.6749 -0.3627 -0.1206
 7830SOL    HW235127   3.281   3.715   8.428 -0.3612  1.1980 -0.5749
 7831SOL     OW35128   1.140   3.366   2.773  0.7477  0.4144 -0.7263
 7831SOL    HW135129   1.066   3.372   2.713  0.6714  1.6341 -0.5045
 7831SOL    HW235130   1.095   3.381   2.856  0.2205  0.2427 -0.9811
 7832SOL     OW35131   1.649   0.792   3.603  0.2293  0.3495 -0.1499
 7832SOL    HW135132   1.623   0.824   3.517  2.1140  0.6054 -0.6298
 7832SOL    HW235133   1.661   0.874   3.650 -0.2511  0.9438 -1.0700
 7833SOL     OW35134   0.958   3.758   5.709  0.4635 -0.9572 -0.2080
 7833SOL    HW135135   0.964   3.760   5.613 -0.4700  0.8024 -0.2229
 7833SOL    HW235136   1.043   3.797   5.731  0.9112 -0.8729 -2.0843
 7834SOL     OW35137   1.107   3.365   7.651 -0.3827 -0.0658  0.5292
 7834SOL    HW135138   1.037   3.324   7.600  0.5010  2.1992 -2.4905
 7834SOL    HW235139   1.148   3.421   7.585  0.0430 -2.8232 -1.5880
 7835SOL     OW35140   1.034   1.224   3.708  0.4542  0.3850 -0.0298
 7835SOL    HW135141   0.979   1.260   3.639  0.2246  3.7323  1.9378
 7835SOL    HW235142   1.109   1.282   3.692 -0.1823  1.6765  1.6535
 7836SOL     OW35143   1.668   2.125   6.649 -0.0143  0.2357  0.0088
 7836SOL    HW135144   1.708   2.210   6.633  0.6477  0.0275  0.5519
 7836SOL    HW235145   1.573   2.139   6.647 -0.4930 -3.6100 -2.3299
 7837SOL     OW35146   0.583   2.427   9.343 -0.2846 -0.1516  0.1851
 7837SOL    HW135147   0.666   2.389   9.371 -0.9495 -2.4463 -0.9912
 7837SOL    HW235148   0.611   2.519   9.338 -0.0946 -0.2239 -0.0193
 7838SOL     OW35149   3.908   0.924  11.856 -0.0923  0.1130 -0.1097
 7838SOL    HW135150   3.869   0.932  11.769 -0.2254  1.1961  0.0520
 7838SOL    HW235151   3.846   0.857  11.887  2.6733 -2.8443 -0.9811
 7839SOL     OW35152   1.817   1.114  11.406  0.0889  0.7856 -0.2227
 7839SOL    HW135153   1.860   1.147  11.485 -0.1389 -5.5043  2.5363
 7839SOL    HW235154   1.887   1.106  11.341  2.1510 -0.3093  2.1463
 7840SOL     OW35155   1.002   2.896  14.426  0.4768  0.3676 -0.7321
 7840SOL    HW135156   1.093   2.920  14.407  0.5286  0.0858 -0.8456
 7840SOL    HW235157   0.984   2.828  14.361 -1.3968  0.2908 -0.1276
 7841SOL     OW35158   0.862   1.771   6.279 -0.6673  0.1185 -0.4835
 7841SOL    HW135159   0.767   1.757   6.279 -0.4260 -1.5217  1.4450
 7841SOL    HW235160   0.891   1.715   6.351 -2.8118  1.5159  1.4617
 7842SOL     OW35161   2.255   0.731   6.724 -0.6465  0.0270  0.1272
 7842SOL    HW135162   2.225   0.698   6.809 -2.0513  2.2317  0.4699
 7842SOL    HW235163   2.189   0.799   6.709 -0.1956  0.7005  1.2527
 7843SOL     OW35164   4.463   4.504   2.715 -0.7300 -0.3329  0.4401
 7843SOL    HW135165   4.447   4.410   2.722  0.8303 -0.6469 -0.1555
 7843SOL    HW235166   4.382   4.532   2.758 -0.3211 -1.5849  2.0336
 7844SOL     OW35167   3.030   2.268   5.485 -0.4101 -0.0439 -0.1719
 7844SOL    HW135168   3.061   2.182   5.458 -0.0648 -0.2103  0.7367
 7844SOL    HW235169   3.006   2.245   5.575  2.6959  0.7424  0.8700
 7845SOL     OW35170   1.945   4.677   2.262  0.4510  0.0006  0.0722
 7845SOL    HW135171   1.946   4.664   2.167  0.4880 -1.1407  0.2378
 7845SOL    HW235172   2.021   4.630   2.297 -0.4806 -0.3713  1.5942
 7846SOL     OW35173   4.597   4.093  15.190  0.5891 -0.2531  0.5008
 7846SOL    HW135174   4.528   4.120  15.130 -0.7619  0.9258  2.5665
 7846SOL    HW235175   4.613   4.169  15.247  0.9035  0.3058 -0.3301
 7847SOL     OW35176   0.911   0.778   7.493 -0.5141  0.2138  0.2650
 7847SOL    HW135177   0.827   0.796   7.536 -1.0369  0.4980 -0.8633
 7847SOL    HW235178   0.971   0.798   7.564 -0.7094  0.0739  0.4693
 7848SOL     OW35179   4.300   4.496   5.660  0.5363 -0.1257  0.4336
 7848SOL    HW135180   4.256   4.467   5.580  0.0601 -0.3780  0.7873
 7848SOL    HW235181   4.244   4.563   5.699 -0.4791 -2.9488  3.8636
 7849SOL     OW35182   3.151   1.278   5.375  0.0512  0.7470 -0.2763
 7849SOL    HW135183   3.105   1.358   5.400 -0.1920  1.0107 -1.5792
 7849SOL    HW235184   3.108   1.267   5.291 -1.4261 -0.4364  0.6502
 7850SOL     OW35185   1.130   3.788  11.988  0.2681  0.5598 -0.1443
 7850SOL    HW135186   1.111   3.709  11.937 -1.6506  0.4116  0.7841
 7850SOL    HW235187   1.064   3.792  12.057  1.9420 -0.1260  1.4726
 7851SOL     OW35188   4.010   2.311   1.623 -0.0096  0.5808  0.2570
 7851SOL    HW135189   3.921   2.329   1.594 -0.3136  0.1746  0.9384
 7851SOL    HW235190   4.041   2.290   1.534  1.7094 -0.4921  1.1096
 7852SOL     OW35191   0.292   4.021   4.788 -0.2319 -0.0048  0.4592
 7852SOL    HW135192   0.246   4.034   4.705 -1.8737  0.0054  1.3801
 7852SOL    HW235193   0.271   3.933   4.820 -1.1186  0.3202  0.7878
 7853SOL     OW35194   2.404   3.629   9.815  0.5013 -0.6595  0.7860
 7853SOL    HW135195   2.421   3.640   9.721  0.7192 -0.3238  0.8674
 7853SOL    HW235196   2.416   3.536   9.831  1.0056 -0.2475  2.7592
 7854SOL     OW35197   3.956   4.726  12.010  0.3827 -0.5426  0.3720
 7854SOL    HW135198   3.913   4.681  11.938  2.3313  0.0993 -1.1733
 7854SOL    HW235199   4.032   4.673  12.034  2.5031  2.3985  0.2047
 7855SOL     OW35200   1.121   3.354   3.680  0.4937 -0.0682 -0.3352
 7855SOL    HW135201   1.113   3.296   3.604 -1.5792  1.1941 -1.0787
 7855SOL    HW235202   1.086   3.305   3.755  1.4446 -1.4745 -0.8183
 7856SOL     OW35203   2.057   1.603   4.298  0.5237  0.1379 -0.0929
 7856SOL    HW135204   1.976   1.610   4.349  0.1433  0.6532 -0.7763
 7856SOL    HW235205   2.068   1.696   4.278 -1.1175  0.0480 -1.4550
 7857SOL     OW35206   2.650   3.744   8.241  0.6709  0.0186 -0.0046
 7857SOL    HW135207   2.667   3.667   8.295  1.2636  0.8157  0.9371
 7857SOL    HW235208   2.613   3.705   8.161 -0.5320  0.6789  0.2394
 7858SOL     OW35209   4.020   2.728   8.646 -0.1422 -0.3207  0.5665
 7858SOL    HW135210   3.990   2.811   8.682 -0.2491 -0.0072 -0.2385
 7858SOL    HW235211   4.043   2.738   8.554 -1.8824 -0.8507  0.0703
 7859SOL     OW35212   4.660   3.220   8.619 -0.4602 -0.2659 -0.0825
 7859SOL    HW135213   4.605   3.165   8.565  1.1060 -1.8291 -0.1006
 7859SOL    HW235214   4.683   3.166   8.695 -1.4645  1.3578  1.3816
 7860SOL     OW35215   2.566   3.360   2.899  0.0531 -0.2669 -0.1316
 7860SOL    HW135216   2.523   3.321   2.975 -0.6837  0.9281  0.0681
 7860SOL    HW235217   2.606   3.436   2.941 -1.8873  0.8168 -0.2783
 7861SOL     OW35218   2.111   3.646   6.007  0.1943  0.4518  0.2183
 7861SOL    HW135219   2.200   3.640   5.973  0.3374 -1.8087  1.0223
 7861SOL    HW235220   2.078   3.569   5.962  0.0504 -0.5910  2.1004
 7862SOL     OW35221   0.888   1.395  16.230  0.7568 -0.2769  0.5210
 7862SOL    HW135222   0.903   1.448  16.309 -1.5278  1.3084 -0.1081
 7862SOL    HW235223   0.801   1.358  16.239  0.9512 -0.8241  0.1295
 7863SOL     OW35224   1.127   0.631   5.874  0.5668  0.3538  0.5679
 7863SOL    HW135225   1.205   0.602   5.920  0.2238  1.1871  1.6725
 7863SOL    HW235226   1.114   0.716   5.916 -0.8427 -0.6671  2.2107
 7864SOL     OW35227   2.589   4.008   0.521 -0.7320 -0.0004  0.3155
 7864SOL    HW135228   2.539   3.931   0.494 -1.0223 -0.2317  1.5250
 7864SOL    HW235229   2.678   3.973   0.527 -0.9680 -0.8468 -1.0396
 7865SOL     OW35230   4.261   0.685   2.898 -0.0440 -0.2647 -0.1465
 7865SOL    HW135231   4.286   0.707   2.808 -0.3761 -2.3068 -0.7450
 7865SOL    HW235232   4.301   0.755   2.951  2.9622 -1.3715 -0.9365
 7866SOL     OW35233   0.866   0.186   3.353 -0.1207 -0.0303  0.1401
 7866SOL    HW135234   0.773   0.205   3.339  0.1191  1.1073  0.0865
 7866SOL    HW235235   0.862   0.144   3.439  0.9172  2.7816  1.5562
 7867SOL     OW35236   4.423   3.210  14.240  0.2387  0.0574 -0.0670
 7867SOL    HW135237   4.383   3.155  14.306  1.3013  0.6645  1.0908
 7867SOL    HW235238   4.368   3.289  14.240  2.2690  1.4982 -2.6604
 7868SOL     OW35239   2.131   0.850   7.917 -0.1406 -0.5568  0.1542
 7868SOL    HW135240   2.145   0.843   7.823 -1.0671 -0.0615 -0.0166
 7868SOL    HW235241   2.212   0.810   7.950 -0.1130 -0.3212  0.3734
 7869SOL     OW35242   2.438   4.411  10.722 -0.1449 -0.2914 -0.4066
 7869SOL    HW135243   2.361   4.357  10.708 -0.6293  0.2018  0.3625
 7869SOL    HW235244   2.511   4.350  10.708 -1.9370 -2.2606 -1.1745
 7870SOL     OW35245   1.338   3.800   4.766 -0.3474  0.7208  0.1292
 7870SOL    HW135246   1.321   3.880   4.715 -2.6455  1.3775  1.9465
 7870SOL    HW235247   1.407   3.829   4.825  0.6109 -0.5757 -0.3444
 7871SOL     OW35248   2.414   1.660   0.717 -0.1011 -0.2108  0.0497
 7871SOL    HW135249   2.351   1.656   0.646 -0.1977 -1.6889  0.2202
 7871SOL    HW235250   2.458   1.740   0.689 -0.6338  0.0994  0.1183
 7872SOL     OW35251   2.765   3.371   7.050 -0.2264 -0.0718 -0.4062
 7872SOL    HW135252   2.742   3.296   6.995 -3.6195 -0.8532  2.1310
 7872SOL    HW235253   2.698   3.434   7.023  0.1871  1.1171  1.3418
 7873SOL     OW35254   4.141   3.076  13.126 -0.0155 -0.4877  0.3439
 7873SOL    HW135255   4.061   3.102  13.080  1.7553 -0.3565 -2.7011
 7873SOL    HW235256   4.114   2.999  13.177  0.1760 -1.6124 -1.2423
 7874SOL     OW35257   2.966   1.305   5.946 -0.1158 -0.1745  0.2827
 7874SOL    HW135258   2.886   1.316   5.894  0.1654  1.0886  0.1142
 7874SOL    HW235259   3.030   1.284   5.877  2.4945 -1.4569  3.1094
 7875SOL     OW35260   4.642   0.530  16.865  0.5000 -0.3009  0.3230
 7875SOL    HW135261   4.596   0.603  16.823 -0.6813 -0.9953  0.4248
 7875SOL    HW235262   4.637   0.463  16.796 -1.1280 -1.5663  1.6769
 7876SOL     OW35263   0.108   1.047   1.315  0.4498  0.0577  0.1091
 7876SOL    HW135264   0.200   1.030   1.336  0.3098  0.9319  1.4870
 7876SOL    HW235265   0.089   0.968   1.266  1.4024 -0.0526 -0.0840
 7877SOL     OW35266   0.354   4.219   5.753 -0.0891 -0.3201  0.1849
 7877SOL    HW135267   0.346   4.127   5.778 -2.5891  0.0982  0.9212
 7877SOL    HW235268   0.369   4.204   5.660 -0.4266  1.0548 -0.0835
 7878SOL     OW35269   0.755   1.770   9.372  0.3372 -0.1124 -0.2485
 7878SOL    HW135270   0.754   1.863   9.394 -1.8486 -0.3689  0.7359
 7878SOL    HW235271   0.718   1.728   9.450  0.9886 -0.3318 -0.0597
 7879SOL     OW35272   1.300   2.496   3.971 -0.7394  0.5058 -0.3141
 7879SOL    HW135273   1.228   2.489   4.033  0.1608 -1.2789  0.5383
 7879SOL    HW235274   1.286   2.586   3.939  0.3643  1.2021  1.1345
 7880SOL     OW35275   0.128   4.372   8.220 -0.2623 -0.3666 -0.3043
 7880SOL    HW135276   0.138   4.459   8.259 -1.2702 -0.0063 -0.8485
 7880SOL    HW235277   0.150   4.399   8.131  0.8487  1.3432  0.4855
 7881SOL     OW35278   2.105   0.413  10.875 -0.2482 -0.4485  0.3702
 7881SOL    HW135279   2.082   0.432  10.784  0.4031 -1.0637  0.0790
 7881SOL    HW235280   2.030   0.361  10.904 -1.5600 -0.3772 -2.8288
 7882SOL     OW35281   1.119   0.832   3.400 -0.3474  0.0861 -0.7806
 7882SOL    HW135282   1.070   0.862   3.476 -1.3321 -0.2591 -1.2732
 7882SOL    HW235283   1.095   0.739   3.401  1.7355 -0.4342  0.8016
 7883SOL     OW35284   4.053   0.446   6.364 -0.0538 -0.2320  0.8914
 7883SOL    HW135285   4.139   0.414   6.393 -0.4256 -0.8982  1.2622
 7883SOL    HW235286   3.994   0.380   6.400 -0.4231 -1.4354 -1.9401
 7884SOL     OW35287   0.969   0.336   1.412 -0.2250  0.5469 -0.1530
 7884SOL    HW135288   0.927   0.250   1.400  1.2439  0.2960 -3.6477
 7884SOL    HW235289   0.952   0.346   1.506  1.2959  0.7406  0.0965
 7885SOL     OW35290   0.328   0.494  13.789  0.4357  0.1832 -0.0208
 7885SOL    HW135291   0.400   0.539  13.744  1.5988 -0.7510  0.9119
 7885SOL    HW235292   0.326   0.406  13.753 -1.2712  0.8895 -1.6301
 7886SOL     OW35293   1.070   4.188  12.126 -0.3316  0.3241 -0.6293
 7886SOL    HW135294   1.059   4.282  12.139  2.4669  0.5563 -0.0025
 7886SOL    HW235295   1.132   4.203  12.056  0.3417 -0.2302 -0.1485
 7887SOL     OW35296   2.551   4.085   2.156  0.2763  0.0347 -0.0250
 7887SOL    HW135297   2.618   4.016   2.157  1.5046  1.2163 -0.5005
 7887SOL    HW235298   2.515   4.069   2.069  1.7397  0.5167 -0.7229
 7888SOL     OW35299   0.148   1.043   4.077 -0.2242 -0.1420 -0.5772
 7888SOL    HW135300   0.241   1.023   4.083 -0.3424 -0.7928 -0.8873
 7888SOL    HW235301   0.146   1.100   4.001  2.3683  0.8802  0.1241
 7889SOL     OW35302   0.519   1.981   9.224  0.4705 -0.1321  0.0535
 7889SOL    HW135303   0.437   1.935   9.240 -1.8733  2.8076 -3.7238
 7889SOL    HW235304   0.575   1.913   9.263  0.1778  0.0155  0.7291
 7890SOL     OW35305   1.818   3.205   5.524  0.4410  0.3097  0.1888
 7890SOL    HW135306   1.819   3.165   5.611 -1.5026 -1.6194 -0.6760
 7890SOL    HW235307   1.751   3.273   5.532 -0.0262 -0.0330 -0.8758
 7891SOL     OW35308   4.650   3.014   9.487 -0.1144 -0.3604  0.0492
 7891SOL    HW135309   4.577   2.997   9.428  1.4093 -1.4058 -1.5060
 7891SOL    HW235310   4.675   2.926   9.515  1.0336 -0.1417 -0.3001
 7892SOL     OW35311   2.694   0.688   2.953  0.3284 -0.0365 -0.3406
 7892SOL    HW135312   2.600   0.667   2.952  0.2352  0.4154 -1.3302
 7892SOL    HW235313   2.732   0.631   3.019 -0.2934  0.2647  0.2743
 7893SOL     OW35314   2.115   3.168  17.553 -0.3448 -0.3935  0.5488
 7893SOL    HW135315   2.029   3.179  17.511  0.0853 -0.8560 -0.4613
 7893SOL    HW235316   2.098   3.074  17.558 -0.3505 -0.5681 -2.6777
 7894SOL     OW35317   1.539   1.980   1.333  0.5310 -0.6148 -0.4884
 7894SOL    HW135318   1.510   1.994   1.423 -0.9387  0.6032 -1.1392
 7894SOL    HW235319   1.463   1.996   1.276 -1.3400 -1.9756  1.6054
 7895SOL     OW35320   0.295   0.921   7.029  0.4074 -0.3986  0.2693
 7895SOL    HW135321   0.252   0.957   7.106 -2.4882 -1.8260 -0.6791
 7895SOL    HW235322   0.223   0.885   6.977 -0.4844  0.9294  0.5769
 7896SOL     OW35323   0.751   3.137   7.026  0.0788 -0.7497  0.6504
 7896SOL    HW135324   0.766   3.217   6.976 -2.2387 -0.6244  0.1491
 7896SOL    HW235325   0.722   3.080   6.954  2.2483 -0.6932 -0.2574
 7897SOL     OW35326   2.232   2.246   6.624 -0.2433 -0.1007 -0.1570
 7897SOL    HW135327   2.229   2.335   6.589  1.1995  0.2515  0.5963
 7897SOL    HW235328   2.151   2.254   6.673 -0.6399  0.3968 -0.8912
 7898SOL     OW35329   4.689   1.213   7.250  0.3391  0.0796  0.2700
 7898SOL    HW135330   4.609   1.208   7.197  0.3462 -1.2219  0.3946
 7898SOL    HW235331   4.648   1.196   7.335 -1.4135  2.3640 -0.0919
 7899SOL     OW35332   3.454   3.583  14.793 -0.0702 -0.2794 -0.0716
 7899SOL    HW135333   3.506   3.658  14.766 -2.2623  1.5359  0.8185
 7899SOL    HW235334   3.531   3.526  14.786 -1.2096 -1.6143 -1.8212
 7900SOL     OW35335   3.660   1.001   6.507  0.3168  0.5183  0.2139
 7900SOL    HW135336   3.575   1.020   6.548 -0.4486 -1.5497 -0.4057
 7900SOL    HW235337   3.633   1.009   6.415 -0.2469  2.2899  0.5371
 7901SOL     OW35338   3.286   2.947  12.883 -0.7366  0.7256  0.2335
 7901SOL    HW135339   3.310   3.029  12.926 -0.3989  0.5904  0.3049
 7901SOL    HW235340   3.211   2.916  12.933  1.0953  0.9309  3.1062
 7902SOL     OW35341   1.406   2.595   1.106 -0.0250 -0.4667  0.0505
 7902SOL    HW135342   1.414   2.626   1.016  1.8899 -2.2887 -0.3871
 7902SOL    HW235343   1.358   2.669   1.144  0.5002  2.1550 -4.4486
 7903SOL     OW35344   0.322   0.220   5.314  0.3306  0.0479  0.3456
 7903SOL    HW135345   0.331   0.274   5.393  0.3802 -1.9676  1.7457
 7903SOL    HW235346   0.354   0.139   5.354 -0.4443  0.8460  2.5859
 7904SOL     OW35347   4.686   1.442   4.560  0.4582 -0.2454 -0.1017
 7904SOL    HW135348   4.636   1.400   4.630  0.7173  0.7112  0.6519
 7904SOL    HW235349   4.619   1.487   4.508  0.9837  2.0488  1.2411
 7905SOL     OW35350   2.980   2.078   5.710 -0.3387  0.4973 -0.7316
 7905SOL    HW135351   2.995   2.022   5.786 -1.9827 -1.2835 -1.7386
 7905SOL    HW235352   2.959   2.156   5.763 -1.0911 -0.5676  0.5495
 7906SOL     OW35353   2.882   1.352   4.638  0.1979  0.2819 -0.2613
 7906SOL    HW135354   2.943   1.388   4.702  2.1403 -0.8137 -1.5236
 7906SOL    HW235355   2.924   1.275   4.600  0.7477  0.4701 -0.0319
 7907SOL     OW35356   4.250   2.849  14.165 -0.0849  0.0139 -0.4004
 7907SOL    HW135357   4.155   2.838  14.164 -0.1466  0.5355 -0.3684
 7907SOL    HW235358   4.284   2.761  14.151 -2.4019 -1.0940  0.9850
 7908SOL     OW35359   3.444   3.401   7.557  0.2583  0.3258 -0.0325
 7908SOL    HW135360   3.508   3.343   7.516 -1.5048 -2.1772  0.8157
 7908SOL    HW235361   3.499   3.479   7.567  1.9306 -1.0074  1.1496
 7909SOL     OW35362   0.055   2.227   2.803  0.1912  0.2342 -0.2514
 7909SOL    HW135363   0.031   2.294   2.738 -2.7654 -0.1457  0.4306
 7909SOL    HW235364   0.150   2.230   2.801  0.1610  0.2868 -2.2017
 7910SOL     OW35365   4.357   3.630   8.067 -0.1158  0.2780  0.0947
 7910SOL    HW135366   4.331   3.720   8.048 -2.2615  0.0639  1.9593
 7910SOL    HW235367   4.383   3.646   8.158  3.2113 -0.8905 -0.6327
 7911SOL     OW35368   0.431   2.233  13.531 -0.1214 -0.3058  0.5254
 7911SOL    HW135369   0.478   2.193  13.457  0.2497 -0.0404  0.6177
 7911SOL    HW235370   0.361   2.284  13.492  0.6718 -0.6900 -1.4114
 7912SOL     OW35371   0.761   3.300   2.228  0.0277  0.6035 -0.1248
 7912SOL    HW135372   0.854   3.316   2.218 -0.0955  0.6474 -1.1800
 7912SOL    HW235373   0.715   3.299   2.144 -2.5049 -1.6681  1.2701
 7913SOL     OW35374   1.903   2.725   6.264  0.2460  0.1512  0.9826
 7913SOL    HW135375   1.901   2.643   6.214 -1.1711  0.1463  1.0582
 7913SOL    HW235376   1.820   2.766   6.242  0.1694 -0.7349 -0.3672
 7914SOL     OW35377   4.711   2.731  13.354 -0.0399  0.0497 -0.2081
 7914SOL    HW135378   0.004   2.801  13.298  2.0867  0.9061  2.1139
 7914SOL    HW235379   4.636   2.779  13.390  0.7108 -1.1567  2.8718
 7915SOL     OW35380   2.146   1.718   2.369 -0.2026 -0.2381  0.0996
 7915SOL    HW135381   2.218   1.761   2.323  0.7154 -1.6781  0.1908
 7915SOL    HW235382   2.143   1.634   2.323  2.3707  0.8233 -2.0155
 7916SOL     OW35383   3.330   0.685   9.591  0.1878 -0.6326 -0.2521
 7916SOL    HW135384   3.312   0.591   9.597 -0.6688 -0.5129 -1.0175
 7916SOL    HW235385   3.330   0.716   9.682  0.6884 -0.4629 -0.3054
 7917SOL     OW35386   1.899   1.043   6.548  0.3282  0.3224  0.1292
 7917SOL    HW135387   1.822   1.095   6.570 -0.0246 -0.3915  0.5758
 7917SOL    HW235388   1.863   0.972   6.494  0.2246  0.5515 -0.1052
 7918SOL     OW35389   2.523   1.030   4.115  0.2086  0.1890  0.4415
 7918SOL    HW135390   2.534   1.061   4.205 -0.5209  2.7054 -0.3225
 7918SOL    HW235391   2.447   0.972   4.114  0.5377 -0.2342  0.4749
 7919SOL     OW35392   3.402   1.805   2.984  0.2023  0.0355 -0.0764
 7919SOL    HW135393   3.310   1.786   2.969 -0.2062  0.9687  1.2509
 7919SOL    HW235394   3.407   1.829   3.077  0.6587  3.5853 -0.9976
 7920SOL     OW35395   2.140   4.572   4.592  0.5863 -0.2898  0.1655
 7920SOL    HW135396   2.226   4.614   4.602 -0.5031  1.4043  2.3589
 7920SOL    HW235397   2.164   4.511   4.522 -0.1841 -1.2596  0.7516
 7921SOL     OW35398   1.777   3.534  16.933  0.1056 -0.5047  0.6210
 7921SOL    HW135399   1.735   3.600  16.987  0.2680 -0.0633  0.2099
 7921SOL    HW235400   1.736   3.454  16.966 -0.5298 -0.9783 -1.3088
 7922SOL     OW35401   1.957   2.350  14.158  0.2644  0.3851 -0.4732
 7922SOL    HW135402   1.908   2.268  14.147 -1.3982  1.2554  0.6272
 7922SOL    HW235403   1.988   2.350  14.249 -2.3719 -1.9092  0.4420
 7923SOL     OW35404   2.567   1.042   9.667 -0.5335 -0.2583  0.5778
 7923SOL    HW135405   2.474   1.048   9.692 -1.3452 -1.4010 -2.1439
 7923SOL    HW235406   2.613   1.028   9.750  1.9005  0.4427 -0.6547
 7924SOL     OW35407   4.277   1.694  16.011 -0.5294 -0.0321  0.6243
 7924SOL    HW135408   4.372   1.706  16.006 -0.4720 -0.6290  0.3096
 7924SOL    HW235409   4.253   1.782  16.042 -1.2565  0.7885 -2.2670
 7925SOL     OW35410   0.345   4.142   4.433 -0.3596 -0.4481  0.2575
 7925SOL    HW135411   0.275   4.185   4.383 -0.0223  1.0763  1.0946
 7925SOL    HW235412   0.317   4.140   4.524  1.8310  1.2622  0.9811
 7926SOL     OW35413   3.234   0.737   2.952  0.4992 -0.0860  0.1234
 7926SOL    HW135414   3.163   0.794   2.921 -0.6511 -2.1987 -1.1079
 7926SOL    HW235415   3.188   0.681   3.014 -0.7289  1.2883  0.4637
 7927SOL     OW35416   0.073   1.554   4.882  0.0894 -0.7755  0.0789
 7927SOL    HW135417   0.031   1.495   4.945 -1.1206 -2.3508 -2.1864
 7927SOL    HW235418   0.139   1.490   4.856  1.2411  1.3043 -2.1008
 7928SOL     OW35419   3.517   1.060   4.173 -0.8988  0.3215  0.3499
 7928SOL    HW135420   3.424   1.082   4.169 -1.0440 -0.4041 -0.3580
 7928SOL    HW235421   3.524   1.037   4.265  1.1477  0.9395  0.3518
 7929SOL     OW35422   2.211   0.715  12.110 -0.2762  0.0816 -0.4622
 7929SOL    HW135423   2.135   0.716  12.168 -0.7412 -0.6513 -1.0752
 7929SOL    HW235424   2.248   0.628  12.120 -0.5377  0.0965  0.6652
 7930SOL     OW35425   4.437   1.800   4.672 -0.0275 -0.6710  0.5319
 7930SOL    HW135426   4.408   1.716   4.636 -1.4235  0.3299 -0.7218
 7930SOL    HW235427   4.510   1.778   4.730 -0.5537 -1.6925  0.8158
 7931SOL     OW35428   1.200   1.222  12.577  0.2753  0.0140 -0.3239
 7931SOL    HW135429   1.236   1.287  12.516  1.3653 -1.3435 -1.1455
 7931SOL    HW235430   1.137   1.282  12.617  0.2717  0.2828 -0.7267
 7932SOL     OW35431   1.569   3.701   3.137 -0.4125  0.3161 -0.6811
 7932SOL    HW135432   1.479   3.724   3.116 -0.1748  2.3187  0.4656
 7932SOL    HW235433   1.606   3.663   3.058  1.5191 -0.6944  0.6983
 7933SOL     OW35434   3.390   3.511   7.908  0.8583  0.3768  0.2432
 7933SOL    HW135435   3.471   3.563   7.913  0.4859  0.8480  1.5495
 7933SOL    HW235436   3.397   3.436   7.850 -0.1899 -0.6346  1.4252
 7934SOL     OW35437   4.398   3.739   2.115  0.2145  0.1331  0.0353
 7934SOL    HW135438   4.335   3.775   2.053  0.6144 -0.0010 -0.4475
 7934SOL    HW235439   4.482   3.757   2.073 -0.1075  1.8028  0.1007
 7935SOL     OW35440   0.851   3.928   8.176 -0.0258 -0.4108  0.1083
 7935SOL    HW135441   0.814   3.966   8.256 -0.9961  1.1630 -1.0961
 7935SOL    HW235442   0.880   3.845   8.214  2.0852  0.9755  1.5620
 7936SOL     OW35443   2.107   3.155  15.007 -0.8864 -0.1459 -0.2387
 7936SOL    HW135444   2.074   3.210  15.078 -1.6056  0.2672 -0.8916
 7936SOL    HW235445   2.110   3.075  15.058 -0.4402  0.7411  1.1286
 7937SOL     OW35446   0.758   2.384   7.281 -0.6901  0.4326 -0.6690
 7937SOL    HW135447   0.693   2.314   7.270 -0.2659  0.1543 -1.4162
 7937SOL    HW235448   0.817   2.347   7.346 -1.8011 -0.5326 -0.2016
 7938SOL     OW35449   1.370   1.558   3.821  0.0471 -1.0727 -0.0395
 7938SOL    HW135450   1.342   1.623   3.757  0.0789 -1.6776 -0.6601
 7938SOL    HW235451   1.462   1.556   3.792 -0.0980 -1.9843 -0.4447
 7939SOL     OW35452   1.564   1.760   6.818  0.3247  0.3596  0.2637
 7939SOL    HW135453   1.470   1.753   6.804  0.2590 -1.6386  1.6255
 7939SOL    HW235454   1.568   1.853   6.840  1.9996  0.8540 -2.0475
 7940SOL     OW35455   1.565   0.457   7.617  0.1995 -0.5057  0.0565
 7940SOL    HW135456   1.605   0.473   7.532  0.6493  0.4707  0.4491
 7940SOL    HW235457   1.530   0.546   7.626 -0.6395 -1.0464  2.2846
 7941SOL     OW35458   0.409   2.696   2.279 -0.0065  0.1133  0.3804
 7941SOL    HW135459   0.384   2.663   2.366 -0.7751  0.4717  0.2995
 7941SOL    HW235460   0.428   2.789   2.294  0.0098  0.4212 -1.6401
 7942SOL     OW35461   1.840   3.957   9.162 -0.2648 -0.4652 -0.3960
 7942SOL    HW135462   1.924   3.999   9.183 -0.1942 -0.8061  0.0166
 7942SOL    HW235463   1.829   3.987   9.072 -3.7131  0.6539  0.3929
 7943SOL     OW35464   0.592   1.092   0.353 -0.5849 -0.3428  0.0274
 7943SOL    HW135465   0.567   1.023   0.292 -0.3451 -0.2219 -0.2132
 7943SOL    HW235466   0.602   1.048   0.437 -0.3782 -2.2545 -1.0116
 7944SOL     OW35467   0.813   2.830   8.671  0.7287  0.7340  0.5689
 7944SOL    HW135468   0.832   2.745   8.630  0.7957  1.3820 -0.7399
 7944SOL    HW235469   0.796   2.888   8.597 -2.6532  0.5236  1.1709
 7945SOL     OW35470   3.795   4.090   2.535  0.0595  0.3282  0.2515
 7945SOL    HW135471   3.771   4.072   2.626 -2.2939  1.0234 -0.2399
 7945SOL    HW235472   3.816   4.005   2.496 -4.3259 -1.5615  1.9601
 7946SOL     OW35473   0.299   4.474   4.159 -0.2536 -0.0809  0.3319
 7946SOL    HW135474   0.351   4.403   4.120 -0.1381  0.1501  0.0653
 7946SOL    HW235475   0.247   4.418   4.216 -1.2728  1.9695  1.4173
 7947SOL     OW35476   1.259   1.942  15.766  0.1820 -0.7134 -0.1657
 7947SOL    HW135477   1.289   1.903  15.683 -0.2472  0.3195 -0.8005
 7947SOL    HW235478   1.286   2.031  15.742 -1.6571  0.4141  2.0036
 7948SOL     OW35479   4.181   0.900   9.968 -1.0859 -0.3112  0.4073
 7948SOL    HW135480   4.088   0.913   9.987 -0.5600 -0.6888  3.1963
 7948SOL    HW235481   4.202   0.993   9.957 -1.1650 -0.2197  1.0284
 7949SOL     OW35482   1.830   0.192   8.562  0.1339 -0.2195 -0.2645
 7949SOL    HW135483   1.850   0.162   8.473  3.0247  0.1900  0.2489
 7949SOL    HW235484   1.880   0.130   8.615 -0.2074 -0.0012  0.3139
 7950SOL     OW35485   2.583   2.921  14.723  0.6299 -0.4308 -0.4076
 7950SOL    HW135486   2.632   2.859  14.778  1.7500 -0.9009 -1.9417
 7950SOL    HW235487   2.626   2.912  14.638  0.0055  0.8432 -0.8587
 7951SOL     OW35488   3.228   1.735  13.202  0.0522 -0.5715 -0.1894
 7951SOL    HW135489   3.267   1.819  13.180  0.1000 -0.7738 -0.8953
 7951SOL    HW235490   3.204   1.698  13.117 -2.7136 -1.6438  1.0523
 7952SOL     OW35491   4.398   2.929   5.714 -0.0950  0.3059 -0.3584
 7952SOL    HW135492   4.367   2.843   5.690 -0.2111  0.5652 -1.1393
 7952SOL    HW235493   4.320   2.982   5.698 -1.0087 -1.5034 -1.7833
 7953SOL     OW35494   2.397   3.843  12.254 -0.3271 -0.3256 -0.3452
 7953SOL    HW135495   2.486   3.823  12.284 -0.0051 -0.0006 -1.0661
 7953SOL    HW235496   2.355   3.873  12.335  0.2245  0.3199 -0.2945
 7954SOL     OW35497   4.511   1.124   3.703  0.2779  0.1146  1.0213
 7954SOL    HW135498   4.425   1.158   3.678  0.8690  1.4046  0.7396
 7954SOL    HW235499   4.488   1.065   3.775 -1.9837  0.3804  0.5087
 7955SOL     OW35500   4.425   3.184  13.069 -0.0528  0.1828 -0.1870
 7955SOL    HW135501   4.513   3.147  13.078 -0.4099 -0.6735 -0.2592
 7955SOL    HW235502   4.398   3.125  12.999  1.2526  1.0251 -1.4099
 7956SOL     OW35503   0.583   1.912  17.191  0.2218  0.1215 -0.3054
 7956SOL    HW135504   0.603   1.819  17.181 -1.5674 -0.1109 -1.6147
 7956SOL    HW235505   0.659   1.947  17.144  0.9904  0.9855  1.5799
 7957SOL     OW35506   2.967   0.147   3.913 -0.2845 -0.1545  0.5621
 7957SOL    HW135507   3.052   0.173   3.948  0.4582 -0.4102 -1.0293
 7957SOL    HW235508   2.922   0.145   3.997 -0.8872 -1.4436  0.2228
 7958SOL     OW35509   4.062   4.520   7.514  0.4741 -0.2060  0.6115
 7958SOL    HW135510   4.042   4.520   7.420  1.2037 -1.1189  0.4488
 7958SOL    HW235511   3.974   4.507   7.549  1.1371 -0.8765  2.0358
 7959SOL     OW35512   2.319   1.161  11.403 -0.1441  0.1542 -0.2824
 7959SOL    HW135513   2.364   1.246  11.408  3.3612 -1.7151 -0.4783
 7959SOL    HW235514   2.392   1.109  11.369  0.2124 -0.3339  1.2583
 7960SOL     OW35515   0.301   4.531   2.534  0.0546  0.4687 -0.4786
 7960SOL    HW135516   0.276   4.614   2.495 -0.4903 -0.7242 -2.6438
 7960SOL    HW235517   0.294   4.471   2.459  0.5511  1.8513 -1.6231
 7961SOL     OW35518   4.287   0.128   4.942  0.3288 -0.1992 -0.0158
 7961SOL    HW135519   4.254   0.038   4.939 -1.3659  0.4105  0.0404
 7961SOL    HW235520   4.203   0.173   4.947  0.8091  0.9700 -2.4935
 7962SOL     OW35521   1.463   4.103  13.954 -0.5154 -0.0649 -0.0191
 7962SOL    HW135522   1.466   4.197  13.938  2.2341 -0.1172  0.3285
 7962SOL    HW235523   1.494   4.062  13.873 -1.5730 -0.9227  0.0000
 7963SOL     OW35524   4.536   0.979  13.543  0.7937 -0.6261 -0.4820
 7963SOL    HW135525   4.510   0.980  13.451  1.5770  1.6776 -0.6693
 7963SOL    HW235526   4.514   0.888  13.564  0.4740 -0.6638 -0.9791
 7964SOL     OW35527   2.428   3.894   8.302  0.4873  0.3359 -0.3471
 7964SOL    HW135528   2.393   3.870   8.216  1.3101 -0.7441 -0.3752
 7964SOL    HW235529   2.510   3.845   8.296 -1.3175 -2.5288 -1.7358
 7965SOL     OW35530   2.876   0.416   5.706  0.5291 -0.1404  0.4387
 7965SOL    HW135531   2.956   0.420   5.655  1.2018  1.8724  1.6403
 7965SOL    HW235532   2.912   0.387   5.790  0.7098 -1.8103 -0.2154
 7966SOL     OW35533   4.136   2.968   5.672 -0.7389  0.0695  0.7044
 7966SOL    HW135534   4.059   2.966   5.729 -0.8429 -0.9914  0.5213
 7966SOL    HW235535   4.112   2.898   5.611  1.8549 -2.3513  2.4521
 7967SOL     OW35536   3.092   2.973  14.987 -0.0658 -0.1625 -1.0035
 7967SOL    HW135537   3.164   3.001  15.043  0.3381 -0.5639 -1.3272
 7967SOL    HW235538   3.068   3.048  14.932  2.3728 -0.0577 -1.9248
 7968SOL     OW35539   0.197   0.229   4.342 -0.4731 -0.5249 -0.2445
 7968SOL    HW135540   0.213   0.305   4.287 -0.1827  0.9882  1.9485
 7968SOL    HW235541   0.221   0.162   4.277  1.5164 -0.7991  0.7753
 7969SOL     OW35542   0.160   3.881  17.496 -0.0075 -0.7624  0.0927
 7969SOL    HW135543   0.166   3.881  17.400 -1.1922 -0.5367  0.0157
 7969SOL    HW235544   0.066   3.871  17.507 -0.5361 -0.3349 -3.8763
 7970SOL     OW35545   1.830   0.707   2.169  0.0281 -0.1280  0.4634
 7970SOL    HW135546   1.792   0.748   2.246  1.1362 -4.0422  3.1023
 7970SOL    HW235547   1.823   0.765   2.094  0.2885 -2.0047 -1.0313
 7971SOL     OW35548   0.151   3.368   5.889 -0.5334  0.5690  0.1524
 7971SOL    HW135549   0.056   3.372   5.899 -0.6719  1.7534 -1.5191
 7971SOL    HW235550   0.161   3.456   5.852  0.8294 -0.7730 -2.7225
 7972SOL     OW35551   3.297   0.774   7.449 -0.6934 -0.1806 -0.4583
 7972SOL    HW135552   3.363   0.735   7.390 -0.3175  1.1186 -0.8877
 7972SOL    HW235553   3.353   0.828   7.504 -0.1170 -0.4486 -0.7769
 7973SOL     OW35554   3.974   4.330   3.948  0.6732  0.1247 -0.5405
 7973SOL    HW135555   3.961   4.391   3.875 -1.2284  0.1794 -0.1605
 7973SOL    HW235556   4.052   4.281   3.924  3.1460  3.2812  0.9417
 7974SOL     OW35557   3.129   1.545   1.293 -0.3655  0.2240  0.4533
 7974SOL    HW135558   3.100   1.551   1.203  2.1806 -3.7016 -0.6146
 7974SOL    HW235559   3.157   1.454   1.291 -2.6084 -0.4806  1.2076
 7975SOL     OW35560   4.586   3.878   4.706 -0.1609 -0.5150 -0.5071
 7975SOL    HW135561   4.616   3.787   4.699 -0.7840 -0.7900  0.3360
 7975SOL    HW235562   4.554   3.887   4.795  0.6532 -0.4186 -0.2195
 7976SOL     OW35563   0.397   1.735   1.813  0.0375 -0.0988 -0.7641
 7976SOL    HW135564   0.378   1.703   1.901 -3.7175  4.1768 -0.0270
 7976SOL    HW235565   0.318   1.705   1.768  1.1493 -2.1160 -1.3972
 7977SOL     OW35566   0.524   3.122   3.927 -0.3092 -0.6087  0.4706
 7977SOL    HW135567   0.473   3.097   4.004  0.7040  0.0639  1.3548
 7977SOL    HW235568   0.607   3.143   3.969 -1.0084 -1.1870  2.1409
 7978SOL     OW35569   1.241   1.703   7.161 -0.2072 -0.1469  0.4011
 7978SOL    HW135570   1.213   1.732   7.248 -0.0545  1.4530 -0.0759
 7978SOL    HW235571   1.265   1.783   7.114 -0.4092 -1.7113 -2.3581
 7979SOL     OW35572   4.730   2.292   9.202 -0.1709 -0.0586  0.1249
 7979SOL    HW135573   4.647   2.332   9.227 -0.4298 -1.7471  2.0044
 7979SOL    HW235574   0.036   2.322   9.281 -0.6883 -0.0339  0.4116
 7980SOL     OW35575   3.511   2.847   9.356 -0.5666 -0.4577  0.6935
 7980SOL    HW135576   3.598   2.874   9.386 -0.9952  0.3855  1.1680
 7980SOL    HW235577   3.454   2.891   9.417 -1.4119 -3.1015  1.8185
 7981SOL     OW35578   3.744   0.078  12.697 -0.4551  0.6107 -0.0869
 7981SOL    HW135579   3.774   0.160  12.658  1.8350 -0.4281 -0.4819
 7981SOL    HW235580   3.704   0.031  12.624  1.2933  1.1685 -1.3854
 7982SOL     OW35581   3.774   2.740   2.157 -0.1945 -0.2374  0.3503
 7982SOL    HW135582   3.712   2.813   2.150  0.8755  0.6783  0.3422
 7982SOL    HW235583   3.769   2.693   2.074  1.6023  2.8961 -1.5274
 7983SOL     OW35584   1.068   3.798   6.422  0.1581 -0.8098  0.0398
 7983SOL    HW135585   1.116   3.722   6.389  1.1066  0.6022 -1.7950
 7983SOL    HW235586   1.121   3.830   6.495 -2.5193 -0.1996  1.7346
 7984SOL     OW35587   3.660   1.607  14.517  0.1574  0.5300 -0.0291
 7984SOL    HW135588   3.753   1.629  14.527  0.0484  1.8873 -1.9395
 7984SOL    HW235589   3.631   1.680  14.463 -0.2392 -0.2780 -0.9144
 7985SOL     OW35590   3.189   0.295  17.403  0.2021 -0.2527  0.2251
 7985SOL    HW135591   3.100   0.327  17.413  0.5489  0.3009  1.5204
 7985SOL    HW235592   3.172   0.202  17.417  0.1313 -0.2384  0.2330
 7986SOL     OW35593   0.165   1.761  15.364  0.4464  0.2522  0.0594
 7986SOL    HW135594   0.201   1.812  15.292  1.3560  1.0825  1.0935
 7986SOL    HW235595   0.182   1.674  15.330 -1.1140 -0.2468  0.5373
 7987SOL     OW35596   0.346   3.433  10.881 -0.1039  0.1746  0.0306
 7987SOL    HW135597   0.425   3.479  10.911  0.1221 -1.2671  1.6761
 7987SOL    HW235598   0.288   3.509  10.871  0.8934  1.3519  3.0731
 7988SOL     OW35599   2.825   1.682   2.665  0.6583  0.0586 -0.2342
 7988SOL    HW135600   2.811   1.622   2.592 -0.8464  0.3923 -0.2215
 7988SOL    HW235601   2.907   1.721   2.635  0.0768  2.2030  1.0197
 7989SOL     OW35602   2.172   1.944  16.170  0.0068 -0.3902  0.3469
 7989SOL    HW135603   2.142   1.870  16.117 -1.6549 -0.9930  2.1282
 7989SOL    HW235604   2.131   1.922  16.254  2.7908 -2.5037  1.1666
 7990SOL     OW35605   0.490   3.628   4.768 -0.5134 -0.2461  0.2273
 7990SOL    HW135606   0.422   3.658   4.707  0.2649  0.7413 -0.1454
 7990SOL    HW235607   0.441   3.582   4.836  0.1174  1.3212  1.7434
 7991SOL     OW35608   0.157   1.547  17.335  0.1005 -0.4949 -0.5506
 7991SOL    HW135609   0.189   1.586  17.254  0.1513  0.6742  0.0370
 7991SOL    HW235610   0.096   1.612  17.372  2.1528  0.6186  0.8539
 7992SOL     OW35611   1.753   2.274   4.491  0.4453  0.6423 -0.1975
 7992SOL    HW135612   1.835   2.241   4.526 -1.4976 -2.7269  1.1648
 7992SOL    HW235613   1.686   2.214   4.524  1.3374  1.0751  2.3162
 7993SOL     OW35614   1.495   3.933   7.895 -0.3534 -0.1374  0.1861
 7993SOL    HW135615   1.464   3.931   7.985 -0.1518 -0.5798  0.2433
 7993SOL    HW235616   1.581   3.891   7.899 -0.1405  0.2167 -0.6192
 7994SOL     OW35617   3.836   1.827  16.352 -0.1146  0.2893 -0.2525
 7994SOL    HW135618   3.846   1.902  16.410 -0.2801  0.8622 -0.9694
 7994SOL    HW235619   3.787   1.871  16.282  0.9525 -0.8329 -1.6997
 7995SOL     OW35620   1.362   0.562   8.987 -0.0659  0.7071 -0.6949
 7995SOL    HW135621   1.286   0.620   8.989  0.5799  1.4963  2.2210
 7995SOL    HW235622   1.407   0.592   8.909  0.6741 -0.5379 -0.7588
 7996SOL     OW35623   1.344   3.133   3.595 -0.3388  0.7503 -0.6238
 7996SOL    HW135624   1.390   3.217   3.601  1.1828 -0.1845  1.0178
 7996SOL    HW235625   1.275   3.141   3.530 -1.1456  1.8263  0.3764
 7997SOL     OW35626   3.275   1.475  10.727  0.0517 -0.5752  0.8963
 7997SOL    HW135627   3.223   1.520  10.661  0.0207 -0.5239  0.9556
 7997SOL    HW235628   3.317   1.399  10.687  0.1325  0.4253 -0.8997
 7998SOL     OW35629   0.656   0.704  16.401 -0.0995 -0.2100  0.9370
 7998SOL    HW135630   0.686   0.684  16.489 -1.1414  1.2857  1.6284
 7998SOL    HW235631   0.732   0.749  16.363  1.1481 -0.9787  2.4956
 7999SOL     OW35632   3.311   1.584  14.887  0.5146 -0.0595 -0.3459
 7999SOL    HW135633   3.406   1.597  14.886  0.5377 -0.2397 -0.5273
 7999SOL    HW235634   3.299   1.557  14.796 -2.5514  0.4511 -0.1087
 8000SOL     OW35635   1.503   3.727  14.356 -0.2546  0.9577  0.3951
 8000SOL    HW135636   1.463   3.795  14.302  2.4283  1.8165 -0.5054
 8000SOL    HW235637   1.536   3.786  14.423 -0.0732  0.4261  0.7707
 8001SOL     OW35638   3.994   4.495  11.559  0.8578 -0.0996 -0.3025
 8001SOL    HW135639   3.998   4.402  11.580 -0.0274 -0.2408 -0.7540
 8001SOL    HW235640   3.941   4.529  11.631  2.2758  2.2526 -0.3843
 8002SOL     OW35641   2.206   0.527  17.265 -0.1248  0.8496 -0.1047
 8002SOL    HW135642   2.292   0.520  17.307 -0.6860 -0.2858  0.8502
 8002SOL    HW235643   2.208   0.620  17.244 -0.4126  0.3354 -2.4609
 8003SOL     OW35644   0.038   4.357  14.650 -0.2895  0.2537  0.5243
 8003SOL    HW135645   0.121   4.405  14.652 -0.9750  1.4796 -0.6211
 8003SOL    HW235646   0.065   4.269  14.624 -0.4429  0.3923 -0.0969
 8004SOL     OW35647   4.069   2.349   2.456  0.0438 -0.0552 -0.2032
 8004SOL    HW135648   4.066   2.301   2.373  0.9699  1.3122 -1.0079
 8004SOL    HW235649   4.108   2.433   2.436  0.2363 -0.3317 -0.9896
 8005SOL     OW35650   2.848   4.487   2.421 -0.2706 -0.1229  0.2573
 8005SOL    HW135651   2.866   4.422   2.488  1.5057 -0.4111 -0.4863
 8005SOL    HW235652   2.786   4.552   2.455 -1.3252 -1.4961  0.9621
 8006SOL     OW35653   0.003   4.374   5.612  0.1360 -0.3350 -0.5029
 8006SOL    HW135654   0.036   4.416   5.532 -2.3453  2.1819 -0.1940
 8006SOL    HW235655   4.725   4.285   5.582  0.1374 -0.5714  0.2056
 8007SOL     OW35656   1.920   0.444  10.159  0.0312 -0.0400  0.2910
 8007SOL    HW135657   1.895   0.414  10.247  0.3398  1.2260  0.8024
 8007SOL    HW235658   1.843   0.463  10.104  0.3478 -2.5720 -1.0366
 8008SOL     OW35659   3.263   1.677   4.382 -0.0381 -0.1950 -0.0393
 8008SOL    HW135660   3.225   1.675   4.295  0.9384 -2.5228 -0.3936
 8008SOL    HW235661   3.250   1.766   4.416 -3.1358 -0.4405 -0.5897
 8009SOL     OW35662   0.264   0.434   4.181 -0.6803 -0.2880  0.0633
 8009SOL    HW135663   0.296   0.448   4.092 -3.8961 -1.0538 -1.2188
 8009SOL    HW235664   0.172   0.457   4.170 -0.1570  1.1918 -1.2140
 8010SOL     OW35665   2.208   0.980   8.520  0.5573  0.5849  0.1318
 8010SOL    HW135666   2.158   0.987   8.439  2.1541  1.2090 -0.7895
 8010SOL    HW235667   2.134   0.976   8.580 -1.2183  0.0704 -2.1056
 8011SOL     OW35668   2.776   2.055  15.840  0.6404  0.0990  0.2399
 8011SOL    HW135669   2.785   2.129  15.900 -0.2180  0.3239  0.0959
 8011SOL    HW235670   2.813   2.086  15.757  0.4038  0.0057  0.1003
 8012SOL     OW35671   2.421   1.701   2.861 -0.0325  0.6495  0.0285
 8012SOL    HW135672   2.488   1.642   2.898 -1.9582 -1.4550  0.1490
 8012SOL    HW235673   2.351   1.711   2.925  1.1353  0.8198  1.3049
 8013SOL     OW35674   3.743   4.311   2.372 -0.4541 -0.4059 -0.4371
 8013SOL    HW135675   3.649   4.310   2.391 -0.4121 -0.3515 -0.2246
 8013SOL    HW235676   3.765   4.246   2.439 -0.6306 -0.4016 -0.3732
 8014SOL     OW35677   3.860   3.613  12.952  0.2796  0.8910 -0.2357
 8014SOL    HW135678   3.891   3.701  12.928 -0.2540  1.3863  0.9079
 8014SOL    HW235679   3.857   3.570  12.866 -1.0095 -0.8192  0.6652
 8015SOL     OW35680   3.801   4.124   3.506 -0.0814 -0.2207  1.1000
 8015SOL    HW135681   3.725   4.066   3.511  0.6044 -1.1188  1.0054
 8015SOL    HW235682   3.859   4.093   3.575  1.4075  1.2359  0.4918
 8016SOL     OW35683   0.091   2.851   7.135 -0.5320 -0.3772  0.0205
 8016SOL    HW135684   0.142   2.807   7.067 -1.1385 -1.2003  0.0982
 8016SOL    HW235685   0.105   2.791   7.208 -0.0938  0.7896  0.8818
 8017SOL     OW35686   0.476   0.214   0.036  0.1098  0.4137  0.4076
 8017SOL    HW135687   0.437   0.193  17.708 -0.7745 -4.4129  2.0271
 8017SOL    HW235688   0.524   0.132   0.043  1.2066  1.0364  0.2163
 8018SOL     OW35689   2.752   4.493   4.555 -0.0233  0.5533  0.6647
 8018SOL    HW135690   2.706   4.565   4.600 -2.0718 -1.1755  1.3322
 8018SOL    HW235691   2.692   4.446   4.497 -0.1488  1.7516 -0.1863
 8019SOL     OW35692   3.194   2.281  14.675 -0.0032 -0.4262 -0.7816
 8019SOL    HW135693   3.136   2.356  14.690 -0.1110 -0.4542 -1.0537
 8019SOL    HW235694   3.217   2.295  14.583 -1.7285  1.8850 -0.8570
 8020SOL     OW35695   3.978   3.957  12.258  0.4439  0.0157 -0.3904
 8020SOL    HW135696   3.996   3.974  12.165  1.2644  0.7299 -0.0950
 8020SOL    HW235697   4.047   3.896  12.285 -0.8272 -1.3596 -0.2151
 8021SOL     OW35698   2.705   0.770   4.294  0.1433 -0.1177 -0.0734
 8021SOL    HW135699   2.743   0.739   4.212  1.6854  1.5352  0.0346
 8021SOL    HW235700   2.738   0.859   4.286  3.3256 -1.2126  0.6075
 8022SOL     OW35701   4.109   4.507  16.012  0.1333 -0.7894 -0.1227
 8022SOL    HW135702   4.038   4.442  16.014 -1.4183  0.8447 -1.5589
 8022SOL    HW235703   4.130   4.520  15.920 -0.9470 -0.3550 -0.3107
 8023SOL     OW35704   4.719   1.160   4.780  0.2429 -0.1683  0.2020
 8023SOL    HW135705   4.641   1.216   4.780  0.1998 -0.2291 -0.0771
 8023SOL    HW235706   4.701   1.091   4.718 -0.1298  0.6081 -0.5518
 8024SOL     OW35707   1.186   1.748   9.262 -0.1658  0.3842  0.7353
 8024SOL    HW135708   1.189   1.685   9.190  1.3622 -0.1455  1.2731
 8024SOL    HW235709   1.190   1.690   9.337  2.2275 -0.2253  0.1228
 8025SOL     OW35710   2.043   4.686   9.913  0.4387 -0.6627 -0.5457
 8025SOL    HW135711   2.092   4.734   9.845 -1.3423  1.0029 -0.6237
 8025SOL    HW235712   2.033   4.602   9.868  1.0109 -0.8209 -0.3762
 8026SOL     OW35713   2.099   2.037  14.964  0.0272  0.0699 -0.4798
 8026SOL    HW135714   2.011   2.037  15.003  0.2928  0.0018  0.1114
 8026SOL    HW235715   2.091   1.954  14.917  0.8410  0.2605 -0.9526
 8027SOL     OW35716   1.883   2.903  11.822 -0.1483 -0.4165 -0.1056
 8027SOL    HW135717   1.868   2.836  11.888  0.8111 -1.5068 -1.0014
 8027SOL    HW235718   1.978   2.899  11.822 -0.1463 -0.3683  0.4319
 8028SOL     OW35719   1.758   1.987   2.243  0.1665  0.1366  0.1281
 8028SOL    HW135720   1.699   2.041   2.190 -0.1655  0.1846  0.5475
 8028SOL    HW235721   1.721   1.899   2.238  0.6769 -0.1434  1.2574
 8029SOL     OW35722   0.300   4.274   9.230 -0.0327  0.1153 -0.4439
 8029SOL    HW135723   0.222   4.328   9.239  0.2544  0.5864 -0.7516
 8029SOL    HW235724   0.265   4.192   9.264 -1.0548  0.5186 -0.5198
 8030SOL     OW35725   3.475   2.502   7.174  0.4762 -0.5964 -0.0392
 8030SOL    HW135726   3.531   2.475   7.102 -0.2922 -1.1428 -0.4232
 8030SOL    HW235727   3.392   2.455   7.162  0.3439 -0.4016  0.1057
 8031SOL     OW35728   0.862   1.035   3.829  0.2532 -0.1594 -0.2760
 8031SOL    HW135729   0.915   1.107   3.795 -0.8271  0.6526 -0.2625
 8031SOL    HW235730   0.782   1.085   3.845 -0.6498 -1.2488 -1.3217
 8032SOL     OW35731   1.008   1.444   8.819  0.0212  0.7502 -0.4439
 8032SOL    HW135732   0.970   1.520   8.775  1.1938  1.3522 -0.4025
 8032SOL    HW235733   1.098   1.476   8.821 -0.8711  3.2668 -0.6522
 8033SOL     OW35734   3.226   4.631   3.766 -0.4284  0.7194 -0.1450
 8033SOL    HW135735   3.187   4.705   3.719 -1.6523  0.8047  0.9908
 8033SOL    HW235736   3.290   4.609   3.699 -0.7543 -0.9319  0.1065
 8034SOL     OW35737   1.039   3.886   7.292 -0.4686 -0.1244 -0.1055
 8034SOL    HW135738   0.971   3.824   7.265 -0.3101 -0.1629 -0.4183
 8034SOL    HW235739   1.033   3.960   7.232  0.0882  1.7786  2.2259
 8035SOL     OW35740   2.944   3.349  14.566  0.1518  0.6721  0.7110
 8035SOL    HW135741   3.000   3.368  14.641  1.4301  2.4738 -0.6904
 8035SOL    HW235742   2.912   3.436  14.541 -0.1127 -0.0618 -1.5331
 8036SOL     OW35743   0.852   3.590   6.369  0.5457  0.4630 -0.5799
 8036SOL    HW135744   0.820   3.633   6.289 -0.7564 -3.6448 -2.2509
 8036SOL    HW235745   0.913   3.655   6.405  0.4576 -0.1027  0.5549
 8037SOL     OW35746   3.824   0.037   3.640  0.1630  0.1793 -0.0975
 8037SOL    HW135747   3.891   0.100   3.667  0.0548  0.2960 -0.1007
 8037SOL    HW235748   3.778   0.087   3.572 -0.2574 -0.9977 -0.6829
 8038SOL     OW35749   4.464   1.734  10.953 -0.1180  0.2193 -0.4497
 8038SOL    HW135750   4.426   1.709  11.037 -1.9247  0.5789 -1.1533
 8038SOL    HW235751   4.392   1.713  10.894 -0.6596 -1.9342  0.9876
 8039SOL     OW35752   2.594   0.305   4.183 -0.3790  0.0510  0.6527
 8039SOL    HW135753   2.598   0.386   4.132  0.2507 -0.9069 -0.8310
 8039SOL    HW235754   2.684   0.273   4.180 -0.1033  1.0626 -2.0389
 8040SOL     OW35755   1.094   2.489   1.104 -0.1398  0.0181 -0.1490
 8040SOL    HW135756   1.087   2.394   1.113  2.3947 -0.2122 -0.6955
 8040SOL    HW235757   1.057   2.524   1.185 -1.3416  0.2633 -0.7936
 8041SOL     OW35758   3.389   3.989   2.738  0.1155 -0.5424  0.1288
 8041SOL    HW135759   3.452   3.924   2.771  0.0896 -1.0522 -0.8472
 8041SOL    HW235760   3.425   4.070   2.776 -0.0511 -0.3995 -0.0175
 8042SOL     OW35761   3.493   3.478  14.228 -0.0295  0.1337  0.1179
 8042SOL    HW135762   3.417   3.437  14.269  1.3401 -0.0605  2.4732
 8042SOL    HW235763   3.456   3.556  14.186  2.6325  2.2188  1.6094
 8043SOL     OW35764   3.667   1.028  12.112 -0.2237  0.1336  0.4976
 8043SOL    HW135765   3.694   0.944  12.077  0.9968  0.3469  0.9436
 8043SOL    HW235766   3.590   0.997  12.161 -1.4240  1.9487 -0.2269
 8044SOL     OW35767   1.037   2.193   8.708  0.1317 -0.0330 -0.0953
 8044SOL    HW135768   1.099   2.123   8.688  1.7970  0.7289  2.4137
 8044SOL    HW235769   1.015   2.170   8.798  0.3591  1.2161  0.2858
 8045SOL     OW35770   3.819   1.305   8.757 -0.2097  0.8273 -0.4896
 8045SOL    HW135771   3.796   1.393   8.788  0.2641  0.6390  0.4049
 8045SOL    HW235772   3.729   1.274   8.758 -1.9432  5.8213 -0.8524
 8046SOL     OW35773   0.129   4.467   5.905 -0.0260 -0.3437 -0.6955
 8046SOL    HW135774   0.142   4.380   5.943  0.1685  0.2323  0.5419
 8046SOL    HW235775   0.084   4.434   5.827  1.1180 -0.3959 -1.3434
 8047SOL     OW35776   0.910   3.990   3.886  0.8631 -0.7817  0.0311
 8047SOL    HW135777   0.999   3.969   3.917  0.8507 -2.4113 -1.0316
 8047SOL    HW235778   0.860   3.931   3.943 -1.2929 -0.5936 -1.6780
 8048SOL     OW35779   3.212   4.099   7.176 -0.3715  0.0753  0.1982
 8048SOL    HW135780   3.207   4.192   7.152  0.8305  0.5803  1.9146
 8048SOL    HW235781   3.173   4.094   7.263 -3.0707  1.7434 -0.9134
 8049SOL     OW35782   0.499   3.916  17.459 -0.2444 -0.7185 -0.0452
 8049SOL    HW135783   0.438   3.861  17.410 -1.9636  0.1269  1.1636
 8049SOL    HW235784   0.515   3.989  17.398  0.7707 -0.9537 -0.0673
 8050SOL     OW35785   1.509   0.381   2.934  0.9467  0.1104  0.5364
 8050SOL    HW135786   1.431   0.345   2.976  1.2889 -3.3373 -1.7218
 8050SOL    HW235787   1.493   0.396   2.840  0.4819 -1.3697  0.3716
 8051SOL     OW35788   1.618   1.695   3.202  0.6556  0.8584  0.0025
 8051SOL    HW135789   1.609   1.602   3.182  0.4026  0.4669  1.9297
 8051SOL    HW235790   1.527   1.721   3.189 -0.5029 -2.3438  1.6793
 8052SOL     OW35791   2.983   4.011   3.566  0.5987 -0.0664 -0.2432
 8052SOL    HW135792   2.889   4.014   3.545  0.6986  0.5973 -0.6152
 8052SOL    HW235793   2.994   4.095   3.610 -2.4973  0.4350 -0.4085
 8053SOL     OW35794   3.524   0.427  15.249 -0.4099  0.2910  0.1622
 8053SOL    HW135795   3.488   0.514  15.266  1.6739  0.7103  2.3993
 8053SOL    HW235796   3.488   0.373  15.320  0.3580  0.3409  0.5869
 8054SOL     OW35797   3.376   0.383   4.294  0.5909 -0.1415 -0.0171
 8054SOL    HW135798   3.403   0.303   4.340  0.6382  0.4248  0.9434
 8054SOL    HW235799   3.408   0.367   4.205  1.6437  0.4077  0.2558
 8055SOL     OW35800   4.068   4.160   7.127  0.2136 -0.5631 -0.0890
 8055SOL    HW135801   4.041   4.079   7.171  1.0754 -0.1372  1.2487
 8055SOL    HW235802   4.159   4.163   7.156 -0.0901 -0.5257  0.8528
 8056SOL     OW35803   3.436   0.662   4.331 -0.3162  0.1805 -0.2699
 8056SOL    HW135804   3.397   0.701   4.409 -1.9841 -0.1685 -0.9317
 8056SOL    HW235805   3.391   0.578   4.320  1.5396 -0.9456  0.7400
 8057SOL     OW35806   0.583   2.205   6.220 -0.8919 -0.4573 -0.9246
 8057SOL    HW135807   0.647   2.207   6.149  0.2997 -0.7564  0.1305
 8057SOL    HW235808   0.592   2.114   6.248 -2.5682 -0.5375 -0.6746
 8058SOL     OW35809   2.649   2.336  16.319 -0.7665  0.5557 -0.0819
 8058SOL    HW135810   2.603   2.419  16.325 -1.1120  0.3705 -0.1391
 8058SOL    HW235811   2.721   2.365  16.375  0.9368 -0.6256 -1.6599
 8059SOL     OW35812   0.263   0.670  16.671  0.6409 -0.2106 -0.2854
 8059SOL    HW135813   0.200   0.714  16.729  0.4101 -1.4464  0.4160
 8059SOL    HW235814   0.329   0.738  16.657  1.0943 -0.5112  0.4031
 8060SOL     OW35815   4.266   3.902   7.603  0.2050  0.0200 -0.5976
 8060SOL    HW135816   4.303   3.983   7.568 -1.3104  0.0443 -2.1602
 8060SOL    HW235817   4.346   3.850   7.616 -0.7820 -0.7677  2.1956
 8061SOL     OW35818   0.260   1.962  13.992 -1.1458 -0.0033  0.2441
 8061SOL    HW135819   0.353   1.984  13.987 -0.7164 -0.7072  4.5500
 8061SOL    HW235820   0.226   2.052  13.997  2.2687  1.2463  0.9220
 8062SOL     OW35821   2.325   2.993   4.186 -0.0960  0.0988  0.4964
 8062SOL    HW135822   2.307   3.026   4.098  1.1123 -3.3612 -1.0594
 8062SOL    HW235823   2.364   3.065   4.234 -0.7162  0.9592 -0.2892
 8063SOL     OW35824   2.991   1.389   1.503 -0.3610  0.3772  0.0876
 8063SOL    HW135825   2.901   1.416   1.521 -0.1070  0.3914  1.2970
 8063SOL    HW235826   3.032   1.465   1.461  0.6963  0.7178  1.7622
 8064SOL     OW35827   0.699   1.391   5.393  0.1976 -0.2428  0.4167
 8064SOL    HW135828   0.734   1.326   5.332 -0.5503 -1.2410  1.0681
 8064SOL    HW235829   0.649   1.331   5.448 -0.6718  1.4663  1.5086
 8065SOL     OW35830   3.405   3.847   6.323  0.1592  0.4433 -0.3938
 8065SOL    HW135831   3.327   3.838   6.268 -0.3860  1.0931  0.2543
 8065SOL    HW235832   3.363   3.887   6.400  0.4829  0.9283 -0.4658
 8066SOL     OW35833   3.674   1.621  12.152  0.2735  0.1968  0.0122
 8066SOL    HW135834   3.691   1.527  12.153  0.7729  0.2574 -1.3749
 8066SOL    HW235835   3.761   1.641  12.116 -0.0077  2.3895  0.5702
 8067SOL     OW35836   0.122   4.294   4.312 -0.0222 -0.6343 -0.4672
 8067SOL    HW135837   0.063   4.337   4.374  1.4524 -2.2924  2.0483
 8067SOL    HW235838   0.057   4.253   4.254 -2.5746  2.7945 -0.0804
 8068SOL     OW35839   0.256   4.638   3.862 -0.7781  0.4398 -0.2954
 8068SOL    HW135840   0.232   4.547   3.881 -1.6059  0.8035  0.3937
 8068SOL    HW235841   0.297   4.617   3.778  1.0692  1.2179  0.4270
 8069SOL     OW35842   3.002   1.665   7.275 -0.2911  0.0734 -0.1162
 8069SOL    HW135843   2.984   1.625   7.360  0.9583  0.9499  0.5544
 8069SOL    HW235844   2.957   1.749   7.271  2.0887  1.3457 -0.1507
 8070SOL     OW35845   3.536   3.423   2.850  0.0266  0.3759 -0.6264
 8070SOL    HW135846   3.587   3.431   2.931 -1.3311  0.5034  0.2051
 8070SOL    HW235847   3.603   3.383   2.795  0.2952 -0.3006  0.1954
 8071SOL     OW35848   1.114   2.435   8.224  0.3328  0.1179  0.3716
 8071SOL    HW135849   1.080   2.394   8.304  0.3745 -2.5036 -0.9717
 8071SOL    HW235850   1.206   2.411   8.230  0.1365 -1.1070 -1.5198
 8072SOL     OW35851   1.996   0.514   7.220 -0.2047  0.1290 -0.1373
 8072SOL    HW135852   1.988   0.554   7.133  0.9680  0.7076  0.0119
 8072SOL    HW235853   2.067   0.564   7.260 -1.3249  2.2367 -0.7667
 8073SOL     OW35854   2.470   2.858   1.250  0.1735  0.1652  0.3028
 8073SOL    HW135855   2.554   2.845   1.206 -0.0613  1.4892 -0.5234
 8073SOL    HW235856   2.436   2.771   1.270 -0.2832  0.9896  3.1939
 8074SOL     OW35857   0.292   2.815  15.022 -0.1380  0.0855  0.1905
 8074SOL    HW135858   0.300   2.882  15.090  1.3093 -0.2918  0.3951
 8074SOL    HW235859   0.342   2.742  15.056 -1.1145  0.2036  1.8625
 8075SOL     OW35860   4.200   4.646  12.101 -0.5671 -0.5501  0.0668
 8075SOL    HW135861   4.181   4.665  12.193 -0.0328 -0.6532  0.1984
 8075SOL    HW235862   4.253   4.567  12.114  1.7195  0.8716 -0.6398
 8076SOL     OW35863   4.661   4.102   5.537 -0.7010  0.0361 -0.5320
 8076SOL    HW135864   4.688   4.067   5.452 -0.2002 -0.1023 -0.3166
 8076SOL    HW235865   4.589   4.159   5.509 -1.6325  0.2075  2.1954
 8077SOL     OW35866   0.480   1.299   5.104 -0.2407  0.6617 -0.2980
 8077SOL    HW135867   0.466   1.319   5.012  0.3620 -0.4527 -0.6346
 8077SOL    HW235868   0.394   1.303   5.145 -0.8584 -0.5566 -1.5063
 8078SOL     OW35869   2.142   0.444   3.994  0.3028  0.0125 -0.1242
 8078SOL    HW135870   2.160   0.380   3.924  0.6829 -0.0597  0.0397
 8078SOL    HW235871   2.079   0.402   4.053  1.4713 -2.1542 -0.4243
 8079SOL     OW35872   1.898   1.250   8.830  0.0785  0.0452 -0.0313
 8079SOL    HW135873   1.821   1.289   8.872  0.3489 -0.0198  0.5319
 8079SOL    HW235874   1.920   1.178   8.889  0.6479  1.4087  1.4375
 8080SOL     OW35875   2.853   0.640   1.525  0.0535  0.4497  0.0771
 8080SOL    HW135876   2.795   0.586   1.578 -0.0281 -0.4773 -0.9556
 8080SOL    HW235877   2.849   0.585   1.447 -1.3953  0.5419  0.0898
 8081SOL     OW35878   3.199   4.285   8.436  0.3725 -0.2246 -0.0654
 8081SOL    HW135879   3.269   4.321   8.490  0.5526 -0.7217  0.0359
 8081SOL    HW235880   3.198   4.195   8.469  2.2623  0.1560  1.0276
 8082SOL     OW35881   4.111   3.841   4.508  0.1565  0.1274 -0.4911
 8082SOL    HW135882   4.023   3.844   4.545 -0.5670 -0.5484 -2.1695
 8082SOL    HW235883   4.167   3.886   4.571  1.7893 -1.0746 -1.0917
 8083SOL     OW35884   1.545   1.119  11.493 -0.5502  0.1787  0.1642
 8083SOL    HW135885   1.583   1.038  11.527  0.7409 -0.1292 -1.9816
 8083SOL    HW235886   1.620   1.143  11.439 -0.1237 -2.4473 -0.4296
 8084SOL     OW35887   4.253   0.161   4.621  0.6732 -0.4898 -0.0471
 8084SOL    HW135888   4.326   0.223   4.631 -1.1062  1.5400  0.2920
 8084SOL    HW235889   4.178   0.213   4.648 -0.5318 -1.6559 -1.1396
 8085SOL     OW35890   0.156   1.285  14.813 -0.2408  0.7842 -0.3028
 8085SOL    HW135891   0.108   1.349  14.865 -1.5118  0.3823 -1.0037
 8085SOL    HW235892   0.203   1.347  14.757 -0.1087  1.6619  0.7649
 8086SOL     OW35893   0.970   0.775   1.518  0.2367 -0.4179  0.3309
 8086SOL    HW135894   0.983   0.762   1.612  2.1097  0.4647  0.1920
 8086SOL    HW235895   0.875   0.774   1.511  0.1781 -0.3588  1.0761
 8087SOL     OW35896   1.800   0.752   9.061 -0.3235  0.9746 -0.1996
 8087SOL    HW135897   1.807   0.737   8.967  1.7558  0.5446  0.0345
 8087SOL    HW235898   1.824   0.667   9.098  0.1471  1.9906  1.8421
 8088SOL     OW35899   0.902   1.787  12.085 -1.0553  0.1717 -0.0445
 8088SOL    HW135900   0.886   1.809  12.177  0.8221  0.0205  0.3109
 8088SOL    HW235901   0.818   1.754  12.053 -1.7534  2.4515 -0.5231
 8089SOL     OW35902   1.667   3.257   3.161 -0.1969 -0.2370 -0.2454
 8089SOL    HW135903   1.740   3.202   3.188  0.7072  0.7522 -0.6941
 8089SOL    HW235904   1.604   3.198   3.120 -1.5252  0.3263  0.9575
 8090SOL     OW35905   4.115   1.604   3.413 -0.3574  0.0387  0.3472
 8090SOL    HW135906   4.143   1.666   3.480 -0.0864  0.0214  0.2505
 8090SOL    HW235907   4.020   1.600   3.408 -0.3726  3.3925 -2.2214
 8091SOL     OW35908   3.269   1.299   6.012 -0.5238 -0.2625  0.5405
 8091SOL    HW135909   3.187   1.250   6.014 -0.1812 -0.9025 -1.1169
 8091SOL    HW235910   3.313   1.260   6.087  0.3311 -2.5092 -1.1458
 8092SOL     OW35911   0.090   4.312  16.809 -0.2625 -0.1472  0.5352
 8092SOL    HW135912   0.055   4.400  16.825  1.5720  0.6600  0.0714
 8092SOL    HW235913   0.179   4.307  16.844 -0.0573  1.8971  0.3104
 8093SOL     OW35914   0.861   4.130  13.266 -0.4095 -0.1193 -0.0941
 8093SOL    HW135915   0.937   4.129  13.325 -0.8341  0.8575  0.4648
 8093SOL    HW235916   0.842   4.223  13.257  1.2900 -0.2448 -4.7689
 8094SOL     OW35917   0.075   0.655   7.533  0.1376  0.6547 -0.3107
 8094SOL    HW135918   4.739   0.709   7.511  1.4638  3.4739  1.9704
 8094SOL    HW235919   0.139   0.668   7.463 -0.7315  1.8203 -0.8957
 8095SOL     OW35920   1.340   3.996   8.135  0.2191 -0.1555 -0.3299
 8095SOL    HW135921   1.366   4.085   8.114 -1.1459  0.4488  0.5290
 8095SOL    HW235922   1.262   3.991   8.081 -0.6876 -3.0800  1.1878
 8096SOL     OW35923   3.927   3.197   9.469 -0.0011 -0.1280 -0.3456
 8096SOL    HW135924   4.022   3.186   9.461  0.3379  1.1717  1.8518
 8096SOL    HW235925   3.936   3.292   9.465 -0.3208 -0.1588 -2.1332
 8097SOL     OW35926   0.514   3.241   6.388 -0.5642  0.1395 -0.2309
 8097SOL    HW135927   0.548   3.238   6.299 -0.3269 -3.0795 -0.0423
 8097SOL    HW235928   0.426   3.210   6.371  0.5609 -2.7204 -0.8527
 8098SOL     OW35929   4.618   2.497  15.862  0.7581 -0.2001  0.3932
 8098SOL    HW135930   4.564   2.512  15.940  2.0032  1.6781  0.8856
 8098SOL    HW235931   4.650   2.585  15.844  0.3170  0.2013  1.5539
 8099SOL     OW35932   2.840   3.375   2.739 -0.1619  0.2793 -0.2410
 8099SOL    HW135933   2.866   3.458   2.698 -4.1499  1.1997 -0.9302
 8099SOL    HW235934   2.871   3.389   2.829 -0.3889  0.3053 -0.1672
 8100SOL     OW35935   4.212   4.144   6.117  0.1613 -0.0458  0.0894
 8100SOL    HW135936   4.167   4.117   6.037  0.2477 -0.4197  0.1691
 8100SOL    HW235937   4.296   4.176   6.086 -0.5259  2.1036  0.4140
 8101SOL     OW35938   0.793   4.381   8.457  0.0328 -0.3050  0.3139
 8101SOL    HW135939   0.788   4.466   8.501 -1.8988  0.7063 -1.8358
 8101SOL    HW235940   0.885   4.358   8.445  0.4271  0.7924  1.2618
 8102SOL     OW35941   3.929   4.482  17.517 -0.2599  0.1503  0.5666
 8102SOL    HW135942   3.862   4.437  17.569  0.1047 -2.1045 -0.9030
 8102SOL    HW235943   3.938   4.568  17.557  1.9772  0.3680 -0.3804
 8103SOL     OW35944   0.991   3.141   5.630  0.5969  0.7021 -0.3939
 8103SOL    HW135945   1.082   3.110   5.628  0.8376  1.4499 -0.9885
 8103SOL    HW235946   0.958   3.125   5.542 -1.8147 -1.0239  0.7898
 8104SOL     OW35947   2.142   2.759  10.798  0.2966 -0.4990  0.7076
 8104SOL    HW135948   2.177   2.675  10.828  0.3667  0.0389  2.1474
 8104SOL    HW235949   2.102   2.797  10.877 -0.6690  0.5011 -0.2627
 8105SOL     OW35950   0.231   2.832  14.735 -0.3284  0.0706  0.5416
 8105SOL    HW135951   0.194   2.921  14.737  1.8418  0.9844  0.0914
 8105SOL    HW235952   0.274   2.829  14.820 -1.2764  0.0762  1.0206
 8106SOL     OW35953   2.725   4.083  17.381  0.1495  0.3915 -0.6169
 8106SOL    HW135954   2.769   4.091  17.465  1.3733  0.7997 -1.2838
 8106SOL    HW235955   2.674   4.005  17.400 -0.3375  0.5365 -1.3118
 8107SOL     OW35956   1.036   2.513   7.279  0.0483 -0.9515 -0.0515
 8107SOL    HW135957   1.026   2.607   7.263  0.6404 -0.6153  1.5253
 8107SOL    HW235958   0.979   2.507   7.356  1.7157  1.2644  1.3447
 8108SOL     OW35959   3.221   0.582  15.165 -0.4855  0.2918 -0.2238
 8108SOL    HW135960   3.229   0.496  15.207  0.0880  0.7439  0.5931
 8108SOL    HW235961   3.263   0.631  15.235  0.3767  1.2975 -1.4607
 8109SOL     OW35962   2.921   1.162   9.692 -0.4003 -0.2031  0.3507
 8109SOL    HW135963   2.902   1.070   9.711  0.0402 -0.1501  1.0508
 8109SOL    HW235964   2.946   1.166   9.600  0.1420  1.0742  0.5506
 8110SOL     OW35965   1.041   1.619   3.656  0.2328  0.2101 -0.0929
 8110SOL    HW135966   0.980   1.580   3.718  0.5272  1.8720  1.2347
 8110SOL    HW235967   1.076   1.686   3.715  0.4533  0.8202 -0.9061
 8111SOL     OW35968   3.914   4.053  17.582 -0.2973  0.1132  0.1299
 8111SOL    HW135969   3.867   3.989  17.529  0.5177 -0.1504 -0.2789
 8111SOL    HW235970   3.935   4.006  17.662  1.7512  1.7114  0.5238
 8112SOL     OW35971   1.417   1.273  10.681  0.1244 -0.0688  0.8980
 8112SOL    HW135972   1.371   1.353  10.704  1.8431  1.7400 -1.9916
 8112SOL    HW235973   1.392   1.255  10.590 -1.5236 -0.4070  1.4218
 8113SOL     OW35974   3.565   1.085   2.019  0.7769  0.0257  0.2092
 8113SOL    HW135975   3.548   1.178   2.029  2.3445  0.3731 -0.3258
 8113SOL    HW235976   3.519   1.060   1.939 -0.9819  0.2368  1.1572
 8114SOL     OW35977   1.208   1.022   9.024 -0.3139 -0.1678  0.3738
 8114SOL    HW135978   1.126   1.071   9.016  1.2123  2.7332  2.2570
 8114SOL    HW235979   1.267   1.093   9.051  0.4447 -0.6083 -0.1044
 8115SOL     OW35980   1.012   2.341   9.881  0.0623  0.2622  0.5059
 8115SOL    HW135981   0.966   2.364   9.962 -1.2429  2.6532 -0.9192
 8115SOL    HW235982   1.086   2.399   9.895 -0.0910  0.5934 -0.0512
 8116SOL     OW35983   3.629   3.942   4.550  0.6191 -0.0251 -0.1920
 8116SOL    HW135984   3.651   4.005   4.483  0.3536  0.7803  0.4734
 8116SOL    HW235985   3.567   3.995   4.601 -0.6707  1.1963 -3.0206
 8117SOL     OW35986   4.644   2.694   3.152 -0.3520  0.2736  0.0187
 8117SOL    HW135987   4.672   2.677   3.062  0.1275 -2.3569  0.6541
 8117SOL    HW235988   4.609   2.783   3.143  0.5937  0.7891  1.5044
 8118SOL     OW35989   2.214   2.212   5.722  0.9769  0.7383  0.0451
 8118SOL    HW135990   2.275   2.138   5.716 -0.6723 -0.5910 -0.1802
 8118SOL    HW235991   2.277   2.284   5.718  0.7639  0.7905 -2.1566
 8119SOL     OW35992   3.223   3.986   5.709 -0.3065  0.2634 -0.1345
 8119SOL    HW135993   3.195   3.920   5.645  4.1713 -1.4732 -0.2690
 8119SOL    HW235994   3.297   3.937   5.744 -0.3239  0.7690  0.6097
 8120SOL     OW35995   1.288   1.658   7.526  0.3598  0.5407 -0.1579
 8120SOL    HW135996   1.255   1.725   7.466  0.1054 -0.1910 -0.8376
 8120SOL    HW235997   1.356   1.710   7.568 -1.8493  2.4866  0.9987
 8121SOL     OW35998   3.637   4.335   4.409  0.2955  0.0809 -0.4360
 8121SOL    HW135999   3.674   4.247   4.400 -0.1959 -0.1777  0.1267
 8121SOL    HW236000   3.544   4.315   4.414  0.4589 -0.1220  1.5981
 8122SOL     OW36001   4.153   0.914  12.953 -0.5020  0.0151  0.0622
 8122SOL    HW136002   4.126   0.894  12.863 -0.6394  1.0000 -0.1194
 8122SOL    HW236003   4.223   0.979  12.941 -0.5124  0.0296  0.0791
 8123SOL     OW36004   3.397   4.267   0.713 -0.0112 -0.2977 -0.7606
 8123SOL    HW136005   3.369   4.358   0.718 -0.3871 -0.4308 -0.4869
 8123SOL    HW236006   3.426   4.270   0.622  0.3872 -1.2006 -0.6631
 8124SOL     OW36007   0.260   3.091  12.695  0.1441 -0.1406  0.3173
 8124SOL    HW136008   0.352   3.116  12.702  0.2309 -0.1447 -0.9709
 8124SOL    HW236009   0.240   3.090  12.602 -1.0744 -0.8837  0.5783
 8125SOL     OW36010   1.671   0.325   3.684  0.3558 -0.9137 -0.0949
 8125SOL    HW136011   1.618   0.402   3.663  2.4816  1.3053  2.8097
 8125SOL    HW236012   1.662   0.311   3.778 -1.8985 -2.9674 -0.6157
 8126SOL     OW36013   3.290   1.592  14.076 -0.0963  1.0164 -0.0060
 8126SOL    HW136014   3.358   1.543  14.123 -0.5120 -0.3759 -0.8465
 8126SOL    HW236015   3.233   1.614  14.150 -0.1548 -0.6013  0.4385
 8127SOL     OW36016   3.701   1.617   2.597  0.2486  0.0792 -0.2934
 8127SOL    HW136017   3.659   1.544   2.641 -0.6913  1.1359  0.5631
 8127SOL    HW236018   3.783   1.633   2.646  0.9689  2.3073 -2.2195
 8128SOL     OW36019   1.311   1.812   0.499 -0.5491  0.2317  0.3195
 8128SOL    HW136020   1.400   1.777   0.492  0.0082  1.6595  0.4072
 8128SOL    HW236021   1.257   1.749   0.450  0.7359 -0.6939  0.1023
 8129SOL     OW36022   3.348   4.013  14.349 -0.2839  0.0796  0.1301
 8129SOL    HW136023   3.405   4.088  14.367 -1.2125  0.6584  0.6753
 8129SOL    HW236024   3.267   4.041  14.392 -0.1375  2.5549 -1.2000
 8130SOL     OW36025   3.010   1.028   2.467 -0.0611 -0.4535 -0.4707
 8130SOL    HW136026   3.084   0.979   2.432 -0.7613 -2.6460  1.0961
 8130SOL    HW236027   3.018   1.016   2.562 -0.4287  2.2770 -0.0953
 8131SOL     OW36028   2.399   4.736  14.497  0.3421 -0.1543  0.1613
 8131SOL    HW136029   2.491   0.021  14.505  0.0328  1.6254 -1.8597
 8131SOL    HW236030   2.368   4.726  14.586  1.5336  1.1667  0.7164
 8132SOL     OW36031   1.136   4.354   8.160 -0.0654  0.1380  0.2164
 8132SOL    HW136032   1.115   4.372   8.252  1.6590 -0.1564  0.6772
 8132SOL    HW236033   1.054   4.324   8.121 -0.5096 -1.1637  2.1584
 8133SOL     OW36034   1.555   0.723  17.639  0.2957 -0.3382  0.4783
 8133SOL    HW136035   1.507   0.758  17.714  0.8916  0.4621  0.4737
 8133SOL    HW236036   1.617   0.793  17.622 -0.9834  0.1493 -2.2237
 8134SOL     OW36037   0.924   3.334   4.225 -0.0648 -0.4005  0.5094
 8134SOL    HW136038   0.959   3.420   4.246  0.1606 -0.5324  0.6689
 8134SOL    HW236039   0.997   3.278   4.250 -0.3889 -0.0140  2.2636
 8135SOL     OW36040   0.303   1.024  13.016 -0.4184 -0.0503  0.8983
 8135SOL    HW136041   0.355   0.958  13.062 -1.0720 -2.3117 -1.6240
 8135SOL    HW236042   0.364   1.097  13.030 -1.0126  0.9273 -1.6339
 8136SOL     OW36043   2.563   1.807  16.258 -0.0815 -0.2117 -0.8345
 8136SOL    HW136044   2.645   1.758  16.248  0.7712  0.4972  2.6684
 8136SOL    HW236045   2.507   1.746  16.306 -0.9351  0.7119 -0.6504
 8137SOL     OW36046   0.907   3.781  11.222  0.4910 -0.0835 -0.2895
 8137SOL    HW136047   0.976   3.767  11.286  0.3793 -0.3974 -0.2369
 8137SOL    HW236048   0.838   3.818  11.277  2.5922  1.2651  1.3986
 8138SOL     OW36049   0.439   2.564  15.118  0.1237 -0.3026 -0.3146
 8138SOL    HW136050   0.436   2.479  15.162 -0.7372 -0.9242 -1.5492
 8138SOL    HW236051   0.473   2.618  15.188  2.0346 -2.1153  0.1657
 8139SOL     OW36052   4.517   0.167   2.733  0.5771 -0.0407  0.0482
 8139SOL    HW136053   4.454   0.222   2.780 -0.3259  0.1993 -1.4451
 8139SOL    HW236054   4.467   0.130   2.661  0.4204  1.2661 -0.5082
 8140SOL     OW36055   2.464   2.097   9.205 -0.6961 -0.4184  0.4763
 8140SOL    HW136056   2.395   2.140   9.255 -0.2168 -0.1708  0.9343
 8140SOL    HW236057   2.432   2.008   9.220 -1.7219 -0.2462 -0.7463
 8141SOL     OW36058   0.209   2.505   8.573 -0.2425  0.0516 -0.5514
 8141SOL    HW136059   0.284   2.516   8.631 -1.0809  2.8893 -0.0047
 8141SOL    HW236060   0.169   2.432   8.620  2.1817  0.7612  2.6151
 8142SOL     OW36061   0.762   4.708   6.756 -0.0587 -0.6016  0.0436
 8142SOL    HW136062   0.696   4.710   6.826 -0.6065  1.2508 -0.5504
 8142SOL    HW236063   0.825   0.036   6.780  0.2478  0.2527 -3.1782
 8143SOL     OW36064   3.335   4.735   3.987  0.2113  0.3035  0.3518
 8143SOL    HW136065   3.329   4.653   4.037 -0.9068 -0.2664 -0.7241
 8143SOL    HW236066   3.300   4.698   3.906 -0.6998  2.9807 -0.4735
 8144SOL     OW36067   0.613   1.025   1.441  0.2423  0.5616  0.4067
 8144SOL    HW136068   0.664   0.944   1.442 -0.5296  0.0695  0.2523
 8144SOL    HW236069   0.522   1.004   1.418  0.0436  0.5139  1.2181
 8145SOL     OW36070   0.134   2.035   1.944 -0.4527  0.6264 -0.2063
 8145SOL    HW136071   0.061   2.030   1.881 -0.2634 -2.6918 -0.1486
 8145SOL    HW236072   0.202   2.080   1.894 -1.4630  2.5973  0.1741
 8146SOL     OW36073   2.544   4.260   3.915 -0.0612 -0.1038 -0.3333
 8146SOL    HW136074   2.504   4.178   3.885  0.0864 -0.9001  1.6360
 8146SOL    HW236075   2.533   4.324   3.845  0.2481 -1.4902 -1.6480
 8147SOL     OW36076   1.579   0.199  12.435  0.2465 -0.6169  0.4659
 8147SOL    HW136077   1.635   0.122  12.443  1.1522 -0.0252 -0.1076
 8147SOL    HW236078   1.609   0.233  12.350  0.0979  1.3943  1.1984
 8148SOL     OW36079   1.402   1.431   7.388  0.0955  0.8461 -0.2339
 8148SOL    HW136080   1.441   1.363   7.443  0.5347  0.9419 -0.4203
 8148SOL    HW236081   1.356   1.488   7.449  1.1161  1.1776  0.2344
 8149SOL     OW36082   4.592   1.960  16.146  0.2276 -0.2894 -0.1410
 8149SOL    HW136083   4.536   1.985  16.072  0.3689  0.8783  0.1422
 8149SOL    HW236084   4.579   1.865  16.146  1.3604 -0.4485  2.3654
 8150SOL     OW36085   0.749   4.017   1.455  0.2715  0.1751 -0.2859
 8150SOL    HW136086   0.776   3.930   1.482  1.0452  0.7817  0.8901
 8150SOL    HW236087   0.831   4.055   1.424  1.7213 -1.1345  1.9966
 8151SOL     OW36088   1.833   3.374  11.105 -0.3375  0.1159 -0.2940
 8151SOL    HW136089   1.746   3.408  11.085  0.4628  2.5293  0.4232
 8151SOL    HW236090   1.887   3.445  11.071  0.8733 -0.6260  0.0974
 8152SOL     OW36091   2.690   4.122   6.951  0.1876 -0.4121  0.4590
 8152SOL    HW136092   2.640   4.189   6.998 -0.5838 -0.6582 -0.0160
 8152SOL    HW236093   2.781   4.139   6.975  0.1462 -0.4495  0.6397
 8153SOL     OW36094   3.745   3.470  11.060  0.0873  0.7608  0.0644
 8153SOL    HW136095   3.834   3.501  11.080 -0.3433  2.2206 -0.3346
 8153SOL    HW236096   3.724   3.524  10.984  2.8607  1.4614 -0.2345
 8154SOL     OW36097   3.344   0.554   3.402  0.1124 -0.3625  0.7269
 8154SOL    HW136098   3.409   0.511   3.457  0.0738 -2.2232 -0.6612
 8154SOL    HW236099   3.296   0.607   3.466  1.1706  0.8358  0.5235
 8155SOL     OW36100   0.529   3.092  12.780  0.3715  0.5017 -0.4245
 8155SOL    HW136101   0.585   3.118  12.853  1.2153 -0.5728 -0.6820
 8155SOL    HW236102   0.531   2.997  12.787  0.9543  0.5754  0.3734
 8156SOL     OW36103   4.146   2.675   1.443  0.0510  0.0120  0.1843
 8156SOL    HW136104   4.219   2.613   1.435 -1.4995 -1.7570 -0.0966
 8156SOL    HW236105   4.165   2.696   1.534  1.4926 -2.6346  0.4997
 8157SOL     OW36106   1.553   2.336  14.884  0.5773 -0.3016 -0.3255
 8157SOL    HW136107   1.589   2.361  14.799  3.8652  1.2495  1.5357
 8157SOL    HW236108   1.467   2.379  14.882  0.4872 -0.4665  0.0141
 8158SOL     OW36109   2.003   4.068   5.270 -0.1122 -0.1441  0.0081
 8158SOL    HW136110   2.069   4.020   5.320 -0.2123  1.3830  1.5578
 8158SOL    HW236111   1.921   4.044   5.313 -0.4109 -0.3896 -0.6824
 8159SOL     OW36112   0.907   2.437   3.870  0.3698 -0.3655 -0.6780
 8159SOL    HW136113   0.880   2.483   3.948 -1.2428 -0.5604 -1.1305
 8159SOL    HW236114   0.951   2.511   3.827  1.7384 -1.5119 -1.2770
 8160SOL     OW36115   2.403   4.494   2.417 -0.1350  0.2113 -0.4281
 8160SOL    HW136116   2.442   4.415   2.379  2.6447  0.4724  1.9849
 8160SOL    HW236117   2.480   4.549   2.426 -0.0921 -0.1230  1.2464
 8161SOL     OW36118   3.993   3.697  12.035  0.2980  0.2646  0.4553
 8161SOL    HW136119   3.960   3.639  12.103 -1.4162  2.3054  1.3143
 8161SOL    HW236120   4.076   3.650  12.020  0.2543  0.4187 -0.2903
 8162SOL     OW36121   2.882   1.591   6.644 -0.6735  0.2701 -0.0640
 8162SOL    HW136122   2.931   1.565   6.722  0.5581  0.7074 -0.6835
 8162SOL    HW236123   2.899   1.509   6.598 -3.5175 -0.1890 -0.2895
 8163SOL     OW36124   2.537   2.992  11.523  0.3438 -0.0043  0.1726
 8163SOL    HW136125   2.549   3.082  11.495 -0.1034  0.9451  3.0153
 8163SOL    HW236126   2.450   2.993  11.563 -0.0327 -0.2717 -0.6312
 8164SOL     OW36127   1.662   1.072   5.711  0.4694 -0.0860 -0.2291
 8164SOL    HW136128   1.603   0.999   5.729 -0.2289  0.9265  1.6274
 8164SOL    HW236129   1.597   1.139   5.694 -0.4838 -0.6794  1.0323
 8165SOL     OW36130   4.289   3.302   3.133 -0.5313  0.2792 -0.0627
 8165SOL    HW136131   4.356   3.302   3.064  1.2490 -0.9718  1.6833
 8165SOL    HW236132   4.206   3.324   3.091 -1.5483 -0.0445  1.7795
 8166SOL     OW36133   2.387   4.674   1.619 -0.2484  0.1408 -0.1424
 8166SOL    HW136134   2.337   4.613   1.564 -1.4957 -0.6806  1.8936
 8166SOL    HW236135   2.315   4.728   1.652 -0.7331 -0.5050 -0.1380
 8167SOL     OW36136   4.674   3.970   2.564  0.4241 -0.2395  0.3003
 8167SOL    HW136137   4.740   4.034   2.591 -0.1647  0.0349  1.0814
 8167SOL    HW236138   4.710   3.933   2.483 -0.6080 -2.5967  0.9021
 8168SOL     OW36139   1.301   1.052  13.765  0.2057  0.2346 -0.1733
 8168SOL    HW136140   1.325   1.140  13.793 -3.0555  0.9178  0.5034
 8168SOL    HW236141   1.306   1.057  13.669 -1.6030  1.2943 -0.2175
 8169SOL     OW36142   2.233   2.623   9.333 -0.0329  0.4856 -0.0871
 8169SOL    HW136143   2.259   2.568   9.407 -1.0616 -4.0317 -3.0719
 8169SOL    HW236144   2.312   2.674   9.317  0.3974 -0.2143 -0.1604
 8170SOL     OW36145   0.985   0.129   4.676 -0.2178  0.1276  0.1571
 8170SOL    HW136146   0.919   0.196   4.659 -0.1167 -0.1206 -1.2626
 8170SOL    HW236147   0.948   0.063   4.616  1.8098 -1.7298  0.9274
 8171SOL     OW36148   0.162   1.733  16.755  0.3950 -0.5709 -0.1055
 8171SOL    HW136149   0.239   1.790  16.760 -0.8748  0.9814  2.0092
 8171SOL    HW236150   0.103   1.780  16.814  1.2690 -0.4424  0.6661
 8172SOL     OW36151   1.858   4.279   6.025 -0.2157 -0.4929 -0.3771
 8172SOL    HW136152   1.877   4.203   5.971  0.1058 -0.6859 -0.0006
 8172SOL    HW236153   1.936   4.333   6.010 -0.3258  0.1273  1.2564
 8173SOL     OW36154   4.189   0.433   3.413 -0.9648 -0.6169 -0.2200
 8173SOL    HW136155   4.237   0.434   3.496  1.9917 -0.9831 -1.9123
 8173SOL    HW236156   4.173   0.340   3.397 -3.7374 -0.1289 -0.2255
 8174SOL     OW36157   0.246   0.777   7.350 -0.5284 -0.3341  0.1226
 8174SOL    HW136158   0.268   0.723   7.274 -1.9459 -1.4750  0.5255
 8174SOL    HW236159   0.266   0.864   7.315 -0.5528 -0.4892 -0.2865
 8175SOL     OW36160   1.171   4.655   2.894  0.5315  0.0468 -0.6422
 8175SOL    HW136161   1.239   4.688   2.952  0.3495 -0.4631 -0.1369
 8175SOL    HW236162   1.204   4.692   2.812  0.4336  0.5974 -0.4325
 8176SOL     OW36163   1.831   1.913   8.139 -0.0632 -0.1236 -0.2278
 8176SOL    HW136164   1.813   1.876   8.053  0.5719 -1.0596  0.0453
 8176SOL    HW236165   1.758   1.975   8.139 -0.7683 -0.9653 -2.5187
 8177SOL     OW36166   1.272   3.612   6.478  0.2848 -0.8855  0.1794
 8177SOL    HW136167   1.338   3.622   6.547  0.0574  1.7530  0.0170
 8177SOL    HW236168   1.303   3.676   6.414 -2.6526 -0.1044 -0.4265
 8178SOL     OW36169   2.246   1.410   0.488  0.2173 -0.5463  0.0353
 8178SOL    HW136170   2.334   1.383   0.462 -0.4386 -0.3132 -2.4430
 8178SOL    HW236171   2.200   1.420   0.405 -1.2013 -0.7223  0.7980
 8179SOL     OW36172   3.654   4.728   6.137 -0.4030 -0.2242 -0.0029
 8179SOL    HW136173   3.620   4.688   6.057  3.2544 -1.6447 -0.8293
 8179SOL    HW236174   3.602   4.682   6.203  1.5120 -2.2105  0.0992
 8180SOL     OW36175   1.356   3.182  14.140 -0.4434 -0.2306  0.0847
 8180SOL    HW136176   1.433   3.224  14.101 -0.4096  0.7016  1.1752
 8180SOL    HW236177   1.285   3.240  14.112  1.1346  1.5132 -0.2757
 8181SOL     OW36178   2.657   0.878  12.905  0.3162 -0.8329 -0.3995
 8181SOL    HW136179   2.618   0.792  12.895 -0.5942 -0.7895  2.8847
 8181SOL    HW236180   2.573   0.922  12.891  0.2414 -0.9097 -0.1856
 8182SOL     OW36181   2.581   2.458   4.348  0.0518  0.1147  0.3118
 8182SOL    HW136182   2.644   2.409   4.401  1.5956  1.8857  0.1142
 8182SOL    HW236183   2.641   2.524   4.313 -0.2885  0.3910  0.2442
 8183SOL     OW36184   1.245   2.373  10.478  0.7190  0.5447 -0.0408
 8183SOL    HW136185   1.253   2.283  10.508  1.6407  0.9344  0.8591
 8183SOL    HW236186   1.248   2.378  10.382  0.1582  0.3345 -0.0722
 8184SOL     OW36187   1.098   2.209  17.599  0.2532 -0.0647  0.2954
 8184SOL    HW136188   1.141   2.164  17.526 -0.2708  1.7439 -1.1264
 8184SOL    HW236189   1.137   2.167  17.675 -1.2011 -1.7113  0.1095
 8185SOL     OW36190   0.547   3.403   1.074  0.0404 -0.0950  0.0568
 8185SOL    HW136191   0.453   3.409   1.054 -0.2525 -0.0043  1.4458
 8185SOL    HW236192   0.572   3.321   1.031 -1.6195  0.4614 -1.9880
 8186SOL     OW36193   0.526   1.480   9.867 -0.0968 -0.2813 -0.5412
 8186SOL    HW136194   0.589   1.447   9.931 -0.7328  1.8754  1.2034
 8186SOL    HW236195   0.536   1.575   9.870  0.8655 -0.4357  1.1890
 8187SOL     OW36196   1.183   3.641   4.224 -0.5062 -0.4153 -0.1915
 8187SOL    HW136197   1.135   3.723   4.213  2.3042  1.0699 -1.2386
 8187SOL    HW236198   1.151   3.587   4.151 -1.3072 -0.2850  0.0693
 8188SOL     OW36199   2.759   3.205   5.032 -0.0873 -0.3266 -0.6234
 8188SOL    HW136200   2.717   3.121   5.049  0.7583 -0.4111  1.1151
 8188SOL    HW236201   2.835   3.171   4.985  0.8133 -0.7360  1.1213
 8189SOL     OW36202   3.949   3.589   5.882 -0.6623 -0.1784  0.5707
 8189SOL    HW136203   3.882   3.610   5.948  0.1347 -2.2581  2.0279
 8189SOL    HW236204   4.032   3.615   5.921 -1.3225  0.5628  1.4964
 8190SOL     OW36205   1.265   0.286   7.756  0.0701 -0.0270  0.0677
 8190SOL    HW136206   1.333   0.280   7.689 -0.7462 -1.4851 -0.6125
 8190SOL    HW236207   1.280   0.209   7.811  0.5274 -1.3231 -1.8915
 8191SOL     OW36208   3.791   0.366   3.040 -0.2529  0.2814 -0.0057
 8191SOL    HW136209   3.742   0.443   3.012 -0.5314 -0.6928 -2.2147
 8191SOL    HW236210   3.833   0.352   2.955  0.0001 -0.8208  0.2967
 8192SOL     OW36211   4.430   2.143   5.530 -0.8458  0.1649 -0.5633
 8192SOL    HW136212   4.463   2.228   5.500 -1.7493 -0.0395 -2.1772
 8192SOL    HW236213   4.348   2.143   5.480 -0.6396  3.6956 -0.9064
 8193SOL     OW36214   3.646   2.917   4.106  0.5494  0.4820 -0.3389
 8193SOL    HW136215   3.577   2.937   4.043 -0.8282  0.0697  1.0370
 8193SOL    HW236216   3.608   2.837   4.142 -0.6908  0.5400 -1.4906
 8194SOL     OW36217   1.087   3.173   6.384  0.3694 -0.3913  0.2493
 8194SOL    HW136218   1.030   3.216   6.447  2.5272  3.4203 -0.4148
 8194SOL    HW236219   1.072   3.216   6.300 -1.5181  0.2260  0.9050
 8195SOL     OW36220   2.616   2.133  16.679  0.8631  0.1261  0.2430
 8195SOL    HW136221   2.672   2.096  16.612  1.7285  2.0629 -0.1040
 8195SOL    HW236222   2.532   2.087  16.668  0.0212  1.3304  1.6287
 8196SOL     OW36223   4.686   0.087   8.711 -0.3099  0.0388 -0.1733
 8196SOL    HW136224   4.637   0.146   8.768  0.5672 -1.7584  2.4090
 8196SOL    HW236225   4.740   0.044   8.777  1.5072 -0.4259 -1.9413
 8197SOL     OW36226   4.435   0.911   3.856 -0.1116 -0.2841  0.0740
 8197SOL    HW136227   4.460   0.835   3.803 -0.6145  1.3389 -2.5072
 8197SOL    HW236228   4.475   0.885   3.939  3.8163  1.4901 -1.2078
 8198SOL     OW36229   0.928   3.165   4.581 -0.3260 -0.5728  0.9330
 8198SOL    HW136230   0.942   3.151   4.675  2.1960 -0.6951  0.5337
 8198SOL    HW236231   0.963   3.252   4.564 -1.7547 -0.8499 -3.4841
 8199SOL     OW36232   0.470   2.969   3.555  0.0683  0.4405  0.7730
 8199SOL    HW136233   0.548   2.947   3.605 -2.1568  0.4867  4.2673
 8199SOL    HW236234   0.406   2.923   3.610 -0.4880 -0.8862 -0.9699
 8200SOL     OW36235   1.577   2.014   6.917 -0.0266  0.0529 -0.0549
 8200SOL    HW136236   1.570   2.088   6.976 -0.6823 -0.6173  0.7119
 8200SOL    HW236237   1.610   2.053   6.836 -1.7213 -0.4191 -0.9833
 8201SOL     OW36238   2.147   4.704   0.545 -0.0268 -0.1873 -0.0103
 8201SOL    HW136239   2.099   4.715   0.627 -0.1829  0.8370 -0.2294
 8201SOL    HW236240   2.196   0.046   0.533 -3.1257  1.7021  0.2340
 8202SOL     OW36241   2.688   1.261  11.646 -0.1862 -0.2775  0.1934
 8202SOL    HW136242   2.720   1.253  11.736  0.3435 -0.1432  0.0163
 8202SOL    HW236243   2.755   1.212  11.597 -0.6054  1.0334 -1.7016
 8203SOL     OW36244   2.753   1.385  10.361 -0.0860 -0.3883  0.0489
 8203SOL    HW136245   2.833   1.435  10.376 -1.0276  1.3857 -0.8589
 8203SOL    HW236246   2.791   1.298  10.347 -1.4093 -0.7085 -1.4851
 8204SOL     OW36247   3.390   2.711   7.318 -0.3515 -0.0108 -0.4651
 8204SOL    HW136248   3.411   2.656   7.242  0.8972  0.3671 -0.3856
 8204SOL    HW236249   3.436   2.793   7.299  0.1874  0.1738  1.6393
 8205SOL     OW36250   0.227   2.844  13.962 -0.1983  0.3457  0.3015
 8205SOL    HW136251   0.229   2.919  13.902  0.7777 -0.9938 -1.3470
 8205SOL    HW236252   0.177   2.893  14.027 -1.3308  2.1914 -1.9762
 8206SOL     OW36253   3.412   3.438   9.920  0.0172  0.0926  0.2370
 8206SOL    HW136254   3.343   3.375   9.897  2.0343 -2.6320  1.6596
 8206SOL    HW236255   3.491   3.384   9.917 -0.3469 -0.2967 -2.3445
 8207SOL     OW36256   4.017   2.099   6.131 -0.4351  0.5144  0.2281
 8207SOL    HW136257   4.067   2.042   6.190 -1.0065  1.0242  1.2070
 8207SOL    HW236258   4.082   2.093   6.062 -0.2501 -0.6068  0.4954
 8208SOL     OW36259   1.822   2.198  16.765 -0.2129  0.1089  0.3492
 8208SOL    HW136260   1.784   2.128  16.712 -0.8695  2.0938 -1.8120
 8208SOL    HW236261   1.818   2.267  16.698  2.3611 -1.8548 -1.8342
 8209SOL     OW36262   3.156   4.065   4.967 -0.3538  0.2864 -0.0656
 8209SOL    HW136263   3.149   4.054   4.872 -0.2782  1.4676 -0.2026
 8209SOL    HW236264   3.208   3.986   4.984 -1.0812 -0.6166 -1.9765
 8210SOL     OW36265   1.414   3.867  17.050 -0.8845  0.3792 -0.0088
 8210SOL    HW136266   1.489   3.807  17.061 -2.8251 -2.1398 -0.4458
 8210SOL    HW236267   1.377   3.842  16.965 -1.2815  0.7405  0.0584
 8211SOL     OW36268   3.434   1.156   5.822  0.1099  0.5399 -0.0109
 8211SOL    HW136269   3.390   1.160   5.907 -0.2043 -0.2231 -0.1387
 8211SOL    HW236270   3.474   1.243   5.816 -0.4621  0.7717 -0.5274
 8212SOL     OW36271   0.499   1.859   2.155 -0.0111 -0.4839 -0.6696
 8212SOL    HW136272   0.447   1.888   2.229  1.4225  0.8571 -0.1933
 8212SOL    HW236273   0.441   1.800   2.108  1.9541 -1.2547 -2.1675
 8213SOL     OW36274   0.498   4.638   9.930 -0.1622 -0.0872 -0.4166
 8213SOL    HW136275   0.558   4.709   9.953  1.2497 -1.5341  0.3456
 8213SOL    HW236276   0.554   4.573   9.887 -1.5639 -0.6580 -1.4010
 8214SOL     OW36277   1.303   2.267   3.456 -0.0497  0.1166 -0.1743
 8214SOL    HW136278   1.391   2.302   3.472 -1.8868  4.0572  1.1465
 8214SOL    HW236279   1.252   2.327   3.510 -0.4438 -1.2324  0.9399
 8215SOL     OW36280   0.575   3.465   9.256 -0.2821 -0.1377 -0.3266
 8215SOL    HW136281   0.568   3.536   9.193  1.1634  1.0270  0.8333
 8215SOL    HW236282   0.645   3.413   9.217 -0.5484 -0.9342  0.2613
 8216SOL     OW36283   0.405   1.527   7.758  0.3819 -0.0843 -0.0550
 8216SOL    HW136284   0.327   1.526   7.812  1.4612 -0.9919  1.4867
 8216SOL    HW236285   0.388   1.557   7.669 -3.3345  0.9035  1.0174
 8217SOL     OW36286   2.654   2.913  14.209 -0.4152  0.2119  0.2006
 8217SOL    HW136287   2.723   2.931  14.146 -1.5070  1.9096 -0.4961
 8217SOL    HW236288   2.636   2.824  14.178 -0.0162 -0.9148  3.1328
 8218SOL     OW36289   4.650   3.884   1.992  0.4825  0.5040  0.0670
 8218SOL    HW136290   4.653   3.939   1.914 -0.9202  2.6866  1.5433
 8218SOL    HW236291   0.002   3.873   2.014  0.9862  1.5597 -1.4856
 8219SOL     OW36292   4.514   3.758   4.364  0.0556  0.3757 -0.2278
 8219SOL    HW136293   4.499   3.850   4.386 -1.6494  0.1785 -0.5720
 8219SOL    HW236294   4.512   3.757   4.269 -1.6565  0.5818 -0.1959
 8220SOL     OW36295   3.522   4.547   8.399  0.2970  0.1079 -0.1956
 8220SOL    HW136296   3.530   4.541   8.494 -1.5036  0.5778 -0.0354
 8220SOL    HW236297   3.584   4.479   8.371 -0.4948 -0.1280 -1.3613
 8221SOL     OW36298   3.371   3.017   4.192  0.4301 -0.1790 -0.5768
 8221SOL    HW136299   3.376   3.107   4.159 -0.4119  0.0667 -0.0269
 8221SOL    HW236300   3.335   3.021   4.281 -0.5770 -1.2786 -0.9487
 8222SOL     OW36301   1.007   0.515   3.923 -0.8555 -0.6924 -0.6110
 8222SOL    HW136302   1.101   0.511   3.907 -0.7769 -0.1508 -0.2941
 8222SOL    HW236303   0.996   0.610   3.917 -1.5618 -0.6185  1.9294
 8223SOL     OW36304   3.597   2.843   4.473 -0.0477  0.4149  0.8110
 8223SOL    HW136305   3.664   2.820   4.409  1.4983  1.8734  1.9220
 8223SOL    HW236306   3.618   2.936   4.477  2.6755 -0.1774 -0.0121
 8224SOL     OW36307   3.260   1.551   7.220  0.1055 -0.7363  0.3357
 8224SOL    HW136308   3.262   1.456   7.222  1.2209 -0.7640 -2.1221
 8224SOL    HW236309   3.167   1.573   7.232  0.6023  1.1121  0.8073
 8225SOL     OW36310   1.175   0.961   6.945  0.2902  0.0652  0.3167
 8225SOL    HW136311   1.180   0.993   7.035 -2.5550 -1.4226  1.0071
 8225SOL    HW236312   1.136   1.040   6.907  0.1404 -0.8084 -1.3463
 8226SOL     OW36313   2.122   0.951   3.615 -0.2027 -0.7448 -0.6759
 8226SOL    HW136314   2.164   0.868   3.640  0.7871  0.0035  0.1416
 8226SOL    HW236315   2.164   1.021   3.664  0.5091 -3.1901  2.2488
 8227SOL     OW36316   3.043   3.391   7.056  0.1321 -0.0903  0.6673
 8227SOL    HW136317   3.069   3.483   7.066  0.5481 -0.1596  0.1954
 8227SOL    HW236318   2.950   3.392   7.079  0.5721  2.3047  2.4327
 8228SOL     OW36319   0.939   4.112   5.178  0.4868 -0.0726  0.0780
 8228SOL    HW136320   0.964   4.199   5.209 -1.0510 -0.0773  1.3148
 8228SOL    HW236321   0.889   4.133   5.100  0.5145  1.2259  0.4041
 8229SOL     OW36322   1.750   3.304   9.904  0.2481  0.3053 -0.0271
 8229SOL    HW136323   1.776   3.252   9.981 -0.0501  2.2993  1.4204
 8229SOL    HW236324   1.831   3.309   9.854 -0.2424  0.5915 -0.7979
 8230SOL     OW36325   3.486   0.773   5.056 -0.4200  0.6121  0.0513
 8230SOL    HW136326   3.457   0.736   5.139 -0.9240 -1.0989 -0.8603
 8230SOL    HW236327   3.473   0.867   5.069 -5.8569 -0.0451 -0.3650
 8231SOL     OW36328   1.662   4.086   6.410  0.0034 -0.0281 -0.3372
 8231SOL    HW136329   1.744   4.036   6.409 -0.9210 -1.5589  0.4070
 8231SOL    HW236330   1.630   4.074   6.500  0.0417  0.8425 -0.2029
 8232SOL     OW36331   2.674   0.055   0.346  0.1021  0.3672 -0.9500
 8232SOL    HW136332   2.667   0.127   0.283 -0.4046  1.2221  0.0938
 8232SOL    HW236333   2.636   4.719   0.301  2.3505 -2.2384  1.5878
 8233SOL     OW36334   3.970   2.746  11.679  0.3955  0.1915 -0.5770
 8233SOL    HW136335   3.932   2.833  11.664 -3.7471 -1.3997  0.8559
 8233SOL    HW236336   4.013   2.767  11.762  3.2799 -1.4212 -1.6650
 8234SOL     OW36337   3.095   2.984   6.704  0.1529 -0.0716 -0.4791
 8234SOL    HW136338   3.078   3.052   6.769  1.8835  1.1174 -1.2694
 8234SOL    HW236339   3.105   2.908   6.762  0.6172 -1.0174 -1.7954
 8235SOL     OW36340   0.667   0.513   5.639  0.5708  0.2518  0.5552
 8235SOL    HW136341   0.652   0.526   5.546  3.6226  0.5298  0.1056
 8235SOL    HW236342   0.607   0.440   5.654 -0.5990  1.5016  2.0957
 8236SOL     OW36343   1.016   1.245   6.039 -0.1358  0.4319 -0.6758
 8236SOL    HW136344   1.004   1.329   6.083  1.4142  0.6897 -0.7432
 8236SOL    HW236345   0.956   1.187   6.085 -2.1732  0.7536 -2.9283
 8237SOL     OW36346   4.220   2.632   7.356  0.0313  0.1662  0.7374
 8237SOL    HW136347   4.165   2.709   7.340 -0.1176 -0.3314 -1.1615
 8237SOL    HW236348   4.308   2.670   7.364  0.3955 -0.3126 -1.1094
 8238SOL     OW36349   1.124   4.220   2.563  0.3326 -0.0173  0.3505
 8238SOL    HW136350   1.038   4.213   2.521 -0.2545  0.2806  1.5000
 8238SOL    HW236351   1.106   4.293   2.622  0.2863  1.8431 -1.9559
 8239SOL     OW36352   1.203   0.856   8.083 -0.4716  0.4094  0.0156
 8239SOL    HW136353   1.217   0.824   8.172 -1.4486  1.2121  0.4700
 8239SOL    HW236354   1.127   0.802   8.059  0.4305 -0.2192 -1.4563
 8240SOL     OW36355   0.119   2.020   6.814 -0.6126  0.5317 -0.2200
 8240SOL    HW136356   0.124   1.977   6.729 -2.2797 -0.9371  0.4331
 8240SOL    HW236357   0.213   2.032   6.831 -0.1652  0.6474 -2.8219
 8241SOL     OW36358   2.249   2.669   3.786 -0.0605 -0.1653  0.0271
 8241SOL    HW136359   2.212   2.612   3.853 -1.4935  0.6587 -0.0621
 8241SOL    HW236360   2.194   2.747   3.797 -0.5892 -0.2592 -2.0926
 8242SOL     OW36361   4.546   2.318  15.634 -0.0839 -0.1595 -0.0545
 8242SOL    HW136362   4.458   2.322  15.671  0.4248  0.0988  1.1162
 8242SOL    HW236363   4.588   2.378  15.696 -0.0587 -0.2190 -0.0146
 8243SOL     OW36364   3.866   3.237   5.507  0.1539 -0.3232  0.1502
 8243SOL    HW136365   3.803   3.250   5.436 -1.1771  0.9803  1.5864
 8243SOL    HW236366   3.946   3.239   5.454 -0.5759 -0.0460 -0.9526
 8244SOL     OW36367   0.347   0.423   4.817  0.0784  0.0215  0.4870
 8244SOL    HW136368   0.292   0.481   4.764 -0.5584  0.0886  1.2146
 8244SOL    HW236369   0.437   0.451   4.805 -0.1531 -0.1777 -1.6960
 8245SOL     OW36370   4.190   2.155   4.197 -0.2623  0.2829 -0.0684
 8245SOL    HW136371   4.225   2.071   4.225 -0.4902  0.5454  1.0106
 8245SOL    HW236372   4.257   2.215   4.230  0.4993  0.3052 -1.6308
 8246SOL     OW36373   0.316   3.941   3.967 -0.3664  0.2926 -0.4303
 8246SOL    HW136374   0.267   3.863   3.994 -1.0196  1.0115  0.4618
 8246SOL    HW236375   0.402   3.934   4.009  0.7277 -0.8306 -2.8605
 8247SOL     OW36376   2.682   0.563   8.148  0.2269 -0.4669  0.0937
 8247SOL    HW136377   2.634   0.612   8.215 -1.1900 -1.0082 -0.5134
 8247SOL    HW236378   2.662   0.612   8.068  0.5822  0.5281  0.6219
 8248SOL     OW36379   0.663   2.543   5.035  0.4659 -0.2587  0.5404
 8248SOL    HW136380   0.735   2.554   5.097  1.1000  3.3580 -0.8648
 8248SOL    HW236381   0.704   2.472   4.984 -2.0888  0.2989 -2.3005
 8249SOL     OW36382   4.260   2.248   8.105  0.5867 -0.0168 -0.0523
 8249SOL    HW136383   4.280   2.341   8.103  0.8043 -0.0896 -1.2859
 8249SOL    HW236384   4.191   2.241   8.171  2.3546  0.1075  1.7740
 8250SOL     OW36385   1.752   3.300   4.931  0.8683  0.9658 -0.3821
 8250SOL    HW136386   1.717   3.235   4.870  2.8125  0.1246 -0.6081
 8250SOL    HW236387   1.684   3.366   4.924  0.0067 -0.0827 -2.1160
 8251SOL     OW36388   1.680   2.217  11.382 -0.0793  0.2204 -0.1568
 8251SOL    HW136389   1.599   2.214  11.433  1.5056  0.7306  2.4382
 8251SOL    HW236390   1.664   2.282  11.314  1.5150 -1.2886 -1.9557
 8252SOL     OW36391   3.029   1.392  16.312 -0.1171  0.2146 -0.2601
 8252SOL    HW136392   3.118   1.358  16.299  0.2018 -0.0664  2.7087
 8252SOL    HW236393   3.055   1.470  16.362 -0.1263 -1.9576  3.0796
 8253SOL     OW36394   4.409   1.826  10.050 -0.4441  0.0350  0.0166
 8253SOL    HW136395   4.401   1.733  10.072  1.1926 -0.5782 -1.8675
 8253SOL    HW236396   4.403   1.877  10.130 -0.5754 -0.2932  0.2163
 8254SOL     OW36397   2.524   2.951   4.817 -0.1922  0.3753  0.3557
 8254SOL    HW136398   2.553   2.980   4.904  1.2005 -2.0022  0.6815
 8254SOL    HW236399   2.440   2.911   4.841  0.7352 -2.1950 -0.6913
 8255SOL     OW36400   0.118   2.378   5.747  0.2882  0.0383 -0.3914
 8255SOL    HW136401   0.213   2.367   5.741  0.7950  3.0450  2.2641
 8255SOL    HW236402   0.098   2.370   5.654 -0.3552 -2.2154 -0.0748
 8256SOL     OW36403   1.618   1.410   5.763 -0.1346  0.0013  0.1984
 8256SOL    HW136404   1.619   1.399   5.858  1.3845  0.4277  0.2246
 8256SOL    HW236405   1.539   1.464   5.762  0.3846  0.7408 -1.1726
 8257SOL     OW36406   1.892   3.030   3.195  0.1873 -0.8021 -0.9198
 8257SOL    HW136407   1.901   3.004   3.104 -3.7817 -0.4553 -1.4202
 8257SOL    HW236408   1.857   2.950   3.235  0.1591 -0.0326  0.6240
 8258SOL     OW36409   4.589   1.257   4.057  0.1150 -0.0001 -0.1556
 8258SOL    HW136410   4.549   1.323   4.114  0.5118  0.2870 -0.2026
 8258SOL    HW236411   4.682   1.250   4.082  0.0924  0.0065 -0.0676
 8259SOL     OW36412   2.885   0.858   1.006  0.4360 -0.8038  0.3830
 8259SOL    HW136413   2.885   0.904   0.922 -1.7959  0.0601  0.8388
 8259SOL    HW236414   2.807   0.895   1.048 -0.7578 -0.0445 -2.5387
 8260SOL     OW36415   1.193   1.302   5.855 -0.4782 -0.2112 -0.6241
 8260SOL    HW136416   1.158   1.278   5.941  0.2357  0.3529 -0.1844
 8260SOL    HW236417   1.213   1.213   5.827  0.2522 -0.5486  0.9845
 8261SOL     OW36418   3.620   2.044   3.257 -0.4025 -0.2170  0.3910
 8261SOL    HW136419   3.687   2.051   3.189 -0.8132 -2.7209 -0.2607
 8261SOL    HW236420   3.678   2.029   3.331  1.5853 -0.6301 -1.2694
 8262SOL     OW36421   1.734   3.675   2.920  0.3674  0.1803 -0.4285
 8262SOL    HW136422   1.729   3.666   2.825 -0.0126 -2.6018 -0.1209
 8262SOL    HW236423   1.793   3.602   2.939 -1.5858 -1.1148  0.6280
 8263SOL     OW36424   3.007   4.405   8.107  0.4343  0.1855  0.4262
 8263SOL    HW136425   3.074   4.348   8.143 -0.5945 -0.6894  0.9642
 8263SOL    HW236426   2.958   4.436   8.184 -2.1177 -0.9250 -0.7417
 8264SOL     OW36427   0.928   0.714   1.780  0.7478  0.0558 -0.2552
 8264SOL    HW136428   0.915   0.679   1.868 -1.1876  0.5371 -0.3378
 8264SOL    HW236429   0.886   0.795   1.810 -0.6950 -1.3744  1.6127
 8265SOL     OW36430   0.302   1.343   4.168  0.3004 -0.0584  0.2118
 8265SOL    HW136431   0.383   1.298   4.143  0.0508 -0.8941  0.9035
 8265SOL    HW236432   0.256   1.328   4.085  0.9863 -1.3094  0.0591
 8266SOL     OW36433   2.736   2.715  14.876 -0.2586 -0.2851 -0.4196
 8266SOL    HW136434   2.825   2.722  14.910  0.4567 -1.7702 -1.9986
 8266SOL    HW236435   2.676   2.694  14.948  3.0542  0.5916  2.5955
 8267SOL     OW36436   3.025   0.865  14.191 -0.2243  0.1588  0.2051
 8267SOL    HW136437   2.990   0.954  14.203  0.8737  0.5778  0.3214
 8267SOL    HW236438   3.115   0.884  14.219 -0.2189 -1.7865  1.5316
 8268SOL     OW36439   2.628   4.220  12.695  0.1595  0.5205  0.0793
 8268SOL    HW136440   2.719   4.247  12.681 -0.3658  1.6986 -1.0397
 8268SOL    HW236441   2.634   4.134  12.653  0.4151  0.7266 -0.3033
 8269SOL     OW36442   4.583   1.171  11.340  0.6466 -0.6039 -0.3460
 8269SOL    HW136443   4.619   1.086  11.315 -0.8439 -1.7307  1.3168
 8269SOL    HW236444   4.498   1.157  11.298 -0.2809 -1.8268  1.9448
 8270SOL     OW36445   3.695   0.311   6.445 -0.6711 -0.3102  0.1832
 8270SOL    HW136446   3.604   0.328   6.420 -0.5942  0.1546  0.2256
 8270SOL    HW236447   3.705   0.359   6.527  1.8243 -0.5487  0.0152
 8271SOL     OW36448   2.481   0.482  17.059  0.6030  0.2404  0.4285
 8271SOL    HW136449   2.481   0.577  17.066  1.7702  0.0665  2.7808
 8271SOL    HW236450   2.438   0.467  16.974  0.7665  1.5063  0.1289
 8272SOL     OW36451   0.202   0.648   7.765  0.1871  0.3480 -0.1888
 8272SOL    HW136452   0.129   0.627   7.706  0.9919 -1.1823 -0.6202
 8272SOL    HW236453   0.159   0.684   7.843 -1.9219  1.2439 -1.7418
 8273SOL     OW36454   3.978   0.961   3.927 -0.0029  0.4389  0.0837
 8273SOL    HW136455   3.959   1.027   3.861  0.5461 -0.3849 -0.8910
 8273SOL    HW236456   3.908   0.982   3.989  0.3681 -2.2204  1.4314
 8274SOL     OW36457   2.899   1.096  10.072  0.5344 -0.0499  0.1165
 8274SOL    HW136458   2.893   1.006  10.042 -0.3126  0.4156 -1.0806
 8274SOL    HW236459   2.993   1.110  10.059  0.1761 -0.3021 -2.7324
 8275SOL     OW36460   0.199   4.697   7.303 -0.4285 -0.0439 -0.3339
 8275SOL    HW136461   0.174   0.014   7.376 -0.1938  0.3189 -0.5347
 8275SOL    HW236462   0.112   4.703   7.263 -1.8269 -1.8720  2.4312
 8276SOL     OW36463   2.815   4.683   8.692 -0.5287  0.1581 -0.1166
 8276SOL    HW136464   2.808   0.036   8.715  0.8287  0.0582  0.6651
 8276SOL    HW236465   2.721   4.667   8.684 -0.3829 -0.6439 -0.2554
 8277SOL     OW36466   3.915   3.222  14.797  0.4545 -0.1958  0.4667
 8277SOL    HW136467   3.946   3.158  14.733  1.0619  0.9386 -0.3662
 8277SOL    HW236468   3.836   3.173  14.821 -0.5724  1.3211  0.1833
 8278SOL     OW36469   1.818   3.195  15.296 -0.5707  0.6662 -0.3175
 8278SOL    HW136470   1.901   3.218  15.254 -0.7569  1.2547 -0.3596
 8278SOL    HW236471   1.836   3.114  15.344  0.7379 -0.3073 -2.4435
 8279SOL     OW36472   4.104   1.979   6.928  0.7145  0.4601 -0.1650
 8279SOL    HW136473   4.048   2.057   6.935  1.4418  1.0838 -1.3741
 8279SOL    HW236474   4.098   1.963   6.834  0.4790 -2.4600  0.3294
 8280SOL     OW36475   0.396   0.956  11.204  0.1082 -0.1908  0.0056
 8280SOL    HW136476   0.445   0.904  11.140  0.4123  0.9407 -0.6680
 8280SOL    HW236477   0.312   0.912  11.191 -0.0376  0.6581 -1.9043
 8281SOL     OW36478   2.639   3.190   6.801 -0.5149  0.2973 -0.4192
 8281SOL    HW136479   2.693   3.117   6.833 -0.6282  0.9521  1.2700
 8281SOL    HW236480   2.653   3.196   6.706 -0.0929  1.5991 -0.2740
 8282SOL     OW36481   2.586   0.208  11.243 -0.1699  0.3875  0.0892
 8282SOL    HW136482   2.532   0.260  11.184  1.0403  1.3924 -0.1301
 8282SOL    HW236483   2.560   0.255  11.322 -0.8302  0.3327 -0.0996
 8283SOL     OW36484   3.341   4.064  13.789  0.1420  0.3382  0.4476
 8283SOL    HW136485   3.353   3.985  13.736  1.0933  0.0788  1.0629
 8283SOL    HW236486   3.431   4.089  13.809  0.2897 -1.5279  2.1064
 8284SOL     OW36487   1.655   0.718  16.217 -0.0806 -0.1029  0.0997
 8284SOL    HW136488   1.690   0.735  16.130 -2.0452  1.8576 -0.2888
 8284SOL    HW236489   1.627   0.808  16.231  1.5802  0.8607 -2.8201
 8285SOL     OW36490   4.159   2.540   6.380  0.0950 -0.1154 -0.4390
 8285SOL    HW136491   4.221   2.477   6.415 -0.1664 -0.0881  0.0670
 8285SOL    HW236492   4.081   2.488   6.364 -0.2555 -0.4389  2.3014
 8286SOL     OW36493   4.640   1.018   2.400 -0.3109 -0.1579 -0.7743
 8286SOL    HW136494   4.637   0.976   2.314 -2.6691 -1.7898  0.0846
 8286SOL    HW236495   4.549   1.048   2.407 -0.3078 -0.2745 -0.2680
 8287SOL     OW36496   0.928   1.818   7.307  0.5933 -0.4070  0.4117
 8287SOL    HW136497   0.944   1.797   7.398 -1.0744  1.1346  1.0534
 8287SOL    HW236498   1.008   1.863   7.277  2.2290 -1.8471  2.6299
 8288SOL     OW36499   4.558   4.402   7.291 -0.5472 -0.2457 -0.0866
 8288SOL    HW136500   4.640   4.434   7.253 -0.1603  1.4292  2.2270
 8288SOL    HW236501   4.576   4.416   7.384  1.3350 -0.0484 -0.4658
 8289SOL     OW36502   0.613   2.494   4.647  0.1394  0.0230  0.0776
 8289SOL    HW136503   0.663   2.574   4.629 -0.9655  0.3991 -1.2880
 8289SOL    HW236504   0.613   2.451   4.562 -0.2144  0.1784 -0.0021
 8290SOL     OW36505   3.635   3.380   1.547  0.1588 -0.3553 -0.2681
 8290SOL    HW136506   3.665   3.421   1.628 -1.3391  2.0725 -0.9583
 8290SOL    HW236507   3.609   3.295   1.584 -1.4010  0.9390  1.5832
 8291SOL     OW36508   1.536   3.718   1.559 -0.1779  0.2262  0.3951
 8291SOL    HW136509   1.491   3.777   1.619 -2.8336 -0.9579 -0.4019
 8291SOL    HW236510   1.466   3.697   1.497 -1.0756  0.2721  1.4052
 8292SOL     OW36511   2.607   0.584   8.585  0.2321 -0.3406  0.2723
 8292SOL    HW136512   2.602   0.572   8.680  0.7378 -1.4850  0.1576
 8292SOL    HW236513   2.665   0.513   8.558 -2.6086 -3.2465  1.9426
 8293SOL     OW36514   2.599   0.908   8.687 -0.8578  0.5452  0.0242
 8293SOL    HW136515   2.505   0.926   8.678 -0.7511  1.6829  1.0827
 8293SOL    HW236516   2.599   0.823   8.731 -0.4085  0.6112  0.1600
 8294SOL     OW36517   1.788   3.923  15.742 -0.2376  0.5119  0.5711
 8294SOL    HW136518   1.750   3.973  15.669 -1.1291  0.1071  0.7583
 8294SOL    HW236519   1.713   3.936  15.800  0.2389 -2.7270  1.9102
 8295SOL     OW36520   1.413   0.538   8.572 -0.2185 -0.1742 -1.2022
 8295SOL    HW136521   1.482   0.531   8.507 -1.6166 -2.3549 -2.4475
 8295SOL    HW236522   1.416   0.447   8.602  0.1491 -0.1393 -1.1344
 8296SOL     OW36523   1.780   2.696   3.156 -0.3550 -0.6335  0.2726
 8296SOL    HW136524   1.730   2.683   3.075  0.9489  3.0171 -1.0940
 8296SOL    HW236525   1.713   2.663   3.217 -0.1090  0.5225  1.1773
 8297SOL     OW36526   1.000   0.429   9.904  0.5890  0.5367  0.1005
 8297SOL    HW136527   1.009   0.474   9.987 -1.9061 -0.9032  1.1422
 8297SOL    HW236528   1.089   0.439   9.869  0.7477 -1.3154 -0.0129
 8298SOL     OW36529   3.702   3.742  14.732 -0.1285  0.0614  0.1280
 8298SOL    HW136530   3.759   3.815  14.708 -1.2932  1.3316  1.2658
 8298SOL    HW236531   3.721   3.686  14.656  0.6119  0.1949  0.2117
 8299SOL     OW36532   0.513   0.584   5.351 -0.3953 -0.3399 -0.1702
 8299SOL    HW136533   0.497   0.585   5.256 -1.2467  0.2031 -0.0166
 8299SOL    HW236534   0.425   0.563   5.379  1.2975 -1.7532  4.0271
 8300SOL     OW36535   2.632   4.315  17.253  0.4866  0.5941 -0.3941
 8300SOL    HW136536   2.622   4.241  17.193  0.5955 -0.7186  1.2122
 8300SOL    HW236537   2.618   4.269  17.336 -0.7539  0.5507 -0.6272
 8301SOL     OW36538   3.715   3.030   9.559 -0.0871 -0.6047  0.0375
 8301SOL    HW136539   3.731   2.936   9.566 -0.3221 -0.7819 -1.8898
 8301SOL    HW236540   3.807   3.057   9.560  0.1203 -1.4431  2.2826
 8302SOL     OW36541   4.119   0.532   5.312  0.4344 -0.1103 -0.2120
 8302SOL    HW136542   4.200   0.481   5.312  0.8456  0.5477  1.9067
 8302SOL    HW236543   4.127   0.561   5.221 -1.0863 -0.5069 -0.4659
 8303SOL     OW36544   2.300   0.199  10.666  0.2160  0.5662  0.1871
 8303SOL    HW136545   2.332   0.284  10.694 -0.0037  0.6935  0.0507
 8303SOL    HW236546   2.370   0.139  10.694  1.1026  1.4242 -0.1973
 8304SOL     OW36547   1.956   0.335   1.791 -0.2979 -0.2025  0.6915
 8304SOL    HW136548   1.882   0.384   1.755  0.9307 -0.1613 -1.7983
 8304SOL    HW236549   1.994   0.413   1.833  1.1704  1.2042 -3.2826
 8305SOL     OW36550   2.097   2.988   6.671 -0.5509  0.5446  0.1550
 8305SOL    HW136551   2.177   3.018   6.629 -1.8174  1.6803 -1.4778
 8305SOL    HW236552   2.141   2.941   6.741 -1.0988  0.6956  0.5997
 8306SOL     OW36553   3.738   0.273  11.090 -0.1169 -0.3571 -0.2401
 8306SOL    HW136554   3.744   0.348  11.031 -1.3554 -0.1101 -0.0644
 8306SOL    HW236555   3.643   0.276  11.105 -0.4037  1.3942 -2.4487
 8307SOL     OW36556   3.203   0.652   2.009  0.1278 -0.0202 -0.5521
 8307SOL    HW136557   3.153   0.717   2.059 -2.2385  0.4504 -3.5573
 8307SOL    HW236558   3.159   0.671   1.927  0.8844 -1.8522 -1.3952
 8308SOL     OW36559   3.603   4.001   1.280 -0.3125 -0.6519  0.0875
 8308SOL    HW136560   3.625   3.922   1.327 -2.2272 -1.1893  0.1047
 8308SOL    HW236561   3.589   4.057   1.356  2.3761 -1.2594  1.0006
 8309SOL     OW36562   1.196   2.506   6.293 -0.2617 -0.2485  0.4790
 8309SOL    HW136563   1.222   2.446   6.222 -1.3910  0.9597 -0.9462
 8309SOL    HW236564   1.259   2.461   6.349 -2.3004 -2.4078  1.0769
 8310SOL     OW36565   1.008   3.097   1.568 -0.0825  0.0309 -0.1152
 8310SOL    HW136566   1.086   3.151   1.576 -1.4797  1.9539  0.7097
 8310SOL    HW236567   0.944   3.153   1.613 -1.4271 -3.4861  2.4090
 8311SOL     OW36568   2.788   1.198  17.623  0.2705 -0.3856  0.0860
 8311SOL    HW136569   2.792   1.177  17.716  1.7151  1.3474  0.4184
 8311SOL    HW236570   2.793   1.108  17.591 -0.4731 -0.1616 -0.6707
 8312SOL     OW36571   4.075   1.930   3.104 -0.5483 -0.3332 -0.0139
 8312SOL    HW136572   4.146   1.945   3.042  0.0626 -0.9320  0.5435
 8312SOL    HW236573   4.126   1.939   3.185 -0.3090  0.7481 -0.2940
 8313SOL     OW36574   1.345   0.376   4.858  0.1572 -0.3424  0.0931
 8313SOL    HW136575   1.291   0.429   4.916  2.3166  1.4664  0.4283
 8313SOL    HW236576   1.332   0.427   4.779  0.5236 -0.2049  0.1207
 8314SOL     OW36577   0.010   4.259   4.683 -0.1569  0.2848 -0.0679
 8314SOL    HW136578   0.029   4.166   4.686 -1.0573  0.0551 -1.4845
 8314SOL    HW236579   0.102   4.287   4.681 -0.2243  0.5211  0.1530
 8315SOL     OW36580   0.833   2.071   4.401  0.0419 -0.4322 -0.2827
 8315SOL    HW136581   0.918   2.101   4.433  1.0542 -1.3937 -2.0983
 8315SOL    HW236582   0.857   2.011   4.330 -0.7340  0.5430 -1.3863
 8316SOL     OW36583   4.542   0.165   5.307  0.0381 -0.1238  0.2597
 8316SOL    HW136584   4.564   0.116   5.387 -0.7414 -1.4539 -0.3452
 8316SOL    HW236585   4.631   0.189   5.281 -0.4193  0.8400 -0.3912
 8317SOL     OW36586   3.190   4.613   8.000  0.2570 -0.5986 -0.2930
 8317SOL    HW136587   3.115   4.557   8.018 -0.1256 -0.0209 -0.1193
 8317SOL    HW236588   3.241   4.599   8.080  0.8096 -0.6879 -0.6602
 8318SOL     OW36589   1.067   3.540  11.893 -0.1803  0.0495  0.0295
 8318SOL    HW136590   1.000   3.540  11.825  0.4862 -3.2973 -0.6450
 8318SOL    HW236591   1.108   3.453  11.886 -0.9403 -0.3851  0.9908
 8319SOL     OW36592   4.223   0.839  13.642 -0.4721  0.6511  0.3506
 8319SOL    HW136593   4.227   0.922  13.688  0.2139 -0.4927  2.3589
 8319SOL    HW236594   4.189   0.865  13.556 -0.5448 -2.0370 -0.4467
 8320SOL     OW36595   1.302   4.662   5.538 -0.1006  0.2857 -0.2570
 8320SOL    HW136596   1.250   4.590   5.574  1.3388  0.4899  2.2068
 8320SOL    HW236597   1.304   4.650   5.443  0.5116  0.4862 -0.2644
 8321SOL     OW36598   0.651   2.693   5.430 -0.0455 -0.2119 -0.1943
 8321SOL    HW136599   0.675   2.779   5.465 -0.8980 -0.9452  2.1798
 8321SOL    HW236600   0.719   2.682   5.363  1.0305 -0.1947  0.9124
 8322SOL     OW36601   3.778   3.382  13.446 -0.0139 -0.2797 -0.2876
 8322SOL    HW136602   3.773   3.290  13.421  0.8290 -0.2328 -0.6160
 8322SOL    HW236603   3.709   3.391  13.512 -0.0693  2.2340 -0.6857
 8323SOL     OW36604   1.925   3.493   2.058  0.2808  0.0038 -0.5255
 8323SOL    HW136605   1.990   3.540   2.006  0.7754  0.1524  0.2322
 8323SOL    HW236606   1.907   3.426   1.992 -1.6166  0.8087 -0.8550
 8324SOL     OW36607   2.193   4.577   7.869 -0.4298 -0.2223 -0.5949
 8324SOL    HW136608   2.230   4.494   7.838  0.8757  0.2261 -0.2337
 8324SOL    HW236609   2.105   4.557   7.903 -0.2673  0.7434  0.3980
 8325SOL     OW36610   0.979   3.417   2.494  0.5760 -0.4918  0.1813
 8325SOL    HW136611   1.059   3.393   2.447 -0.0020 -0.7756 -0.6606
 8325SOL    HW236612   0.947   3.482   2.431  3.0945 -0.5899 -1.2088
 8326SOL     OW36613   2.898   0.335  17.489 -0.1917  0.1462  0.1407
 8326SOL    HW136614   2.910   0.421  17.448 -0.0432  0.4410  0.7879
 8326SOL    HW236615   2.812   0.308  17.456  0.0750  0.3732 -0.7404
 8327SOL     OW36616   2.757   4.663   7.623 -0.1184  0.2198 -0.5654
 8327SOL    HW136617   2.778   4.600   7.692  1.3561  1.2316 -0.0859
 8327SOL    HW236618   2.713   4.731   7.675 -1.4113  0.3926 -1.8855
 8328SOL     OW36619   2.207   4.223   8.703  0.2333 -0.4744  0.1164
 8328SOL    HW136620   2.145   4.235   8.775 -0.0534 -1.3681  0.0139
 8328SOL    HW236621   2.211   4.128   8.703 -0.3946 -0.5040  1.5902
 8329SOL     OW36622   2.545   1.235   8.482 -0.1705 -0.4998 -0.0501
 8329SOL    HW136623   2.586   1.321   8.479 -0.8443 -0.1656  0.3395
 8329SOL    HW236624   2.470   1.250   8.540  0.5890  1.0318  0.5384
 8330SOL     OW36625   2.938   1.880  16.043 -0.1035 -0.4092  0.2609
 8330SOL    HW136626   2.978   1.855  15.960  2.5537  1.5130  0.9302
 8330SOL    HW236627   2.873   1.945  16.015  1.2084 -0.3924 -2.7699
 8331SOL     OW36628   1.383   1.352   3.456 -0.1134  0.2605  0.2946
 8331SOL    HW136629   1.391   1.281   3.393  2.2627 -0.8442  1.8012
 8331SOL    HW236630   1.355   1.418   3.393 -0.8143 -0.3054  0.0121
 8332SOL     OW36631   3.618   0.247   6.177 -0.0698  0.0158 -0.0326
 8332SOL    HW136632   3.659   0.292   6.251 -1.2386  1.8063 -0.4748
 8332SOL    HW236633   3.643   0.155   6.185  3.4174  1.0056  0.5784
 8333SOL     OW36634   1.835   0.693   1.833  0.2579 -0.6822  0.0183
 8333SOL    HW136635   1.788   0.615   1.802  1.8863 -0.6255 -2.5480
 8333SOL    HW236636   1.764   0.748   1.866 -1.4292 -1.4990 -2.2904
 8334SOL     OW36637   0.337   2.503   9.426 -0.2976 -0.0579 -0.0376
 8334SOL    HW136638   0.418   2.467   9.389 -0.8361 -0.3473 -0.9550
 8334SOL    HW236639   0.362   2.553   9.503  1.0300  1.2136 -1.2993
 8335SOL     OW36640   3.261   3.271   1.727  0.3136  0.4450 -0.2862
 8335SOL    HW136641   3.276   3.302   1.816 -1.0871  1.5474 -0.4340
 8335SOL    HW236642   3.190   3.209   1.740  1.6892 -0.8279  1.1061
 8336SOL     OW36643   2.222   0.702  10.511  0.3932  0.3708 -0.5540
 8336SOL    HW136644   2.316   0.694  10.495  0.7667  0.2992  1.6593
 8336SOL    HW236645   2.183   0.713  10.424 -2.0636 -2.3000  0.2105
 8337SOL     OW36646   2.178   0.695   5.777 -0.0699  0.3394  0.3265
 8337SOL    HW136647   2.211   0.674   5.689  0.9952 -0.2463  0.8624
 8337SOL    HW236648   2.205   0.787   5.783  0.0009 -0.0042  4.9242
 8338SOL     OW36649   3.951   2.590   9.329  0.3289  0.1193  0.4099
 8338SOL    HW136650   3.950   2.496   9.346 -2.7731 -0.2603 -1.8947
 8338SOL    HW236651   3.942   2.617   9.420 -0.4642  0.2657  0.2883
 8339SOL     OW36652   1.611   2.077   8.074 -0.5311  0.1437 -0.7535
 8339SOL    HW136653   1.517   2.061   8.068 -0.6202 -0.4316  2.4795
 8339SOL    HW236654   1.647   2.035   7.996  2.9856 -0.4392  1.1786
 8340SOL     OW36655   4.325   3.540   7.195  0.8064  0.5684 -0.2842
 8340SOL    HW136656   4.356   3.450   7.202  0.8942  0.5777 -0.5799
 8340SOL    HW236657   4.332   3.566   7.287  2.0815 -0.8142  0.0003
 8341SOL     OW36658   4.274   1.256   7.084  1.2524 -0.4836  0.5909
 8341SOL    HW136659   4.350   1.202   7.106  2.1056  0.2219 -0.6607
 8341SOL    HW236660   4.287   1.238   6.991 -1.3340  0.9463 -0.0534
 8342SOL     OW36661   3.543   1.645  11.666 -0.2605  0.1697 -0.1339
 8342SOL    HW136662   3.584   1.589  11.732  0.1488  0.5707 -0.0470
 8342SOL    HW236663   3.507   1.585  11.601  1.7556 -0.2200 -0.8965
 8343SOL     OW36664   4.191   2.618   4.733 -0.0993  0.2266  0.4819
 8343SOL    HW136665   4.110   2.579   4.767  0.6996  0.3442  2.5488
 8343SOL    HW236666   4.249   2.570   4.791  0.9945  1.7391  0.6432
 8344SOL     OW36667   4.278   2.467  13.424 -0.0396  0.1432 -0.1037
 8344SOL    HW136668   4.238   2.515  13.496  0.5315 -0.4924  0.6334
 8344SOL    HW236669   4.370   2.484  13.444 -0.9067  2.1810  2.0604
 8345SOL     OW36670   3.084   1.297   6.337  0.0634  0.1849 -0.4737
 8345SOL    HW136671   3.093   1.213   6.292  1.0864  0.7078 -1.2275
 8345SOL    HW236672   2.994   1.277   6.363  1.0385 -2.3009  1.0422
 8346SOL     OW36673   0.685   2.683   9.325 -0.7530 -0.4241  0.3624
 8346SOL    HW136674   0.638   2.734   9.259 -0.7493  0.5650  1.1169
 8346SOL    HW236675   0.775   2.680   9.292 -0.5957  1.1723  0.6030
 8347SOL     OW36676   4.387   4.252  12.436 -0.4969 -0.6291  0.1004
 8347SOL    HW136677   4.462   4.196  12.455 -0.9089 -0.9917  0.6695
 8347SOL    HW236678   4.314   4.197  12.464  1.4188 -3.4143 -0.3462
 8348SOL     OW36679   0.979   0.181   2.817  0.1176  0.3515  0.2678
 8348SOL    HW136680   0.923   0.258   2.816 -2.8130 -1.7564 -0.2518
 8348SOL    HW236681   0.967   0.155   2.725 -0.1496  1.4195 -0.0011
 8349SOL     OW36682   3.187   0.887  17.419 -0.3153 -0.1660 -0.3158
 8349SOL    HW136683   3.259   0.851  17.367  1.5978  0.6755  1.7324
 8349SOL    HW236684   3.143   0.805  17.440 -0.9652  0.5817  1.1942
 8350SOL     OW36685   3.761   3.109   3.267 -0.0490 -0.1606 -0.0536
 8350SOL    HW136686   3.837   3.072   3.222  0.8332  0.2184  1.1301
 8350SOL    HW236687   3.697   3.124   3.198  0.1724 -0.4567 -0.3228
 8351SOL     OW36688   4.076   4.410   8.812 -0.0991  0.5217  0.6982
 8351SOL    HW136689   4.036   4.488   8.849  0.4124  1.4055 -0.6311
 8351SOL    HW236690   4.103   4.355   8.885  1.6751  1.3363  0.6511
 8352SOL     OW36691   1.285   0.486   0.351 -0.3548  0.0192 -0.4619
 8352SOL    HW136692   1.219   0.512   0.287  0.4830  1.4822 -0.7377
 8352SOL    HW236693   1.370   0.495   0.307  0.9792 -1.5042  1.8043
 8353SOL     OW36694   1.299   0.084   0.381 -0.1410  0.2189 -0.1280
 8353SOL    HW136695   1.301   0.006   0.437 -2.1775  0.2737  0.0169
 8353SOL    HW236696   1.384   0.063   0.342 -1.2773  0.8905 -2.9171
 8354SOL     OW36697   1.331   0.081   7.920  0.3783 -0.3034 -0.2974
 8354SOL    HW136698   1.289   4.740   7.949 -1.6429  0.9566  0.3628
 8354SOL    HW236699   1.296   0.128   7.996  0.0551 -2.7347  1.0527
 8355SOL     OW36700   0.023   1.846   4.082  0.3271  0.2793 -0.0395
 8355SOL    HW136701   4.712   1.765   4.079 -1.0984  1.1436  0.4297
 8355SOL    HW236702   0.108   1.809   4.058  0.0545 -0.0064 -0.5594
 8356SOL     OW36703   4.076   0.435   0.128 -0.3714  0.2399  0.2856
 8356SOL    HW136704   4.064   0.461   0.220  0.4688  1.9021 -0.0834
 8356SOL    HW236705   4.159   0.388   0.136 -1.9072 -2.6147 -0.2985
 8357SOL     OW36706   2.458   0.670  12.353 -0.1829 -0.2318  0.2475
 8357SOL    HW136707   2.504   0.685  12.436 -1.2830  4.6861  0.0221
 8357SOL    HW236708   2.524   0.646  12.288 -1.7012  0.5362 -1.5695
 8358SOL     OW36709   0.859   0.962   1.853 -0.3722  0.5121  0.3260
 8358SOL    HW136710   0.825   0.994   1.936  2.2002  1.9490  0.8205
 8358SOL    HW236711   0.800   1.015   1.798 -0.7231 -0.0023  0.2108
 8359SOL     OW36712   3.345   0.564   7.655 -0.1510 -0.9357 -0.3089
 8359SOL    HW136713   3.257   0.555   7.691 -0.8613 -0.0375 -1.7983
 8359SOL    HW236714   3.330   0.622   7.580  2.0264  1.2367  0.9288
 8360SOL     OW36715   1.969   3.380   4.157  0.0274 -0.1157  0.2966
 8360SOL    HW136716   2.017   3.460   4.179  0.3508 -0.7152  1.7958
 8360SOL    HW236717   2.050   3.328   4.151 -0.9869 -1.8239  1.3400
 8361SOL     OW36718   4.165   4.278  15.486 -0.0671  0.8935  0.4897
 8361SOL    HW136719   4.115   4.281  15.404 -0.2105  1.6076  0.5990
 8361SOL    HW236720   4.100   4.243  15.547 -0.6532  1.0115 -0.0523
 8362SOL     OW36721   2.232   0.314  14.375  0.0120  0.1508  0.0498
 8362SOL    HW136722   2.190   0.378  14.317 -0.0512 -0.9774 -1.1651
 8362SOL    HW236723   2.204   0.229  14.340 -3.4581  0.8978  0.9630
 8363SOL     OW36724   2.114   4.099   2.017  0.7570  0.2594 -0.0717
 8363SOL    HW136725   2.109   4.188   2.053  0.8121 -0.2118  1.1308
 8363SOL    HW236726   2.102   4.042   2.093 -0.4054 -0.0861 -0.5223
 8364SOL     OW36727   1.975   2.374   1.933  0.5119  0.1475 -0.8034
 8364SOL    HW136728   1.947   2.283   1.929 -1.5864  0.8222 -1.4216
 8364SOL    HW236729   2.066   2.364   1.905  1.3826  1.4119  1.6117
 8365SOL     OW36730   1.345   3.431  17.560 -1.0120  0.2949  0.2600
 8365SOL    HW136731   1.253   3.413  17.538 -0.3006  0.6514 -3.1051
 8365SOL    HW236732   1.348   3.523  17.588 -1.3646  1.0005 -2.0187
 8366SOL     OW36733   3.014   4.142  12.779 -0.0662 -0.1712 -0.4453
 8366SOL    HW136734   3.004   4.163  12.686 -1.8316 -1.2433 -0.4998
 8366SOL    HW236735   2.969   4.220  12.810  1.0585  0.1815  0.2796
 8367SOL     OW36736   1.629   4.142   4.844  0.7928  0.1374  0.9005
 8367SOL    HW136737   1.545   4.171   4.808 -0.0612 -0.9014  2.0564
 8367SOL    HW236738   1.614   4.096   4.927 -1.9621  0.4154  0.5610
 8368SOL     OW36739   4.405   4.736   8.064  0.0655  0.1358  0.1277
 8368SOL    HW136740   4.433   4.646   8.075 -0.9442 -0.3516 -1.2975
 8368SOL    HW236741   4.350   4.727   7.986  0.0990 -0.1094  0.1331
 8369SOL     OW36742   2.434   1.164   6.236 -0.3283 -0.2817  0.6870
 8369SOL    HW136743   2.447   1.077   6.274  2.1366  0.7817  2.2730
 8369SOL    HW236744   2.526   1.190   6.232 -0.2166 -0.8230 -0.6459
 8370SOL     OW36745   4.099   1.060   2.886 -0.2814  0.6714  0.3206
 8370SOL    HW136746   4.121   1.020   2.970 -0.1692  1.1402  0.5203
 8370SOL    HW236747   4.138   0.996   2.828  1.3626  0.5688  1.5331
 8371SOL     OW36748   1.295   1.331   3.697  0.3131  0.2354 -0.2821
 8371SOL    HW136749   1.324   1.351   3.608 -1.5683 -0.3050 -1.0084
 8371SOL    HW236750   1.320   1.416   3.736  1.7251 -1.1303  1.8431
 8372SOL     OW36751   1.527   2.424   7.542  0.4601  0.1986 -0.0646
 8372SOL    HW136752   1.468   2.492   7.511  2.8566  1.9004 -0.8914
 8372SOL    HW236753   1.602   2.482   7.555  0.3604  0.3813 -0.3019
 8373SOL     OW36754   2.378   2.950   3.211 -0.1943 -0.1208 -0.0864
 8373SOL    HW136755   2.429   2.920   3.136 -0.6708 -2.2435  0.4181
 8373SOL    HW236756   2.369   2.871   3.265  0.3728  0.0044  0.1952
 8374SOL     OW36757   0.291   0.627  17.533 -0.2187 -0.9999 -0.2954
 8374SOL    HW136758   0.197   0.647  17.531  0.4198  2.0057 -0.0871
 8374SOL    HW236759   0.290   0.532  17.520 -3.1367 -0.8866 -0.9590
 8375SOL     OW36760   1.648   0.176   1.776 -0.3610 -0.2105  0.1650
 8375SOL    HW136761   1.669   0.096   1.727  3.3444 -0.9752  2.9677
 8375SOL    HW236762   1.594   0.142   1.847  0.4356  0.2460  0.9882
 8376SOL     OW36763   0.293   0.505  16.933  0.0432 -0.4018  0.2261
 8376SOL    HW136764   0.289   0.428  16.876  0.9479 -0.3862  0.1326
 8376SOL    HW236765   0.319   0.571  16.869  0.9264  1.2537  2.2767
 8377SOL     OW36766   2.500   4.721   5.740 -0.4846 -0.4812 -0.2136
 8377SOL    HW136767   2.454   4.710   5.657 -1.1103 -0.6973  0.1533
 8377SOL    HW236768   2.538   0.067   5.724  1.3392 -1.4594 -1.0477
 8378SOL     OW36769   3.371   1.215  12.344 -0.4723 -0.1430  0.6135
 8378SOL    HW136770   3.393   1.141  12.288  1.6756  0.0642  1.1845
 8378SOL    HW236771   3.292   1.246  12.298 -0.3367 -2.2876 -1.0517
 8379SOL     OW36772   2.470   3.783   0.462 -0.5346  0.0962 -0.3301
 8379SOL    HW136773   2.470   3.724   0.537  0.5077 -2.4719 -2.3432
 8379SOL    HW236774   2.498   3.721   0.395 -0.6218 -0.8192  0.4824
 8380SOL     OW36775   0.214   0.772   0.415 -0.3074 -0.6164 -0.2907
 8380SOL    HW136776   0.185   0.683   0.394 -2.2997 -0.4199  1.6349
 8380SOL    HW236777   0.212   0.810   0.327  0.1785  1.7836  0.7343
 8381SOL     OW36778   2.708   3.662  16.418  0.3558 -0.2873  0.7147
 8381SOL    HW136779   2.747   3.694  16.499  1.0435  1.0377 -0.1527
 8381SOL    HW236780   2.678   3.737  16.367 -0.0327 -1.9449 -1.5314
 8382SOL     OW36781   3.966   2.812   3.986  0.1761 -0.6268 -0.3286
 8382SOL    HW136782   4.029   2.820   4.057 -0.0073  0.7635 -0.3204
 8382SOL    HW236783   3.925   2.898   3.995  1.5581 -0.3036  2.7513
 8383SOL     OW36784   0.752   0.255  12.752 -0.6821 -0.0687  0.1943
 8383SOL    HW136785   0.812   0.195  12.707  1.5328  2.9479 -0.8964
 8383SOL    HW236786   0.804   0.333  12.733 -0.9677  0.0086 -0.2820
 8384SOL     OW36787   0.302   2.960   7.925 -0.1795 -0.1993  0.2958
 8384SOL    HW136788   0.256   2.884   7.958 -1.3581  0.5011  0.2598
 8384SOL    HW236789   0.271   2.966   7.835 -0.6679 -0.8655  0.4236
 8385SOL     OW36790   2.722   2.464   3.295  0.1807 -0.0899 -0.3908
 8385SOL    HW136791   2.776   2.478   3.373 -1.6124 -0.2789  0.8879
 8385SOL    HW236792   2.671   2.386   3.316  0.3682 -0.6099 -1.8379
 8386SOL     OW36793   0.009   0.227   4.542 -0.4615  0.0576 -0.0436
 8386SOL    HW136794   4.714   0.138   4.533 -0.8421  0.0430  1.6445
 8386SOL    HW236795   0.070   0.228   4.468 -2.5975  0.1240 -1.8340
 8387SOL     OW36796   0.614   2.384   9.790  0.3352  0.2037 -0.4705
 8387SOL    HW136797   0.586   2.325   9.860  0.9699  2.4949  1.7117
 8387SOL    HW236798   0.683   2.437   9.830 -0.3224  0.8353 -0.1870
 8388SOL     OW36799   0.916   2.453   4.369 -0.0416  0.2196 -0.0810
 8388SOL    HW136800   0.936   2.427   4.459  1.4703  0.4291 -0.3666
 8388SOL    HW236801   0.822   2.434   4.375 -0.0019  0.0185 -0.0890
 8389SOL     OW36802   0.033   2.556   6.341  0.3516 -0.0842  0.3512
 8389SOL    HW136803   0.105   2.617   6.353 -0.5950  1.3722 -1.3843
 8389SOL    HW236804   4.712   2.619   6.303 -0.5099 -0.4962  1.0204
 8390SOL     OW36805   4.268   4.507   3.200  1.0211  0.0163 -0.0245
 8390SOL    HW136806   4.348   4.533   3.153  0.9248 -1.2064 -0.8870
 8390SOL    HW236807   4.210   4.583   3.200  1.7701  0.5889 -1.2141
 8391SOL     OW36808   3.340   2.645  13.373 -0.4468 -0.4616 -0.6387
 8391SOL    HW136809   3.401   2.719  13.373  1.2150 -1.8143  0.7394
 8391SOL    HW236810   3.362   2.598  13.293 -0.7809  0.1157 -1.0720
 8392SOL     OW36811   2.966   1.472   1.969 -0.3358  0.2814 -0.1961
 8392SOL    HW136812   3.052   1.504   1.995 -0.0971 -1.9542  1.7735
 8392SOL    HW236813   2.952   1.527   1.892 -1.6968  0.9797  0.5480
 8393SOL     OW36814   3.237   2.719  10.780 -0.4444  0.0587 -0.5943
 8393SOL    HW136815   3.298   2.745  10.848  1.8844 -0.1404 -2.6054
 8393SOL    HW236816   3.193   2.804  10.775 -1.8131 -0.6218 -0.0459
 8394SOL     OW36817   1.240   1.713  13.771 -0.1733 -0.4820  0.1141
 8394SOL    HW136818   1.148   1.714  13.745  0.2343  0.1540 -1.3258
 8394SOL    HW236819   1.288   1.791  13.743 -0.9622  0.7380  2.1247
 8395SOL     OW36820   1.970   3.804   8.579 -0.0770  0.0071 -0.1121
 8395SOL    HW136821   1.960   3.721   8.627 -0.7418  0.3807  0.3835
 8395SOL    HW236822   1.987   3.768   8.492 -1.2351 -1.7357  0.3807
 8396SOL     OW36823   0.286   0.074  12.701  0.2330  0.2832 -0.0365
 8396SOL    HW136824   0.370   0.081  12.747  0.1316 -1.4343  0.4146
 8396SOL    HW236825   0.252   0.155  12.739  0.5183  1.3428 -2.0470
 8397SOL     OW36826   1.457   0.130   4.507 -0.0965 -0.2714 -0.5196
 8397SOL    HW136827   1.403   0.117   4.585  0.0510 -1.6443 -0.6417
 8397SOL    HW236828   1.546   0.130   4.543  0.5746 -4.7031 -2.1953
 8398SOL     OW36829   4.475   4.729   6.900  0.3353 -0.2274 -0.1910
 8398SOL    HW136830   4.542   4.674   6.859  0.3665 -0.6856  0.4739
 8398SOL    HW236831   4.418   4.658   6.927 -0.7103 -0.5965 -3.4251
 8399SOL     OW36832   2.233   1.300   4.524 -0.1355  0.2432 -0.2342
 8399SOL    HW136833   2.230   1.217   4.477 -0.8438  0.1474 -0.0169
 8399SOL    HW236834   2.324   1.327   4.516 -0.0112 -0.4067 -1.0178
 8400SOL     OW36835   0.321   2.189   1.802 -0.5472 -0.0575  0.5711
 8400SOL    HW136836   0.412   2.191   1.772 -0.3367  1.6981  1.3606
 8400SOL    HW236837   0.323   2.267   1.857  3.6458 -0.6146  1.2158
 8401SOL     OW36838   4.191   3.256   4.542  0.0853  0.1958  0.0063
 8401SOL    HW136839   4.097   3.258   4.522 -0.0835  0.0263  0.7986
 8401SOL    HW236840   4.225   3.332   4.494  3.3136 -1.2781 -0.0416
 8402SOL     OW36841   4.372   0.870   1.876  0.3727 -0.4872 -0.2074
 8402SOL    HW136842   4.309   0.931   1.837  1.2842  0.9823  0.6021
 8402SOL    HW236843   4.336   0.791   1.838 -0.6037  0.0414 -0.3825
 8403SOL     OW36844   0.954   4.337   2.040  0.7378  0.0459 -0.0268
 8403SOL    HW136845   0.946   4.363   2.131  2.8141  1.0082 -0.1086
 8403SOL    HW236846   0.881   4.275   2.041  0.8591 -0.1545 -2.4275
 8404SOL     OW36847   1.226   4.040   0.140 -0.1038 -0.1019  0.3526
 8404SOL    HW136848   1.289   4.083   0.082  0.3243  1.5711  2.0445
 8404SOL    HW236849   1.192   4.116   0.188  1.0126  0.1452  0.7690
 8405SOL     OW36850   1.351   1.241   9.804 -0.1203 -0.7203 -0.7100
 8405SOL    HW136851   1.423   1.247   9.866  0.4941  1.7449 -1.6726
 8405SOL    HW236852   1.340   1.147   9.790  1.1839 -1.0178  0.3719
 8406SOL     OW36853   0.063   4.333   0.026  0.5747  0.2187 -0.1075
 8406SOL    HW136854   0.043   4.390  17.709  1.6538 -0.3965 -0.8694
 8406SOL    HW236855   0.142   4.376   0.060  1.0083  0.1864 -1.0878
 8407SOL     OW36856   3.670   4.227   6.843 -0.2931  0.0449  0.0951
 8407SOL    HW136857   3.607   4.158   6.866  0.0263 -0.4048 -0.3800
 8407SOL    HW236858   3.625   4.306   6.872  2.3573  1.3735  0.5984
 8408SOL     OW36859   0.020   2.126   6.505  0.3838 -0.3341 -0.0289
 8408SOL    HW136860   0.004   2.100   6.596 -0.3428 -1.8114 -0.5798
 8408SOL    HW236861   4.724   2.215   6.508 -1.6633 -1.2258  2.3335
 8409SOL     OW36862   3.648   0.800  15.315 -0.7538  0.4194 -0.2205
 8409SOL    HW136863   3.597   0.866  15.269 -2.4803  0.0971  1.2029
 8409SOL    HW236864   3.660   0.836  15.403 -2.1480  0.4887 -0.0569
 8410SOL     OW36865   1.982   0.375   6.451  0.5888  0.6732 -0.3889
 8410SOL    HW136866   1.933   0.455   6.471 -0.0581  0.0657  0.4272
 8410SOL    HW236867   1.980   0.374   6.355 -1.2012 -0.4311 -0.3362
 8411SOL     OW36868   1.171   2.260  11.750 -0.0654 -0.2551 -0.1057
 8411SOL    HW136869   1.149   2.333  11.692  1.0192  1.9879  2.3378
 8411SOL    HW236870   1.217   2.205  11.686 -0.8661  1.3154 -2.0521
 8412SOL     OW36871   4.394   4.308   4.104  0.7238  0.3597  0.4020
 8412SOL    HW136872   4.333   4.270   4.168 -0.8633  1.0727 -0.6726
 8412SOL    HW236873   4.476   4.304   4.152  0.5644  2.2834  0.8474
 8413SOL     OW36874   4.490   4.571   3.028  0.4521 -0.1593 -0.1585
 8413SOL    HW136875   4.555   4.615   2.971 -1.4102  0.1946 -2.0083
 8413SOL    HW236876   4.412   4.596   2.978  0.5507  0.2779 -0.0997
 8414SOL     OW36877   4.665   1.889   9.559  0.4327 -0.0296  0.5469
 8414SOL    HW136878   4.586   1.842   9.585  0.5436  0.5171  1.8763
 8414SOL    HW236879   4.705   1.817   9.510  1.1538 -0.6801  2.0742
 8415SOL     OW36880   3.848   2.053   3.064 -0.2248 -0.1662  0.1664
 8415SOL    HW136881   3.933   2.018   3.088  1.6098  3.7323 -0.6177
 8415SOL    HW236882   3.882   2.112   2.997 -0.2776  0.4970  0.7246
 8416SOL     OW36883   0.149   0.544   9.631  0.3655 -0.4580 -0.4206
 8416SOL    HW136884   0.127   0.621   9.579 -0.5879 -1.4917 -1.5680
 8416SOL    HW236885   0.164   0.476   9.565  2.2534 -0.7536  0.2987
 8417SOL     OW36886   0.420   1.850   9.603 -0.6675 -0.1699  0.4842
 8417SOL    HW136887   0.332   1.813   9.602 -0.8078  0.1499  0.8708
 8417SOL    HW236888   0.469   1.780   9.558  0.0013  0.1509  0.7062
 8418SOL     OW36889   0.865   2.055   6.410  0.3909 -0.1691 -0.1012
 8418SOL    HW136890   0.923   2.022   6.341 -0.5002 -0.1323 -0.8807
 8418SOL    HW236891   0.921   2.119   6.452 -1.5421  0.0281  2.1608
 8419SOL     OW36892   2.269   0.348   5.704 -0.2647 -0.0138  0.4883
 8419SOL    HW136893   2.203   0.285   5.675  0.4309  0.2966 -1.7623
 8419SOL    HW236894   2.343   0.287   5.704  0.0461  0.3658 -3.2708
 8420SOL     OW36895   4.074   0.379   2.338 -0.5586  0.1538 -0.2036
 8420SOL    HW136896   4.069   0.408   2.247 -1.4872 -1.4902 -0.6662
 8420SOL    HW236897   4.156   0.343   2.370 -2.3811 -1.7083  2.3960
 8421SOL     OW36898   4.345   2.694   3.206  0.3499  0.4536  1.0192
 8421SOL    HW136899   4.355   2.684   3.301  0.2111  3.3963  1.3365
 8421SOL    HW236900   4.424   2.651   3.172  0.4558  0.0293  1.7796
 8422SOL     OW36901   2.876   3.780  12.515 -0.5309 -0.2038 -0.0869
 8422SOL    HW136902   2.900   3.689  12.500  0.1561  0.2628 -1.9054
 8422SOL    HW236903   2.910   3.790  12.604 -1.6848 -1.6709  0.5098
 8423SOL     OW36904   0.947   2.810   5.390  0.5331  0.5597 -0.1366
 8423SOL    HW136905   0.938   2.753   5.466 -0.2346 -1.6114 -1.8339
 8423SOL    HW236906   1.037   2.796   5.358  0.2436 -0.2224 -0.5952
 8424SOL     OW36907   4.702   4.609  14.997  0.3644  0.1319  0.2281
 8424SOL    HW136908   4.696   4.648  15.085  1.2104 -0.0696  0.3781
 8424SOL    HW236909   0.046   4.562  14.998 -1.8711 -3.8218  1.3746
 8425SOL     OW36910   0.278   0.850   8.075 -0.2563 -0.4524  0.1715
 8425SOL    HW136911   0.318   0.907   8.010 -1.4040  0.1472 -0.0135
 8425SOL    HW236912   0.253   0.905   8.150  1.4510 -0.9041  1.0759
 8426SOL     OW36913   1.441   3.694   6.269 -0.5326 -0.2270 -0.4385
 8426SOL    HW136914   1.498   3.771   6.263 -2.0854  0.9718  0.1895
 8426SOL    HW236915   1.503   3.621   6.265  0.9823  0.8927  2.5759
 8427SOL     OW36916   1.982   1.202   2.880 -0.8056 -0.4084  0.2620
 8427SOL    HW136917   2.054   1.147   2.850  0.2762 -0.9808  3.8813
 8427SOL    HW236918   2.018   1.288   2.896  0.2434 -0.7154 -0.4566
 8428SOL     OW36919   3.368   0.897   1.514  0.6765 -0.2302 -0.4609
 8428SOL    HW136920   3.377   0.891   1.419  0.7896  0.8012 -0.5159
 8428SOL    HW236921   3.277   0.874   1.536  0.2398 -0.4302 -2.4283
 8429SOL     OW36922   2.375   2.017  11.888 -0.3767 -0.1953  0.0830
 8429SOL    HW136923   2.441   2.040  11.954 -0.2941 -1.6311  0.5055
 8429SOL    HW236924   2.288   2.017  11.927  0.0901  2.1463  1.1049
 8430SOL     OW36925   2.456   0.438   3.550  0.2816  0.8405  0.5672
 8430SOL    HW136926   2.400   0.490   3.492 -2.4972 -2.3450  0.3691
 8430SOL    HW236927   2.493   0.372   3.492 -1.6806  0.2763 -0.0576
 8431SOL     OW36928   3.871   1.069   6.691  0.0351  0.2216  0.4258
 8431SOL    HW136929   3.818   1.025   6.626  0.5002  2.0964 -1.2247
 8431SOL    HW236930   3.961   1.048   6.668 -0.8498 -1.4701 -1.4283
 8432SOL     OW36931   2.125   3.667   8.344  0.1744 -0.6915  0.4302
 8432SOL    HW136932   2.189   3.622   8.290  1.0399  1.7365 -0.5572
 8432SOL    HW236933   2.095   3.738   8.287 -1.8274 -1.6500  0.2664
 8433SOL     OW36934   1.680   1.635  11.570 -0.1209  0.1420 -0.0614
 8433SOL    HW136935   1.645   1.623  11.482  2.5246 -1.6686 -0.8615
 8433SOL    HW236936   1.770   1.663  11.553 -0.4093  0.8303 -0.4366
 8434SOL     OW36937   2.411   0.893   6.992 -0.3021  0.4197  0.0579
 8434SOL    HW136938   2.495   0.931   7.018  0.2256  0.6611 -1.9661
 8434SOL    HW236939   2.389   0.936   6.909 -2.2677 -1.5152 -0.4017
 8435SOL     OW36940   0.093   3.453   8.021  0.2832 -0.3350  1.1110
 8435SOL    HW136941   4.739   3.471   8.010  0.3285 -0.5645  0.3461
 8435SOL    HW236942   0.081   3.367   7.982  1.3166  0.9338 -2.0049
 8436SOL     OW36943   3.238   2.868  14.647  0.1643 -0.1818 -0.3660
 8436SOL    HW136944   3.150   2.871  14.684 -0.2009  0.7913 -1.3145
 8436SOL    HW236945   3.245   2.777  14.618  0.6603  0.0410 -0.9541
 8437SOL     OW36946   1.032   1.420  12.672 -0.1623  0.9300  0.4042
 8437SOL    HW136947   0.946   1.377  12.673 -0.1061  0.7191 -1.8324
 8437SOL    HW236948   1.017   1.492  12.610  2.1856  0.5381 -0.6244
 8438SOL     OW36949   2.066   0.290   5.358  0.4572 -0.2086 -0.5044
 8438SOL    HW136950   2.072   0.238   5.277 -0.5340  0.5364 -1.0584
 8438SOL    HW236951   2.107   0.232   5.422  0.7166  1.2881  0.6834
 8439SOL     OW36952   0.502   0.551   1.504 -0.3527  0.1895  0.2104
 8439SOL    HW136953   0.430   0.587   1.555  0.1173  0.2568  0.8296
 8439SOL    HW236954   0.460   0.518   1.425  0.4159 -3.9589  1.5260
 8440SOL     OW36955   0.757   4.367   4.903  0.2048  0.1766 -0.1043
 8440SOL    HW136956   0.664   4.355   4.886  0.0690  0.4954  0.4011
 8440SOL    HW236957   0.765   4.453   4.861 -1.6584  0.7564  0.7279
 8441SOL     OW36958   4.375   0.340   2.887  1.1172 -0.3508 -0.3317
 8441SOL    HW136959   4.369   0.433   2.906  0.6849 -0.2113 -1.1571
 8441SOL    HW236960   4.320   0.305   2.957  2.4253  0.4337  1.0854
 8442SOL     OW36961   4.528   3.457   7.455 -0.8167  0.3305  0.8593
 8442SOL    HW136962   4.463   3.456   7.526 -0.1887  0.3894  1.4353
 8442SOL    HW236963   4.599   3.509   7.492 -1.4725  1.1027  1.0431
 8443SOL     OW36964   2.339   2.974  12.205 -0.1611 -0.0221 -0.0392
 8443SOL    HW136965   2.279   3.016  12.266  1.3493  0.7211  0.9361
 8443SOL    HW236966   2.366   3.047  12.149 -0.6668  1.1069  1.1952
 8444SOL     OW36967   3.348   1.315   3.130 -0.3184  0.3398 -0.9264
 8444SOL    HW136968   3.410   1.267   3.185  0.3468  1.1371 -0.9745
 8444SOL    HW236969   3.268   1.312   3.184 -1.4247 -1.2369 -2.6415
 8445SOL     OW36970   1.097   3.083   2.964  0.9746  0.4760 -0.0743
 8445SOL    HW136971   1.112   3.178   2.965 -1.6990  0.8924 -0.3967
 8445SOL    HW236972   1.004   3.067   2.978  0.9730  0.9152  0.4383
 8446SOL     OW36973   2.967   0.669  14.391  0.2409 -0.1203 -0.0250
 8446SOL    HW136974   2.896   0.627  14.343  0.6071 -1.7456  0.8599
 8446SOL    HW236975   2.982   0.746  14.336 -3.4037  0.3169 -0.4476
 8447SOL     OW36976   0.901   2.585   2.119  0.0451 -0.1785 -0.3172
 8447SOL    HW136977   0.890   2.633   2.201 -0.2602 -1.2589  0.2653
 8447SOL    HW236978   0.982   2.620   2.081  0.9197 -2.6973 -0.7763
 8448SOL     OW36979   2.868   3.595  14.459  0.0872  0.5164 -0.0521
 8448SOL    HW136980   2.802   3.657  14.490  2.0701  2.1501  0.8757
 8448SOL    HW236981   2.831   3.568  14.375 -0.3437  1.4943 -0.1690
 8449SOL     OW36982   3.263   0.783   5.279  0.2659 -0.0882 -0.1054
 8449SOL    HW136983   3.234   0.866   5.317 -0.4392 -0.1626 -0.4842
 8449SOL    HW236984   3.203   0.776   5.205  0.8145  0.3557 -0.5993
 8450SOL     OW36985   4.497   3.790   7.647 -0.4873  0.5905 -0.2048
 8450SOL    HW136986   4.543   3.746   7.719 -4.0519 -1.3778  0.8681
 8450SOL    HW236987   4.565   3.848   7.611  0.9744 -0.5245  0.7277
 8451SOL     OW36988   0.252   2.056   6.331  0.3466  0.2404 -0.4879
 8451SOL    HW136989   0.312   2.047   6.405  1.0501  0.6546 -1.0106
 8451SOL    HW236990   0.171   2.051   6.382  0.5395  0.0645 -0.1960
 8452SOL     OW36991   4.508   2.739   8.927 -0.1773  0.0814 -0.3222
 8452SOL    HW136992   4.513   2.810   8.864  0.3208 -0.4971 -0.9359
 8452SOL    HW236993   4.555   2.783   8.998 -1.5769 -0.0555  0.6784
 8453SOL     OW36994   4.181   3.640   4.026  0.4248 -0.0975  0.2859
 8453SOL    HW136995   4.235   3.567   3.995 -1.2267 -0.4660 -1.6824
 8453SOL    HW236996   4.101   3.603   3.990  1.0774 -2.4318  1.2217
 8454SOL     OW36997   4.133   1.980   3.925  0.6509 -0.1729  0.4319
 8454SOL    HW136998   4.113   2.046   3.991 -0.5727  0.0427 -0.1722
 8454SOL    HW236999   4.225   1.997   3.904  0.5298  0.4266  0.4007
 8455SOL     OW37000   0.511   0.358   4.244  0.2624 -0.0484  0.2079
 8455SOL    HW137001   0.539   0.353   4.152 -0.9011  1.4032 -0.2245
 8455SOL    HW237002   0.436   0.417   4.240  0.6617  0.5467  1.3925
 8456SOL     OW37003   2.468   1.166   3.651 -0.2186  0.3383 -0.1103
 8456SOL    HW137004   2.496   1.190   3.739 -0.3186 -1.9069  0.5243
 8456SOL    HW237005   2.374   1.158   3.666  0.1366 -1.0336  1.3987
 8457SOL     OW37006   1.661   1.444  17.320  0.0050  0.1885  0.0969
 8457SOL    HW137007   1.712   1.525  17.310 -0.5056  0.4201 -0.6634
 8457SOL    HW237008   1.586   1.458  17.262  0.1349  0.2307 -0.0617
 8458SOL     OW37009   1.588   1.445  14.862 -0.1720  0.2491  0.3063
 8458SOL    HW137010   1.613   1.355  14.882 -1.7966 -0.9612 -2.9913
 8458SOL    HW237011   1.510   1.424  14.811 -0.5255  1.1412  0.4874
 8459SOL     OW37012   1.475   3.441   5.243  0.5618  0.2210  0.1369
 8459SOL    HW137013   1.536   3.455   5.315 -0.3953 -1.0169  1.1979
 8459SOL    HW237014   1.394   3.420   5.290 -0.5433  0.1623 -1.8001
 8460SOL     OW37015   4.721   1.867  13.898 -0.1841 -0.7119 -0.0168
 8460SOL    HW137016   0.066   1.891  13.935 -0.0336  0.9187 -1.3837
 8460SOL    HW237017   4.669   1.889  13.976  0.8922  0.7050  0.3099
 8461SOL     OW37018   0.614   2.429   4.389  0.5792  0.3001 -0.7642
 8461SOL    HW137019   0.580   2.504   4.340 -0.8425  0.1038 -0.0989
 8461SOL    HW237020   0.539   2.376   4.416  0.1874  1.0062 -0.4502
 8462SOL     OW37021   3.337   0.215   2.989 -0.1337  0.4847 -0.0716
 8462SOL    HW137022   3.294   0.170   3.062  0.6646  0.2383  0.2390
 8462SOL    HW237023   3.335   0.299   3.034 -0.7055 -0.8292  2.3852
 8463SOL     OW37024   4.164   2.693  15.637 -0.0982 -0.2825 -0.1172
 8463SOL    HW137025   4.227   2.663  15.571 -0.8368 -2.2093  0.0541
 8463SOL    HW237026   4.225   2.714  15.708 -3.2305  2.7483  1.6403
 8464SOL     OW37027   2.397   1.324   2.164  0.0686  0.2263  0.2523
 8464SOL    HW137028   2.360   1.289   2.244  0.4224 -3.0317 -1.0387
 8464SOL    HW237029   2.418   1.249   2.108 -0.1756  2.4423 -2.8371
 8465SOL     OW37030   2.280   4.122   8.324  0.4107  0.0878  0.1953
 8465SOL    HW137031   2.353   4.184   8.333 -1.4954  2.5914 -1.8293
 8465SOL    HW237032   2.335   4.046   8.304 -0.2136  0.1043 -1.5411
 8466SOL     OW37033   3.602   3.673   7.977 -0.0646  0.0400 -0.4544
 8466SOL    HW137034   3.671   3.687   7.913 -0.5971  0.0016 -1.0363
 8466SOL    HW237035   3.640   3.707   8.058  0.1245 -1.1974 -0.0130
 8467SOL     OW37036   2.370   2.233  10.958  0.1341  0.3707  0.2505
 8467SOL    HW137037   2.304   2.231  11.027  0.8248 -0.0108  0.9006
 8467SOL    HW237038   2.339   2.315  10.918  0.3057 -0.3498 -1.3723
 8468SOL     OW37039   1.427   1.340   1.283 -0.4511  0.3974 -0.1318
 8468SOL    HW137040   1.420   1.297   1.198  0.6543 -0.5470  0.2572
 8468SOL    HW237041   1.446   1.428   1.252 -2.1715  0.2130 -1.7152
 8469SOL     OW37042   4.303   0.118  13.144 -0.6061 -0.4701  0.7907
 8469SOL    HW137043   4.286   0.026  13.164  0.0788 -0.4537  1.4926
 8469SOL    HW237044   4.306   0.148  13.235  2.0697 -2.1206  1.2633
 8470SOL     OW37045   2.614   4.389   4.337 -0.2295  0.0324  0.5410
 8470SOL    HW137046   2.522   4.382   4.311  0.4308 -1.9068 -1.2236
 8470SOL    HW237047   2.649   4.311   4.295 -1.6330 -0.8159  0.9314
 8471SOL     OW37048   1.403   3.613   2.862 -0.4835  0.3614 -0.5211
 8471SOL    HW137049   1.496   3.634   2.852 -0.3507  0.8512  1.8121
 8471SOL    HW237050   1.378   3.578   2.776 -0.6417  1.0030 -0.7383
 8472SOL     OW37051   2.068   1.852   6.562 -0.1118 -0.3743  0.2550
 8472SOL    HW137052   2.117   1.810   6.634  2.5475 -0.9004 -1.8702
 8472SOL    HW237053   1.975   1.861   6.582 -0.4169 -1.6710 -0.6130
 8473SOL     OW37054   4.174   0.586   7.154 -0.0267  0.2055  0.4745
 8473SOL    HW137055   4.235   0.588   7.081 -0.6817  0.6069 -0.0592
 8473SOL    HW237056   4.218   0.534   7.222 -0.3335  2.5620  2.4897
 8474SOL     OW37057   1.484   3.751  16.399 -0.5811  0.7996 -0.4201
 8474SOL    HW137058   1.413   3.742  16.335 -1.9933 -0.3009  1.2857
 8474SOL    HW237059   1.508   3.843  16.397 -0.9004  0.8913 -0.0819
 8475SOL     OW37060   4.631   3.133  10.467  0.2213  0.3456  0.7308
 8475SOL    HW137061   4.721   3.111  10.492  1.0907  0.7572 -2.0014
 8475SOL    HW237062   4.601   3.053  10.423 -0.3893  1.1441 -0.3140
 8476SOL     OW37063   1.531   0.550   3.660  0.3700  0.0065 -0.7039
 8476SOL    HW137064   1.555   0.643   3.654  1.2877 -0.1231  0.9913
 8476SOL    HW237065   1.448   0.561   3.707 -0.5828  0.8209 -2.5781
 8477SOL     OW37066   2.714   3.190  16.178  0.6209 -0.0291 -0.4489
 8477SOL    HW137067   2.709   3.151  16.265 -2.9390 -0.2250 -0.7532
 8477SOL    HW237068   2.666   3.269  16.205 -0.7294 -0.3113 -2.0504
 8478SOL     OW37069   1.111   3.464   4.049 -0.4182 -0.4006  0.3138
 8478SOL    HW137070   1.034   3.435   3.999  1.0484  0.1891 -2.2959
 8478SOL    HW237071   1.144   3.510   3.972 -0.1964  0.0223  0.6658
 8479SOL     OW37072   0.575   1.314  11.279 -0.3364 -0.2952  0.4922
 8479SOL    HW137073   0.512   1.377  11.316 -2.0448 -0.1841 -2.5694
 8479SOL    HW237074   0.608   1.281  11.362  0.0038 -3.1279 -0.7836
 8480SOL     OW37075   0.663   0.613   1.118  0.5781 -0.2302 -0.3180
 8480SOL    HW137076   0.705   0.581   1.038  0.1758  0.3435 -0.7571
 8480SOL    HW237077   0.693   0.548   1.182 -2.8698 -0.7389  0.7957
 8481SOL     OW37078   0.449   3.449  10.244 -0.0162 -0.1232  0.6875
 8481SOL    HW137079   0.461   3.419  10.334  0.0026  0.1452  0.7766
 8481SOL    HW237080   0.531   3.498  10.240  0.6366 -1.4048 -1.4207
 8482SOL     OW37081   0.340   0.996  14.709 -0.2163 -0.6492  0.6876
 8482SOL    HW137082   0.411   1.057  14.728  0.4508 -1.4720  0.8221
 8482SOL    HW237083   0.270   1.051  14.672  1.7012  3.2799  2.8954
 8483SOL     OW37084   4.217   1.105   5.128  0.7270  0.1315  0.0747
 8483SOL    HW137085   4.181   1.032   5.177  1.1192  0.3033  0.6152
 8483SOL    HW237086   4.273   1.060   5.065 -0.4428 -0.8979 -0.2322
 8484SOL     OW37087   3.011   2.717   9.107 -0.2523 -0.1545 -0.4525
 8484SOL    HW137088   3.043   2.650   9.167  2.4641  1.8357  0.3533
 8484SOL    HW237089   2.948   2.761   9.164  2.5584 -0.5878  2.9745
 8485SOL     OW37090   4.722   0.588   3.794 -0.3471  0.5807  0.2342
 8485SOL    HW137091   4.711   0.678   3.763 -0.3178  0.2154 -0.8316
 8485SOL    HW237092   0.040   0.546   3.731 -2.4421 -1.6241 -0.2031
 8486SOL     OW37093   1.089   2.678   9.612 -0.5413  0.0827  0.5544
 8486SOL    HW137094   1.110   2.707   9.523  0.3661  1.4898  1.2335
 8486SOL    HW237095   1.117   2.743   9.676  1.2046 -0.8633  0.7805
 8487SOL     OW37096   0.293   2.566  14.603 -0.3084  0.4020 -0.2155
 8487SOL    HW137097   0.280   2.518  14.685 -0.5625 -1.9843 -1.6593
 8487SOL    HW237098   0.303   2.653  14.642  0.1327 -0.9134  2.5982
 8488SOL     OW37099   2.862   1.184  15.955 -0.0359 -0.6794  0.1610
 8488SOL    HW137100   2.841   1.094  15.981  0.6254 -0.9300 -0.1920
 8488SOL    HW237101   2.795   1.203  15.889  0.1081 -0.9738 -0.0691
 8489SOL     OW37102   0.814   1.618   9.153  0.0469  0.3538  0.2732
 8489SOL    HW137103   0.728   1.581   9.134 -0.5394  1.3850  0.9578
 8489SOL    HW237104   0.803   1.679   9.226  0.6068  1.1192 -0.2779
 8490SOL     OW37105   1.260   0.140   4.710  0.2729 -0.0961 -0.4081
 8490SOL    HW137106   1.166   0.148   4.695  0.1915 -1.4761 -0.6262
 8490SOL    HW237107   1.275   0.185   4.793 -0.9541  0.5444 -0.5215
 8491SOL     OW37108   2.583   4.660   4.257 -0.0442 -0.0957  0.4290
 8491SOL    HW137109   2.555   4.632   4.170 -0.3130 -1.6739  1.0052
 8491SOL    HW237110   2.605   4.575   4.296  2.0055  0.4635  0.4709
 8492SOL     OW37111   3.583   2.348  17.266  1.1291  0.7266 -0.2585
 8492SOL    HW137112   3.623   2.358  17.179  0.4102 -1.8572 -0.8719
 8492SOL    HW237113   3.658   2.316  17.316  0.5821 -1.6114 -0.9213
 8493SOL     OW37114   1.054   4.331  17.118  0.0430  0.5463  0.0514
 8493SOL    HW137115   1.005   4.251  17.136 -1.1303  1.6022  1.6220
 8493SOL    HW237116   1.030   4.347  17.027 -0.9682  0.1076  0.2396
 8494SOL     OW37117   1.402   0.245   0.605 -0.3525  0.0946 -0.0085
 8494SOL    HW137118   1.392   0.155   0.634  2.0229 -0.2050 -0.0923
 8494SOL    HW237119   1.388   0.238   0.511 -1.1374  1.9515 -0.0347
 8495SOL     OW37120   3.297   1.750  15.632 -0.2894 -0.1528 -0.1557
 8495SOL    HW137121   3.307   1.690  15.558 -0.8251 -0.6282  0.1574
 8495SOL    HW237122   3.242   1.709  15.698 -2.0951 -0.4346 -1.8324
 8496SOL     OW37123   2.125   2.861   4.776  0.3416  0.0811 -0.0703
 8496SOL    HW137124   2.077   2.881   4.856  1.4419  0.5082  0.4807
 8496SOL    HW237125   2.200   2.819   4.819  0.7813  0.8256 -0.1075
 8497SOL     OW37126   0.112   4.239   7.011 -0.0827  0.2779 -0.2873
 8497SOL    HW137127   0.190   4.230   6.956 -1.2862  1.3925 -2.1575
 8497SOL    HW237128   0.128   4.171   7.077  0.1082  1.9063  1.3481
 8498SOL     OW37129   1.051   3.336   5.194  0.4033 -0.3791 -0.2773
 8498SOL    HW137130   0.992   3.327   5.119  1.6254  0.4945 -1.3545
 8498SOL    HW237131   1.034   3.251   5.234 -0.6661  0.3605  0.8329
 8499SOL     OW37132   1.131   3.704  11.018  0.1436  0.3063  0.1347
 8499SOL    HW137133   1.149   3.792  10.986  0.3001 -1.2217 -3.9493
 8499SOL    HW237134   1.041   3.720  11.046 -0.4025 -0.5492 -1.0972
 8500SOL     OW37135   2.733   0.693   3.319 -0.3639 -0.4313 -0.0868
 8500SOL    HW137136   2.640   0.715   3.327 -0.1669  0.3668  0.0125
 8500SOL    HW237137   2.763   0.699   3.409 -0.8564 -1.1128  0.1192
 8501SOL     OW37138   0.557   1.743   9.859  0.2032  0.4829  0.0874
 8501SOL    HW137139   0.518   1.790   9.785  0.8443  1.3999  0.3238
 8501SOL    HW237140   0.651   1.759   9.851  0.2095 -0.0308 -0.8804
 8502SOL     OW37141   0.592   3.280   2.430 -0.1852 -0.4906  0.2971
 8502SOL    HW137142   0.651   3.207   2.451 -2.3423 -2.2390  0.2617
 8502SOL    HW237143   0.630   3.288   2.342 -0.9935 -1.3926 -0.1303
 8503SOL     OW37144   3.790   2.238   2.176 -0.5159  0.1579  0.1987
 8503SOL    HW137145   3.842   2.175   2.226  0.8894  1.3095  0.1993
 8503SOL    HW237146   3.716   2.183   2.150 -1.2612  1.7777 -1.1017
 8504SOL     OW37147   3.566   0.517   8.152  0.5462 -0.0902  0.2097
 8504SOL    HW137148   3.532   0.443   8.202 -1.4763  1.0174  0.4548
 8504SOL    HW237149   3.571   0.477   8.065 -2.7174 -1.9007  0.8567
 8505SOL     OW37150   2.681   2.665   7.897  0.4017 -0.0319 -0.5689
 8505SOL    HW137151   2.593   2.643   7.930  0.8245  2.5566  2.3467
 8505SOL    HW237152   2.747   2.640   7.961  0.6167  0.7978 -0.4581
 8506SOL     OW37153   3.734   3.222   2.815  0.0799  0.6351 -0.1392
 8506SOL    HW137154   3.664   3.175   2.769 -0.1764 -0.5657  1.4921
 8506SOL    HW237155   3.716   3.200   2.906  0.1059  1.3176  0.0348
 8507SOL     OW37156   1.955   2.571  16.769 -0.7972  0.0478 -0.3448
 8507SOL    HW137157   1.886   2.514  16.734 -0.1824 -3.1148  3.6274
 8507SOL    HW237158   1.979   2.543  16.858  0.3330 -0.7609 -0.8926
 8508SOL     OW37159   4.392   3.515  16.556  0.0478  0.3495  0.5033
 8508SOL    HW137160   4.434   3.594  16.522 -0.5924 -0.3340 -1.8994
 8508SOL    HW237161   4.462   3.456  16.584  0.5848 -0.3349 -2.2126
 8509SOL     OW37162   1.355   3.790   6.008 -0.3005  0.0013 -0.2402
 8509SOL    HW137163   1.323   3.700   5.996  2.8249 -1.1740  0.3183
 8509SOL    HW237164   1.389   3.790   6.097 -1.2070  0.1388  0.1001
 8510SOL     OW37165   0.603   0.016   7.852 -0.2961  0.0574  0.3024
 8510SOL    HW137166   0.595   0.026   7.947 -1.3441  0.3207  0.1887
 8510SOL    HW237167   0.687   4.712   7.847  0.4717  1.5550  0.0491
 8511SOL     OW37168   2.012   1.546   5.424 -0.4430 -0.2975 -0.5978
 8511SOL    HW137169   2.087   1.516   5.475  0.3208  0.2261 -1.4119
 8511SOL    HW237170   1.936   1.520   5.475  0.1989  1.8678  1.4354
 8512SOL     OW37171   3.273   3.348   9.592  0.2554  0.3399 -0.0108
 8512SOL    HW137172   3.355   3.394   9.606 -0.7818  2.2323 -0.2244
 8512SOL    HW237173   3.289   3.265   9.638  1.3845 -0.2851 -1.5120
 8513SOL     OW37174   3.850   2.042  14.967  0.1382 -0.0700 -0.5917
 8513SOL    HW137175   3.759   2.052  14.939  0.0898  2.4074  0.5529
 8513SOL    HW237176   3.895   2.114  14.922  2.6443  1.4606  4.3807
 8514SOL     OW37177   0.246   1.968   8.079  0.0306 -0.1224  0.1877
 8514SOL    HW137178   0.252   2.039   8.015 -1.9680 -0.1381 -0.0246
 8514SOL    HW237179   0.234   1.898   8.015 -1.3828  1.0324 -0.8064
 8515SOL     OW37180   4.593   1.063   0.909  0.1388 -0.0284  0.1572
 8515SOL    HW137181   4.580   1.084   0.817 -2.1119  0.3950  0.5757
 8515SOL    HW237182   4.504   1.051   0.942 -0.3193 -0.5332 -1.2378
 8516SOL     OW37183   1.219   2.659  14.378 -0.3343 -0.1606  0.3970
 8516SOL    HW137184   1.127   2.662  14.405 -0.2974  0.7606  0.4132
 8516SOL    HW237185   1.201   2.596  14.308  0.2463  0.9390 -0.7455
 8517SOL     OW37186   0.865   2.900  11.905  0.3182 -0.2365 -0.0582
 8517SOL    HW137187   0.896   2.810  11.896  3.0151  0.7602 -0.6013
 8517SOL    HW237188   0.941   2.929  11.956 -0.6914 -0.2342  1.4590
 8518SOL     OW37189   4.425   0.764   6.908  0.5419  0.1666 -0.4102
 8518SOL    HW137190   4.360   0.695   6.905  2.7732 -1.9281 -0.7606
 8518SOL    HW237191   4.408   0.814   6.828  2.7454  2.1723  0.3692
 8519SOL     OW37192   3.117   3.804  14.775 -0.0778  0.4110  0.5561
 8519SOL    HW137193   3.136   3.858  14.699 -2.0914  0.8612  0.3940
 8519SOL    HW237194   3.116   3.717  14.734  0.4927  0.7150 -0.1093
 8520SOL     OW37195   3.518   1.920   5.158 -0.0863  0.1167 -0.2728
 8520SOL    HW137196   3.578   1.848   5.140  0.4250  0.4850 -0.0290
 8520SOL    HW237197   3.557   1.988   5.213 -0.9053 -0.8515  1.4830
 8521SOL     OW37198   1.147   4.388   3.965  0.7071 -0.2203 -0.5720
 8521SOL    HW137199   1.212   4.376   4.034  0.4256 -0.5672 -0.3645
 8521SOL    HW237200   1.186   4.347   3.887  0.8155 -1.1869 -0.0046
 8522SOL     OW37201   3.303   3.131  10.606  0.2027  0.3810 -0.1617
 8522SOL    HW137202   3.246   3.060  10.636 -0.1929 -0.1049 -2.0802
 8522SOL    HW237203   3.313   3.178  10.689  1.6438 -1.0479  0.4812
 8523SOL     OW37204   0.048   0.885   1.622  0.4465 -0.2971 -0.2290
 8523SOL    HW137205   0.021   0.975   1.603  0.7477 -0.2767 -0.5523
 8523SOL    HW237206   0.045   0.900   1.716  1.2378  0.3155 -0.3023
 8524SOL     OW37207   0.161   0.068   1.889 -0.2061 -0.0597 -0.5500
 8524SOL    HW137208   0.233   0.119   1.927 -1.6919  0.9784  0.8914
 8524SOL    HW237209   0.148   0.097   1.798  1.8343 -2.5662 -1.6140
 8525SOL     OW37210   3.170   3.233   5.909  0.0725  0.0499  0.4380
 8525SOL    HW137211   3.198   3.143   5.897  0.1362 -0.1119  1.8097
 8525SOL    HW237212   3.134   3.232   5.998  2.3765 -2.6747  1.3048
 8526SOL     OW37213   4.411   2.704   3.462  0.0690 -0.1461 -0.2963
 8526SOL    HW137214   4.351   2.640   3.501  1.3019 -1.8200 -1.1673
 8526SOL    HW237215   4.427   2.751   3.544 -1.5580 -0.2896  0.1103
 8527SOL     OW37216   2.937   1.076   4.579  0.6398  0.0038 -0.5911
 8527SOL    HW137217   2.954   1.043   4.491  1.3852  0.6390 -0.6851
 8527SOL    HW237218   2.966   1.004   4.636 -0.1932 -0.6379 -0.9918
 8528SOL     OW37219   0.181   2.217  13.992 -0.3584  0.1652 -0.6303
 8528SOL    HW137220   0.102   2.244  13.946  0.2149  1.2013 -1.0068
 8528SOL    HW237221   0.237   2.295  13.985  0.2561 -0.2554 -0.4042
 8529SOL     OW37222   3.765   3.395   3.320 -0.1369  0.3374 -0.6400
 8529SOL    HW137223   3.767   3.413   3.413  0.7156 -1.5778 -0.2875
 8529SOL    HW237224   3.742   3.302   3.325 -0.8717  0.6242  1.0487
 8530SOL     OW37225   1.772   1.764   3.803  0.4582  0.4825 -0.5219
 8530SOL    HW137226   1.777   1.740   3.896  0.4783 -0.4978 -0.7828
 8530SOL    HW237227   1.823   1.697   3.758  0.2227 -1.3132  1.8631
 8531SOL     OW37228   0.280   0.305   2.535 -0.1143  0.3253  0.0318
 8531SOL    HW137229   0.216   0.246   2.574  0.3709  1.0113  1.8704
 8531SOL    HW237230   0.295   0.259   2.453  0.0900  3.4621 -1.6594
 8532SOL     OW37231   0.500   2.866   2.600  0.2963  0.5358  0.1655
 8532SOL    HW137232   0.495   2.906   2.514  4.2650  1.8102  0.5233
 8532SOL    HW237233   0.494   2.940   2.661  1.9194  0.6449  0.1970
 8533SOL     OW37234   2.427   3.355   5.374 -0.3953  0.2418  0.8141
 8533SOL    HW137235   2.382   3.382   5.454 -2.1998  2.2187 -0.8712
 8533SOL    HW237236   2.426   3.438   5.327  0.8288  0.4583  1.1664
 8534SOL     OW37237   4.426   3.756  14.518  0.1618 -0.7079 -0.3153
 8534SOL    HW137238   4.405   3.680  14.573 -0.1265 -1.2787 -1.2020
 8534SOL    HW237239   4.339   3.767  14.480  0.9328  2.0902 -1.2898
 8535SOL     OW37240   4.539   3.402   3.326 -0.1484  0.1579 -0.3545
 8535SOL    HW137241   4.527   3.472   3.262 -1.0145 -0.4021 -0.8080
 8535SOL    HW237242   4.486   3.328   3.296  1.0121 -0.7702 -0.1001
 8536SOL     OW37243   2.720   3.672   8.514 -0.1829  0.6674  0.0487
 8536SOL    HW137244   2.671   3.613   8.571  1.3352 -0.2688  0.3978
 8536SOL    HW237245   2.760   3.733   8.576 -1.2222  0.1954  1.1873
 8537SOL     OW37246   3.474   1.043  15.722  0.4236 -0.8257  0.3443
 8537SOL    HW137247   3.456   0.979  15.653 -0.8834 -0.9494  0.8036
 8537SOL    HW237248   3.570   1.043  15.717  0.2896  1.7529 -2.0157
 8538SOL     OW37249   0.441   0.963   4.072  0.1728 -0.3432  0.2508
 8538SOL    HW137250   0.486   0.894   4.023  2.8636  2.6140 -1.4138
 8538SOL    HW237251   0.437   0.926   4.160  1.6836  1.9093  1.2729
 8539SOL     OW37252   4.259   0.217   8.232  0.3363  0.0464 -0.6689
 8539SOL    HW137253   4.351   0.194   8.248  0.7665  1.2081 -1.4756
 8539SOL    HW237254   4.254   0.200   8.138 -1.0010  2.1817 -0.9749
 8540SOL     OW37255   3.179   2.687   2.996 -0.2404 -0.4720  0.5351
 8540SOL    HW137256   3.197   2.624   3.067 -2.0854 -0.7273  0.7695
 8540SOL    HW237257   3.133   2.749   3.053 -1.3183 -0.7432 -0.0461
 8541SOL     OW37258   2.474   2.943   5.536  0.1888  0.5919 -0.3526
 8541SOL    HW137259   2.409   2.968   5.601  0.6972  1.9150 -0.3595
 8541SOL    HW237260   2.525   2.881   5.588 -2.0653  0.1075  1.3092
 8542SOL     OW37261   0.454   1.384  10.184 -0.2936  0.7145 -0.1852
 8542SOL    HW137262   0.475   1.466  10.229  0.1298 -0.5739  1.9928
 8542SOL    HW237263   0.538   1.360  10.144  1.3343  2.0268  2.4967
 8543SOL     OW37264   4.430   0.305   5.106  0.2447  0.1639 -0.1218
 8543SOL    HW137265   4.403   0.229   5.055 -0.4705 -0.4532  1.1641
 8543SOL    HW237266   4.465   0.260   5.183 -1.7637 -0.8494  0.2199
 8544SOL     OW37267   1.889   3.468   6.700  0.0254  0.2607  0.1424
 8544SOL    HW137268   1.818   3.418   6.738  1.0089  0.3905  2.1440
 8544SOL    HW237269   1.874   3.469   6.605 -0.5927 -1.6896  0.2198
 8545SOL     OW37270   3.375   0.688  15.368 -0.1179 -0.3808 -0.1452
 8545SOL    HW137271   3.449   0.750  15.370  0.1612 -0.6196 -3.9612
 8545SOL    HW237272   3.375   0.653  15.457  1.4304  1.2377  0.5106
 8546SOL     OW37273   3.234   3.470   5.340  0.5330  0.1248 -0.3322
 8546SOL    HW137274   3.155   3.469   5.286  0.5957 -0.2190 -0.4205
 8546SOL    HW237275   3.295   3.471   5.267  0.1864  0.8856 -0.6029
 8547SOL     OW37276   0.482   0.016  16.196  0.1971 -0.0071 -0.0275
 8547SOL    HW137277   0.540   0.041  16.268  1.2846  0.5895 -1.1052
 8547SOL    HW237278   0.498   4.661  16.192 -0.0365 -0.0628  0.3320
 8548SOL     OW37279   1.896   0.142  10.160  0.1400 -0.1462  0.2100
 8548SOL    HW137280   1.838   0.136  10.085 -0.0314  0.5316  0.2850
 8548SOL    HW237281   1.854   0.216  10.204 -2.1697 -2.2693  1.6115
 8549SOL     OW37282   2.091   2.457   8.811 -0.4818  0.4525  0.2053
 8549SOL    HW137283   2.168   2.451   8.868 -1.4104 -0.6842  1.3428
 8549SOL    HW237284   2.045   2.530   8.853 -0.4752  0.9588 -0.6709
 8550SOL     OW37285   1.055   2.715   6.194  0.0499  0.5378  0.0598
 8550SOL    HW137286   1.036   2.642   6.252 -0.0379  0.8002  0.3630
 8550SOL    HW237287   1.081   2.780   6.260  0.4956 -0.2244  0.6316
 8551SOL     OW37288   2.267   3.293   6.614 -0.5187 -0.2566  0.1592
 8551SOL    HW137289   2.183   3.288   6.568  0.1745  0.4352 -1.1885
 8551SOL    HW237290   2.312   3.223   6.567 -0.3858 -0.2032  0.2082
 8552SOL     OW37291   1.704   2.982   8.116  0.0399 -0.1153 -0.0200
 8552SOL    HW137292   1.653   3.061   8.098  0.5162  0.2895  0.4211
 8552SOL    HW237293   1.655   2.945   8.189  0.7808  0.6720  0.8649
 8553SOL     OW37294   2.394   0.581   3.805 -0.3180 -0.4187 -0.0484
 8553SOL    HW137295   2.301   0.562   3.813 -0.2786 -0.1836  0.8980
 8553SOL    HW237296   2.403   0.530   3.724 -0.2053 -1.3522  0.5504
 8554SOL     OW37297   0.375   1.717  11.766 -0.4933  0.2499  0.6219
 8554SOL    HW137298   0.358   1.687  11.677 -0.3800  1.5320  0.1676
 8554SOL    HW237299   0.293   1.746  11.807 -0.4670  0.8820  0.2334
 8555SOL     OW37300   1.209   1.160   2.109  0.0294  0.7654  0.0745
 8555SOL    HW137301   1.210   1.100   2.034  4.2429 -0.4855  1.1149
 8555SOL    HW237302   1.300   1.147   2.136 -0.1068 -2.7789 -1.0651
 8556SOL     OW37303   0.307   1.214   3.160  0.2097 -0.1811  0.4099
 8556SOL    HW137304   0.374   1.147   3.163  2.0553  1.6838  1.1333
 8556SOL    HW237305   0.241   1.175   3.103 -0.4398 -0.8070  1.5899
 8557SOL     OW37306   4.636   4.285  16.436 -0.0388  0.1937  0.8121
 8557SOL    HW137307   4.719   4.267  16.481  0.3928 -1.5301 -0.6447
 8557SOL    HW237308   4.640   4.361  16.379 -0.3937 -1.2826 -1.2106
 8558SOL     OW37309   2.944   0.990  16.281 -0.0034  0.5089 -0.1433
 8558SOL    HW137310   2.861   1.021  16.244  1.6921  3.1683 -1.7967
 8558SOL    HW237311   2.948   1.045  16.359  0.4437  0.0670  0.1384
 8559SOL     OW37312   3.385   2.269  13.250  0.5085 -0.7640 -0.1204
 8559SOL    HW137313   3.386   2.362  13.229  0.3937 -1.0803 -1.4913
 8559SOL    HW237314   3.474   2.258  13.283 -0.1606 -2.0127  1.2914
 8560SOL     OW37315   4.317   1.348   8.741 -0.0456 -0.5347 -0.3614
 8560SOL    HW137316   4.350   1.413   8.678  2.8154 -1.5563  0.1122
 8560SOL    HW237317   4.224   1.347   8.716  0.0608  0.4336 -0.8303
 8561SOL     OW37318   4.332   3.430   1.549 -0.1834  0.5672 -0.5004
 8561SOL    HW137319   4.360   3.498   1.610 -0.1596  0.6730 -0.6274
 8561SOL    HW237320   4.278   3.372   1.602  1.0844 -0.9320 -0.8817
 8562SOL     OW37321   1.439   2.012   9.149 -0.1841 -0.1483 -0.5335
 8562SOL    HW137322   1.357   1.976   9.113  1.6278 -1.2327 -3.6148
 8562SOL    HW237323   1.494   1.981   9.078 -0.6964  1.8640 -1.8088
 8563SOL     OW37324   0.991   0.012   5.875  0.4118  0.2643  0.4923
 8563SOL    HW137325   1.052   0.069   5.828 -1.8138 -0.0651 -2.7398
 8563SOL    HW237326   1.006   4.664   5.839 -0.6574  0.6471 -0.8385
 8564SOL     OW37327   4.479   2.940   1.826  0.1787 -0.3004  0.1715
 8564SOL    HW137328   4.390   2.972   1.810  0.6463  0.0672 -1.6686
 8564SOL    HW237329   4.534   3.000   1.775 -2.0414  1.5650 -0.0265
 8565SOL     OW37330   2.538   1.204   3.904 -0.6074 -0.3020  0.0966
 8565SOL    HW137331   2.626   1.239   3.919  0.0901 -0.8029 -2.8521
 8565SOL    HW237332   2.522   1.150   3.982 -1.9650 -2.5530 -1.7341
 8566SOL     OW37333   1.080   4.100   6.749 -0.2495 -0.2869 -0.3968
 8566SOL    HW137334   0.995   4.085   6.790 -0.1029  0.9906  0.3876
 8566SOL    HW237335   1.122   4.014   6.752 -4.2456 -2.2252  0.4235
 8567SOL     OW37336   1.914   1.081   3.755  0.3259 -0.0719  0.2974
 8567SOL    HW137337   1.828   1.046   3.775 -0.4192  2.2653  1.1270
 8567SOL    HW237338   1.964   1.009   3.717 -0.7061 -0.7150  0.1720
 8568SOL     OW37339   1.459   0.828  10.904 -0.1157  0.4901 -1.3339
 8568SOL    HW137340   1.404   0.749  10.912 -0.3603  0.7677 -0.3407
 8568SOL    HW237341   1.391   0.886  10.937  1.4293  0.4755  1.8242
 8569SOL     OW37342   3.247   1.750   1.012  0.3943  0.0487  0.8839
 8569SOL    HW137343   3.253   1.655   1.018  0.1371 -0.0721 -0.6717
 8569SOL    HW237344   3.252   1.769   1.106  0.9664  0.5738  0.7448
 8570SOL     OW37345   0.515   1.669   3.057 -0.2765 -0.6718  0.0922
 8570SOL    HW137346   0.478   1.581   3.049 -3.3579  0.6100  0.3620
 8570SOL    HW237347   0.442   1.728   3.040  0.1526 -1.0908 -3.2544
 8571SOL     OW37348   3.238   1.589   2.552  0.7890  0.3041 -0.5667
 8571SOL    HW137349   3.267   1.652   2.618 -1.3194 -0.6012  1.2088
 8571SOL    HW237350   3.163   1.538   2.584  1.4518  0.3230  0.9778
 8572SOL     OW37351   4.088   3.330  15.094  0.2864  0.3761 -0.0010
 8572SOL    HW137352   4.046   3.326  15.008  1.9457  1.8975 -0.9013
 8572SOL    HW237353   4.062   3.246  15.132  0.8148 -0.9768 -2.6287
 8573SOL     OW37354   2.649   2.742   5.224 -0.2625  0.1179 -0.0435
 8573SOL    HW137355   2.555   2.727   5.228 -0.0828 -0.6525  1.2303
 8573SOL    HW237356   2.680   2.667   5.174 -2.2937  0.0073 -1.1499
 8574SOL     OW37357   0.616   2.712   3.334  0.5914  0.2351  0.3351
 8574SOL    HW137358   0.526   2.744   3.331  0.4191 -0.2427  0.4131
 8574SOL    HW237359   0.612   2.631   3.283  2.1941  0.6358 -0.4420
 8575SOL     OW37360   0.675   4.470   3.945  0.1102  0.2178  0.2996
 8575SOL    HW137361   0.681   4.537   3.877 -1.5706  0.0510 -0.0151
 8575SOL    HW237362   0.765   4.466   3.976  0.3665 -1.0577 -0.5829
 8576SOL     OW37363   3.226   1.246  13.658 -0.6762  0.5801  0.5503
 8576SOL    HW137364   3.200   1.208  13.742  1.7321 -0.7442  0.6906
 8576SOL    HW237365   3.139   1.285  13.646 -0.5498 -0.5537 -4.0447
 8577SOL     OW37366   4.454   3.687  13.542 -0.0581 -0.4206  0.0283
 8577SOL    HW137367   4.494   3.754  13.487  0.6919  0.5796  1.8034
 8577SOL    HW237368   4.400   3.654  13.470  0.3514 -0.7514 -0.1247
 8578SOL     OW37369   4.716   2.176  14.206 -0.0337 -0.3037  0.2425
 8578SOL    HW137370   0.001   2.252  14.259  0.1483 -0.3860  0.2773
 8578SOL    HW237371   0.057   2.185  14.155 -0.9647  1.3828 -0.8979
 8579SOL     OW37372   1.436   1.040   5.378  0.0849 -0.0138  0.2221
 8579SOL    HW137373   1.421   0.946   5.372 -0.4234  0.0347  0.8076
 8579SOL    HW237374   1.371   1.073   5.316 -0.4510 -0.3111  0.6235
 8580SOL     OW37375   0.301   1.058   2.393 -0.2513 -0.4339 -0.1407
 8580SOL    HW137376   0.350   1.103   2.462 -0.9688  1.0920 -0.6365
 8580SOL    HW237377   0.344   0.973   2.394  2.0346  0.7402  0.1135
 8581SOL     OW37378   3.479   4.005   5.185  0.0496  0.4588  0.3636
 8581SOL    HW137379   3.463   4.082   5.131  0.4109 -0.3193 -0.8393
 8581SOL    HW237380   3.415   4.022   5.255 -1.7954  0.4658 -1.3261
 8582SOL     OW37381   4.195   0.715   9.642 -0.4001 -0.3331  0.1579
 8582SOL    HW137382   4.281   0.672   9.642 -0.9717 -1.4723  0.0718
 8582SOL    HW237383   4.175   0.726   9.549  1.6923 -2.0985 -0.5268
 8583SOL     OW37384   0.215   3.287   0.293  0.0426  0.2794  0.2210
 8583SOL    HW137385   0.285   3.304   0.230 -2.0366  1.9175 -1.6330
 8583SOL    HW237386   0.146   3.342   0.258  1.1429  1.2663 -0.4091
 8584SOL     OW37387   2.315   4.056   7.584  0.3415  0.7196 -0.2795
 8584SOL    HW137388   2.239   4.068   7.641  0.0986  0.4397 -0.5488
 8584SOL    HW237389   2.300   3.976   7.533  0.6586 -0.2625  1.1549
 8585SOL     OW37390   3.209   1.549   1.764  0.1540  0.3632  0.3361
 8585SOL    HW137391   3.122   1.588   1.775 -0.4595 -1.2876  1.2817
 8585SOL    HW237392   3.254   1.607   1.702  2.0331 -1.9426 -0.4489
 8586SOL     OW37393   1.480   2.324  12.294 -0.1656 -0.0894  0.1024
 8586SOL    HW137394   1.431   2.406  12.286 -3.6798 -2.0819  1.2353
 8586SOL    HW237395   1.409   2.261  12.290 -0.2484 -0.1439  2.2106
 8587SOL     OW37396   3.071   1.546   4.751 -0.8986  0.0285  0.8048
 8587SOL    HW137397   3.164   1.540   4.729 -1.6107 -2.4151 -1.4583
 8587SOL    HW237398   3.065   1.635   4.787 -0.9640  0.5098 -0.4152
 8588SOL     OW37399   3.622   4.366   7.188 -0.7170 -0.1448 -0.3926
 8588SOL    HW137400   3.643   4.274   7.202  1.2812  0.4566  0.5174
 8588SOL    HW237401   3.527   4.374   7.194 -0.4778  1.1501  1.4454
 8589SOL     OW37402   0.865   2.828   3.758 -0.1077  0.1066 -0.6337
 8589SOL    HW137403   0.826   2.749   3.720 -1.6744 -0.1248  1.4776
 8589SOL    HW237404   0.796   2.877   3.801 -1.0382 -1.2454 -0.5780
 8590SOL     OW37405   2.659   2.933   0.628 -0.1430 -0.0403  0.3578
 8590SOL    HW137406   2.734   2.972   0.673 -0.0487  3.6495 -2.9889
 8590SOL    HW237407   2.686   2.935   0.536 -0.6980 -1.0635  0.1677
 8591SOL     OW37408   1.715   2.021  11.856 -0.1332 -0.6701 -0.4875
 8591SOL    HW137409   1.684   2.008  11.766  0.9762 -1.1946 -0.7930
 8591SOL    HW237410   1.728   1.929  11.880  2.7212  0.5429  2.6024
 8592SOL     OW37411   3.207   1.504   9.680  0.8616  0.2044 -0.2060
 8592SOL    HW137412   3.271   1.448   9.635  0.4593 -0.3246 -0.1257
 8592SOL    HW237413   3.169   1.557   9.610 -0.8175  1.1054  1.3782
 8593SOL     OW37414   3.702   0.387   4.175 -0.1109 -0.8281  0.2520
 8593SOL    HW137415   3.695   0.470   4.222  0.5865  0.5765 -2.1770
 8593SOL    HW237416   3.741   0.336   4.247  0.6979 -1.6907 -0.7985
 8594SOL     OW37417   3.481   4.208   2.896 -0.4517 -0.0612  0.3637
 8594SOL    HW137418   3.432   4.186   2.976  0.4780 -0.7022  0.7578
 8594SOL    HW237419   3.426   4.267   2.845 -1.1777  0.7198  2.0362
 8595SOL     OW37420   2.019   2.566  13.989  0.2704  0.5920  0.1811
 8595SOL    HW137421   2.028   2.652  14.029  1.4423  0.5216  0.0813
 8595SOL    HW237422   2.035   2.507  14.062 -1.0790  0.5521  0.4476
 8596SOL     OW37423   1.830   1.449   4.604  0.5779 -0.5670  0.1990
 8596SOL    HW137424   1.912   1.465   4.652  0.3948  1.5904 -0.2047
 8596SOL    HW237425   1.769   1.520   4.627  1.2018 -0.3360  1.1843
 8597SOL     OW37426   4.388   1.849   0.010  0.4150  0.0684  0.6299
 8597SOL    HW137427   4.399   1.939  17.735  0.6170  0.1334  0.8852
 8597SOL    HW237428   4.452   1.796  17.719  1.6322 -0.0467  2.4260
 8598SOL     OW37429   0.977   0.646   0.866  0.4691  0.3753 -0.1932
 8598SOL    HW137430   0.961   0.733   0.903  1.0352  0.0987  0.7311
 8598SOL    HW237431   0.892   0.612   0.894  0.6981 -1.1028 -1.3179
 8599SOL     OW37432   3.634   2.018   2.093 -0.4215 -0.0118  0.4145
 8599SOL    HW137433   3.659   1.945   2.037  1.6463  0.6674  0.4461
 8599SOL    HW237434   3.561   1.985   2.146 -0.2907 -0.0252  0.5852
 8600SOL     OW37435   0.464   2.238   3.508 -0.6791 -0.6177 -0.3444
 8600SOL    HW137436   0.412   2.318   3.505 -0.6094 -0.5616 -0.0778
 8600SOL    HW237437   0.553   2.270   3.523 -1.4363  0.5938  1.6887
 8601SOL     OW37438   3.399   1.228   6.228  0.3010 -0.7916  0.1969
 8601SOL    HW137439   3.402   1.145   6.274  0.5803  0.5448  2.6023
 8601SOL    HW237440   3.489   1.257   6.237  0.3803 -1.0047  0.0745
 8602SOL     OW37441   1.587   0.090   2.042  0.5806 -0.6799 -0.4923
 8602SOL    HW137442   1.561   0.038   2.118  1.2677  0.2236  0.3635
 8602SOL    HW237443   1.656   0.144   2.080  1.7004 -2.4329 -0.0869
 8603SOL     OW37444   0.090   1.011  10.460  0.1944 -0.1115  0.3373
 8603SOL    HW137445   0.177   0.979  10.436  0.0847  0.6214 -1.0661
 8603SOL    HW237446   0.028   0.961  10.406 -0.2002  1.9971 -1.1898
 8604SOL     OW37447   1.303   2.362  11.968 -0.3260  0.1391  0.3095
 8604SOL    HW137448   1.247   2.332  11.896 -0.3318 -0.0228  0.3798
 8604SOL    HW237449   1.361   2.286  11.963 -1.5120 -0.7899  0.5893
 8605SOL     OW37450   1.909   2.310   7.308 -0.1666 -0.0952 -0.0466
 8605SOL    HW137451   1.858   2.247   7.256 -3.2604  2.3044  0.0781
 8605SOL    HW237452   1.843   2.371   7.340 -1.7221 -1.2854 -0.9755
 8606SOL     OW37453   0.542   0.788   2.658  0.4296  0.1841 -0.1058
 8606SOL    HW137454   0.527   0.787   2.564  2.1023  1.2301 -0.3805
 8606SOL    HW237455   0.637   0.783   2.664  0.4097  1.4951  1.1122
 8607SOL     OW37456   1.004   2.679  11.847 -0.3153 -0.3749  0.3657
 8607SOL    HW137457   0.975   2.597  11.807  1.2455 -0.4441 -0.6328
 8607SOL    HW237458   1.094   2.695  11.818  0.4620 -0.8252  2.5476
 8608SOL     OW37459   0.415   3.058   8.340  0.3026  0.1429 -0.3620
 8608SOL    HW137460   0.443   3.060   8.431 -3.9804 -1.5185  0.9884
 8608SOL    HW237461   0.336   3.004   8.352 -0.8628  2.2060  1.2083
 8609SOL     OW37462   1.997   4.662   6.854 -0.5137 -0.0780  0.3762
 8609SOL    HW137463   1.945   4.586   6.828 -0.2274  0.4361 -1.6847
 8609SOL    HW237464   2.070   4.623   6.902  1.5091  3.1562 -0.0496
 8610SOL     OW37465   1.569   0.813   1.915  0.0412 -0.0072  0.0808
 8610SOL    HW137466   1.478   0.784   1.913 -0.1574  0.6217  0.0031
 8610SOL    HW237467   1.570   0.864   1.996 -0.1996  1.6059 -0.9375
 8611SOL     OW37468   0.118   1.158   1.697  0.1403  0.2293 -0.3619
 8611SOL    HW137469   0.171   1.177   1.619  1.1006  1.3802  0.5590
 8611SOL    HW237470   0.167   1.216   1.756  2.1611 -0.0394 -1.7451
 8612SOL     OW37471   1.649   2.898   3.343 -0.0625  0.0903  0.1542
 8612SOL    HW137472   1.599   2.919   3.422 -0.3139  0.8003 -0.1911
 8612SOL    HW237473   1.590   2.899   3.267 -0.0795 -3.5019  0.1457
 8613SOL     OW37474   2.178   2.032   5.200 -0.3042 -0.0187 -0.1804
 8613SOL    HW137475   2.255   1.984   5.230 -1.8873 -2.1922  0.4199
 8613SOL    HW237476   2.117   1.958   5.196  0.2996 -0.5549  0.4174
 8614SOL     OW37477   3.510   1.438   3.975 -0.5491  0.2665 -0.0206
 8614SOL    HW137478   3.579   1.372   3.979  0.7147  1.4247 -2.4596
 8614SOL    HW237479   3.522   1.481   4.060  0.1487  1.5819 -0.7908
 8615SOL     OW37480   1.875   1.013   5.939  0.7072  0.0671  0.1654
 8615SOL    HW137481   1.964   1.043   5.958  0.0189  2.6966 -0.7412
 8615SOL    HW237482   1.883   0.919   5.954  0.2510  0.1284  0.7568
 8616SOL     OW37483   3.038   0.383   1.525 -0.6764  0.0332  0.0251
 8616SOL    HW137484   3.068   0.434   1.449 -0.2672 -1.4304 -0.7927
 8616SOL    HW237485   3.120   0.382   1.575 -1.0408  2.4135  0.6688
 8617SOL     OW37486   0.296   4.469   0.168  0.5795  0.0443 -0.5060
 8617SOL    HW137487   0.319   4.385   0.208 -0.0017 -0.0826 -0.4309
 8617SOL    HW237488   0.354   4.535   0.206  2.8791 -1.9261 -0.6149
 8618SOL     OW37489   3.355   0.327   2.747 -0.3610 -0.5485 -0.1403
 8618SOL    HW137490   3.327   0.248   2.701 -0.8959  0.3882 -1.4088
 8618SOL    HW237491   3.333   0.299   2.836  0.3478 -0.3802  0.0894
 8619SOL     OW37492   2.897   2.498   1.622  0.2612 -0.5476 -0.2203
 8619SOL    HW137493   2.848   2.436   1.567 -1.3287  0.4451  0.0833
 8619SOL    HW237494   2.872   2.587   1.599  2.1727 -0.4216 -1.8164
 8620SOL     OW37495   3.619   3.828  17.733  0.1584  0.1204  0.6028
 8620SOL    HW137496   3.673   3.809   0.053 -0.5121 -2.9370  0.3226
 8620SOL    HW237497   3.536   3.781  17.748  0.5356 -1.5490 -2.4666
 8621SOL     OW37498   0.751   1.751  16.216  0.8831  0.1332 -0.0409
 8621SOL    HW137499   0.733   1.684  16.150 -2.1672  0.5374  0.3758
 8621SOL    HW237500   0.664   1.782  16.242  1.9803  0.7488  2.9337
 8622SOL     OW37501   4.575   0.180   7.496  0.6714 -0.4945 -0.1638
 8622SOL    HW137502   4.517   0.247   7.532 -0.3849 -0.3639 -2.1116
 8622SOL    HW237503   4.524   0.156   7.418 -0.5904  0.2719  0.4187
 8623SOL     OW37504   0.107   0.520   4.681 -0.1820  0.2188 -0.0996
 8623SOL    HW137505   0.118   0.590   4.616 -1.8133  0.9718  0.4346
 8623SOL    HW237506   0.043   0.473   4.627 -0.3284  1.9701 -1.4653
 8624SOL     OW37507   3.144   1.120   3.665 -0.4330  0.4954  0.3586
 8624SOL    HW137508   3.151   1.057   3.593 -1.5608  0.2852  0.4272
 8624SOL    HW237509   3.055   1.151   3.647  0.1796  1.4551 -1.0312
 8625SOL     OW37510   3.813   4.140   0.136  0.0019 -0.3756  0.2351
 8625SOL    HW137511   3.835   4.165   0.226 -0.4090  0.0980  0.2007
 8625SOL    HW237512   3.893   4.101   0.100  0.0264  1.0940 -1.3520
 8626SOL     OW37513   0.325   3.425   8.364 -0.4932  0.3290  0.0813
 8626SOL    HW137514   0.259   3.357   8.366  0.6667 -0.8653 -2.0222
 8626SOL    HW237515   0.269   3.497   8.335  0.6938 -0.2257 -3.6774
 8627SOL     OW37516   0.828   4.097  17.380  0.2678 -0.4639 -0.1821
 8627SOL    HW137517   0.901   4.129  17.433 -1.3754  2.3335  0.4060
 8627SOL    HW237518   0.883   4.088  17.303 -1.0923 -0.6914 -1.1326
 8628SOL     OW37519   4.077   3.501   6.431 -0.2844 -0.3337  0.2794
 8628SOL    HW137520   4.153   3.443   6.423  1.4628  1.7479  1.5912
 8628SOL    HW237521   4.120   3.586   6.428  0.0642 -0.5552 -0.7822
 8629SOL     OW37522   3.245   3.900  15.622 -0.5040  0.0993  0.0562
 8629SOL    HW137523   3.204   3.914  15.536 -0.9919  2.6581  0.7087
 8629SOL    HW237524   3.333   3.874  15.595 -0.2444  1.2729 -0.1935
 8630SOL     OW37525   0.643   3.571   2.786 -0.0685 -0.1713  0.5784
 8630SOL    HW137526   0.551   3.583   2.761 -0.0059  0.2821  0.5648
 8630SOL    HW237527   0.686   3.552   2.703 -1.7223 -1.9650  0.1521
 8631SOL     OW37528   0.214   1.128   4.508 -0.2119  0.5661 -0.3576
 8631SOL    HW137529   0.142   1.103   4.566 -3.1589  3.4926 -2.7037
 8631SOL    HW237530   0.172   1.117   4.422  1.6335  2.1087 -1.4466
 8632SOL     OW37531   2.243   1.562   1.419  0.0000  0.0009 -0.1171
 8632SOL    HW137532   2.208   1.548   1.331  0.5449 -0.5205 -0.2532
 8632SOL    HW237533   2.178   1.623   1.454 -0.6544 -1.2474  0.8122
 8633SOL     OW37534   1.183   3.985   5.218  0.3899 -0.0472  0.8588
 8633SOL    HW137535   1.102   4.027   5.190  1.2967 -0.2060 -1.9346
 8633SOL    HW237536   1.244   4.059   5.221 -0.7526  0.8726  1.2383
 8634SOL     OW37537   3.057   2.188  15.359 -0.2165 -0.7593 -0.0247
 8634SOL    HW137538   3.108   2.164  15.436 -0.7589  2.8957  1.4411
 8634SOL    HW237539   3.063   2.106  15.310  0.6855 -0.9855  0.4712
 8635SOL     OW37540   1.412   2.276   3.869  0.4735 -0.3856  0.4522
 8635SOL    HW137541   1.349   2.204   3.873 -0.5970  0.4901 -0.7922
 8635SOL    HW237542   1.361   2.351   3.897  1.0002  0.9634 -2.1926
 8636SOL     OW37543   1.031   2.690   5.813  0.0659 -0.3409  0.6118
 8636SOL    HW137544   1.089   2.715   5.740  0.4451 -3.1995 -0.0803
 8636SOL    HW237545   0.958   2.746   5.788  1.8414  0.7100 -2.3509
 8637SOL     OW37546   2.455   3.453   9.601 -0.2513 -0.2693 -0.4547
 8637SOL    HW137547   2.428   3.488   9.516 -0.1897 -1.2596 -0.8811
 8637SOL    HW237548   2.537   3.500   9.611  0.1029 -1.5843  2.8296
 8638SOL     OW37549   0.394   1.482   2.432 -0.5516 -0.0177  0.1675
 8638SOL    HW137550   0.354   1.566   2.453  2.8315  1.1735  1.8273
 8638SOL    HW237551   0.449   1.476   2.511  0.8383 -1.6590 -0.9413
 8639SOL     OW37552   1.884   2.291   3.670  0.0739  0.2304 -0.0166
 8639SOL    HW137553   1.892   2.214   3.727  0.6464 -0.2007 -0.6707
 8639SOL    HW237554   1.893   2.365   3.730  0.9546 -0.0371  0.1838
 8640SOL     OW37555   1.614   2.983   1.345 -0.2696 -0.1710  0.1492
 8640SOL    HW137556   1.669   3.061   1.343  0.1658 -0.4984 -0.7748
 8640SOL    HW237557   1.636   2.945   1.260  1.1420 -0.7910  0.7755
 8641SOL     OW37558   4.640   0.771   0.936 -0.1590 -0.0538  0.2935
 8641SOL    HW137559   4.626   0.865   0.951 -1.5944 -0.8416  3.9141
 8641SOL    HW237560   4.641   0.768   0.840  0.3377 -2.0867  0.3651
 8642SOL     OW37561   0.322   4.558   7.499  0.4708 -0.0982 -0.3094
 8642SOL    HW137562   0.298   4.615   7.426 -3.1559 -0.6738  0.4474
 8642SOL    HW237563   0.240   4.547   7.549  0.2720 -3.6052 -1.3759
 8643SOL     OW37564   2.829   4.413   7.351 -0.1312 -0.0622  0.7110
 8643SOL    HW137565   2.804   4.464   7.274  2.3222 -0.6452 -0.4557
 8643SOL    HW237566   2.893   4.471   7.391  0.2421  0.6092 -0.8606
 8644SOL     OW37567   4.650   1.928   7.931  0.0563  0.0068  0.1559
 8644SOL    HW137568   4.644   1.911   8.025  0.9141  0.4897  0.2969
 8644SOL    HW237569   4.660   1.837   7.901  2.4959  0.0501  0.8441
 8645SOL     OW37570   2.647   0.691  12.549  0.5940  1.0308  0.1170
 8645SOL    HW137571   2.609   0.753  12.611  1.1500  1.1301  0.3549
 8645SOL    HW237572   2.733   0.668  12.584 -0.9027 -3.2958  0.9813
 8646SOL     OW37573   2.447   4.183  10.380  0.1325  0.0651  0.0778
 8646SOL    HW137574   2.484   4.271  10.383  1.2513 -0.3404 -2.0652
 8646SOL    HW237575   2.430   4.165  10.288  0.1678 -0.2416  0.1292
 8647SOL     OW37576   1.678   1.896   1.014  0.1237  0.0206 -0.7914
 8647SOL    HW137577   1.630   1.892   0.931 -0.3254  0.1634 -0.5363
 8647SOL    HW237578   1.644   1.825   1.068 -2.3990  1.5288 -0.4329
 8648SOL     OW37579   3.037   2.952  13.021  0.0292 -0.1216  0.0392
 8648SOL    HW137580   2.974   2.892  13.061 -0.7042  1.2053  0.8758
 8648SOL    HW237581   3.055   3.014  13.091 -0.5243 -0.9133  0.9011
 8649SOL     OW37582   0.136   2.184   4.895  0.5066  0.2849  0.1158
 8649SOL    HW137583   0.219   2.139   4.912  0.4753  0.1230 -0.1716
 8649SOL    HW237584   0.151   2.250   4.827  0.1710  2.1036  1.7832
 8650SOL     OW37585   3.838   2.201   8.681  0.1576 -0.1003  0.5338
 8650SOL    HW137586   3.781   2.257   8.732  0.3502 -1.3266  2.0922
 8650SOL    HW237587   3.898   2.184   8.753 -0.2221 -0.3266  0.7924
 8651SOL     OW37588   0.439   3.032  16.979 -0.0500 -0.2583  0.1443
 8651SOL    HW137589   0.448   2.938  16.960 -3.7818 -0.3358 -1.1151
 8651SOL    HW237590   0.519   3.069  16.941 -0.1070 -0.2165  0.0661
 8652SOL     OW37591   2.985   2.157   3.767  0.0568  1.0487  0.1801
 8652SOL    HW137592   3.012   2.210   3.692  0.3339  1.6212  0.6859
 8652SOL    HW237593   2.999   2.213   3.843 -0.2267  1.4419 -0.0495
 8653SOL     OW37594   3.806   1.793  13.744 -0.3389  0.2800  0.2964
 8653SOL    HW137595   3.832   1.762  13.831 -0.8424 -2.9341 -0.7260
 8653SOL    HW237596   3.739   1.856  13.771 -1.9131 -0.6573 -1.3887
 8654SOL     OW37597   2.465   0.757  17.030  0.0701  0.3702 -0.3559
 8654SOL    HW137598   2.468   0.843  16.989 -0.6407 -0.0704 -1.3110
 8654SOL    HW237599   2.375   0.757  17.063 -0.0030 -0.1529 -0.5618
 8655SOL     OW37600   3.523   4.081   6.233 -0.3970 -0.3379  0.2096
 8655SOL    HW137601   3.492   3.998   6.269  0.1911 -1.0826 -1.0281
 8655SOL    HW237602   3.445   4.117   6.190  0.4238  0.0290 -0.9677
 8656SOL     OW37603   4.045   0.169   2.900 -0.4345  0.0372 -0.2005
 8656SOL    HW137604   4.035   0.179   2.995  0.4917 -1.5847  0.0651
 8656SOL    HW237605   3.973   0.109   2.879 -0.1561 -0.9936  1.7893
 8657SOL     OW37606   1.815   4.392  10.314  0.8800 -0.1621  0.1197
 8657SOL    HW137607   1.825   4.463  10.251  0.3407 -0.6021 -0.4576
 8657SOL    HW237608   1.893   4.338  10.296  0.6127 -0.3875 -0.3638
 8658SOL     OW37609   1.698   2.733   9.207 -0.5842  0.6846 -0.2024
 8658SOL    HW137610   1.696   2.787   9.287  0.8255  0.3528  0.0737
 8658SOL    HW237611   1.781   2.691   9.230 -0.4516  1.5505  0.9696
 8659SOL     OW37612   1.044   3.197  11.796  0.1583  0.0485 -0.3492
 8659SOL    HW137613   1.119   3.238  11.837 -0.9749 -0.0857  1.8511
 8659SOL    HW237614   1.089   3.170  11.716  1.4033  0.7133  0.1254
 8660SOL     OW37615   4.485   1.364   0.677 -0.2953  0.2996  0.7965
 8660SOL    HW137616   4.448   1.427   0.616  0.6922  0.9604  0.8744
 8660SOL    HW237617   4.454   1.280   0.643 -0.0243  0.4614  0.1575
 8661SOL     OW37618   2.857   0.215   3.281  0.3479 -0.2455 -0.2574
 8661SOL    HW137619   2.916   0.177   3.346  0.6801  0.9988  0.1626
 8661SOL    HW237620   2.771   0.180   3.302  0.2640 -0.1468 -0.4362
 8662SOL     OW37621   1.445   1.171   2.260  0.0210  0.3658  0.2281
 8662SOL    HW137622   1.433   1.260   2.225  1.9313  0.3255 -0.5438
 8662SOL    HW237623   1.417   1.184   2.350 -2.1154 -0.9745 -0.2432
 8663SOL     OW37624   2.450   1.451   5.052  0.6412 -0.2136  0.6716
 8663SOL    HW137625   2.463   1.416   4.965 -1.1836  2.1809 -0.5830
 8663SOL    HW237626   2.377   1.510   5.031  0.5270 -0.2909  0.8533
 8664SOL     OW37627   1.851   3.459   5.272 -0.5659  0.6608 -0.0703
 8664SOL    HW137628   1.759   3.452   5.297  0.3268 -3.1142  2.1440
 8664SOL    HW237629   1.888   3.443   5.359 -0.9799 -0.3207 -0.0776
 8665SOL     OW37630   4.726   1.635   9.429  0.3792 -0.5998  0.0090
 8665SOL    HW137631   4.640   1.601   9.452 -0.7292  0.4754 -2.4554
 8665SOL    HW237632   4.718   1.636   9.333 -1.7018  0.0979  0.2012
 8666SOL     OW37633   3.030   3.941   1.618 -0.3480  0.4922 -0.0802
 8666SOL    HW137634   3.124   3.943   1.598 -0.1408  0.4735  0.9109
 8666SOL    HW237635   2.991   3.970   1.536 -1.3957  0.8596  0.5529
 8667SOL     OW37636   0.530   2.277   2.260 -0.7046 -0.3474  0.3689
 8667SOL    HW137637   0.586   2.218   2.209 -0.7014  1.5052 -1.7479
 8667SOL    HW237638   0.572   2.352   2.219  0.9053 -1.1546  0.5658
 8668SOL     OW37639   3.267   2.279   4.420 -0.3338  0.5274  0.0510
 8668SOL    HW137640   3.333   2.348   4.417  0.7637 -0.5507 -0.9474
 8668SOL    HW237641   3.295   2.230   4.497 -0.7673 -1.9608 -1.3789
 8669SOL     OW37642   2.639   2.562  10.057  0.1656 -0.8873 -0.0206
 8669SOL    HW137643   2.607   2.546   9.967  0.2984  1.0626 -0.4086
 8669SOL    HW237644   2.569   2.603  10.108 -0.4099 -0.8168 -0.8602
 8670SOL     OW37645   0.217   0.252  13.667 -0.8455  0.2919 -0.7314
 8670SOL    HW137646   0.228   0.160  13.643 -0.1026  0.1000  0.3641
 8670SOL    HW237647   0.147   0.251  13.732  0.7116 -0.4995  0.9055
 8671SOL     OW37648   1.035   3.614  16.636  0.7099  0.0544  0.0955
 8671SOL    HW137649   0.976   3.687  16.651  0.9592  0.6537 -1.8657
 8671SOL    HW237650   1.105   3.641  16.578  1.6895 -0.5370  0.9932
 8672SOL     OW37651   1.238   2.044   5.898  0.2201  0.1892 -0.0278
 8672SOL    HW137652   1.221   1.953   5.922  0.2185 -0.2863 -1.8326
 8672SOL    HW237653   1.184   2.045   5.818 -0.9707 -1.8514  0.7333
 8673SOL     OW37654   1.456   2.708   5.385 -1.0842  0.1758  0.1385
 8673SOL    HW137655   1.523   2.713   5.316 -2.1589 -3.3864 -1.1590
 8673SOL    HW237656   1.512   2.690   5.461  0.8947  1.0761 -1.1095
 8674SOL     OW37657   0.224   1.544  15.172 -0.0612  0.3586 -0.2057
 8674SOL    HW137658   0.242   1.630  15.134 -2.1979 -0.2262 -2.5948
 8674SOL    HW237659   0.168   1.515  15.099  1.0531 -1.2386 -0.4111
 8675SOL     OW37660   1.538   0.352   7.909 -0.1244 -0.3210 -0.3758
 8675SOL    HW137661   1.527   0.440   7.873 -1.5939 -0.4731 -0.3138
 8675SOL    HW237662   1.454   0.311   7.888 -0.5125  1.0221 -1.4727
 8676SOL     OW37663   1.433   0.692   8.779 -0.6104  0.5405 -0.0697
 8676SOL    HW137664   1.420   0.627   8.711 -0.9075 -0.4060  0.8934
 8676SOL    HW237665   1.421   0.778   8.739 -1.3256  0.2112 -0.5493
 8677SOL     OW37666   0.578   3.477  13.000 -0.2622 -0.1591  0.4117
 8677SOL    HW137667   0.561   3.537  13.073  0.6461  0.8651 -0.2112
 8677SOL    HW237668   0.662   3.442  13.029  0.7776  1.1278 -1.0490
 8678SOL     OW37669   4.480   3.404   2.399 -0.1027 -0.1678 -0.1273
 8678SOL    HW137670   4.489   3.313   2.428 -0.2881  0.6083  2.3866
 8678SOL    HW237671   4.454   3.436   2.486 -0.1358  0.6465 -0.4425
 8679SOL     OW37672   4.699   0.429   6.426 -0.0807 -0.0488 -0.4690
 8679SOL    HW137673   4.714   0.448   6.334  2.0594  0.0837 -0.0903
 8679SOL    HW237674   4.603   0.426   6.432 -0.2072 -2.1616 -3.8029
 8680SOL     OW37675   3.100   0.035  17.368  0.1261 -0.2790 -0.5470
 8680SOL    HW137676   3.133   4.687  17.383  1.9655  0.4930 -0.1655
 8680SOL    HW237677   3.046   0.032  17.289 -0.1082  3.6899 -0.5617
 8681SOL     OW37678   3.004   3.801   2.180  0.2129 -0.1904  0.1818
 8681SOL    HW137679   3.069   3.844   2.125  0.3102 -0.1768  0.3062
 8681SOL    HW237680   3.050   3.726   2.219  0.6054  0.8560  1.7315
 8682SOL     OW37681   2.569   1.474   6.000  0.4370  0.1068 -0.0344
 8682SOL    HW137682   2.572   1.450   6.092  0.8423  0.3850  0.0224
 8682SOL    HW237683   2.511   1.550   6.005  0.3980  0.0547  0.3023
 8683SOL     OW37684   2.134   2.600   2.175  0.1390 -0.2671  0.6693
 8683SOL    HW137685   2.065   2.572   2.235 -1.0072  1.4594  0.1309
 8683SOL    HW237686   2.080   2.656   2.121 -2.1918  0.1138  3.3844
 8684SOL     OW37687   4.218   3.863   4.244  0.3687 -0.5397  0.1338
 8684SOL    HW137688   4.245   3.779   4.207  0.4888 -0.0223 -0.9455
 8684SOL    HW237689   4.224   3.837   4.336  2.1112  0.0714  0.2039
 8685SOL     OW37690   2.111   2.543   4.009  0.1535  0.6455  0.3411
 8685SOL    HW137691   2.057   2.508   4.081 -1.9285  0.7734 -1.1776
 8685SOL    HW237692   2.159   2.611   4.057  0.4328 -0.3848  1.5176
 8686SOL     OW37693   3.131   0.730   3.912  0.1766 -0.5186 -0.2066
 8686SOL    HW137694   3.214   0.725   3.959  0.2229  0.8517 -0.1491
 8686SOL    HW237695   3.096   0.641   3.921  0.2900 -0.5490 -0.0693
 8687SOL     OW37696   0.896   4.011   1.106  0.0015  0.3745  0.2597
 8687SOL    HW137697   0.986   4.043   1.107  0.5032 -1.1148  1.5183
 8687SOL    HW237698   0.903   3.944   1.174  0.0195  0.5251  0.4073
 8688SOL     OW37699   2.458   2.507   6.289  0.4648 -0.4154  0.2696
 8688SOL    HW137700   2.419   2.420   6.295 -2.5191  0.9101  0.4078
 8688SOL    HW237701   2.391   2.542   6.230  0.0975  1.1808  1.6208
 8689SOL     OW37702   0.343   1.891   5.834 -0.5294 -1.0393  0.2045
 8689SOL    HW137703   0.314   1.919   5.921 -0.4388 -0.1315 -0.0622
 8689SOL    HW237704   0.352   1.795   5.836 -0.3304 -1.0120  0.5649
 8690SOL     OW37705   4.187   0.830   5.291  0.3026  0.3033 -0.0553
 8690SOL    HW137706   4.238   0.749   5.290 -3.1814 -1.9132  0.8570
 8690SOL    HW237707   4.186   0.847   5.385  1.4361  0.3348 -0.0552
 8691SOL     OW37708   1.694   3.857  16.862  0.0156 -0.4423 -0.0902
 8691SOL    HW137709   1.636   3.786  16.832  1.4962 -2.3642  1.6190
 8691SOL    HW237710   1.723   3.886  16.775 -0.9051  0.0408 -0.2411
 8692SOL     OW37711   2.272   3.949   4.608  0.2914  0.6349  0.0571
 8692SOL    HW137712   2.221   3.952   4.689 -0.4633  0.2599 -0.3996
 8692SOL    HW237713   2.292   3.855   4.611  0.3629  0.5910 -2.1230
 8693SOL     OW37714   4.122   3.232   8.401  0.2006 -0.1654  0.9824
 8693SOL    HW137715   4.188   3.169   8.431  0.3838 -0.0001  0.9290
 8693SOL    HW237716   4.165   3.295   8.343 -1.5256  1.7609  1.8246
 8694SOL     OW37717   3.556   4.487   2.491  0.3578  0.1873 -0.9260
 8694SOL    HW137718   3.536   4.581   2.495  1.7385  0.4126  0.4289
 8694SOL    HW237719   3.483   4.445   2.444  0.2581  0.8335 -1.3553
 8695SOL     OW37720   1.147   1.367   7.315 -0.1367  0.2858 -0.5782
 8695SOL    HW137721   1.239   1.350   7.337 -0.0352  1.3154 -0.2026
 8695SOL    HW237722   1.164   1.382   7.222 -0.7166  0.4668 -0.6510
 8696SOL     OW37723   4.314   2.151   4.584 -0.9720  0.7840 -0.2542
 8696SOL    HW137724   4.357   2.237   4.586 -1.0646  0.8631 -1.8852
 8696SOL    HW237725   4.335   2.128   4.494 -1.2767  2.2014 -0.6954
 8697SOL     OW37726   0.803   0.369   1.647 -0.4961 -0.3074  0.2218
 8697SOL    HW137727   0.755   0.451   1.638 -2.6440 -1.8568 -2.2615
 8697SOL    HW237728   0.734   0.306   1.625  1.1986 -1.0046 -3.1138
 8698SOL     OW37729   1.781   1.655   1.460  0.3607  0.2346 -0.3861
 8698SOL    HW137730   1.722   1.697   1.397 -0.3020  1.4895  1.0577
 8698SOL    HW237731   1.865   1.697   1.444 -0.1680  1.8312  0.9554
 8699SOL     OW37732   1.552   3.300   4.287  0.0555 -0.0225 -0.5949
 8699SOL    HW137733   1.629   3.244   4.296 -1.0199 -1.2559  0.9031
 8699SOL    HW237734   1.586   3.390   4.288 -0.7548  0.2827 -0.1610
 8700SOL     OW37735   4.597   1.603   7.423 -0.4236  0.4237 -0.2051
 8700SOL    HW137736   4.559   1.533   7.370  1.1572 -1.4653  1.1688
 8700SOL    HW237737   4.515   1.630   7.464  0.6409  0.2863  2.0147
 8701SOL     OW37738   4.635   3.403   6.212  0.0440 -0.2106  0.4386
 8701SOL    HW137739   4.575   3.434   6.280  1.9978  1.0527  1.6053
 8701SOL    HW237740   4.679   3.329   6.253  0.3628  0.3308  1.0826
 8702SOL     OW37741   1.450   4.444   5.759 -0.1333 -0.3897 -0.6206
 8702SOL    HW137742   1.446   4.394   5.840 -2.6538 -1.3267 -1.3291
 8702SOL    HW237743   1.441   4.532   5.794 -0.0181 -0.9560  0.8380
 8703SOL     OW37744   3.802   0.350  12.962  0.4461 -0.4852  0.2460
 8703SOL    HW137745   3.798   0.279  12.899 -0.5897 -0.3675  0.1754
 8703SOL    HW237746   3.760   0.424  12.918 -0.4029 -1.2303 -0.1997
 8704SOL     OW37747   2.073   3.319   6.853  0.2214  0.3104  0.0028
 8704SOL    HW137748   2.026   3.376   6.792  1.5206  0.7197 -0.6308
 8704SOL    HW237749   2.147   3.288   6.800 -0.1274  0.8295 -0.7932
 8705SOL     OW37750   1.071   0.299  11.244  0.1629  0.2885  0.1171
 8705SOL    HW137751   1.146   0.241  11.225 -0.7471 -2.1176  3.8390
 8705SOL    HW237752   1.064   0.278  11.337 -1.3027  0.9125  0.1502
 8706SOL     OW37753   2.432   2.847   7.977 -0.4135  0.1072  0.0533
 8706SOL    HW137754   2.437   2.836   7.882  2.7870  0.8749  0.1353
 8706SOL    HW237755   2.340   2.826   7.996  0.0484 -0.5831  1.5690
 8707SOL     OW37756   2.669   4.513   6.910 -0.4185 -0.6287  0.1992
 8707SOL    HW137757   2.614   4.539   6.983 -1.0812 -0.3316 -0.4012
 8707SOL    HW237758   2.657   4.418   6.917 -0.7450 -0.6974 -1.1836
 8708SOL     OW37759   4.346   4.596  14.441  0.1135 -0.2731  0.7253
 8708SOL    HW137760   4.286   4.645  14.498 -0.6376  0.8857 -1.0734
 8708SOL    HW237761   4.371   4.527  14.502 -0.8068 -0.4776  0.8660
 8709SOL     OW37762   2.085   2.107   2.491  0.2283  0.1601 -0.2199
 8709SOL    HW137763   1.989   2.099   2.492  0.3395 -1.0959 -0.6088
 8709SOL    HW237764   2.103   2.140   2.579  2.1614 -0.1007 -0.5199
 8710SOL     OW37765   2.746   2.736   2.606 -0.4373 -0.3696 -0.0839
 8710SOL    HW137766   2.812   2.769   2.667 -1.3512 -2.1655  1.8801
 8710SOL    HW237767   2.666   2.779   2.637 -0.4924  1.5462 -2.8922
 8711SOL     OW37768   2.793   1.599   4.520  0.3858 -0.4408 -0.3833
 8711SOL    HW137769   2.863   1.664   4.528  0.6864 -0.8053 -0.0783
 8711SOL    HW237770   2.824   1.531   4.579 -0.3771 -1.1732 -0.8360
 8712SOL     OW37771   0.445   3.804  12.423  0.3505  0.1401 -0.4163
 8712SOL    HW137772   0.387   3.738  12.387 -1.6596  0.7636  1.6499
 8712SOL    HW237773   0.414   3.891  12.397 -0.1823 -0.1081 -0.6181
 8713SOL     OW37774   4.612   4.156   9.009  0.1332 -0.1523  0.9534
 8713SOL    HW137775   4.596   4.125   9.099  1.3174 -1.2275  0.7914
 8713SOL    HW237776   4.615   4.087   8.943  2.6871  1.3764 -0.5033
 8714SOL     OW37777   0.715   1.014   5.851 -0.8527  0.2150  0.0771
 8714SOL    HW137778   0.770   1.054   5.784  0.2128 -0.3971  0.5776
 8714SOL    HW237779   0.690   0.940   5.796 -0.9204 -1.0131  1.7687
 8715SOL     OW37780   3.864   4.091  14.894 -0.1274  0.0634 -0.2203
 8715SOL    HW137781   3.788   4.085  14.836  0.2149 -1.7271 -0.5062
 8715SOL    HW237782   3.917   4.158  14.851  0.5988  0.1962  0.8791
 8716SOL     OW37783   3.517   4.192  15.645  0.1352  0.4282 -0.2633
 8716SOL    HW137784   3.494   4.283  15.664 -2.9726 -0.9876  2.6595
 8716SOL    HW237785   3.456   4.184  15.571 -1.1830  0.0020  0.8780
 8717SOL     OW37786   0.024   3.520   1.494 -0.6221  0.0398  0.0626
 8717SOL    HW137787   4.716   3.516   1.412 -0.8172  0.0210  0.1773
 8717SOL    HW237788   0.104   3.478   1.463 -1.8098  0.8957 -4.1372
 8718SOL     OW37789   3.329   3.285  14.378  0.3514 -0.0955  0.1188
 8718SOL    HW137790   3.325   3.341  14.455  1.3185 -3.8670  2.9269
 8718SOL    HW237791   3.362   3.201  14.412 -0.1091 -0.6889 -0.9030
 8719SOL     OW37792   4.254   4.508   3.907  0.0907  0.6574 -0.8946
 8719SOL    HW137793   4.194   4.557   3.965  1.8394  2.1300 -0.3243
 8719SOL    HW237794   4.291   4.455   3.978  0.8534 -1.6029 -3.0116
 8720SOL     OW37795   2.174   2.877  13.477 -0.3600 -0.1871  0.5520
 8720SOL    HW137796   2.242   2.944  13.477  0.9201 -1.4815  1.3813
 8720SOL    HW237797   2.094   2.924  13.501 -0.3752  1.1830 -2.2749
 8721SOL     OW37798   4.176   1.766  15.233 -0.2268  0.7186  0.0629
 8721SOL    HW137799   4.234   1.765  15.310  2.5051 -1.4797 -2.0468
 8721SOL    HW237800   4.230   1.726  15.165 -0.8722  1.6865 -1.0152
 8722SOL     OW37801   0.576   1.314  13.229  0.0162  0.2538 -0.3479
 8722SOL    HW137802   0.489   1.292  13.197 -1.2806  1.9442  2.0364
 8722SOL    HW237803   0.630   1.284  13.156  1.3482 -0.8238  1.0770
 8723SOL     OW37804   2.722   4.372   2.795 -0.2680  0.3921  0.1481
 8723SOL    HW137805   2.668   4.293   2.784  1.3172 -0.8485  1.2712
 8723SOL    HW237806   2.793   4.362   2.732  0.4015 -0.3110  1.0279
 8724SOL     OW37807   3.216   2.857   4.029 -0.3182  0.3826  0.3584
 8724SOL    HW137808   3.237   2.777   4.077  0.5606  0.9230  0.8758
 8724SOL    HW237809   3.272   2.910   4.086  0.9749  1.6589 -2.1194
 8725SOL     OW37810   1.074   3.952  10.867 -0.2795 -0.4950  0.2074
 8725SOL    HW137811   1.006   4.016  10.885  1.4250  0.5946  2.8664
 8725SOL    HW237812   1.134   3.987  10.801 -0.0520  0.7704  1.0737
 8726SOL     OW37813   2.442   3.043   8.801 -0.3994 -0.5583 -0.1590
 8726SOL    HW137814   2.435   3.102   8.725  0.7448 -0.7638 -0.4198
 8726SOL    HW237815   2.494   2.973   8.762 -1.5450 -1.6429  0.2651
 8727SOL     OW37816   0.607   0.002   8.155  0.2401 -0.2147 -0.3542
 8727SOL    HW137817   0.681   4.735   8.216 -0.5984  1.0394  0.8379
 8727SOL    HW237818   0.530   0.024   8.209 -1.3282 -1.8538 -1.9414
 8728SOL     OW37819   4.138   3.579   8.999 -0.1719 -0.7830  0.1136
 8728SOL    HW137820   4.179   3.492   9.006 -0.5144 -1.0715 -1.5107
 8728SOL    HW237821   4.076   3.590   9.071  0.6585  0.5536  0.6172
 8729SOL     OW37822   3.209   3.169   5.380 -0.1773  0.6198  0.5771
 8729SOL    HW137823   3.258   3.235   5.331 -0.7400  0.1884 -0.5716
 8729SOL    HW237824   3.130   3.220   5.401 -0.5871 -0.0499  0.6697
 8730SOL     OW37825   2.078   2.386  11.848  0.3522  0.2436  0.9400
 8730SOL    HW137826   2.085   2.462  11.905  1.6350  1.1818 -0.4865
 8730SOL    HW237827   2.117   2.321  11.907 -1.1452 -0.1814  1.4688
 8731SOL     OW37828   1.044   3.481  12.243  0.3763 -0.4566  0.0562
 8731SOL    HW137829   1.010   3.569  12.259 -0.1640 -0.4191 -1.3333
 8731SOL    HW237830   1.111   3.482  12.174  1.4281 -0.6993  1.0579
 8732SOL     OW37831   0.039   1.771   7.272 -0.0127 -0.3369 -0.1427
 8732SOL    HW137832   0.023   1.863   7.294  1.3792  0.1278 -1.0945
 8732SOL    HW237833   4.718   1.719   7.325  0.1851 -1.3257 -0.8863
 8733SOL     OW37834   3.078   0.636  13.320  0.2879 -0.4791 -0.0415
 8733SOL    HW137835   3.146   0.595  13.267 -1.3177 -0.1646 -2.3545
 8733SOL    HW237836   3.058   0.565  13.382  0.6760 -0.6009 -0.0575
 8734SOL     OW37837   1.611   2.965   7.034  0.3122 -0.4178 -0.2276
 8734SOL    HW137838   1.546   2.976   6.965  1.2664 -2.0244 -1.3793
 8734SOL    HW237839   1.553   2.992   7.105  2.3419  0.3356  1.1412
 8735SOL     OW37840   0.599   2.235   5.178  0.1333  0.3172  0.5873
 8735SOL    HW137841   0.568   2.297   5.245 -3.0500  0.9301 -1.4596
 8735SOL    HW237842   0.664   2.293   5.138  0.4578 -0.3144  0.2152
 8736SOL     OW37843   3.425   2.312   3.259 -0.2909  0.5017  0.3952
 8736SOL    HW137844   3.476   2.318   3.179  1.5283 -0.5588  1.4817
 8736SOL    HW237845   3.456   2.231   3.300  1.4308  0.7646 -0.4287
 8737SOL     OW37846   3.503   2.748   6.198 -0.0171  0.3336  0.7170
 8737SOL    HW137847   3.471   2.703   6.276  1.7906 -0.6441  0.8914
 8737SOL    HW237848   3.463   2.833   6.212  1.4001  0.7611  2.1504
 8738SOL     OW37849   2.570   3.167   8.281  0.6160  0.0774  0.0641
 8738SOL    HW137850   2.623   3.149   8.359  2.4123 -0.8771 -1.3826
 8738SOL    HW237851   2.487   3.135   8.317  1.3220 -2.3713 -0.4833
 8739SOL     OW37852   3.876   4.614   6.231  0.5867  0.3379  0.1869
 8739SOL    HW137853   3.864   4.644   6.322 -1.3658  1.9459 -0.5995
 8739SOL    HW237854   3.808   4.668   6.190  2.9487  1.0194 -2.8432
 8740SOL     OW37855   0.708   2.987   8.172  0.1936 -0.0732 -0.3980
 8740SOL    HW137856   0.622   3.024   8.193  0.6639 -0.5191  2.3094
 8740SOL    HW237857   0.716   2.982   8.077  1.5105 -0.6786 -0.2513
 8741SOL     OW37858   1.660   2.893  10.593  0.1322 -0.1792 -0.4609
 8741SOL    HW137859   1.599   2.819  10.597  0.9851 -0.8862 -0.5524
 8741SOL    HW237860   1.745   2.848  10.596 -0.2657 -0.8888  0.3239
 8742SOL     OW37861   1.380   4.578   4.154 -0.1813 -0.7632  0.3837
 8742SOL    HW137862   1.417   4.593   4.067 -1.1337  4.1717  0.8461
 8742SOL    HW237863   1.441   4.616   4.217  0.1900  0.9429 -1.0020
 8743SOL     OW37864   3.627   4.122   5.506  0.3078  0.0763  0.0428
 8743SOL    HW137865   3.650   4.049   5.563  1.2635  0.7866  0.5624
 8743SOL    HW237866   3.675   4.104   5.425 -0.0185 -2.1497  0.3621
 8744SOL     OW37867   0.446   1.530  11.384 -0.1557  0.0406 -0.3407
 8744SOL    HW137868   0.374   1.568  11.435 -0.0097 -2.9059  2.0521
 8744SOL    HW237869   0.525   1.562  11.426 -0.7822  0.9953  0.1205
 8745SOL     OW37870   3.827   3.421   1.957  0.1587  0.1417  0.0562
 8745SOL    HW137871   3.821   3.462   1.871 -1.0731 -3.9408 -1.8199
 8745SOL    HW237872   3.852   3.500   2.004  1.8458 -0.7220  0.6014
 8746SOL     OW37873   2.705   3.217   5.716 -0.5822  0.2234  0.5503
 8746SOL    HW137874   2.716   3.157   5.642  0.5710  0.6645  0.3671
 8746SOL    HW237875   2.657   3.154   5.770 -3.7339  0.3430 -2.0995
 8747SOL     OW37876   1.851   4.144   2.939 -0.0550 -0.2978 -0.3448
 8747SOL    HW137877   1.821   4.226   2.978  2.3881  0.7296 -0.6112
 8747SOL    HW237878   1.781   4.087   2.970  0.1150 -0.0674  0.4607
 8748SOL     OW37879   3.893   4.072   9.144 -0.4400 -0.1779 -0.1497
 8748SOL    HW137880   3.845   4.139   9.192  0.7875  1.0128 -0.5678
 8748SOL    HW237881   3.862   3.988   9.177 -0.5189  0.7574  2.1720
 8749SOL     OW37882   3.411   3.095   1.972  0.4618  0.4233 -0.7952
 8749SOL    HW137883   3.493   3.143   1.981  1.3090 -0.6088 -3.1533
 8749SOL    HW237884   3.362   3.163   1.924 -0.1215  1.8765  1.8450
 8750SOL     OW37885   1.319   3.826  10.672 -0.2970 -0.8244 -0.0195
 8750SOL    HW137886   1.377   3.758  10.706 -1.5269 -1.4948  0.7321
 8750SOL    HW237887   1.378   3.900  10.657 -0.2658 -0.5258  1.5826
 8751SOL     OW37888   1.072   0.348  14.946 -0.3429  0.2193  0.5868
 8751SOL    HW137889   1.166   0.360  14.934 -0.0489 -0.3908  2.2566
 8751SOL    HW237890   1.031   0.411  14.886  1.6364  2.9015  2.0458
 8752SOL     OW37891   0.508   1.151   1.748  0.5716 -0.6455  0.5353
 8752SOL    HW137892   0.481   1.226   1.800  0.2939 -0.7213  0.5019
 8752SOL    HW237893   0.599   1.159   1.720  0.6499 -1.1670  0.6356
 8753SOL     OW37894   2.252   2.787   8.732 -0.0450 -0.3467  0.4563
 8753SOL    HW137895   2.282   2.780   8.822 -0.4386  2.2755  0.7942
 8753SOL    HW237896   2.334   2.796   8.682 -0.8717  2.1137 -0.4679
 8754SOL     OW37897   1.919   4.533   3.634 -0.5100 -0.2434  0.5599
 8754SOL    HW137898   1.913   4.624   3.605  4.2171 -0.0472  0.2775
 8754SOL    HW237899   1.947   4.548   3.724  0.9875 -1.3894  0.2850
 8755SOL     OW37900   0.892   4.621   9.578  0.5554 -0.1604  0.4399
 8755SOL    HW137901   0.857   4.544   9.533  1.9723 -0.3058 -0.4257
 8755SOL    HW237902   0.940   4.577   9.649 -0.2454  0.8165  1.5909
 8756SOL     OW37903   1.399   1.011  15.572 -0.2971  0.3360  0.4608
 8756SOL    HW137904   1.325   1.009  15.511 -0.1069 -1.2842  0.2827
 8756SOL    HW237905   1.378   0.938  15.631  1.1894 -1.4212 -1.1997
 8757SOL     OW37906   1.285   4.728   0.703 -0.0786  0.4621  0.0065
 8757SOL    HW137907   1.331   4.687   0.777  0.1642 -0.4591 -0.6635
 8757SOL    HW237908   1.194   4.701   0.706 -0.2793  1.1357  0.1032
 8758SOL     OW37909   1.406   1.560  14.412 -0.4696 -0.2053  0.7546
 8758SOL    HW137910   1.421   1.470  14.385 -0.4328  1.1301 -3.6119
 8758SOL    HW237911   1.312   1.559  14.394 -0.3788  2.3047  0.0593
 8759SOL     OW37912   0.414   2.068   8.307 -0.2625  0.3064 -0.1991
 8759SOL    HW137913   0.361   2.036   8.234  1.9950 -2.7357 -0.5009
 8759SOL    HW237914   0.356   2.109   8.371  0.3481  2.5774 -1.0983
 8760SOL     OW37915   3.633   0.145   3.020 -0.1120 -0.4011  0.3775
 8760SOL    HW137916   3.689   0.220   3.042 -0.6665 -0.1552  0.9422
 8760SOL    HW237917   3.560   0.186   2.974  1.5621  3.5362  1.2174
 8761SOL     OW37918   3.089   1.852   6.158  0.3520  0.3663 -0.4735
 8761SOL    HW137919   3.069   1.939   6.192  1.3164  0.8855 -1.2425
 8761SOL    HW237920   3.070   1.861   6.064 -2.9332  0.4971  0.1958
 8762SOL     OW37921   2.827   1.291   2.981 -0.4748  0.3655 -0.2122
 8762SOL    HW137922   2.921   1.274   2.975 -0.4972  1.4061 -3.1760
 8762SOL    HW237923   2.813   1.305   2.888 -2.2248 -0.8220 -0.1254
 8763SOL     OW37924   3.705   1.092   4.903 -0.5746 -0.1224  0.2844
 8763SOL    HW137925   3.672   1.093   4.993 -0.7511  2.1194  0.1762
 8763SOL    HW237926   3.781   1.036   4.921  0.5538  0.8346 -1.5013
 8764SOL     OW37927   1.043   4.007   2.221 -0.1900  0.0304 -0.6516
 8764SOL    HW137928   1.124   4.028   2.267  0.4400 -1.6800 -0.9970
 8764SOL    HW237929   1.009   3.946   2.286  1.1141 -0.9493 -0.8803
 8765SOL     OW37930   2.621   1.747   6.349 -0.0254  0.1213  0.0735
 8765SOL    HW137931   2.621   1.686   6.423 -1.1857 -1.8078 -1.5032
 8765SOL    HW237932   2.546   1.706   6.307  0.7226 -1.4110  0.2067
 8766SOL     OW37933   3.530   4.105   9.319 -1.0863  0.3291 -0.2630
 8766SOL    HW137934   3.517   4.036   9.253  1.1301 -0.4804  0.1304
 8766SOL    HW237935   3.614   4.146   9.296 -1.0743  0.0807 -0.6674
 8767SOL     OW37936   3.041   4.329   0.044 -0.7961 -0.2330 -0.1873
 8767SOL    HW137937   3.023   4.405  17.745  1.5752  0.7917  0.4202
 8767SOL    HW237938   3.032   4.365   0.133  1.1640  0.4431 -0.2511
 8768SOL     OW37939   2.171   1.526  13.031 -0.2717 -0.6831  0.3422
 8768SOL    HW137940   2.206   1.437  13.035 -0.6042 -0.7403  1.8799
 8768SOL    HW237941   2.215   1.560  13.109 -1.4028  2.1268 -0.2744
 8769SOL     OW37942   0.850   3.774   2.705 -0.1893  0.5100 -0.3145
 8769SOL    HW137943   0.807   3.850   2.667 -0.6545 -0.4592 -1.7133
 8769SOL    HW237944   0.778   3.716   2.729 -0.7080  0.9803 -0.7391
 8770SOL     OW37945   1.983   3.846   4.086 -0.5550 -0.5366  0.5584
 8770SOL    HW137946   2.038   3.767   4.088  1.9568  1.2377  1.5629
 8770SOL    HW237947   1.928   3.840   4.164 -0.5661  0.6167  0.6326
 8771SOL     OW37948   3.257   3.437   6.792  0.0209 -0.2961  0.0988
 8771SOL    HW137949   3.344   3.443   6.831  0.8661 -2.8204 -1.3455
 8771SOL    HW237950   3.265   3.499   6.720  1.7274 -0.8969 -0.2337
 8772SOL     OW37951   1.642   0.958   8.938 -0.2279 -0.0766  0.0853
 8772SOL    HW137952   1.612   0.917   8.857  0.0972 -0.7173  0.2900
 8772SOL    HW237953   1.654   0.888   9.003 -2.5343 -0.4356  0.1273
 8773SOL     OW37954   1.236   2.110   2.130  0.2634  0.0140  0.1906
 8773SOL    HW137955   1.199   2.075   2.211 -1.3865  2.1658  0.3966
 8773SOL    HW237956   1.243   2.202   2.157  0.9948  0.3455 -1.1723
 8774SOL     OW37957   3.492   2.530   2.069  0.4648 -0.1582  0.1274
 8774SOL    HW137958   3.530   2.518   2.157  1.4597 -0.3439 -0.3300
 8774SOL    HW237959   3.563   2.508   2.009 -0.0962 -0.6029 -0.3679
 8775SOL     OW37960   0.965   2.780   7.282 -0.7380 -0.1824  0.4160
 8775SOL    HW137961   1.009   2.849   7.331  2.4533 -1.6955 -0.3605
 8775SOL    HW237962   0.973   2.832   7.202  0.7270 -2.5815 -0.9875
 8776SOL     OW37963   4.461   2.797   3.717 -0.1828  0.3218  0.0425
 8776SOL    HW137964   4.474   2.750   3.800 -0.1490  1.7423  0.8378
 8776SOL    HW237965   4.392   2.861   3.735 -1.0683  0.0737 -2.5056
 8777SOL     OW37966   0.868   2.411   8.077  0.3527 -0.2512  0.0747
 8777SOL    HW137967   0.852   2.490   8.025 -1.6662  0.5052  1.8287
 8777SOL    HW237968   0.938   2.433   8.139  0.6633  0.6760 -0.6138
 8778SOL     OW37969   0.039   2.292  14.996  0.0622  0.5464  0.0174
 8778SOL    HW137970   0.085   2.317  15.076 -0.6589  0.7403  0.3719
 8778SOL    HW237971   4.686   2.297  15.019 -0.3161  0.1151 -1.4314
 8779SOL     OW37972   2.956   2.287   1.807 -0.3801  0.2166 -0.3568
 8779SOL    HW137973   2.893   2.306   1.877 -0.2840 -0.2869 -0.1339
 8779SOL    HW237974   2.948   2.354   1.739 -0.1988  1.2013  0.5987
 8780SOL     OW37975   4.414   3.495  11.770 -0.3673 -0.1486 -0.4359
 8780SOL    HW137976   4.436   3.419  11.825  0.4107 -0.3052 -0.9636
 8780SOL    HW237977   4.484   3.496  11.705  0.6880 -0.4291  0.6945
 8781SOL     OW37978   0.876   1.461   1.595 -0.0158  0.5330 -0.2130
 8781SOL    HW137979   0.809   1.499   1.651 -1.2646 -0.4304 -1.0692
 8781SOL    HW237980   0.953   1.435   1.646  1.0095 -0.6974 -2.3692
 8782SOL     OW37981   0.672   3.874  12.578 -0.2448  0.1372 -0.6770
 8782SOL    HW137982   0.601   3.843  12.521  0.3732 -0.7099 -0.9818
 8782SOL    HW237983   0.694   3.796  12.627 -0.5067 -1.3061 -2.8617
 8783SOL     OW37984   1.185   0.197   4.406  0.0117  0.3247  0.1686
 8783SOL    HW137985   1.238   0.168   4.480 -0.9773 -0.8324  0.4154
 8783SOL    HW237986   1.242   0.170   4.334 -0.4439  0.7900 -0.3700
 8784SOL     OW37987   3.116   1.098  10.772 -0.5179 -0.2301 -0.0171
 8784SOL    HW137988   3.047   1.065  10.715 -0.9053 -0.3424  0.5256
 8784SOL    HW237989   3.069   1.179  10.789  0.2074  0.1818  0.0219
 8785SOL     OW37990   0.303   1.468   8.696  0.1250 -0.1906 -0.4753
 8785SOL    HW137991   0.254   1.550   8.704 -0.7369 -0.4833 -2.7815
 8785SOL    HW237992   0.334   1.454   8.785  2.1312  2.4691 -0.7723
 8786SOL     OW37993   1.708   1.710  11.829  0.5077  0.2370 -0.7047
 8786SOL    HW137994   1.682   1.675  11.744  2.5383  0.3367 -1.3581
 8786SOL    HW237995   1.803   1.704  11.832  0.3556 -1.0272  1.5789
 8787SOL     OW37996   4.400   2.432   3.309 -0.6773 -0.0480  0.0809
 8787SOL    HW137997   4.327   2.405   3.253 -0.4564  0.9958 -0.7063
 8787SOL    HW237998   4.354   2.450   3.391 -0.6406  0.7365 -0.0735
 8788SOL     OW37999   3.279   2.338   7.115  0.6922 -0.5854 -0.0477
 8788SOL    HW138000   3.326   2.314   7.035 -0.5132 -2.4859 -0.1761
 8788SOL    HW238001   3.201   2.283   7.104  0.7663 -1.2119  2.5974
 8789SOL     OW38002   0.167   3.887  15.188  0.0462  0.0498  0.6978
 8789SOL    HW138003   0.080   3.883  15.147  0.8509  1.3465 -1.1572
 8789SOL    HW238004   0.173   3.796  15.216 -3.8654  0.2833  2.2443
 8790SOL     OW38005   1.417   2.404   4.397 -0.1401  0.0131 -0.6283
 8790SOL    HW138006   1.509   2.386   4.379  0.3146  0.2302  1.5294
 8790SOL    HW238007   1.371   2.347   4.335  0.3248 -3.0200  1.8997
 8791SOL     OW38008   2.354   0.660  15.008  0.2414  0.6120  0.0876
 8791SOL    HW138009   2.359   0.655  15.103 -0.0244  1.2807  0.1390
 8791SOL    HW238010   2.427   0.720  14.990  0.3423  1.0562  1.9655
 8792SOL     OW38011   1.978   4.720   0.750  0.0429  0.5060  0.2006
 8792SOL    HW138012   1.895   0.016   0.720 -0.1568  1.6423  2.1232
 8792SOL    HW238013   1.982   0.018   0.838  1.9650  0.8514 -0.0331
 8793SOL     OW38014   4.229   2.998   1.865  0.6081 -0.8384  0.4128
 8793SOL    HW138015   4.181   2.916   1.880 -1.2966  0.6107  2.1961
 8793SOL    HW238016   4.151   3.050   1.882  0.2983 -1.4624  0.9107
 8794SOL     OW38017   2.375   4.412  16.237  0.0136 -0.4583  0.5537
 8794SOL    HW138018   2.467   4.418  16.211 -1.0139  3.3190 -2.1577
 8794SOL    HW238019   2.339   4.420  16.149  1.2494  1.3729  0.2258
 8795SOL     OW38020   0.331   4.712   7.754 -0.4840  0.2337  0.0394
 8795SOL    HW138021   0.418   4.723   7.792 -0.0691 -1.6267 -0.3541
 8795SOL    HW238022   0.350   4.651   7.682  1.9755  1.6913 -0.5683
 8796SOL     OW38023   1.906   0.011  10.885 -0.2820  0.5136  0.0454
 8796SOL    HW138024   1.830   0.052  10.843  0.4852  1.0643 -0.8254
 8796SOL    HW238025   1.962   0.024  10.809  0.1880  1.9332  0.6335
 8797SOL     OW38026   1.609   1.932   5.634  0.4409 -0.5543 -0.2515
 8797SOL    HW138027   1.558   1.854   5.613  0.7971 -0.9788  0.4732
 8797SOL    HW238028   1.697   1.914   5.599  1.0644 -1.5353  1.8339
 8798SOL     OW38029   0.219   3.098   3.754  0.0222  0.0166  0.1962
 8798SOL    HW138030   0.255   3.049   3.828  2.5258  0.5545 -0.6742
 8798SOL    HW238031   0.125   3.088   3.774 -0.6300  3.0637 -1.4149
 8799SOL     OW38032   0.354   4.369  12.778  0.0225  0.3040 -0.1035
 8799SOL    HW138033   0.273   4.336  12.739 -1.1727  2.3114  0.6744
 8799SOL    HW238034   0.332   4.357  12.870  1.5921  3.9227  0.7544
 8800SOL     OW38035   2.044   2.552   7.962 -0.6154  0.2346 -0.0495
 8800SOL    HW138036   2.031   2.482   8.026  1.3040 -1.2314 -1.2694
 8800SOL    HW238037   2.030   2.503   7.881 -0.1006 -1.9749  1.1802
 8801SOL     OW38038   1.882   2.124   1.884  0.1780  0.2393  0.4190
 8801SOL    HW138039   1.934   2.045   1.898  0.9092  0.7651  0.7174
 8801SOL    HW238040   1.832   2.098   1.807  2.2121 -0.5694 -0.6193
 8802SOL     OW38041   1.985   1.613   4.980  0.3716  0.1393  0.3140
 8802SOL    HW138042   1.935   1.657   4.912 -1.5099 -0.9670  0.9968
 8802SOL    HW238043   1.917   1.564   5.025 -1.4194  2.5891  0.2601
 8803SOL     OW38044   2.982   1.627   7.832  0.2885 -0.5102  0.8093
 8803SOL    HW138045   2.996   1.666   7.918 -0.0793  0.8708  0.2415
 8803SOL    HW238046   3.058   1.569   7.828  0.4371 -0.1895 -1.2588
 8804SOL     OW38047   4.174   0.588   5.662 -0.3596 -0.0017 -0.2265
 8804SOL    HW138048   4.211   0.502   5.680  0.5722  0.6302  0.8621
 8804SOL    HW238049   4.198   0.647   5.734  1.6774  0.5957 -1.3939
 8805SOL     OW38050   1.159   0.170   4.995 -0.1653  0.2736  0.6366
 8805SOL    HW138051   1.091   0.102   4.997  2.8587 -2.8380 -2.0211
 8805SOL    HW238052   1.104   0.247   4.984 -1.0387 -0.3802  0.4379
 8806SOL     OW38053   4.628   1.392   5.844 -0.0659 -0.2747 -0.4883
 8806SOL    HW138054   4.584   1.455   5.901  2.3091  2.1994 -1.3870
 8806SOL    HW238055   4.640   1.442   5.764 -1.3598  0.1964 -0.3772
 8807SOL     OW38056   1.798   3.144   2.683 -0.2603  0.7723  0.8450
 8807SOL    HW138057   1.790   3.166   2.590  3.0944 -0.3093  0.2925
 8807SOL    HW238058   1.710   3.111   2.698  0.0801 -2.0498 -3.3892
 8808SOL     OW38059   3.501   2.279  15.288  1.2199 -0.4018 -0.0874
 8808SOL    HW138060   3.471   2.278  15.379  0.2971  0.5210 -0.3857
 8808SOL    HW238061   3.461   2.360  15.256  0.3850 -1.7826 -2.5660
 8809SOL     OW38062   2.404   0.416  11.329  0.2741  0.5312  0.3127
 8809SOL    HW138063   2.313   0.437  11.350 -0.3127  0.4998 -2.2704
 8809SOL    HW238064   2.431   0.481  11.265 -1.4584  0.7798 -0.1574
 8810SOL     OW38065   3.299   4.624   6.630  0.1002  0.0014 -0.2490
 8810SOL    HW138066   3.297   4.699   6.690 -0.5039 -0.5052  0.3672
 8810SOL    HW238067   3.223   4.645   6.577  1.1681  4.6978  0.0690
 8811SOL     OW38068   3.281   0.127   2.589 -0.2974  0.4054  0.6168
 8811SOL    HW138069   3.201   0.085   2.557 -0.7148  0.8203  1.1061
 8811SOL    HW238070   3.350   0.073   2.551  0.6368  1.8971  0.2138
 8812SOL     OW38071   3.167   3.995   4.730 -0.0044  0.2297  0.6733
 8812SOL    HW138072   3.246   4.015   4.680  0.3848 -2.7819  0.1273
 8812SOL    HW238073   3.097   3.998   4.664  1.6893  1.0323 -1.0863
 8813SOL     OW38074   1.144   1.952   6.369 -0.0209  0.6406  0.0525
 8813SOL    HW138075   1.184   1.976   6.286  2.4189 -1.0636  0.7415
 8813SOL    HW238076   1.112   1.864   6.351 -0.4323  1.0251 -1.1206
 8814SOL     OW38077   3.287   0.405   5.161  0.1157 -0.2362  0.4762
 8814SOL    HW138078   3.211   0.411   5.219  0.8988 -0.0345  1.4751
 8814SOL    HW238079   3.353   0.457   5.206 -0.1601  1.7460 -1.4133
 8815SOL     OW38080   4.121   2.577   2.652  0.2255 -0.4815  0.3965
 8815SOL    HW138081   4.046   2.518   2.642  0.7748 -0.9584 -1.0177
 8815SOL    HW238082   4.108   2.623   2.734  1.2530  0.8089 -0.1653
 8816SOL     OW38083   1.135   0.617   1.072 -0.8504  0.0760  1.2220
 8816SOL    HW138084   1.069   0.674   1.113  0.3346  2.3335  0.0150
 8816SOL    HW238085   1.090   0.584   0.995  0.6715 -0.4369  0.5714
 8817SOL     OW38086   3.212   2.533  13.558  0.6227 -0.4802  0.3151
 8817SOL    HW138087   3.263   2.574  13.488  0.3194 -1.0912 -0.2610
 8817SOL    HW238088   3.285   2.514  13.617  0.5325  0.6769  0.7959
 8818SOL     OW38089   3.004   1.963   3.449  0.4415  0.1414  0.0652
 8818SOL    HW138090   2.949   1.913   3.389 -0.1824  0.3191  0.4883
 8818SOL    HW238091   2.942   1.965   3.521 -1.6281  0.0653 -1.6923
 8819SOL     OW38092   4.645   2.600   5.456  0.0089  0.1206  0.4806
 8819SOL    HW138093   4.587   2.672   5.431 -1.9623 -1.3147  0.9152
 8819SOL    HW238094   4.681   2.628   5.540 -1.7172  1.3710  0.8198
 8820SOL     OW38095   1.815   0.418   5.780 -0.3539 -0.5613  0.0673
 8820SOL    HW138096   1.799   0.328   5.808  1.6706 -1.0386 -0.3360
 8820SOL    HW238097   1.893   0.441   5.830 -0.4144  1.8514 -0.9344
 8821SOL     OW38098   0.176   3.588   1.741 -0.1554  0.2760  0.3077
 8821SOL    HW138099   0.183   3.666   1.796 -1.2392  0.1744  0.5863
 8821SOL    HW238100   0.083   3.595   1.721 -0.1709  0.1520  0.3397
 8822SOL     OW38101   4.625   3.188   9.066  0.6173 -1.0632  0.1539
 8822SOL    HW138102   4.666   3.180   8.980  1.5969 -0.4488  0.5662
 8822SOL    HW238103   4.597   3.100   9.089  0.5485 -0.8349  0.9651
 8823SOL     OW38104   3.351   4.504   8.178  0.3926 -0.6104 -0.0502
 8823SOL    HW138105   3.404   4.532   8.253 -1.0342 -1.3876  1.2329
 8823SOL    HW238106   3.394   4.420   8.164  2.1073  0.5536 -1.8882
 8824SOL     OW38107   1.286   0.781   8.339 -0.3746 -1.0111  0.0072
 8824SOL    HW138108   1.361   0.808   8.286 -0.3190 -0.4292  0.3966
 8824SOL    HW238109   1.288   0.847   8.407  0.4916 -1.3323  0.2955
 8825SOL     OW38110   3.521   3.067   2.719  0.4555  0.3109 -0.8741
 8825SOL    HW138111   3.469   3.040   2.795  0.2187  0.5073 -0.9638
 8825SOL    HW238112   3.536   2.982   2.676  0.4659  0.0341 -0.3152
 8826SOL     OW38113   4.623   3.354  16.543  0.1669  0.5209  0.1786
 8826SOL    HW138114   4.567   3.349  16.466  2.1490 -1.4553 -1.1281
 8826SOL    HW238115   4.619   3.263  16.573  2.9031  0.7866  1.3866
 8827SOL     OW38116   0.410   1.623   5.010 -0.4062 -0.2010  0.4327
 8827SOL    HW138117   0.449   1.702   5.047  1.8790 -1.0406 -0.2106
 8827SOL    HW238118   0.325   1.619   5.054 -0.0632  1.0944  1.2017
 8828SOL     OW38119   2.740   2.238  16.047 -0.1847  0.7424  0.1803
 8828SOL    HW138120   2.648   2.259  16.032 -0.9325 -1.3549  1.8944
 8828SOL    HW238121   2.748   2.268  16.137 -0.0259  0.0452  0.3940
 8829SOL     OW38122   0.019   0.097  16.295  0.6044  0.4405 -0.2272
 8829SOL    HW138123   4.737   0.122  16.384  1.6407 -1.3122  0.5231
 8829SOL    HW238124   4.711   0.163  16.245 -2.4015 -1.7741 -0.3047
 8830SOL     OW38125   0.029   1.273   0.649 -0.1909  0.4041 -0.2734
 8830SOL    HW138126   4.691   1.324   0.667  2.0720  2.5904  3.2602
 8830SOL    HW238127   4.730   1.185   0.646  4.2942 -1.5558 -0.9170
 8831SOL     OW38128   1.230   1.550   9.485  0.0810  0.1315  0.0457
 8831SOL    HW138129   1.145   1.591   9.501  0.2940  0.7614 -0.4218
 8831SOL    HW238130   1.227   1.480   9.551 -2.0975 -1.3414 -1.6283
 8832SOL     OW38131   4.663   4.182   7.516 -0.6860  0.0520 -0.0591
 8832SOL    HW138132   0.010   4.194   7.478  0.2714 -0.9442  1.8154
 8832SOL    HW238133   4.649   4.267   7.557 -1.5328  0.3774 -1.0212
 8833SOL     OW38134   2.025   3.709   6.758  0.0282  0.3356 -0.6419
 8833SOL    HW138135   2.017   3.700   6.852  0.8321 -0.0817 -0.6196
 8833SOL    HW238136   2.020   3.619   6.727 -2.4152  0.6240 -1.1381
 8834SOL     OW38137   2.620   1.366   9.448 -0.7132 -0.2804  0.1366
 8834SOL    HW138138   2.711   1.358   9.418 -0.9599  1.9704 -1.2616
 8834SOL    HW238139   2.636   1.363   9.543 -0.5398  0.2618  0.1272
 8835SOL     OW38140   3.804   2.526   6.813  0.0158 -0.2287  0.1917
 8835SOL    HW138141   3.836   2.611   6.784 -0.8295  0.7195  2.0772
 8835SOL    HW238142   3.888   2.480   6.805  0.7873  0.9989  1.2026
 8836SOL     OW38143   3.870   1.508   6.843 -0.2203  0.5978 -0.5446
 8836SOL    HW138144   3.882   1.591   6.795  0.5901  0.4832 -0.5362
 8836SOL    HW238145   3.794   1.526   6.898 -0.6187  0.5250 -1.0741
 8837SOL     OW38146   4.072   1.899   2.745  0.1627 -0.4326  0.9397
 8837SOL    HW138147   4.134   1.971   2.736  0.6250 -1.1739 -1.6904
 8837SOL    HW238148   4.017   1.911   2.667  1.0575 -3.3905 -0.1382
 8838SOL     OW38149   3.939   3.440   4.021 -0.4601 -0.5095 -0.3506
 8838SOL    HW138150   3.888   3.499   3.966  2.7687  1.9770 -0.6621
 8838SOL    HW238151   3.878   3.413   4.089  1.8041  1.2570  2.3810
 8839SOL     OW38152   3.015   3.022   8.181 -0.0561  0.2083 -0.3168
 8839SOL    HW138153   3.075   2.990   8.249  1.9141  0.4267 -1.9467
 8839SOL    HW238154   2.929   2.993   8.211  0.5377  0.8804  2.0235
 8840SOL     OW38155   0.929   4.511   4.003  0.2748 -0.8030 -0.2469
 8840SOL    HW138156   0.995   4.448   3.973  1.3865  0.2270  0.0200
 8840SOL    HW238157   0.953   4.589   3.952 -1.3551  0.0196  0.2654
 8841SOL     OW38158   1.900   1.792  14.820  0.0561  0.1370 -0.2339
 8841SOL    HW138159   1.994   1.774  14.820  0.3430  1.5914  2.7540
 8841SOL    HW238160   1.864   1.722  14.874  0.7361  0.6085  0.8344
 8842SOL     OW38161   1.424   2.140   0.688 -0.0060  0.1034  0.4404
 8842SOL    HW138162   1.473   2.061   0.712 -1.1789 -0.0634  2.2118
 8842SOL    HW238163   1.398   2.160   0.778  0.8818 -1.4572  1.0467
 8843SOL     OW38164   4.638   1.219  13.532  0.2263  0.1990  0.2951
 8843SOL    HW138165   4.584   1.140  13.525  0.8439 -0.3618  2.0365
 8843SOL    HW238166   4.723   1.195  13.569  0.6873 -2.2379 -2.3816
 8844SOL     OW38167   1.797   4.067   8.942  0.6776  0.0950 -0.2081
 8844SOL    HW138168   1.725   4.128   8.956 -0.3142 -0.8169 -1.4056
 8844SOL    HW238169   1.767   4.019   8.865  0.3751 -0.7524  0.4475
 8845SOL     OW38170   3.020   0.491   6.463  0.0093 -0.0168 -0.6472
 8845SOL    HW138171   3.002   0.546   6.540 -1.2067 -1.5954  0.2210
 8845SOL    HW238172   2.928   0.464   6.453  0.4750 -2.0380  0.4489
 8846SOL     OW38173   4.293   2.202  17.149 -0.2363  0.2971  0.0088
 8846SOL    HW138174   4.373   2.253  17.162 -0.0311  0.1018 -0.4894
 8846SOL    HW238175   4.312   2.122  17.200  4.5847  2.9778  2.3968
 8847SOL     OW38176   0.136   4.070  11.699 -0.1429 -0.1260  0.3401
 8847SOL    HW138177   0.177   3.985  11.715  0.8571  0.3105  0.0572
 8847SOL    HW238178   0.201   4.126  11.741  0.6542  0.0476 -1.1402
 8848SOL     OW38179   4.200   3.642  13.402  0.4389  0.4660 -0.5762
 8848SOL    HW138180   4.147   3.658  13.324 -1.2546 -1.5195  0.1607
 8848SOL    HW238181   4.165   3.695  13.474 -0.0562 -0.5393 -0.0672
 8849SOL     OW38182   1.404   2.260  10.795 -0.3239 -0.2194  0.0475
 8849SOL    HW138183   1.451   2.332  10.839  1.5487 -1.5813  0.2994
 8849SOL    HW238184   1.482   2.205  10.788  0.9860  1.3728  1.9998
 8850SOL     OW38185   4.403   4.293   5.164  0.2914  0.0830 -0.0470
 8850SOL    HW138186   4.485   4.255   5.133  0.5068  1.9341 -1.6763
 8850SOL    HW238187   4.350   4.217   5.139  0.6163 -0.9923  2.4464
 8851SOL     OW38188   4.251   1.634   6.402  0.0326 -0.4593  0.2772
 8851SOL    HW138189   4.165   1.623   6.362 -0.2286  1.0659  0.4345
 8851SOL    HW238190   4.228   1.652   6.493 -0.8564  0.7046 -0.1803
 8852SOL     OW38191   4.322   0.954   2.738  0.6198  0.1558 -0.1131
 8852SOL    HW138192   4.333   0.897   2.663 -1.1931  0.8788 -0.9349
 8852SOL    HW238193   4.406   1.000   2.737  0.7619 -0.1364 -1.3080
 8853SOL     OW38194   1.721   0.906   5.031  0.4059  0.3762  0.0303
 8853SOL    HW138195   1.785   0.919   5.102  1.7004 -0.5039 -0.9757
 8853SOL    HW238196   1.779   0.856   4.974  1.2045  0.5669  0.6830
 8854SOL     OW38197   2.584   1.930   1.665  0.5992 -0.2020 -0.1108
 8854SOL    HW138198   2.583   1.899   1.755 -3.2917  3.8985  1.2799
 8854SOL    HW238199   2.627   1.853   1.628 -0.2753 -1.2023  0.9502
 8855SOL     OW38200   3.371   0.485   2.341  0.6234  0.5017 -0.2202
 8855SOL    HW138201   3.392   0.578   2.334  2.0505  0.1922  0.0251
 8855SOL    HW238202   3.339   0.480   2.431  2.3593 -0.8666  0.3175
 8856SOL     OW38203   1.784   2.368  10.697 -0.2431  0.2323 -0.0695
 8856SOL    HW138204   1.711   2.396  10.751 -1.0856  1.5627 -1.8801
 8856SOL    HW238205   1.859   2.424  10.718  1.7540 -2.3555 -0.3336
 8857SOL     OW38206   0.379   2.152  16.714 -0.3894 -0.0794  0.0875
 8857SOL    HW138207   0.437   2.191  16.649 -1.6477  0.3644 -0.7664
 8857SOL    HW238208   0.321   2.102  16.657  0.2937 -0.4100 -0.3179
 8858SOL     OW38209   1.578   4.682  12.133  0.0630 -0.5618  0.4528
 8858SOL    HW138210   1.555   4.598  12.094  0.7848  0.0472 -1.2568
 8858SOL    HW238211   1.560   4.675  12.227 -0.4220 -1.8125  0.2664
 8859SOL     OW38212   1.620   1.653   6.474  0.0100 -0.2893 -0.1538
 8859SOL    HW138213   1.648   1.567   6.443  1.5707  0.4886 -0.8713
 8859SOL    HW238214   1.656   1.707   6.404  1.4855 -1.0553  0.0114
 8860SOL     OW38215   0.632   3.400  12.311 -0.4846 -0.1275  0.0194
 8860SOL    HW138216   0.551   3.368  12.349 -0.8421  1.3144  0.4570
 8860SOL    HW238217   0.704   3.344  12.341  0.2594 -0.4838 -2.4255
 8861SOL     OW38218   2.573   3.458   8.631  0.5067  0.2002  0.0866
 8861SOL    HW138219   2.499   3.519   8.625  1.1140  0.8795 -0.3833
 8861SOL    HW238220   2.530   3.373   8.621 -0.0650  0.4857  0.1205
 8862SOL     OW38221   0.876   1.493   6.657 -0.1206  0.1943  0.4988
 8862SOL    HW138222   0.941   1.466   6.722  1.8092  2.9537 -0.2596
 8862SOL    HW238223   0.789   1.486   6.697 -0.1173 -0.7358  0.3344
 8863SOL     OW38224   1.352   1.723   1.286  0.1616 -0.7971  0.2110
 8863SOL    HW138225   1.266   1.753   1.256 -0.3254 -0.7968  1.5709
 8863SOL    HW238226   1.340   1.707   1.380  0.2120 -1.1686  0.1539
 8864SOL     OW38227   4.531   1.486   6.666  0.1738 -0.2732 -0.0707
 8864SOL    HW138228   4.484   1.404   6.653  0.0903 -0.6088  2.3454
 8864SOL    HW238229   4.471   1.535   6.723 -2.2641  0.4030 -3.2054
 8865SOL     OW38230   3.571   2.839   2.611  0.3695 -0.3670  0.1741
 8865SOL    HW138231   3.510   2.789   2.665  1.1204 -2.4612 -0.8935
 8865SOL    HW238232   3.556   2.796   2.527 -1.3757  1.4730 -0.4646
 8866SOL     OW38233   3.675   3.338   4.096 -0.3441  0.6183  0.2081
 8866SOL    HW138234   3.663   3.385   4.014 -0.4956 -0.1485 -0.2130
 8866SOL    HW238235   3.626   3.390   4.159  0.3341  1.1672  0.2774
 8867SOL     OW38236   3.353   3.904  13.556 -0.1071 -0.0365  0.5585
 8867SOL    HW138237   3.410   3.892  13.480 -0.6971 -0.6350  0.2137
 8867SOL    HW238238   3.333   3.811  13.570 -0.4244 -0.0252  0.1752
 8868SOL     OW38239   0.861   2.723   2.622 -0.2408  0.1492  0.3222
 8868SOL    HW138240   0.888   2.777   2.696 -1.0276  0.0372  0.6820
 8868SOL    HW238241   0.783   2.675   2.650  0.8906  0.1201  3.4274
 8869SOL     OW38242   1.674   2.163   3.860 -0.2449  0.0853 -0.3191
 8869SOL    HW138243   1.641   2.141   3.947  2.2143  0.3485  0.6643
 8869SOL    HW238244   1.611   2.233   3.842 -1.8349 -0.7262  2.1462
 8870SOL     OW38245   0.606   2.891   3.814  0.1710  0.2795  0.5840
 8870SOL    HW138246   0.574   2.822   3.873 -0.4536  0.7435  0.7818
 8870SOL    HW238247   0.569   2.971   3.851  1.2599  1.3685 -0.6674
 8871SOL     OW38248   1.612   2.668   2.272 -0.3550  0.4817  0.3522
 8871SOL    HW138249   1.636   2.744   2.219  0.3702 -0.5497 -0.8162
 8871SOL    HW238250   1.525   2.685   2.306 -0.0260  4.1797 -0.7224
 8872SOL     OW38251   1.349   0.815  15.733  0.6386 -0.3056 -0.2000
 8872SOL    HW138252   1.439   0.784  15.721  0.7111  0.3299 -1.2626
 8872SOL    HW238253   1.325   0.771  15.814  0.8821  0.8512  0.5133
 8873SOL     OW38254   1.250   2.868   3.441 -0.3418  0.0216 -0.4998
 8873SOL    HW138255   1.290   2.930   3.380 -1.0656  0.0212 -0.9697
 8873SOL    HW238256   1.206   2.926   3.503  0.9851  0.0526  0.4135
 8874SOL     OW38257   0.978   3.995   7.846  0.0228  0.9716 -0.3185
 8874SOL    HW138258   0.915   3.945   7.796  1.2270  0.3647 -1.2210
 8874SOL    HW238259   1.023   4.035   7.772 -0.4946  1.7958 -0.1952
 8875SOL     OW38260   1.196   1.009   4.280  0.3304 -0.0261 -0.2800
 8875SOL    HW138261   1.234   1.092   4.309 -1.3053  0.4720  0.3994
 8875SOL    HW238262   1.155   0.977   4.360  2.4182 -2.2706 -0.1255
 8876SOL     OW38263   1.200   2.381   7.859 -0.2504  0.0031  0.0456
 8876SOL    HW138264   1.259   2.329   7.805 -2.1500 -1.1976 -0.8668
 8876SOL    HW238265   1.236   2.468   7.845  0.8461 -0.2363  1.3301
 8877SOL     OW38266   2.333   4.213   4.845 -0.3028 -0.4281 -0.0086
 8877SOL    HW138267   2.409   4.253   4.802 -1.7205  0.5013 -1.6908
 8877SOL    HW238268   2.378   4.156   4.907  0.9646 -0.1566 -0.6618
 8878SOL     OW38269   3.903   0.116   8.369 -0.7379 -0.6944 -0.0874
 8878SOL    HW138270   3.865   0.048   8.424 -1.2109  1.5581  2.3554
 8878SOL    HW238271   3.876   0.080   8.284  0.5932  1.7386 -1.5421
 8879SOL     OW38272   1.863   3.057   6.780 -0.7230 -0.0929 -0.1778
 8879SOL    HW138273   1.954   3.058   6.750 -0.7741 -1.3177 -0.3660
 8879SOL    HW238274   1.882   3.053   6.873 -1.3528  1.2741  0.0182
 8880SOL     OW38275   3.992   3.041   3.108  0.3398  0.0768  0.3187
 8880SOL    HW138276   3.984   3.106   3.037  3.1603 -0.8855 -0.8955
 8880SOL    HW238277   4.063   2.988   3.071  0.5812  0.2493  0.5354
 8881SOL     OW38278   0.737   1.771   3.563  0.2208 -0.0168  0.1861
 8881SOL    HW138279   0.647   1.773   3.596 -0.3114  0.1429 -1.2893
 8881SOL    HW238280   0.744   1.679   3.535  0.6481  0.2771 -0.6761
 8882SOL     OW38281   0.160   4.108   2.575 -0.0300 -0.3188 -0.7473
 8882SOL    HW138282   0.182   4.139   2.663 -1.5287  0.2100 -0.5724
 8882SOL    HW238283   0.225   4.040   2.557  0.8684  0.3923 -0.2408
 8883SOL     OW38284   3.521   0.534  15.579 -0.3490 -0.3226 -0.3294
 8883SOL    HW138285   3.582   0.485  15.523 -0.5106  0.8218 -1.5035
 8883SOL    HW238286   3.466   0.461  15.607 -2.4594  0.8491 -1.4395
 8884SOL     OW38287   0.371   2.327   8.071 -0.7488 -0.7617  0.0418
 8884SOL    HW138288   0.352   2.245   8.026  0.4910 -1.1646  0.2332
 8884SOL    HW238289   0.437   2.372   8.018 -1.4008 -0.7359 -0.7301
 8885SOL     OW38290   0.560   2.514   6.244 -0.5568  0.2737 -0.7970
 8885SOL    HW138291   0.642   2.479   6.209 -0.5568 -1.9948  1.3935
 8885SOL    HW238292   0.573   2.478   6.332  1.3895  1.0042 -0.7819
 8886SOL     OW38293   4.468   0.605   7.397 -0.0443  0.1290  0.4774
 8886SOL    HW138294   4.557   0.571   7.404  0.2194  1.2132  2.5017
 8886SOL    HW238295   4.445   0.568   7.312  0.1673 -0.1647  0.5482
 8887SOL     OW38296   1.132   0.646  14.565  0.8075  0.0965  0.0056
 8887SOL    HW138297   1.081   0.694  14.630  0.0142  0.7944 -1.1269
 8887SOL    HW238298   1.192   0.713  14.533  0.3523  1.1241  1.3308
 8888SOL     OW38299   3.407   3.723   7.034  0.5895 -0.2067 -0.5511
 8888SOL    HW138300   3.413   3.726   6.939  1.7405  0.5768 -0.4492
 8888SOL    HW238301   3.472   3.655   7.053  0.0273 -1.4906 -3.2004
 8889SOL     OW38302   3.814   0.084   4.594  0.5789 -0.2056  0.2215
 8889SOL    HW138303   3.756   0.111   4.522  3.1086 -0.1310 -1.8293
 8889SOL    HW238304   3.881   0.065   4.527  1.0814  2.4594 -0.0567
 8890SOL     OW38305   1.119   3.664   6.933  0.3327 -0.4297  0.2670
 8890SOL    HW138306   1.147   3.755   6.924 -0.5483 -0.1296  0.6077
 8890SOL    HW238307   1.073   3.667   7.016  1.2888 -0.8831  0.8073
 8891SOL     OW38308   4.538   3.612   0.265  0.0327 -0.0982  0.0370
 8891SOL    HW138309   4.450   3.618   0.303  0.1181  1.0317  0.0563
 8891SOL    HW238310   4.527   3.665   0.186  1.3127  0.2523  0.0969
 8892SOL     OW38311   2.705   2.167   2.234 -0.6471 -0.5644 -0.2350
 8892SOL    HW138312   2.643   2.239   2.238 -2.0426 -1.6815 -1.9240
 8892SOL    HW238313   2.664   2.098   2.286 -1.2952  0.4466  0.6012
 8893SOL     OW38314   0.797   3.360   3.642 -0.3906  0.1875 -0.1111
 8893SOL    HW138315   0.789   3.266   3.652  1.9624 -0.0857 -0.9357
 8893SOL    HW238316   0.712   3.392   3.673 -1.5536 -2.8568 -0.1768
 8894SOL     OW38317   4.674   1.869   3.674 -0.2129  0.2080 -0.2197
 8894SOL    HW138318   0.017   1.876   3.723 -0.1816 -0.2236 -0.2093
 8894SOL    HW238319   4.692   1.917   3.594 -0.0080  0.5541  0.0339
 8895SOL     OW38320   3.466   0.907   7.641 -0.0744  0.1397 -0.6442
 8895SOL    HW138321   3.469   0.974   7.709  0.3044 -0.5461  0.0221
 8895SOL    HW238322   3.481   0.828   7.693  1.5008  0.8688  0.0121
 8896SOL     OW38323   1.528   0.136   3.522 -0.5683 -1.0408  1.0468
 8896SOL    HW138324   1.508   0.189   3.446 -0.7951 -0.5783  1.4305
 8896SOL    HW238325   1.551   0.203   3.587  1.4884 -2.0938  1.4260
 8897SOL     OW38326   3.519   1.538   7.320  0.7565  0.2466  0.3597
 8897SOL    HW138327   3.433   1.559   7.285 -1.0742 -2.0125  3.4671
 8897SOL    HW238328   3.541   1.463   7.264  2.0174 -0.5410  1.8974
 8898SOL     OW38329   2.420   0.144   3.740 -0.5221 -0.1318 -0.2962
 8898SOL    HW138330   2.441   0.115   3.829 -0.0378  1.4100  0.0919
 8898SOL    HW238331   2.497   0.198   3.725  0.0911 -1.4665 -1.9402
 8899SOL     OW38332   3.634   0.183   2.073  0.6223  0.4931  0.2140
 8899SOL    HW138333   3.612   0.220   2.158 -0.9532 -0.4426  0.2180
 8899SOL    HW238334   3.550   0.162   2.033  1.8891 -2.6294 -0.8626
 8900SOL     OW38335   4.114   2.125  14.378  0.0932  0.2788  0.2965
 8900SOL    HW138336   4.074   2.039  14.385  1.8850 -0.5679  0.0908
 8900SOL    HW238337   4.047   2.182  14.417  0.6396  1.5423 -0.5952
 8901SOL     OW38338   3.612   1.766  14.301 -0.0381  0.5360  0.0513
 8901SOL    HW138339   3.561   1.696  14.260  1.7767 -1.5625  1.3844
 8901SOL    HW238340   3.625   1.834  14.234  2.3963  0.5773  0.5631
 8902SOL     OW38341   1.441   1.777   2.513  0.7624 -0.4142  0.6477
 8902SOL    HW138342   1.473   1.713   2.576 -3.3969 -2.0243  1.1771
 8902SOL    HW238343   1.518   1.832   2.505  0.5923  0.0192  1.9590
 8903SOL     OW38344   0.254   2.629   4.727  0.1176 -0.6316  0.5438
 8903SOL    HW138345   0.215   2.714   4.747  0.9761  0.0806 -0.8294
 8903SOL    HW238346   0.199   2.574   4.784 -1.3467 -0.4498 -0.6792
 8904SOL     OW38347   4.266   1.546   0.126  0.2625 -0.3263 -0.0175
 8904SOL    HW138348   4.293   1.622   0.176 -1.1794  0.8364 -1.0063
 8904SOL    HW238349   4.233   1.597   0.051  3.0644  2.1732  0.4471
 8905SOL     OW38350   2.995   1.358   7.338 -0.1685 -0.1084 -0.2237
 8905SOL    HW138351   3.035   1.350   7.424 -1.5004  2.3128  0.6004
 8905SOL    HW238352   2.914   1.324   7.374 -0.3331 -1.7094 -2.0902
 8906SOL     OW38353   2.402   2.963   5.274 -0.1439 -0.0567  0.4710
 8906SOL    HW138354   2.381   2.872   5.254 -0.2676  0.2805 -1.0004
 8906SOL    HW238355   2.425   2.955   5.366 -3.4177  1.8120  1.4577
 8907SOL     OW38356   1.561   1.702  16.861 -0.0498  0.4313 -0.1376
 8907SOL    HW138357   1.600   1.790  16.858 -0.2911  0.4433 -3.3424
 8907SOL    HW238358   1.475   1.721  16.824 -1.1747  0.9171  2.7672
 8908SOL     OW38359   2.374   3.581   3.444 -0.1262  0.2968 -0.0456
 8908SOL    HW138360   2.324   3.522   3.501 -0.6319 -0.7889 -1.6175
 8908SOL    HW238361   2.381   3.663   3.494 -1.8515  0.5699 -0.2233
 8909SOL     OW38362   4.497   2.822  13.536  0.6944  0.4128 -0.1698
 8909SOL    HW138363   4.489   2.869  13.619  2.0422  0.6448 -0.1656
 8909SOL    HW238364   4.535   2.741  13.570  0.0025 -0.1118 -0.6445
 8910SOL     OW38365   3.907   2.232   3.587 -0.2848 -0.4593  0.5491
 8910SOL    HW138366   3.899   2.230   3.492  1.1510  1.5131  0.3957
 8910SOL    HW238367   3.836   2.292   3.611 -1.3845 -1.3370 -0.5155
 8911SOL     OW38368   1.323   3.861   9.526  0.7609 -0.0329 -0.5041
 8911SOL    HW138369   1.378   3.936   9.506  0.6468 -0.1634 -1.3114
 8911SOL    HW238370   1.370   3.798   9.471  0.4606 -0.6150 -0.1047
 8912SOL     OW38371   0.316   3.106   7.322  0.0534 -0.5106  0.4672
 8912SOL    HW138372   0.226   3.120   7.350 -0.6603 -2.3135 -0.9031
 8912SOL    HW238373   0.362   3.183   7.353 -3.7602  0.5458  3.4459
 8913SOL     OW38374   4.029   3.985  11.642 -0.0622  0.5376  0.0062
 8913SOL    HW138375   3.968   3.913  11.659  2.3050 -1.3600  0.5149
 8913SOL    HW238376   3.977   4.021  11.570  0.1378  0.3136 -0.2518
 8914SOL     OW38377   3.843   4.197   7.885  0.3437 -0.1881  0.3519
 8914SOL    HW138378   3.848   4.271   7.824  3.1021 -1.5984 -1.1576
 8914SOL    HW238379   3.828   4.245   7.966  0.9829  0.0970  0.3040
 8915SOL     OW38380   1.326   1.702   9.671 -0.4400 -0.1878 -0.6495
 8915SOL    HW138381   1.296   1.640   9.604  0.3496 -2.5682  1.1922
 8915SOL    HW238382   1.417   1.724   9.654  0.0732 -2.3443 -0.7893
 8916SOL     OW38383   2.374   1.544   7.857 -0.0063  0.2069 -0.0761
 8916SOL    HW138384   2.295   1.581   7.896  0.7480  0.1309  1.5642
 8916SOL    HW238385   2.381   1.454   7.887 -0.4965 -0.4649 -2.0192
 8917SOL     OW38386   2.186   2.229   2.732 -0.1540 -0.6737 -0.1233
 8917SOL    HW138387   2.181   2.245   2.827  0.6663 -2.6015  0.2379
 8917SOL    HW238388   2.244   2.300   2.705  0.0702 -0.3649  1.1439
 8918SOL     OW38389   0.589   4.585   7.365  0.2243  0.3754  0.2788
 8918SOL    HW138390   0.546   4.608   7.447 -0.2275 -2.8812  0.9729
 8918SOL    HW238391   0.596   4.672   7.327  0.3826  0.4221  0.4158
 8919SOL     OW38392   0.553   0.281   5.879 -0.4236 -0.2148  0.0254
 8919SOL    HW138393   0.502   0.303   5.801  1.5205 -0.8549 -1.4223
 8919SOL    HW238394   0.479   0.258   5.937  0.8677 -0.8666  1.4270
 8920SOL     OW38395   0.650   4.142   1.675  0.2485  0.0965 -0.2902
 8920SOL    HW138396   0.611   4.055   1.681 -0.6444  0.5833  1.0742
 8920SOL    HW238397   0.705   4.117   1.601  2.7503  1.4110  1.1269
 8921SOL     OW38398   0.890   0.049   8.280  0.1047  0.5445 -0.2962
 8921SOL    HW138399   0.915   4.726   8.347  0.1446  1.2115  0.3018
 8921SOL    HW238400   0.949   0.026   8.207  0.8384  1.1168  0.1250
 8922SOL     OW38401   0.777   1.641   1.376 -0.3740  0.6677  0.5217
 8922SOL    HW138402   0.692   1.598   1.380 -0.5619  1.1084  1.4709
 8922SOL    HW238403   0.813   1.599   1.454 -1.0960  0.0522  0.5187
 8923SOL     OW38404   0.376   0.860   3.251 -0.1116  0.0634 -0.0730
 8923SOL    HW138405   0.407   0.833   3.337 -1.5809  2.1057  1.0847
 8923SOL    HW238406   0.424   0.940   3.229 -1.0487  0.6372 -0.0424
 8924SOL     OW38407   0.486   2.535   2.894 -0.0289  0.2327  0.3190
 8924SOL    HW138408   0.401   2.580   2.898  0.0327  0.4727 -0.8746
 8924SOL    HW238409   0.460   2.471   2.960 -0.5695 -0.9360 -1.0289
 8925SOL     OW38410   3.865   2.702   9.080 -0.6423 -0.0883 -0.2290
 8925SOL    HW138411   3.897   2.634   9.139 -0.0276  2.5524  2.5289
 8925SOL    HW238412   3.921   2.671   9.009 -1.3501  0.1747 -0.8900
 8926SOL     OW38413   0.079   4.619  12.749 -0.3890 -0.0644  0.4449
 8926SOL    HW138414   0.157   4.672  12.735 -0.7465  0.4829  0.5382
 8926SOL    HW238415   0.109   4.578  12.830 -0.7405 -2.3831 -0.6024
 8927SOL     OW38416   2.885   2.881   6.489  0.1619  0.1253 -0.2035
 8927SOL    HW138417   2.907   2.788   6.480 -3.0558 -0.3566 -2.7034
 8927SOL    HW238418   2.935   2.915   6.564 -0.7688 -0.4856  0.6933
 8928SOL     OW38419   1.351   3.788   1.827  0.1765 -0.0447  0.1991
 8928SOL    HW138420   1.443   3.806   1.849 -0.2481  1.4353  0.7845
 8928SOL    HW238421   1.312   3.854   1.885 -1.6483  0.4207 -1.5669
 8929SOL     OW38422   3.999   2.449   4.819  0.5125  0.0200 -0.1805
 8929SOL    HW138423   3.924   2.478   4.871  1.6639  1.0977  0.8745
 8929SOL    HW238424   4.020   2.358   4.839  0.6953  0.0227 -0.3573
 8930SOL     OW38425   1.760   4.352   3.039 -0.3017 -0.4695 -0.1600
 8930SOL    HW138426   1.700   4.426   3.048  0.4275 -0.2451  2.8335
 8930SOL    HW238427   1.724   4.300   3.110  0.6243  0.7335  1.1957
 8931SOL     OW38428   1.486   3.486   9.201  0.3620  0.6712 -0.1824
 8931SOL    HW138429   1.540   3.539   9.142  0.6564  0.2870 -0.2554
 8931SOL    HW238430   1.546   3.412   9.210 -0.4501  0.3261  2.5224
 8932SOL     OW38431   2.592   3.443   8.258 -0.5856  0.2672 -0.1625
 8932SOL    HW138432   2.590   3.350   8.279 -2.5301  0.4553  0.5764
 8932SOL    HW238433   2.615   3.430   8.166 -2.8697  2.0585 -0.9897
 8933SOL     OW38434   1.637   4.593   3.141  0.1852 -0.5492  0.1809
 8933SOL    HW138435   1.548   4.576   3.171 -1.1033  1.0008 -2.8176
 8933SOL    HW238436   1.625   4.669   3.084  0.1839 -0.0452  0.8523
 8934SOL     OW38437   3.093   0.377   4.471  0.2206 -0.0316 -0.6416
 8934SOL    HW138438   3.134   0.370   4.385  0.1155 -0.0634 -0.6888
 8934SOL    HW238439   3.156   0.436   4.514 -1.2898 -0.1893  1.8050
 8935SOL     OW38440   1.831   3.941   5.671 -0.0739  0.1355 -0.0952
 8935SOL    HW138441   1.819   3.959   5.578 -0.1883  0.2700 -0.0538
 8935SOL    HW238442   1.756   3.883   5.687  1.4199 -1.4265  1.2528
 8936SOL     OW38443   1.585   3.304   9.460  0.3609 -0.1642  0.6422
 8936SOL    HW138444   1.634   3.293   9.378  1.7741 -1.0886  1.6121
 8936SOL    HW238445   1.575   3.399   9.465  0.2427 -0.1931  0.9176
 8937SOL     OW38446   3.599   3.617   8.434  0.8562  0.1105 -0.0448
 8937SOL    HW138447   3.552   3.561   8.373  1.9750 -1.3472  0.4269
 8937SOL    HW238448   3.531   3.680   8.459 -0.9031 -1.0826 -1.8507
 8938SOL     OW38449   0.102   2.905  13.182  0.8420 -0.0539  0.0845
 8938SOL    HW138450   0.180   2.867  13.143  1.1782  1.1839 -0.4535
 8938SOL    HW238451   0.071   2.972  13.121  2.9529  1.1787  0.3689
 8939SOL     OW38452   1.729   3.844  11.187  0.2618 -0.0422 -0.0273
 8939SOL    HW138453   1.805   3.902  11.175 -1.4134  1.8128 -1.7314
 8939SOL    HW238454   1.755   3.773  11.129 -0.9698 -0.5137  0.0123
 8940SOL     OW38455   1.704   1.033   1.832 -0.5868  0.2866 -0.5241
 8940SOL    HW138456   1.662   0.949   1.812  0.3996 -0.8387  2.1711
 8940SOL    HW238457   1.624   1.085   1.826 -0.4804  0.4670 -0.3594
 8941SOL     OW38458   2.161   3.209   4.924 -0.2248  0.4966 -0.9968
 8941SOL    HW138459   2.211   3.221   5.005 -0.4482 -2.7088 -0.3963
 8941SOL    HW238460   2.076   3.186   4.962  0.7727 -0.0894  0.9008
 8942SOL     OW38461   4.162   0.342   7.368  0.1910 -0.2687 -0.0187
 8942SOL    HW138462   4.134   0.267   7.314 -0.3427  1.6900 -2.4458
 8942SOL    HW238463   4.081   0.362   7.415 -0.9686 -1.2012 -1.5738
 8943SOL     OW38464   2.443   0.976   7.363 -1.2723  0.0530  0.3251
 8943SOL    HW138465   2.352   0.957   7.342 -0.9763 -1.2866  0.2386
 8943SOL    HW238466   2.457   1.065   7.331  0.7149 -1.2383 -2.3107
 8944SOL     OW38467   2.624   2.315   8.211  0.2477  0.1949 -0.6504
 8944SOL    HW138468   2.665   2.321   8.125 -2.5239 -2.5502 -2.1867
 8944SOL    HW238469   2.664   2.390   8.256  0.1332 -0.5808  0.7218
 8945SOL     OW38470   2.552   1.922   7.177  0.5961  0.4576  0.2779
 8945SOL    HW138471   2.506   1.922   7.261 -0.5379  0.6586 -0.3509
 8945SOL    HW238472   2.537   2.015   7.157 -2.1492 -0.5179 -2.1469
 8946SOL     OW38473   1.136   1.259  15.612 -0.4261 -0.8989  0.1226
 8946SOL    HW138474   1.078   1.219  15.677  0.6638 -0.9894  1.0541
 8946SOL    HW238475   1.114   1.351  15.624  1.7307 -0.3497 -0.0871
 8947SOL     OW38476   2.867   2.084   1.497 -0.4374 -0.2405 -0.0408
 8947SOL    HW138477   2.952   2.128   1.503 -0.1228 -0.9003  0.3208
 8947SOL    HW238478   2.830   2.073   1.585 -0.3249  1.1835  0.1867
 8948SOL     OW38479   4.682   4.455   4.087  0.0344 -0.3939  0.4785
 8948SOL    HW138480   4.665   4.392   4.017 -0.7963  0.6051 -0.2208
 8948SOL    HW238481   4.722   4.531   4.044 -2.3109 -0.9075 -2.6052
 8949SOL     OW38482   2.523   4.314  15.423 -0.0111 -0.1694 -0.5336
 8949SOL    HW138483   2.539   4.220  15.428 -0.7532 -0.1767  1.8008
 8949SOL    HW238484   2.553   4.327  15.333 -0.7834 -0.4426 -0.8342
 8950SOL     OW38485   1.339   1.979   3.917  0.3260  0.0688  0.0391
 8950SOL    HW138486   1.412   1.948   3.863  1.3206  3.2071 -0.3880
 8950SOL    HW238487   1.265   1.939   3.871 -0.5687 -1.5686  2.8450
 8951SOL     OW38488   3.361   2.956   2.922  0.2264  0.5108  0.2422
 8951SOL    HW138489   3.322   2.989   3.004  2.0310  0.4466  1.1215
 8951SOL    HW238490   3.324   2.868   2.927  0.9305  0.2016 -0.1020
 8952SOL     OW38491   2.859   4.587   4.206 -0.1134  0.5621  0.2999
 8952SOL    HW138492   2.895   4.527   4.271 -1.9616 -0.6393  0.2301
 8952SOL    HW238493   2.853   4.531   4.129  0.9791  2.0865 -0.8943
 8953SOL     OW38494   1.962   0.772  10.031  0.2414  0.2861 -0.6450
 8953SOL    HW138495   1.930   0.690   9.993 -1.2608  1.2067 -1.3369
 8953SOL    HW238496   1.878   0.817  10.038  0.7221  1.2651 -1.1829
 8954SOL     OW38497   0.845   4.726   7.479  0.0518  0.5839  0.0850
 8954SOL    HW138498   0.860   4.664   7.551 -1.8692  0.0436  0.0214
 8954SOL    HW238499   0.761   0.027   7.500 -0.1380  0.3244 -0.1753
 8955SOL     OW38500   0.705   4.633   8.546  0.4070  0.3739  0.5029
 8955SOL    HW138501   0.609   4.632   8.550  0.3439  0.5744 -0.7109
 8955SOL    HW238502   0.718   4.728   8.555  2.8113 -0.1090  1.9867
 8956SOL     OW38503   4.472   1.214   6.600  0.3485 -0.2218 -0.4938
 8956SOL    HW138504   4.414   1.198   6.525  0.2566 -2.2692  0.0312
 8956SOL    HW238505   4.553   1.216   6.548  1.1313  0.1724  0.7355
 8957SOL     OW38506   3.711   2.683   6.033  0.0405  0.1868 -0.2083
 8957SOL    HW138507   3.649   2.733   6.086  1.6443  0.1215  1.6926
 8957SOL    HW238508   3.755   2.622   6.092 -0.2032 -0.1491 -0.3751
 8958SOL     OW38509   3.170   1.403   7.963 -0.2282 -0.3765 -0.2706
 8958SOL    HW138510   3.174   1.485   8.011 -0.6555 -0.1889 -0.5622
 8958SOL    HW238511   3.256   1.403   7.921 -0.3240  1.9769 -0.4161
 8959SOL     OW38512   0.906   2.390  17.383  0.0184 -0.0039 -0.2606
 8959SOL    HW138513   0.884   2.310  17.432 -1.1076 -0.0633 -0.8545
 8959SOL    HW238514   0.886   2.451  17.454  2.9933 -1.0196  1.4684
 8960SOL     OW38515   2.432   1.740   4.325  0.1207 -0.4687  0.3853
 8960SOL    HW138516   2.521   1.764   4.349  0.7307 -1.7517 -0.6300
 8960SOL    HW238517   2.437   1.713   4.234 -1.1153 -0.5491  0.3310
 8961SOL     OW38518   3.946   1.166   4.296 -0.2503  0.0707  0.5629
 8961SOL    HW138519   4.010   1.094   4.300  2.2454  2.1751 -1.5353
 8961SOL    HW238520   3.874   1.110   4.266  0.7877 -0.9910  0.0488
 8962SOL     OW38521   0.173   4.527   8.005 -0.8791  0.0655 -0.0200
 8962SOL    HW138522   0.217   4.592   7.951  2.0139 -2.6560 -0.9431
 8962SOL    HW238523   0.201   4.450   7.956  0.1047  1.1809 -1.1832
 8963SOL     OW38524   1.748   0.800  12.378 -0.8955 -0.5001 -0.0883
 8963SOL    HW138525   1.681   0.868  12.372  0.8666  1.2147 -0.4636
 8963SOL    HW238526   1.739   0.784  12.472  1.5275 -0.0686  0.2230
 8964SOL     OW38527   3.994   3.943   2.710 -1.0579 -0.2791  0.2485
 8964SOL    HW138528   3.959   3.886   2.778 -1.8704 -1.5230 -1.2046
 8964SOL    HW238529   3.955   4.025   2.740 -0.3382  1.4614 -3.5963
 8965SOL     OW38530   4.468   3.298   7.236  0.5743  0.5213  0.2543
 8965SOL    HW138531   4.547   3.283   7.184  0.1611 -1.6902  0.2669
 8965SOL    HW238532   4.507   3.328   7.319 -2.7402  1.8654  1.2994
 8966SOL     OW38533   2.017   1.494   9.046  0.0474  0.1152 -0.6321
 8966SOL    HW138534   2.022   1.434   9.120  1.4814 -0.0158 -0.8455
 8966SOL    HW238535   1.922   1.508   9.049  0.3032  1.2594  2.5374
 8967SOL     OW38536   1.403   3.436  11.494  0.1361 -0.1462  0.5029
 8967SOL    HW138537   1.334   3.476  11.442 -0.8400 -0.6936  1.3944
 8967SOL    HW238538   1.477   3.478  11.451 -0.1696 -0.7330 -0.6059
 8968SOL     OW38539   1.071   1.740  17.528  0.0642  0.0030 -1.4461
 8968SOL    HW138540   1.094   1.818  17.579 -1.7182  0.8655 -1.9624
 8968SOL    HW238541   1.157   1.700  17.515 -0.4447 -1.9494  1.2017
 8969SOL     OW38542   2.161   3.851   0.871  1.0425  0.0050  0.4720
 8969SOL    HW138543   2.225   3.916   0.841  1.7829  0.0723  2.1910
 8969SOL    HW238544   2.150   3.889   0.958  1.3297  0.2604  0.3968
 8970SOL     OW38545   0.032   3.305   2.588 -0.5265  0.5784  0.3407
 8970SOL    HW138546   4.703   3.359   2.626 -0.8702  0.4644 -0.1149
 8970SOL    HW238547   4.736   3.216   2.587 -2.8481  1.5086 -1.8054
 8971SOL     OW38548   1.778   0.050   3.452  0.2460  0.1532  0.3042
 8971SOL    HW138549   1.692   0.077   3.483 -0.3087  1.3354 -2.2185
 8971SOL    HW238550   1.756   4.698   3.434  0.6473  0.2246 -0.5605
 8972SOL     OW38551   1.518   0.806   2.562 -0.0404 -0.0755  0.4258
 8972SOL    HW138552   1.522   0.899   2.585 -0.2520  0.5699 -2.2091
 8972SOL    HW238553   1.593   0.766   2.606  0.1761  0.6585  0.7195
 8973SOL     OW38554   3.825   3.101  13.932  0.2582 -0.2564  0.2719
 8973SOL    HW138555   3.881   3.114  13.856  0.8995 -2.6419  0.3342
 8973SOL    HW238556   3.848   3.177  13.985 -0.4062  0.0704  0.0950
 8974SOL     OW38557   3.183   3.092   3.683  0.1387  0.3817 -0.4179
 8974SOL    HW138558   3.253   3.154   3.661  0.8178  0.0025  0.6635
 8974SOL    HW238559   3.129   3.163   3.718  0.6045  0.7445 -0.4348
 8975SOL     OW38560   1.224   4.031  16.334 -0.3537 -0.4201 -0.2581
 8975SOL    HW138561   1.288   4.006  16.401  0.6634  1.0925 -0.6660
 8975SOL    HW238562   1.159   3.965  16.357 -0.5324 -0.1873 -0.0876
 8976SOL     OW38563   1.878   1.249   3.241 -0.1588 -0.0028 -0.3991
 8976SOL    HW138564   1.832   1.332   3.232 -3.0792 -1.7227 -1.3639
 8976SOL    HW238565   1.951   1.267   3.301  0.0602  0.8911 -0.9408
 8977SOL     OW38566   1.921   2.526   3.812 -0.3906 -0.3054 -0.5183
 8977SOL    HW138567   1.987   2.568   3.868 -1.4575 -0.7564  1.0791
 8977SOL    HW238568   1.837   2.560   3.843  0.4991  0.0401  1.5495
 8978SOL     OW38569   4.414   4.337   2.059 -0.2485 -0.1725  0.2525
 8978SOL    HW138570   4.393   4.306   2.147 -1.1009  1.9111  0.7806
 8978SOL    HW238571   4.329   4.333   2.016 -0.3017 -0.5747  0.3912
 8979SOL     OW38572   3.900   1.334   3.344  0.1374  0.8071  0.1447
 8979SOL    HW138573   3.991   1.309   3.334  0.1366  1.2065 -0.8354
 8979SOL    HW238574   3.893   1.378   3.260 -1.1906  1.8383  0.7837
 8980SOL     OW38575   3.691   1.831   7.818  0.2713 -0.6138 -0.3899
 8980SOL    HW138576   3.609   1.833   7.767 -0.1502  0.1322  0.3174
 8980SOL    HW238577   3.750   1.882   7.763 -0.1368  0.3531  0.0781
 8981SOL     OW38578   0.148   4.658  12.302  0.0895 -0.4702  0.0104
 8981SOL    HW138579   0.189   4.624  12.381 -0.2106 -2.0599 -0.5037
 8981SOL    HW238580   0.104   0.001  12.323 -1.9884 -2.2060  2.4781
 8982SOL     OW38581   3.887   1.145  11.283 -0.2219 -0.4293 -0.6104
 8982SOL    HW138582   3.921   1.212  11.224 -0.7568  1.2906  1.0504
 8982SOL    HW238583   3.805   1.182  11.315  0.0175  1.0278 -1.6619
 8983SOL     OW38584   1.165   3.264   3.404 -0.2622 -0.1491 -0.2374
 8983SOL    HW138585   1.084   3.308   3.378  0.9395  2.8231  0.9981
 8983SOL    HW238586   1.207   3.213   3.334 -1.2476 -0.1172 -0.8559
 8984SOL     OW38587   4.173   2.269  16.784  0.1645 -0.4332  0.2573
 8984SOL    HW138588   4.250   2.253  16.729  1.3851  2.1759  1.2463
 8984SOL    HW238589   4.169   2.199  16.849 -0.8166  1.6260  2.4086
 8985SOL     OW38590   2.860   2.766   4.517  0.1415  0.2873 -0.8133
 8985SOL    HW138591   2.863   2.826   4.442  0.4451 -0.1019 -1.1139
 8985SOL    HW238592   2.858   2.830   4.588  0.2000 -0.8668  0.2348
 8986SOL     OW38593   1.239   3.482   6.024 -0.6156  0.5123 -0.3139
 8986SOL    HW138594   1.168   3.421   6.042 -0.1931  0.6524  1.8863
 8986SOL    HW238595   1.282   3.474   6.110  0.6251  0.1681 -0.9627
 8987SOL     OW38596   4.494   0.651   4.965 -0.0629  0.8038 -0.4078
 8987SOL    HW138597   4.539   0.731   4.937  1.6215  1.3492  3.8942
 8987SOL    HW238598   4.574   0.603   4.987 -0.8162 -1.5398 -2.7247
 8988SOL     OW38599   0.496   0.942   5.968 -0.0141 -0.2861 -0.3725
 8988SOL    HW138600   0.512   0.848   5.956 -0.9343 -0.5578  0.5239
 8988SOL    HW238601   0.573   0.978   5.924 -0.7683  0.8111 -0.7888
 8989SOL     OW38602   2.837   0.252   6.927 -0.2223  0.2886  0.2166
 8989SOL    HW138603   2.864   0.340   6.953 -1.1200  0.6239  0.0212
 8989SOL    HW238604   2.903   0.223   6.864 -2.0614  0.1644 -1.6170
 8990SOL     OW38605   1.206   0.259   3.755 -0.1077  0.0596  0.4542
 8990SOL    HW138606   1.138   0.283   3.692 -1.2531 -1.4840  1.0960
 8990SOL    HW238607   1.234   0.344   3.789 -0.7872  0.2242  0.5852
 8991SOL     OW38608   3.598   1.126   2.312  0.3801  0.1553 -0.0642
 8991SOL    HW138609   3.566   1.099   2.226  1.2888  1.8882 -0.9697
 8991SOL    HW238610   3.540   1.080   2.372  1.9811  1.7219  2.6832
 8992SOL     OW38611   1.618   3.238   1.612  0.6141 -0.5000 -0.0686
 8992SOL    HW138612   1.577   3.202   1.691  1.2260 -0.7352  0.1433
 8992SOL    HW238613   1.679   3.167   1.591  1.4915  0.6833 -1.5591
 8993SOL     OW38614   2.176   1.439  13.662 -0.1497 -0.2818 -0.1750
 8993SOL    HW138615   2.111   1.373  13.637  0.4187 -1.1260  0.5662
 8993SOL    HW238616   2.172   1.488  13.580 -0.9105 -0.7368 -0.4111
 8994SOL     OW38617   2.757   4.546   3.281 -0.0437 -0.4102 -0.0017
 8994SOL    HW138618   2.850   4.559   3.300 -0.1885  1.3060 -0.3953
 8994SOL    HW238619   2.769   4.487   3.207 -1.0554  0.0281 -0.5194
 8995SOL     OW38620   3.537   1.479   8.664 -0.3008  0.5472  0.0607
 8995SOL    HW138621   3.546   1.397   8.712 -0.2738  0.5923  0.1312
 8995SOL    HW238622   3.616   1.473   8.610 -0.9715 -0.4952 -0.8148
 8996SOL     OW38623   3.592   4.519  11.221  0.3455  0.1204  0.2628
 8996SOL    HW138624   3.585   4.487  11.311  1.5265 -0.3036  0.1989
 8996SOL    HW238625   3.573   4.609  11.249  0.1822  0.7034 -1.6885
 8997SOL     OW38626   0.233   3.242   0.549  0.7945  0.5968 -0.1690
 8997SOL    HW138627   0.151   3.287   0.568  0.5177  0.2176 -0.4566
 8997SOL    HW238628   0.251   3.268   0.459 -1.1438 -2.8949 -1.5678
 8998SOL     OW38629   1.327   1.953  10.887 -0.3425 -0.0013  0.3176
 8998SOL    HW138630   1.248   2.004  10.873 -1.0737 -1.8588 -2.2187
 8998SOL    HW238631   1.386   2.017  10.928  0.6339 -0.7068  0.0209
 8999SOL     OW38632   2.057   1.356   5.205 -0.2445  0.2331  0.0552
 8999SOL    HW138633   2.119   1.317   5.267  1.7195  1.3031 -1.1909
 8999SOL    HW238634   2.041   1.446   5.236 -1.7383 -0.2624  0.6974
 9000SOL     OW38635   3.715   0.742   0.587  0.4569  0.7943 -0.2895
 9000SOL    HW138636   3.786   0.712   0.530  1.3491 -1.1768  1.8967
 9000SOL    HW238637   3.772   0.788   0.648  0.2713 -1.6437  1.7439
 9001SOL     OW38638   0.821   3.206   8.765 -0.5121 -0.4702  0.1734
 9001SOL    HW138639   0.848   3.242   8.680 -0.9153  2.2071  1.1628
 9001SOL    HW238640   0.734   3.177   8.737 -0.5395  0.1234 -0.3690
 9002SOL     OW38641   3.786   4.146  10.551  0.0402 -0.2063 -0.3330
 9002SOL    HW138642   3.726   4.197  10.605  0.1130 -0.9206  0.4251
 9002SOL    HW238643   3.724   4.089  10.506  0.8241  0.3090 -2.0868
 9003SOL     OW38644   3.159   3.578   4.223 -0.2252  0.0732  0.1420
 9003SOL    HW138645   3.131   3.670   4.229  1.8690  0.7170 -0.0586
 9003SOL    HW238646   3.119   3.567   4.136  0.1546  1.1757 -0.1742
 9004SOL     OW38647   2.419   3.092   6.936 -0.1201 -0.2585  0.1469
 9004SOL    HW138648   2.373   3.164   6.980 -1.9633 -1.1681 -0.3018
 9004SOL    HW238649   2.502   3.140   6.928 -0.3433  0.4958  2.1473
 9005SOL     OW38650   1.290   3.541   4.799 -0.4530  0.3833  0.4044
 9005SOL    HW138651   1.261   3.541   4.891 -2.1231  2.8674 -0.1280
 9005SOL    HW238652   1.321   3.630   4.783 -0.5674  0.5521  1.1175
 9006SOL     OW38653   3.652   3.677   6.664  1.0854  0.6344  1.0988
 9006SOL    HW138654   3.710   3.633   6.603 -0.0319  1.0993 -0.3106
 9006SOL    HW238655   3.719   3.740   6.691  2.0773 -0.8848  2.1236
 9007SOL     OW38656   3.974   4.073   5.948 -0.4007  0.6443  0.0905
 9007SOL    HW138657   3.940   4.156   5.980  0.4314  1.2246 -0.5561
 9007SOL    HW238658   3.890   4.028   5.963  0.1208  0.1082  1.4983
 9008SOL     OW38659   0.255   3.737   2.863 -0.2312 -0.3066  0.2196
 9008SOL    HW138660   0.262   3.831   2.883  0.9659 -0.4770  0.5964
 9008SOL    HW238661   0.171   3.742   2.817 -0.5396 -2.6921  0.5084
 9009SOL     OW38662   2.363   2.429   2.747 -0.0297 -0.5261  0.5539
 9009SOL    HW138663   2.296   2.482   2.791  0.2925 -0.2923  0.7571
 9009SOL    HW238664   2.407   2.497   2.696 -1.1736 -1.9151 -2.2748
 9010SOL     OW38665   2.678   0.827  10.617 -0.1368  0.3423 -0.1770
 9010SOL    HW138666   2.597   0.877  10.623 -1.0371 -1.0010 -0.9131
 9010SOL    HW238667   2.651   0.741  10.649  0.2154  0.3512  0.1398
 9011SOL     OW38668   0.794   1.412   5.668 -0.1685 -0.0633 -0.2054
 9011SOL    HW138669   0.766   1.464   5.593 -0.6908 -1.2529 -0.8168
 9011SOL    HW238670   0.879   1.456   5.673  0.0496 -0.4974 -0.1257
 9012SOL     OW38671   3.418   1.571   5.680 -0.0846  0.1969  0.2047
 9012SOL    HW138672   3.473   1.499   5.711 -1.3855 -1.1700 -0.6372
 9012SOL    HW238673   3.416   1.554   5.585  0.7765 -0.5302  0.3190
 9013SOL     OW38674   1.318   3.599   1.470 -0.8986  0.0033 -0.1962
 9013SOL    HW138675   1.279   3.522   1.427 -1.3028 -0.2380  0.6061
 9013SOL    HW238676   1.244   3.632   1.519 -1.5360 -0.0745 -1.1073
 9014SOL     OW38677   1.883   0.166   2.387  0.5613  0.2374 -0.2770
 9014SOL    HW138678   1.968   0.200   2.415 -0.2368  1.5933  0.4901
 9014SOL    HW238679   1.907   0.082   2.347  1.2543 -0.8266  2.3812
 9015SOL     OW38680   3.395   1.326  15.660 -0.0254  0.5754  0.2868
 9015SOL    HW138681   3.339   1.262  15.616 -1.2845  0.3391  2.2300
 9015SOL    HW238682   3.465   1.271  15.696 -0.4423  0.1959  0.5097
 9016SOL     OW38683   3.554   0.675   5.621  0.6429 -0.5958  0.2319
 9016SOL    HW138684   3.617   0.603   5.629 -1.5602 -2.3600  1.6735
 9016SOL    HW238685   3.604   0.745   5.579 -0.4921  1.3986  2.1927
 9017SOL     OW38686   1.157   2.379  15.093  0.0500 -0.5166  0.0214
 9017SOL    HW138687   1.184   2.296  15.053 -2.2147 -2.4094  2.4893
 9017SOL    HW238688   1.231   2.378  15.154  0.9184  1.3849 -0.9933
 9018SOL     OW38689   2.707   1.065   8.928 -0.6945 -0.0366 -0.6061
 9018SOL    HW138690   2.654   1.097   9.000  0.1372 -2.0085  0.8885
 9018SOL    HW238691   2.668   0.978   8.918 -1.8264  0.1886  1.8633
 9019SOL     OW38692   0.309   4.134  16.827  0.0413 -0.0565 -0.7433
 9019SOL    HW138693   0.291   4.044  16.854 -0.2609  0.4788  0.8625
 9019SOL    HW238694   0.335   4.170  16.912  0.6526 -0.1664 -0.8892
 9020SOL     OW38695   2.369   1.042   6.785  0.3069 -0.2876  0.3611
 9020SOL    HW138696   2.396   1.133   6.799  2.1944 -0.7009 -0.4856
 9020SOL    HW238697   2.276   1.053   6.771  0.4072  1.8216  1.3703
 9021SOL     OW38698   4.578   1.672   7.841 -0.5074  0.1149  0.6298
 9021SOL    HW138699   4.515   1.690   7.771  0.9173  0.3185 -0.6214
 9021SOL    HW238700   4.523   1.628   7.905  0.1498 -3.3330 -1.2075
 9022SOL     OW38701   1.990   0.255   4.183 -0.3167 -0.2422  0.7022
 9022SOL    HW138702   2.065   0.257   4.243 -1.9551 -1.3397  2.7694
 9022SOL    HW238703   1.929   0.192   4.220 -1.8387  1.8210  1.6673
 9023SOL     OW38704   2.724   4.013   5.987  0.0215  0.1884  0.5401
 9023SOL    HW138705   2.786   4.048   5.923 -0.6064 -1.9231 -1.1950
 9023SOL    HW238706   2.761   4.044   6.070 -2.9561 -0.9212  2.2548
 9024SOL     OW38707   3.147   3.197  14.710  0.3716 -0.5785  0.1395
 9024SOL    HW138708   3.181   3.271  14.660  1.1597 -0.8636  0.2616
 9024SOL    HW238709   3.193   3.223  14.790 -0.5967 -0.7383  0.7493
 9025SOL     OW38710   1.663   2.369   2.346  0.4942  0.4061 -0.4274
 9025SOL    HW138711   1.582   2.320   2.359 -0.2089  1.4329 -0.9271
 9025SOL    HW238712   1.633   2.459   2.339 -1.5357 -0.3725 -2.0132
 9026SOL     OW38713   4.592   2.755  11.929  0.1214 -0.0596  0.4096
 9026SOL    HW138714   4.674   2.793  11.898  0.5602 -0.3908  1.1672
 9026SOL    HW238715   4.613   2.734  12.020  0.0219  0.3568  0.5295
 9027SOL     OW38716   0.814   1.885  12.354 -0.2005 -0.5437  0.0593
 9027SOL    HW138717   0.762   1.863  12.431  0.8185 -0.3834  0.7821
 9027SOL    HW238718   0.901   1.889  12.392 -0.9644  0.0467  1.7710
 9028SOL     OW38719   1.275   1.809   8.247 -0.0504  0.2756 -0.1037
 9028SOL    HW138720   1.263   1.766   8.332 -0.5407  0.8523  0.1105
 9028SOL    HW238721   1.369   1.800   8.231  0.0294  3.0011 -1.1490
 9029SOL     OW38722   1.068   4.434   2.733  0.2605 -0.5719  0.5828
 9029SOL    HW138723   1.114   4.517   2.729  0.3852 -0.6831 -0.2297
 9029SOL    HW238724   1.075   4.420   2.828 -1.0972  1.5374  0.9827
 9030SOL     OW38725   2.631   2.923   4.204 -0.2964  0.5616 -0.2699
 9030SOL    HW138726   2.576   2.869   4.147  4.1828 -1.3122 -2.8056
 9030SOL    HW238727   2.718   2.892   4.177 -0.3710 -1.7430  2.2042
 9031SOL     OW38728   3.301   1.723  12.120  0.3621 -0.2655  0.5057
 9031SOL    HW138729   3.246   1.760  12.050  0.3455  0.2459  0.7873
 9031SOL    HW238730   3.368   1.790  12.137  0.6384 -1.0147  2.3303
 9032SOL     OW38731   0.282   4.177   8.410  0.4060  0.2880 -0.2312
 9032SOL    HW138732   0.255   4.263   8.379  1.2719  2.0091  3.8918
 9032SOL    HW238733   0.271   4.181   8.505  2.1688  2.4199 -0.1335
 9033SOL     OW38734   0.216   3.159   1.614 -0.0669 -0.3715 -0.0680
 9033SOL    HW138735   0.211   3.064   1.603  0.4274 -0.3187 -0.7230
 9033SOL    HW238736   0.144   3.179   1.554  1.0150 -0.7580 -1.5010
 9034SOL     OW38737   2.004   2.075   3.999 -0.2179 -0.5551 -1.0063
 9034SOL    HW138738   2.019   2.147   3.938  2.5968 -0.6529 -0.4015
 9034SOL    HW238739   2.014   2.121   4.083 -0.9281 -3.0787  0.4609
 9035SOL     OW38740   4.618   0.723  16.669 -0.9446  0.4678  0.5772
 9035SOL    HW138741   4.636   0.721  16.575  0.4688  2.0490  0.8232
 9035SOL    HW238742   4.548   0.787  16.665  0.6718  2.2997  1.7727
 9036SOL     OW38743   2.084   4.365   3.971 -0.0708  0.3299  0.1312
 9036SOL    HW138744   2.038   4.299   4.023  1.0696 -0.7487 -0.2036
 9036SOL    HW238745   2.111   4.307   3.899  2.6092  0.4620  1.0494
 9037SOL     OW38746   2.190   0.143  11.493  0.7809  0.0642  0.2209
 9037SOL    HW138747   2.180   0.176  11.403  0.6384  0.8060  0.5091
 9037SOL    HW238748   2.198   0.050  11.472  2.6163  0.6365 -1.5864
 9038SOL     OW38749   1.500   2.413   4.839  0.0662  0.0466 -0.0677
 9038SOL    HW138750   1.512   2.322   4.866 -0.5487  0.6690  2.2902
 9038SOL    HW238751   1.425   2.427   4.897  1.5231  1.6971  1.4164
 9039SOL     OW38752   3.077   4.399   1.850  0.4704 -0.3758 -0.1815
 9039SOL    HW138753   3.070   4.375   1.758  1.2986 -0.2973 -0.2701
 9039SOL    HW238754   3.006   4.344   1.882 -0.7668 -0.3321 -2.8825
 9040SOL     OW38755   4.430   1.970   8.446  0.5685  0.2191 -0.5047
 9040SOL    HW138756   4.437   2.023   8.366 -0.6964  1.7768  0.4212
 9040SOL    HW238757   4.356   1.913   8.427  1.6932 -1.7800  1.0977
 9041SOL     OW38758   0.769   2.493   6.738 -0.5326  0.1524 -0.2007
 9041SOL    HW138759   0.739   2.402   6.740 -0.3554  0.0228 -4.2476
 9041SOL    HW238760   0.759   2.510   6.644 -0.0846 -1.4322 -0.5415
 9042SOL     OW38761   1.483   1.412   7.966 -0.1147  0.1753  0.0064
 9042SOL    HW138762   1.473   1.507   7.962 -1.6783 -0.0020 -0.2785
 9042SOL    HW238763   1.475   1.397   8.060 -2.9880  2.3466  0.1050
 9043SOL     OW38764   3.715   0.461   1.547 -0.0070  0.1896  0.1339
 9043SOL    HW138765   3.678   0.408   1.476 -0.7117  2.5441 -1.2725
 9043SOL    HW238766   3.642   0.481   1.605 -1.0543 -0.8826 -0.8315
 9044SOL     OW38767   1.545   3.469   8.612 -0.2778 -0.2290  0.3568
 9044SOL    HW138768   1.501   3.413   8.676  1.4461  0.6322  2.2782
 9044SOL    HW238769   1.541   3.559   8.646  2.6638 -0.3284  0.9598
 9045SOL     OW38770   0.867   3.114   3.471  0.1608 -0.2362  0.2495
 9045SOL    HW138771   0.852   3.021   3.486 -0.4344 -0.3053 -0.7770
 9045SOL    HW238772   0.958   3.118   3.500  0.6232 -0.6229 -1.1876
 9046SOL     OW38773   1.087   4.258   1.256 -0.0067 -0.2455 -0.2086
 9046SOL    HW138774   1.087   4.321   1.328  1.9138 -0.7880  0.2648
 9046SOL    HW238775   1.146   4.188   1.283  2.1207  1.0562 -1.4475
 9047SOL     OW38776   1.413   4.313   3.046  0.2987 -0.1349  0.3012
 9047SOL    HW138777   1.402   4.385   3.109 -1.3195  0.8792 -1.1567
 9047SOL    HW238778   1.462   4.366   2.984  1.4443 -2.4701 -0.7560
 9048SOL     OW38779   3.100   1.619  10.548 -0.0263 -0.3121 -0.5742
 9048SOL    HW138780   3.008   1.642  10.563  0.4492  0.4612  1.0787
 9048SOL    HW238781   3.098   1.549  10.483 -2.0529  0.3173 -1.2056
 9049SOL     OW38782   2.422   4.039   7.925 -0.8459  0.5430  0.2455
 9049SOL    HW138783   2.419   4.015   7.832 -0.4160 -3.5165  1.3003
 9049SOL    HW238784   2.516   4.052   7.934 -0.5454  1.5341 -4.2686
 9050SOL     OW38785   2.739   1.937   6.118  0.1699 -0.3036 -0.9740
 9050SOL    HW138786   2.769   1.854   6.080  1.3650 -0.0161 -0.6613
 9050SOL    HW238787   2.672   1.898   6.174 -0.7135  1.6402 -0.6768
 9051SOL     OW38788   1.486   4.199   6.893  0.1976  0.1058 -0.9603
 9051SOL    HW138789   1.426   4.247   6.835  2.8107  0.5558 -3.2598
 9051SOL    HW238790   1.527   4.275   6.935  0.3884 -0.5304  0.0084
 9052SOL     OW38791   3.042   3.486   0.847 -0.0889 -0.2219  0.6080
 9052SOL    HW138792   3.125   3.525   0.818 -0.0951  0.6613  1.7863
 9052SOL    HW238793   3.068   3.459   0.935  1.3522  0.7976  0.4997
 9053SOL     OW38794   3.514   2.392   7.424  0.3071 -0.4055  0.3674
 9053SOL    HW138795   3.489   2.429   7.340 -2.5331  0.4634  1.6019
 9053SOL    HW238796   3.587   2.451   7.444 -0.0610  0.4695 -0.8727
 9054SOL     OW38797   2.167   2.162   7.771 -0.0406  0.3330  0.4072
 9054SOL    HW138798   2.225   2.093   7.740 -1.0711 -0.9112  1.2135
 9054SOL    HW238799   2.074   2.139   7.763  0.1216  0.7641 -2.6889
 9055SOL     OW38800   4.083   4.389   9.681 -0.5846 -0.0691 -0.1706
 9055SOL    HW138801   4.139   4.399   9.757  0.3207 -1.6874 -0.6137
 9055SOL    HW238802   4.107   4.474   9.644 -1.5243  1.3094  2.3876
 9056SOL     OW38803   2.762   4.262   0.255  0.4627 -0.0957  0.0944
 9056SOL    HW138804   2.849   4.285   0.222  0.5716 -2.4475 -1.2549
 9056SOL    HW238805   2.766   4.275   0.349  0.1895  3.1154 -0.3324
 9057SOL     OW38806   0.035   0.955   2.126 -0.3361 -0.1196 -0.1297
 9057SOL    HW138807   0.046   0.865   2.155  0.8011 -0.6428 -2.1916
 9057SOL    HW238808   0.112   0.967   2.070 -0.8727 -0.5384 -0.9551
 9058SOL     OW38809   0.153   0.858   0.122  0.0203 -0.0129 -0.1718
 9058SOL    HW138810   0.169   0.921   0.052 -1.5162  0.5063 -0.0625
 9058SOL    HW238811   0.222   0.793   0.111 -2.0241 -2.3023  0.7100
 9059SOL     OW38812   1.857   0.762   6.056 -0.0912  0.0607 -0.2843
 9059SOL    HW138813   1.830   0.821   6.126  0.1441 -0.1404 -0.0220
 9059SOL    HW238814   1.916   0.703   6.102 -0.3783 -0.1504 -0.1790
 9060SOL     OW38815   1.194   3.098   7.685 -0.3893  0.0241 -0.2753
 9060SOL    HW138816   1.211   3.176   7.633  0.1137 -1.4744 -2.3601
 9060SOL    HW238817   1.155   3.138   7.763 -0.0097  2.3897 -1.3084
 9061SOL     OW38818   1.179   2.104   8.297  0.0208 -0.4544 -0.0348
 9061SOL    HW138819   1.139   2.029   8.254 -2.1521  0.9935 -0.5065
 9061SOL    HW238820   1.110   2.124   8.361  0.2980  2.1748 -0.5699
 9062SOL     OW38821   1.120   1.593   4.324  0.2333  1.0002 -0.4257
 9062SOL    HW138822   1.027   1.568   4.322  0.5316 -0.0699 -0.6745
 9062SOL    HW238823   1.158   1.576   4.238 -1.0659  0.0657 -0.8298
 9063SOL     OW38824   3.205   3.302   7.628 -0.2468  0.7332  0.1573
 9063SOL    HW138825   3.269   3.340   7.568  1.8330  0.2377  2.1077
 9063SOL    HW238826   3.150   3.242   7.577  2.1118 -0.4358 -1.0217
 9064SOL     OW38827   4.620   3.792   6.404  0.4055 -0.2059  0.6952
 9064SOL    HW138828   4.592   3.709   6.365 -0.4810  0.3169  0.2144
 9064SOL    HW238829   4.560   3.796   6.478 -0.5457  0.3438 -0.0950
 9065SOL     OW38830   0.863   2.012   8.141  0.2260 -0.0554  0.0444
 9065SOL    HW138831   0.787   2.064   8.114 -0.0562  0.9154  2.7292
 9065SOL    HW238832   0.921   2.001   8.065  1.6614  0.3897  1.0774
 9066SOL     OW38833   1.096   4.388  10.459 -0.2863 -0.2444 -0.0621
 9066SOL    HW138834   1.015   4.423  10.422  0.1971 -1.1719 -1.9979
 9066SOL    HW238835   1.163   4.434  10.409 -3.0735  3.9422  0.0009
 9067SOL     OW38836   1.169   1.345   9.646  0.0156  0.0790  0.1571
 9067SOL    HW138837   1.086   1.316   9.684  0.0163 -1.0626 -0.7196
 9067SOL    HW238838   1.231   1.316   9.713 -1.5455 -1.7386  0.8175
 9068SOL     OW38839   1.467   0.738  13.460  0.1527  0.4323  0.5441
 9068SOL    HW138840   1.459   0.824  13.419 -2.0431 -0.3410 -0.7034
 9068SOL    HW238841   1.528   0.703  13.395  0.7175  1.4404  0.5424
 9069SOL     OW38842   0.577   3.175   5.150  0.3401  0.0758  0.0306
 9069SOL    HW138843   0.607   3.182   5.241  3.2370  1.3922 -1.0089
 9069SOL    HW238844   0.582   3.080   5.141  2.2322 -0.1302  3.0158
 9070SOL     OW38845   1.000   0.210   7.429 -0.3210 -0.1216  0.0888
 9070SOL    HW138846   0.933   0.143   7.445 -0.6375 -0.0113 -0.7465
 9070SOL    HW238847   1.044   0.224   7.513  0.0413 -0.0370 -0.1155
 9071SOL     OW38848   4.489   0.279   3.308  0.0118 -0.0164 -0.3588
 9071SOL    HW138849   4.482   0.200   3.361 -0.2114 -0.6382 -1.3233
 9071SOL    HW238850   4.562   0.331   3.343  1.4433 -1.0256 -1.8182
 9072SOL     OW38851   2.973   1.335  10.527  0.1363 -0.1994  0.4348
 9072SOL    HW138852   2.939   1.250  10.554  2.5681 -1.7999 -1.5244
 9072SOL    HW238853   3.002   1.377  10.608  3.3603 -0.6691 -0.4834
 9073SOL     OW38854   3.506   2.996   1.384 -0.1482 -0.3437 -0.4473
 9073SOL    HW138855   3.527   3.031   1.471  0.7963 -0.3218 -0.6888
 9073SOL    HW238856   3.493   2.902   1.397 -1.7928 -0.0446  0.0628
 9074SOL     OW38857   0.087   1.399  12.916  0.3134  0.0359 -0.1362
 9074SOL    HW138858   0.097   1.494  12.907  1.7415 -0.0838  0.1378
 9074SOL    HW238859   0.073   1.364  12.828  2.2104  0.6969 -0.7106
 9075SOL     OW38860   0.981   1.522   2.606 -0.2907 -0.1032 -0.5074
 9075SOL    HW138861   0.899   1.554   2.569 -0.4361 -0.4637 -0.5012
 9075SOL    HW238862   1.034   1.583   2.555 -3.4999  2.4719 -0.6916
 9076SOL     OW38863   4.152   4.072   2.997  0.6992  0.3430 -0.0718
 9076SOL    HW138864   4.201   3.989   3.000 -0.1176 -0.1661 -0.8138
 9076SOL    HW238865   4.209   4.124   3.053  0.1309 -1.2691  1.9747
 9077SOL     OW38866   0.374   1.610   2.046 -0.9867 -0.1657 -0.1684
 9077SOL    HW138867   0.309   1.556   2.089 -0.7171 -0.5876 -0.2952
 9077SOL    HW238868   0.453   1.570   2.084 -2.8896 -2.0400  1.7574
 9078SOL     OW38869   3.628   3.737   9.187 -0.6415  0.0232  0.1397
 9078SOL    HW138870   3.579   3.801   9.136 -2.0532  0.1420  1.6335
 9078SOL    HW238871   3.714   3.772   9.210 -0.5525 -1.0702  1.5201
 9079SOL     OW38872   0.505   1.806   7.841 -0.1282  0.3548  0.0349
 9079SOL    HW138873   0.413   1.827   7.854 -0.7488 -1.9786 -0.6598
 9079SOL    HW238874   0.517   1.752   7.918  1.0900 -0.3520 -0.6472
 9080SOL     OW38875   0.461   0.274   0.946  0.0392  0.3478 -0.1777
 9080SOL    HW138876   0.550   0.246   0.925 -0.0868 -0.4682  0.3920
 9080SOL    HW238877   0.442   0.360   0.908 -0.7772  0.9508  1.5702
 9081SOL     OW38878   0.921   3.604  17.523  0.4922  0.6581 -0.1722
 9081SOL    HW138879   0.844   3.571  17.568  0.2594 -0.0689 -1.1268
 9081SOL    HW238880   0.882   3.689  17.502  0.2293  0.4588 -0.4774
 9082SOL     OW38881   4.700   3.633   7.280 -0.2262 -0.1297  0.2442
 9082SOL    HW138882   4.689   3.633   7.375  0.7480  0.3958  0.3540
 9082SOL    HW238883   0.053   3.609   7.274 -0.1653  0.0263  0.5637
 9083SOL     OW38884   1.934   3.525   4.814 -0.2785  0.1755 -0.5162
 9083SOL    HW138885   1.903   3.451   4.866 -1.3166 -0.3400 -1.8816
 9083SOL    HW238886   2.015   3.494   4.773 -0.8587 -0.6585 -1.0359
 9084SOL     OW38887   0.688   3.579  16.625  0.0634 -0.3072  0.1953
 9084SOL    HW138888   0.713   3.667  16.653  0.7930 -0.1927 -0.7911
 9084SOL    HW238889   0.615   3.597  16.566  1.0048  3.6882  0.2887
 9085SOL     OW38890   1.018   0.784   4.238  0.0391 -0.3937 -0.0095
 9085SOL    HW138891   1.067   0.865   4.245 -0.4636 -0.0984  0.0753
 9085SOL    HW238892   1.086   0.723   4.268 -2.8806 -1.7396  3.8226
 9086SOL     OW38893   4.547   4.410   7.576 -0.2423  0.3184 -0.4526
 9086SOL    HW138894   4.453   4.416   7.561 -0.1537  0.4599 -0.9340
 9086SOL    HW238895   4.551   4.421   7.671 -1.4148 -1.8666 -0.1564
 9087SOL     OW38896   1.627   2.869   9.715 -0.1968 -0.1248  0.5282
 9087SOL    HW138897   1.555   2.845   9.658  1.1796  1.5238 -1.8752
 9087SOL    HW238898   1.646   2.956   9.681 -0.3548  0.5795  2.2495
 9088SOL     OW38899   1.633   4.641  15.540  0.0126 -0.1459  0.0657
 9088SOL    HW138900   1.680   4.567  15.502 -0.2450  0.3345 -1.1901
 9088SOL    HW238901   1.705   4.693  15.577  1.4618 -1.0869 -1.4304
 9089SOL     OW38902   1.563   0.402   8.404 -0.9086 -0.8086  0.0892
 9089SOL    HW138903   1.555   0.308   8.390  0.4721 -0.8005 -0.7732
 9089SOL    HW238904   1.523   0.434   8.322  2.8002 -0.2876 -1.5031
 9090SOL     OW38905   3.323   3.902   8.187  0.4031  0.1448 -0.4199
 9090SOL    HW138906   3.338   3.824   8.134 -3.0733  1.1559 -2.8482
 9090SOL    HW238907   3.335   3.984   8.138  2.4648  0.2008  0.1690
 9091SOL     OW38908   3.140   3.244   6.202  0.2644  0.0236 -0.1090
 9091SOL    HW138909   3.204   3.177   6.224  0.4494 -0.2350 -1.4003
 9091SOL    HW238910   3.059   3.202   6.231  0.8585 -0.9375  0.1466
 9092SOL     OW38911   0.743   0.433   1.294  0.4502  0.0443  0.1986
 9092SOL    HW138912   0.707   0.349   1.264  1.8864  0.1012 -1.7268
 9092SOL    HW238913   0.835   0.411   1.311  0.8581 -0.0593 -2.1322
 9093SOL     OW38914   1.179   0.908  10.760  0.3251  0.2483  0.4294
 9093SOL    HW138915   1.262   0.884  10.718  0.2767  0.3405  0.2842
 9093SOL    HW238916   1.204   0.994  10.794  0.1168  0.2732  0.5175
 9094SOL     OW38917   3.662   3.855  14.383 -0.2157 -0.0326  0.1695
 9094SOL    HW138918   3.592   3.881  14.443 -0.9072  0.2876 -0.7643
 9094SOL    HW238919   3.610   3.809  14.316 -0.2219 -0.7044  0.6378
 9095SOL     OW38920   0.831   3.751   7.225  0.3958  0.1705  0.0364
 9095SOL    HW138921   0.739   3.769   7.241 -0.1490 -1.3164 -1.3577
 9095SOL    HW238922   0.827   3.690   7.151  0.1145 -0.0733  0.2549
 9096SOL     OW38923   2.249   3.799   5.219 -0.5830  0.1426  0.0462
 9096SOL    HW138924   2.253   3.827   5.310 -0.5799 -0.3806  0.2093
 9096SOL    HW238925   2.302   3.868   5.179  2.3519 -1.2879  1.4021
 9097SOL     OW38926   1.817   1.812   5.506 -0.5348  0.1285 -0.2107
 9097SOL    HW138927   1.822   1.723   5.471 -1.8756 -0.2651  0.6282
 9097SOL    HW238928   1.851   1.859   5.429 -1.3122  1.1284  0.0515
 9098SOL     OW38929   0.003   3.679  11.776 -0.1876 -0.0684  0.3587
 9098SOL    HW138930   0.090   3.714  11.757  0.5777 -1.6716  0.9547
 9098SOL    HW238931   4.733   3.625  11.698 -1.0364 -0.4571  0.7348
 9099SOL     OW38932   0.713   2.221   4.184  0.1270  0.5948 -0.1227
 9099SOL    HW138933   0.738   2.141   4.231  0.7551  0.8483 -0.0210
 9099SOL    HW238934   0.722   2.276   4.262  0.3729 -0.1942  0.4170
 9100SOL     OW38935   4.131   4.093  15.076 -0.2239  0.4030  0.3017
 9100SOL    HW138936   4.153   4.050  15.159 -0.8583  1.1787  0.8711
 9100SOL    HW238937   4.057   4.043  15.040  2.4416 -1.6598 -2.3431
 9101SOL     OW38938   1.496   1.221   8.835  0.1845 -0.0881 -0.3078
 9101SOL    HW138939   1.426   1.264   8.885  0.0279 -1.2692  0.4662
 9101SOL    HW238940   1.557   1.200   8.905  0.4049 -0.4191 -0.5968
 9102SOL     OW38941   3.005   1.257   7.670 -0.0683 -0.1449  0.5896
 9102SOL    HW138942   2.937   1.189   7.677 -2.7800  2.5806  0.7360
 9102SOL    HW238943   2.955   1.336   7.648  0.3684  0.1387  0.6175
 9103SOL     OW38944   3.021   2.110  15.666 -0.1442 -0.3815  0.2767
 9103SOL    HW138945   3.100   2.157  15.694 -0.6207  0.2097  0.6186
 9103SOL    HW238946   3.045   2.026  15.626 -1.0079  0.3882 -1.8317
 9104SOL     OW38947   4.009   3.858   8.016 -0.3637 -0.2962  0.5963
 9104SOL    HW138948   4.099   3.864   7.983 -0.9723  3.0164 -0.4079
 9104SOL    HW238949   4.013   3.925   8.085 -0.1782 -0.1914  0.4848
 9105SOL     OW38950   2.130   1.616   7.963  0.0488  0.1045 -0.6011
 9105SOL    HW138951   2.070   1.646   8.030  1.3324  0.6912  0.2777
 9105SOL    HW238952   2.094   1.529   7.947  1.5776 -0.6051 -0.1653
 9106SOL     OW38953   1.095   1.551   0.848  0.0192 -0.2398  0.4430
 9106SOL    HW138954   1.118   1.474   0.795  1.4549  1.0389 -0.7973
 9106SOL    HW238955   1.060   1.507   0.925  2.1398  0.7312  1.9824
 9107SOL     OW38956   0.441   2.591   0.406 -0.1304 -0.4605 -0.3184
 9107SOL    HW138957   0.489   2.534   0.465  2.3481  0.0580 -1.8515
 9107SOL    HW238958   0.404   2.648   0.474 -0.2713 -0.1456 -0.6529
 9108SOL     OW38959   0.805   1.412   3.105  0.5507 -0.4265  0.3444
 9108SOL    HW138960   0.776   1.384   3.018  1.5905  1.1766 -0.5148
 9108SOL    HW238961   0.879   1.472   3.095  0.9163 -0.9031  0.1780
 9109SOL     OW38962   0.552   3.410   8.515  0.1736 -0.4158 -0.6502
 9109SOL    HW138963   0.475   3.377   8.467  0.1177 -1.8761  0.4622
 9109SOL    HW238964   0.578   3.323   8.544 -0.7310 -0.3109  0.4860
 9110SOL     OW38965   4.272   0.528   8.034  0.1965 -0.0532 -0.0051
 9110SOL    HW138966   4.346   0.506   8.090 -0.2205 -1.4729 -0.0086
 9110SOL    HW238967   4.195   0.489   8.076  0.8088  0.0151  1.1489
 9111SOL     OW38968   1.153   0.895   3.143 -0.2500  0.7808 -0.0577
 9111SOL    HW138969   1.150   0.863   3.233  2.2100  0.4274 -0.0764
 9111SOL    HW238970   1.079   0.955   3.140  0.4134  1.5780 -0.5451
 9112SOL     OW38971   0.265   0.358  17.500  0.1827  0.2397  0.1515
 9112SOL    HW138972   0.293   0.269  17.520 -1.9515 -0.3822  0.3813
 9112SOL    HW238973   0.203   0.358  17.427  1.9013 -0.6108 -1.3026
 9113SOL     OW38974   1.386   1.191   1.012 -0.4684  0.6600  0.2475
 9113SOL    HW138975   1.374   1.102   0.977  2.1326 -0.6907  2.8728
 9113SOL    HW238976   1.296   1.210   1.038 -0.1783  0.3772  1.4601
 9114SOL     OW38977   2.948   4.386   9.804 -0.2072 -0.1517  0.6399
 9114SOL    HW138978   3.015   4.431   9.856 -1.7153  2.6929  0.1059
 9114SOL    HW238979   2.988   4.301   9.784  0.6627  0.4620 -0.2585
 9115SOL     OW38980   1.138   1.007   1.906  0.4381 -0.1922 -0.0093
 9115SOL    HW138981   1.050   0.988   1.874  0.9350 -2.3738 -0.0264
 9115SOL    HW238982   1.174   1.062   1.835  1.0353  0.4788  0.8097
 9116SOL     OW38983   3.756   0.706   7.815  0.5609 -0.0702  0.7664
 9116SOL    HW138984   3.840   0.679   7.851  1.5350  1.5579 -0.2700
 9116SOL    HW238985   3.688   0.656   7.860 -1.7152  2.2568 -0.0716
 9117SOL     OW38986   3.757   0.520  13.787  0.1473  0.0075  0.0135
 9117SOL    HW138987   3.697   0.513  13.713  1.3818  0.8942 -1.0807
 9117SOL    HW238988   3.841   0.530  13.742 -0.1483 -2.0405 -0.9850
 9118SOL     OW38989   1.379   0.735   2.330  0.0156 -0.2692  0.3004
 9118SOL    HW138990   1.287   0.735   2.354  0.0984 -1.2697  0.6383
 9118SOL    HW238991   1.423   0.753   2.414 -2.0845 -0.8981  1.5331
 9119SOL     OW38992   3.248   4.357   7.778 -0.0272  0.0423 -0.0356
 9119SOL    HW138993   3.233   4.433   7.834  0.4934 -1.0284  1.5757
 9119SOL    HW238994   3.343   4.357   7.771  0.0313  3.0448  1.0346
 9120SOL     OW38995   4.018   4.231   2.718  0.1408  0.0510  0.5861
 9120SOL    HW138996   4.018   4.326   2.714 -0.8885  0.0218  0.0565
 9120SOL    HW238997   4.050   4.204   2.631 -1.7575 -0.0812 -0.0767
 9121SOL     OW38998   0.558   3.760   3.919  0.6993 -0.1474  0.0655
 9121SOL    HW138999   0.607   3.692   3.966 -0.1201 -0.2200  0.8115
 9121SOL    HW239000   0.590   3.844   3.952 -1.7941 -0.0234  2.1696
 9122SOL     OW39001   1.312   3.856   7.439 -0.3315 -0.6796  0.2632
 9122SOL    HW139002   1.234   3.845   7.385 -0.3870 -0.4661  0.3002
 9122SOL    HW239003   1.293   3.942   7.475 -4.1438 -1.5585  0.3473
 9123SOL     OW39004   3.073   1.565   6.871 -0.7251  0.3758 -0.1746
 9123SOL    HW139005   3.142   1.559   6.805 -0.6245 -1.2889  0.0673
 9123SOL    HW239006   3.101   1.646   6.914  1.1184  0.7957 -2.1619
 9124SOL     OW39007   0.819   2.657   7.958 -0.2263 -0.9872 -0.0926
 9124SOL    HW139008   0.773   2.725   8.007  0.8991 -2.1995  2.6540
 9124SOL    HW239009   0.886   2.695   7.903  1.1048 -1.1926  1.3743
 9125SOL     OW39010   2.557   2.017  17.334 -0.0976 -0.3619 -0.4263
 9125SOL    HW139011   2.478   2.050  17.292  0.0193 -0.1225 -0.4587
 9125SOL    HW239012   2.586   2.104  17.363  2.7255 -1.1821 -0.7658
 9126SOL     OW39013   1.672   4.327   8.042  0.2707  0.6235 -0.1968
 9126SOL    HW139014   1.589   4.296   8.079 -0.1247 -1.1059 -2.5133
 9126SOL    HW239015   1.631   4.384   7.977  0.8555 -0.6556 -1.7054
 9127SOL     OW39016   2.535   4.041   7.229  0.0713  0.0122  0.0029
 9127SOL    HW139017   2.601   4.075   7.169  1.5547 -0.5415  1.3460
 9127SOL    HW239018   2.547   4.097   7.305  1.1040 -1.3497  0.8202
 9128SOL     OW39019   0.375   4.526  12.491 -0.3464 -0.1236  0.4898
 9128SOL    HW139020   0.370   4.482  12.576  1.2257 -0.4153  0.4434
 9128SOL    HW239021   0.421   4.463  12.436 -1.1716 -1.8884  1.8344
 9129SOL     OW39022   1.292   4.323   0.058 -0.2841 -0.7288 -0.1377
 9129SOL    HW139023   1.225   4.390   0.049  1.4987  0.7067 -2.5891
 9129SOL    HW239024   1.343   4.359  17.743 -1.3169 -0.1805 -0.6025
 9130SOL     OW39025   0.356   0.795   5.074 -0.0787  0.4150 -0.4885
 9130SOL    HW139026   0.399   0.871   5.036  2.4570 -1.4801 -1.4504
 9130SOL    HW239027   0.420   0.727   5.051 -1.6346 -0.8310 -1.2127
 9131SOL     OW39028   3.349   1.388   1.564 -0.4591 -0.8401 -0.5076
 9131SOL    HW139029   3.362   1.480   1.540 -0.0704 -0.4822  1.0703
 9131SOL    HW239030   3.355   1.388   1.659 -1.3999 -2.6122 -0.4497
 9132SOL     OW39031   1.725   0.686   5.361 -0.0470 -0.6202  0.5692
 9132SOL    HW139032   1.795   0.624   5.342  0.6959  0.2498  0.4930
 9132SOL    HW239033   1.777   0.750   5.409 -0.2480  0.1045 -0.1803
 9133SOL     OW39034   2.160   3.037  14.781 -0.1931 -0.5852  0.5064
 9133SOL    HW139035   2.070   3.048  14.751  0.4981  0.1396 -1.3182
 9133SOL    HW239036   2.147   3.086  14.862  0.4560 -0.4412  0.5236
 9134SOL     OW39037   0.368   3.622  16.594  0.5271  0.0370  0.3475
 9134SOL    HW139038   0.280   3.594  16.570 -0.3670  0.6820  2.9524
 9134SOL    HW239039   0.354   3.716  16.587  2.5182  0.4792  2.4601
 9135SOL     OW39040   3.586   1.289   4.758 -0.0951 -0.4992  0.0605
 9135SOL    HW139041   3.621   1.204   4.785  1.4382  0.5246  1.3188
 9135SOL    HW239042   3.600   1.341   4.837 -1.7917 -1.7748  1.1968
 9136SOL     OW39043   3.239   0.985   4.172 -0.0563  0.3451 -0.7551
 9136SOL    HW139044   3.290   0.908   4.150  0.5901  0.2613  0.9772
 9136SOL    HW239045   3.173   0.998   4.104  0.2293 -1.5656 -1.3985
 9137SOL     OW39046   0.829   3.257   5.059 -0.2532 -0.1023  0.3290
 9137SOL    HW139047   0.782   3.323   5.007 -0.4819  1.1195  2.0920
 9137SOL    HW239048   0.750   3.214   5.092 -1.2359 -0.5298 -2.5599
 9138SOL     OW39049   1.750   1.770   2.889 -0.5747 -0.4581 -0.0788
 9138SOL    HW139050   1.717   1.753   2.801  0.7411 -2.5215 -0.1644
 9138SOL    HW239051   1.750   1.865   2.875 -0.2360 -0.4924 -0.2860
 9139SOL     OW39052   2.826   3.340   4.348 -0.2543 -0.3695  0.6477
 9139SOL    HW139053   2.757   3.277   4.327 -1.3245  1.2780 -0.8415
 9139SOL    HW239054   2.811   3.394   4.270  0.0381 -2.5184 -0.8767
 9140SOL     OW39055   0.325   1.509   3.863  0.0827  0.0586 -0.2198
 9140SOL    HW139056   0.315   1.527   3.769 -0.7088 -0.9406 -0.3334
 9140SOL    HW239057   0.291   1.420   3.876  0.8326 -0.7659 -3.9490
 9141SOL     OW39058   0.164   2.656   7.314 -0.3895 -0.3596 -0.0319
 9141SOL    HW139059   0.235   2.628   7.371 -0.6017 -0.3621  0.2356
 9141SOL    HW239060   0.092   2.656   7.378 -3.1135  1.8562 -3.0625
 9142SOL     OW39061   0.862   0.873  10.379 -0.2083  0.2310  0.4074
 9142SOL    HW139062   0.816   0.819  10.443  0.6179  1.0674  1.7017
 9142SOL    HW239063   0.848   0.830  10.295  0.7823 -0.6311  0.6821
 9143SOL     OW39064   0.522   3.929  13.010  0.1265  0.9052  0.3177
 9143SOL    HW139065   0.466   3.959  12.937  1.3773 -0.0401 -1.0286
 9143SOL    HW239066   0.609   3.954  12.978  0.6838 -1.2232  0.1583
 9144SOL     OW39067   0.414   1.713   4.270 -0.2684 -0.2640  0.3468
 9144SOL    HW139068   0.494   1.726   4.219 -1.4025  0.4018 -1.2616
 9144SOL    HW239069   0.443   1.751   4.353  1.3384  1.1397 -0.8386
 9145SOL     OW39070   1.145   1.742   2.794 -0.0581 -0.3720 -0.2057
 9145SOL    HW139071   1.183   1.810   2.850 -1.0605  0.6075 -0.7101
 9145SOL    HW239072   1.075   1.798   2.759 -1.0869 -0.0086  2.3853
 9146SOL     OW39073   1.449   1.439  17.514 -0.0329 -0.5207  0.0157
 9146SOL    HW139074   1.406   1.452  17.430  1.5981 -0.4233 -0.8011
 9146SOL    HW239075   1.539   1.418  17.491  0.4462  0.8466  0.6250
 9147SOL     OW39076   3.293   0.648   5.594  0.3474  0.0754 -0.4342
 9147SOL    HW139077   3.318   0.565   5.636  3.2146  0.8384 -0.6404
 9147SOL    HW239078   3.379   0.690   5.591  0.9486 -0.9309  2.3915
 9148SOL     OW39079   3.512   2.887  13.387  0.0835  0.0060  0.0609
 9148SOL    HW139080   3.503   2.981  13.405  0.4917 -0.0003  0.3005
 9148SOL    HW239081   3.498   2.880  13.292  0.8953  1.3697 -0.1686
 9149SOL     OW39082   0.538   0.994  13.274 -0.0203 -0.3238  0.2714
 9149SOL    HW139083   0.621   0.991  13.227  2.3751 -1.4672  4.5939
 9149SOL    HW239084   0.482   0.937  13.221  0.9482  0.5596 -1.6625
 9150SOL     OW39085   2.845   1.067   7.417  0.0355 -0.3124  0.5431
 9150SOL    HW139086   2.870   1.027   7.334  0.4708 -1.8741  1.4323
 9150SOL    HW239087   2.783   1.000   7.443  0.3712 -0.9946 -0.4103
 9151SOL     OW39088   3.278   3.555   3.101 -0.0521 -0.3621  0.0090
 9151SOL    HW139089   3.346   3.603   3.148 -0.2515 -1.7268  1.7136
 9151SOL    HW239090   3.201   3.605   3.130  1.7746  1.8223  1.0764
 9152SOL     OW39091   2.809   1.712  16.399 -0.3525 -0.2103  0.3726
 9152SOL    HW139092   2.896   1.673  16.411  0.5874  2.3352  1.9122
 9152SOL    HW239093   2.845   1.801  16.402 -0.8561  0.0307 -1.0155
 9153SOL     OW39094   4.479   4.316   6.302 -0.2405  0.2263 -0.4284
 9153SOL    HW139095   4.544   4.253   6.332 -2.1655 -1.8481 -0.5990
 9153SOL    HW239096   4.455   4.365   6.381 -1.8141  1.8979 -1.9336
 9154SOL     OW39097   2.804   2.928   8.780  0.0681 -0.2448  0.2318
 9154SOL    HW139098   2.882   2.972   8.747 -1.9972  0.6667 -3.3644
 9154SOL    HW239099   2.757   2.901   8.702  0.7728 -1.0402  0.0815
 9155SOL     OW39100   1.356   2.803   5.064  0.3935  0.2665 -0.1319
 9155SOL    HW139101   1.316   2.850   5.137 -2.6900 -3.3599  0.5752
 9155SOL    HW239102   1.448   2.810   5.090 -0.4528 -0.3378  3.1148
 9156SOL     OW39103   0.555   0.609  11.343 -0.4008 -0.0065  0.6803
 9156SOL    HW139104   0.528   0.645  11.427  0.4360 -0.7504  1.2714
 9156SOL    HW239105   0.648   0.586  11.352 -0.6588 -0.8426  1.2014
 9157SOL     OW39106   2.100   3.015   2.053 -0.3161  0.5758  0.1523
 9157SOL    HW139107   2.168   3.081   2.069 -0.1823  0.7097 -0.9843
 9157SOL    HW239108   2.155   2.969   1.989 -1.1693 -1.4980  0.8908
 9158SOL     OW39109   1.960   4.125  15.095 -0.1688  0.2419 -0.2614
 9158SOL    HW139110   2.040   4.142  15.045  1.0283  1.3751  2.0115
 9158SOL    HW239111   1.987   4.156  15.182  1.6411 -1.5436 -0.1840
 9159SOL     OW39112   3.795   2.773   2.858 -0.7433  0.1026  0.6064
 9159SOL    HW139113   3.754   2.846   2.904 -0.5278  0.2446  0.5711
 9159SOL    HW239114   3.747   2.792   2.777 -0.6824  2.1951  1.0679
 9160SOL     OW39115   3.522   2.731   1.404  0.6772  0.4054  0.0535
 9160SOL    HW139116   3.544   2.658   1.462 -1.4002 -0.6078 -0.4200
 9160SOL    HW239117   3.559   2.702   1.321  0.6026  0.5872 -0.0438
 9161SOL     OW39118   0.351   3.502  11.261  0.6497 -0.0744 -0.4772
 9161SOL    HW139119   0.409   3.426  11.259 -1.2349 -1.5447  1.0292
 9161SOL    HW239120   0.410   3.565  11.304 -0.4984 -0.9502  2.3818
 9162SOL     OW39121   2.719   2.010   7.461  0.3438 -0.6865  0.0316
 9162SOL    HW139122   2.706   2.105   7.468 -0.3902 -0.6625 -1.8301
 9162SOL    HW239123   2.765   1.993   7.543  0.4154 -3.0869 -0.5120
 9163SOL     OW39124   1.779   1.844   7.868 -0.1117 -0.1823  0.2406
 9163SOL    HW139125   1.799   1.751   7.879 -2.8771 -0.7643  0.4492
 9163SOL    HW239126   1.754   1.842   7.775  0.2183  1.0664  0.1291
 9164SOL     OW39127   1.386   1.038   7.966 -0.0142  0.3649 -0.4014
 9164SOL    HW139128   1.405   1.074   8.053 -1.0206  0.1013 -0.0732
 9164SOL    HW239129   1.329   0.968   7.996 -0.9452  1.5517  0.6229
 9165SOL     OW39130   1.745   3.545   9.514  0.3344 -0.1210  0.6225
 9165SOL    HW139131   1.817   3.497   9.474  1.2919  1.0859  0.8891
 9165SOL    HW239132   1.748   3.630   9.470 -0.1538  1.0131  2.7648
 9166SOL     OW39133   2.607   0.173  10.786  0.2222 -0.5319  0.1111
 9166SOL    HW139134   2.537   0.109  10.777  1.4219 -2.0391  1.5431
 9166SOL    HW239135   2.589   0.226  10.864  0.4242  0.5858 -0.6066
 9167SOL     OW39136   0.348   2.691  11.100 -1.1097 -0.2544 -0.0548
 9167SOL    HW139137   0.429   2.692  11.151 -0.8425  1.9283 -0.5340
 9167SOL    HW239138   0.387   2.754  11.040 -0.5252  0.0052  0.6048
 9168SOL     OW39139   4.328   3.618   6.302 -0.1868 -0.1941  0.1187
 9168SOL    HW139140   4.332   3.713   6.296 -2.3926 -0.3055 -3.0474
 9168SOL    HW239141   4.304   3.590   6.214  0.7885  0.2505 -0.2992
 9169SOL     OW39142   3.361   1.345   9.549 -0.0958  0.1575  0.3132
 9169SOL    HW139143   3.403   1.261   9.534 -0.3816  0.2349 -0.8974
 9169SOL    HW239144   3.441   1.391   9.524  0.0342  0.7517  1.7974
 9170SOL     OW39145   0.567   1.928   7.039  0.2389 -0.4626 -0.4143
 9170SOL    HW139146   0.562   1.883   7.123  1.4493  1.3163  0.5992
 9170SOL    HW239147   0.659   1.911   7.019  0.5515 -0.0118  0.7038
 9171SOL     OW39148   1.207   0.527   6.615  0.5308 -0.0400 -0.1639
 9171SOL    HW139149   1.238   0.611   6.649  0.6173  0.5630 -1.7624
 9171SOL    HW239150   1.222   0.542   6.522  0.3182  1.4530  0.0416
 9172SOL     OW39151   1.067   0.647   8.383 -0.3447 -0.0611 -0.5376
 9172SOL    HW139152   1.153   0.681   8.358 -0.8192 -0.1628 -2.3074
 9172SOL    HW239153   1.003   0.696   8.333  1.8042  0.6979 -2.5873
 9173SOL     OW39154   4.270   3.550   3.776 -0.0659  0.2588 -0.4156
 9173SOL    HW139155   4.332   3.516   3.711  1.0182 -1.4146  1.5082
 9173SOL    HW239156   4.190   3.508   3.743  0.5523 -1.0085 -0.2979
 9174SOL     OW39157   0.599   0.496   4.796 -0.2781  0.4764  0.6115
 9174SOL    HW139158   0.543   0.572   4.777 -0.5986  0.7688  2.6830
 9174SOL    HW239159   0.658   0.521   4.725 -0.9367 -2.6320 -1.0046
 9175SOL     OW39160   2.279   1.685   0.473  0.5471 -0.4534 -0.4204
 9175SOL    HW139161   2.240   1.598   0.475  0.9863 -0.6661 -1.0973
 9175SOL    HW239162   2.204   1.745   0.476  1.6906  0.9288  0.5564
 9176SOL     OW39163   1.327   1.976   3.462  0.0754 -0.0535 -0.6631
 9176SOL    HW139164   1.319   2.067   3.490 -0.9251  0.1819 -1.7275
 9176SOL    HW239165   1.387   1.989   3.389 -1.7673 -1.0722 -2.3607
 9177SOL     OW39166   4.218   1.789   8.309  0.0331  0.2538 -0.4256
 9177SOL    HW139167   4.133   1.797   8.266 -0.4194 -0.6562  0.2958
 9177SOL    HW239168   4.223   1.694   8.319  3.0655  0.3124 -1.4470
 9178SOL     OW39169   3.203   2.057   4.188  0.1276  0.2656  0.2490
 9178SOL    HW139170   3.238   2.121   4.250 -1.9871  0.2847  1.4074
 9178SOL    HW239171   3.287   2.037   4.145 -1.0227  1.6446 -2.5741
 9179SOL     OW39172   4.345   1.070   9.657  0.1017  0.4152  0.1171
 9179SOL    HW139173   4.411   1.001   9.663 -0.1622  0.1999  0.5459
 9179SOL    HW239174   4.263   1.023   9.674  1.1906 -2.2860 -2.0158
 9180SOL     OW39175   1.847   1.920   6.765 -0.1192  0.2537 -0.0810
 9180SOL    HW139176   1.796   1.973   6.703  0.9335  0.1991 -0.9962
 9180SOL    HW239177   1.879   1.992   6.819  2.2541 -0.2031 -0.8867
 9181SOL     OW39178   2.460   3.909   5.996  0.7241  0.3981  0.2515
 9181SOL    HW139179   2.400   3.978   6.023  0.9695  1.9467 -3.1960
 9181SOL    HW239180   2.546   3.951   5.995  1.3493 -0.9952 -3.4913
 9182SOL     OW39181   0.764   1.264   3.934  0.2514  0.4483 -0.0431
 9182SOL    HW139182   0.851   1.283   3.970 -0.8160  1.4090  2.0181
 9182SOL    HW239183   0.716   1.275   4.016  1.1043  1.8895  0.2648
 9183SOL     OW39184   0.619   4.034   3.681 -0.4510  0.2849  0.4868
 9183SOL    HW139185   0.636   4.026   3.775 -1.2118  2.5341  0.8173
 9183SOL    HW239186   0.640   3.944   3.654 -0.1694  0.7678 -0.8877
 9184SOL     OW39187   3.732   2.551   1.923 -0.1677 -0.1987  0.3861
 9184SOL    HW139188   3.797   2.561   1.854  0.4611  2.4660  1.3432
 9184SOL    HW239189   3.667   2.604   1.876  1.9028  1.0605 -1.0757
 9185SOL     OW39190   2.254   1.163  12.756 -0.2357  0.1328 -0.0570
 9185SOL    HW139191   2.249   1.255  12.733  0.9627  0.4363  0.9275
 9185SOL    HW239192   2.169   1.143  12.796  0.2966 -2.0714  0.0194
 9186SOL     OW39193   1.919   3.012  15.487 -0.6675  0.8252  0.0139
 9186SOL    HW139194   1.850   3.037  15.549 -0.6145 -0.4822  0.6147
 9186SOL    HW239195   1.918   2.917  15.499 -3.4518  0.9198  0.6064
 9187SOL     OW39196   2.732   1.276   2.710 -0.3488 -0.6166 -0.5403
 9187SOL    HW139197   2.781   1.275   2.628 -1.1612 -0.1274 -1.0232
 9187SOL    HW239198   2.651   1.314   2.677 -1.0691  2.0180  4.1903
 9188SOL     OW39199   1.103   0.598   2.189  0.3157 -0.0926  0.1625
 9188SOL    HW139200   1.121   0.504   2.190  1.9413  0.2279  0.6511
 9188SOL    HW239201   1.102   0.629   2.280  1.6450  1.4223 -0.3330
 9189SOL     OW39202   2.711   1.846   3.067 -0.4284  0.0212 -0.1062
 9189SOL    HW139203   2.665   1.877   3.146 -0.4960 -1.1438  0.3163
 9189SOL    HW239204   2.669   1.898   2.998  1.4026 -0.4008 -1.5190
 9190SOL     OW39205   3.465   1.118   5.081  0.8649  0.1341 -0.3503
 9190SOL    HW139206   3.454   1.175   5.158  1.7977 -0.8318  0.4949
 9190SOL    HW239207   3.424   1.167   5.010 -3.2082 -1.3401  0.9782
 9191SOL     OW39208   3.260   3.300  14.928 -0.2734  0.2319  0.7020
 9191SOL    HW139209   3.352   3.277  14.920 -0.4664 -0.2822 -0.0853
 9191SOL    HW239210   3.251   3.312  15.022  0.0456  4.1559  0.2366
 9192SOL     OW39211   2.522   2.832   2.745  0.1808 -0.2586  0.0378
 9192SOL    HW139212   2.470   2.765   2.701  1.5220 -1.7985  0.8127
 9192SOL    HW239213   2.460   2.901   2.771 -1.7846 -0.6935 -3.4389
 9193SOL     OW39214   0.968   0.907   3.613 -0.0435  0.4124 -0.5780
 9193SOL    HW139215   0.940   0.942   3.698  0.1780  2.5594 -1.4197
 9193SOL    HW239216   0.890   0.873   3.570  1.0576 -0.7149 -1.7009
 9194SOL     OW39217   1.334   0.795   6.166  0.0681 -0.3213 -0.0725
 9194SOL    HW139218   1.372   0.765   6.084  1.4189 -0.4483  0.6071
 9194SOL    HW239219   1.298   0.711   6.196  1.4445 -1.4070 -1.4616
 9195SOL     OW39220   3.938   2.085  13.392  0.1491 -0.0229  0.2004
 9195SOL    HW139221   3.915   2.150  13.458  1.5113  0.4200  0.2317
 9195SOL    HW239222   3.853   2.043  13.379  1.7883 -2.7125 -1.9122
 9196SOL     OW39223   1.811   0.444  14.243  0.2099  0.2969  0.4146
 9196SOL    HW139224   1.792   0.382  14.172 -0.5393  1.3703 -0.3366
 9196SOL    HW239225   1.719   0.462  14.266 -0.0030 -0.7682  0.3678
 9197SOL     OW39226   4.179   3.808   1.933  0.1248  0.0234  0.0821
 9197SOL    HW139227   4.147   3.829   2.020 -1.8070  4.8168 -1.7749
 9197SOL    HW239228   4.178   3.892   1.885  1.4607  1.7638  3.1159
 9198SOL     OW39229   1.325   1.199   0.276  0.1876  0.6536 -0.6637
 9198SOL    HW139230   1.256   1.263   0.294 -0.3923  0.0110 -0.6152
 9198SOL    HW239231   1.377   1.255   0.218  0.4272 -0.5197 -1.5839
 9199SOL     OW39232   2.599   1.702  15.759 -0.4132 -0.3769 -0.5430
 9199SOL    HW139233   2.633   1.746  15.837  0.0963  0.3012 -1.1493
 9199SOL    HW239234   2.528   1.758  15.730 -0.3307  0.1000  0.1744
 9200SOL     OW39235   4.405   4.629  12.714  0.1090 -0.4395  0.4245
 9200SOL    HW139236   4.464   4.694  12.675 -1.2050  0.7146  0.3635
 9200SOL    HW239237   4.318   4.665  12.700  0.1625  0.1633  1.5978
 9201SOL     OW39238   2.432   3.835   9.505 -0.3509  0.5523  0.9884
 9201SOL    HW139239   2.351   3.833   9.453 -0.2911  0.8631  0.8847
 9201SOL    HW239240   2.467   3.747   9.488  0.5870  0.6471  2.4524
 9202SOL     OW39241   4.317   3.694   2.825 -0.4015 -0.0028  0.1330
 9202SOL    HW139242   4.352   3.746   2.898  1.4211 -1.0024 -0.0317
 9202SOL    HW239243   4.241   3.654   2.868  1.7793 -2.7914  1.4214
 9203SOL     OW39244   0.626   3.268   6.133 -0.2581 -0.0987  0.2401
 9203SOL    HW139245   0.607   3.189   6.083  0.5521  0.4544 -0.9399
 9203SOL    HW239246   0.714   3.251   6.165 -0.3416  0.0880  0.5680
 9204SOL     OW39247   0.959   0.026   5.457  0.0078  0.5615  0.2747
 9204SOL    HW139248   1.044   0.057   5.427  1.4441 -3.2390  0.4687
 9204SOL    HW239249   0.943   0.086   5.530 -0.4940 -0.8202  1.2961
 9205SOL     OW39250   2.514   3.470   6.992 -0.1388 -0.2808  0.0411
 9205SOL    HW139251   2.491   3.518   6.912  0.7063  0.7862  0.4353
 9205SOL    HW239252   2.436   3.418   7.010  0.3335 -1.2951 -0.8385
 9206SOL     OW39253   3.090   1.083   4.357  0.7528  0.1585  0.2566
 9206SOL    HW139254   3.062   1.169   4.327  1.3291  0.7872  1.5569
 9206SOL    HW239255   3.164   1.075   4.298  1.6718 -1.1162  1.5920
 9207SOL     OW39256   4.222   0.708   0.952 -0.0593  0.0185  0.3677
 9207SOL    HW139257   4.259   0.772   0.890  0.8832 -0.3001  0.6055
 9207SOL    HW239258   4.304   0.662   0.967  1.4817  2.4911 -0.4281
 9208SOL     OW39259   1.951   2.282   6.293  0.6004  0.5149  0.4710
 9208SOL    HW139260   1.960   2.199   6.246 -2.0800  0.4472  0.0766
 9208SOL    HW239261   2.042   2.314   6.292  0.1836  1.7301  1.1282
 9209SOL     OW39262   2.320   3.201   5.183  0.6939  0.0321 -0.7722
 9209SOL    HW139263   2.380   3.126   5.189  0.2395 -0.3599 -1.1667
 9209SOL    HW239264   2.366   3.262   5.241  0.7373 -1.4685  0.7784
 9210SOL     OW39265   3.160   0.169   1.805  0.3738  0.0273 -0.8158
 9210SOL    HW139266   3.197   0.220   1.732 -0.6433 -1.0066 -2.0569
 9210SOL    HW239267   3.087   0.228   1.826 -0.5037 -2.1501  2.1850
 9211SOL     OW39268   0.479   1.793   3.602  0.4565  0.0656 -0.2708
 9211SOL    HW139269   0.406   1.736   3.625  0.3084  1.3690  2.5026
 9211SOL    HW239270   0.432   1.854   3.545 -1.0025  0.3565  1.2324
 9212SOL     OW39271   3.192   4.167   8.156 -0.3124 -0.2441  0.0930
 9212SOL    HW139272   3.269   4.186   8.102 -0.4608  1.1893  0.3940
 9212SOL    HW239273   3.205   4.214   8.238  0.5450  0.1207 -0.2397
 9213SOL     OW39274   3.650   4.410   1.366 -0.6088  0.1013 -0.0619
 9213SOL    HW139275   3.619   4.495   1.395 -0.2546  0.0489  0.4700
 9213SOL    HW239276   3.675   4.425   1.274 -2.2277  2.1111 -0.1676
 9214SOL     OW39277   3.853   3.482  12.670  0.4124  0.4210  0.2691
 9214SOL    HW139278   3.836   3.497  12.577 -0.9974  1.3667  0.6665
 9214SOL    HW239279   3.818   3.394  12.687  0.0392  0.5639  0.2587
 9215SOL     OW39280   3.183   0.679   6.730  0.1357 -0.1969 -0.4845
 9215SOL    HW139281   3.090   0.670   6.707 -0.0730  2.4069 -0.6398
 9215SOL    HW239282   3.176   0.675   6.825 -4.3015 -0.3763 -0.8261
 9216SOL     OW39283   1.572   3.043   7.298 -0.3229  0.6707 -0.5723
 9216SOL    HW139284   1.576   3.138   7.307 -0.1886  0.4781  1.6084
 9216SOL    HW239285   1.491   3.015   7.342  0.6641  0.3058  1.0313
 9217SOL     OW39286   2.455   0.662   1.723  0.6699  0.4219 -0.1194
 9217SOL    HW139287   2.461   0.757   1.726 -0.0406  0.5823 -3.5890
 9217SOL    HW239288   2.445   0.657   1.818  4.4856 -0.0629  0.2360
 9218SOL     OW39289   3.498   2.976  14.754 -0.1685  0.2842  0.6970
 9218SOL    HW139290   3.481   2.894  14.709  2.9091  0.5561 -0.9798
 9218SOL    HW239291   3.410   3.013  14.747 -0.7087 -1.6486 -2.5373
 9219SOL     OW39292   2.258   4.187   6.060  0.5651 -0.7673  0.2779
 9219SOL    HW139293   2.277   4.172   6.152  1.6929  1.4554  0.3902
 9219SOL    HW239294   2.331   4.234   6.019 -1.8400  0.8277 -2.1450
 9220SOL     OW39295   4.420   1.081  12.673 -0.2233  0.4169 -0.5675
 9220SOL    HW139296   4.353   1.043  12.617  0.2610  0.4043 -1.1391
 9220SOL    HW239297   4.493   1.020  12.665 -1.8872 -1.5963 -0.2136
 9221SOL     OW39298   1.717   1.494   9.561  0.0614  0.1135 -0.1188
 9221SOL    HW139299   1.801   1.450   9.548  0.5727  1.2962 -0.8184
 9221SOL    HW239300   1.659   1.430   9.520 -0.5656  1.8611 -1.9341
 9222SOL     OW39301   0.789   4.104  10.847  0.2447  0.2184  0.0177
 9222SOL    HW139302   0.698   4.089  10.823 -0.0644  1.9778  0.0997
 9222SOL    HW239303   0.808   4.186  10.802 -0.6529  0.5485  0.2499
 9223SOL     OW39304   1.548   4.258   7.695  0.2973  0.7934  0.1943
 9223SOL    HW139305   1.507   4.301   7.770  0.5054  3.8980 -1.4281
 9223SOL    HW239306   1.556   4.336   7.639  0.7530 -0.6102 -1.6811
 9224SOL     OW39307   1.879   0.325  10.668 -0.1141  0.3362 -0.0987
 9224SOL    HW139308   1.929   0.244  10.676 -0.8312 -0.1179 -0.1990
 9224SOL    HW239309   1.934   0.393  10.629 -1.2322  1.1068 -0.3557
 9225SOL     OW39310   3.905   1.272   5.750 -0.5755  0.4708  0.0469
 9225SOL    HW139311   3.952   1.354   5.740 -0.6325  0.7701  2.4207
 9225SOL    HW239312   3.926   1.269   5.843  0.6481 -1.0595 -0.2657
 9226SOL     OW39313   0.908   2.194   3.996  0.0567 -0.1365 -0.2896
 9226SOL    HW139314   0.844   2.233   4.056  1.4939  3.2189 -0.9329
 9226SOL    HW239315   0.937   2.271   3.946  0.9421 -1.7530 -2.2677
 9227SOL     OW39316   0.414   4.634   1.093 -1.2984  0.5225 -0.1600
 9227SOL    HW139317   0.331   4.588   1.101 -0.3849 -0.8312  1.5670
 9227SOL    HW239318   0.420   4.640   0.997 -0.6380  0.6935 -0.1105
 9228SOL     OW39319   0.946   1.065   5.212 -0.3258 -0.3822 -0.1480
 9228SOL    HW139320   0.946   1.034   5.121 -0.9164  0.1587 -0.3260
 9228SOL    HW239321   0.853   1.078   5.231 -0.3901  0.6976 -1.1945
 9229SOL     OW39322   3.781   4.276  17.190  0.1602 -0.0814  0.0212
 9229SOL    HW139323   3.747   4.328  17.118 -0.4105 -1.1780 -0.5074
 9229SOL    HW239324   3.873   4.283  17.165  0.2679  0.2962  0.5272
 9230SOL     OW39325   2.107   3.539   6.433  0.0822  0.3214  0.4451
 9230SOL    HW139326   2.012   3.551   6.440 -0.1209 -1.8367  1.2726
 9230SOL    HW239327   2.121   3.447   6.454  0.4845  0.8972  2.7228
 9231SOL     OW39328   1.569   3.818   7.328  0.5028 -0.1213  0.1218
 9231SOL    HW139329   1.581   3.910   7.305 -1.4821  0.4728  1.5442
 9231SOL    HW239330   1.488   3.811   7.377  0.0820  1.1553 -0.4184
 9232SOL     OW39331   2.551   2.397   2.164 -0.1763  0.2754  0.4600
 9232SOL    HW139332   2.492   2.329   2.130 -0.9068  0.3190  1.6249
 9232SOL    HW239333   2.492   2.435   2.230  0.3524  3.8963 -1.1492
 9233SOL     OW39334   1.938   2.255   5.972  0.2349  0.1462  0.0878
 9233SOL    HW139335   1.935   2.201   5.893  0.2181 -0.2925  0.3886
 9233SOL    HW239336   1.969   2.179   6.022 -0.0727  2.3958  3.6559
 9234SOL     OW39337   4.004   2.761   5.016 -0.4727 -0.0412  0.2801
 9234SOL    HW139338   3.967   2.821   5.081 -0.0913  0.3607  0.1298
 9234SOL    HW239339   4.003   2.817   4.939 -1.3965  0.4623  0.6522
 9235SOL     OW39340   2.850   3.698  11.625 -0.0633  0.4624 -0.0378
 9235SOL    HW139341   2.937   3.711  11.664 -0.4430  1.6509  0.4054
 9235SOL    HW239342   2.829   3.623  11.681 -0.0935  0.8076  0.4118
 9236SOL     OW39343   2.934   1.199   0.343  0.2935  0.3193 -0.1594
 9236SOL    HW139344   3.005   1.247   0.385  0.5445  0.7981 -1.1305
 9236SOL    HW239345   2.979   1.115   0.357 -0.2137  0.6089  3.2481
 9237SOL     OW39346   1.838   3.087   1.558 -0.7682  0.6556  0.0974
 9237SOL    HW139347   1.852   3.181   1.574 -2.1858  0.5859  1.7855
 9237SOL    HW239348   1.844   3.051   1.647 -0.4143  1.7739  0.5347
 9238SOL     OW39349   4.027   0.386  13.120  0.0962 -0.7306  0.1161
 9238SOL    HW139350   3.947   0.369  13.070 -0.8036 -1.5281  1.8544
 9238SOL    HW239351   3.999   0.344  13.201 -3.0928  0.4475 -0.3501
 9239SOL     OW39352   2.957   3.217  11.487 -0.5535  0.0627 -0.3177
 9239SOL    HW139353   2.863   3.198  11.494 -0.9363  1.9095 -0.4509
 9239SOL    HW239354   2.990   3.131  11.460 -0.4193  0.0795 -0.2052
 9240SOL     OW39355   4.039   2.230   4.465 -0.4225 -0.4732 -0.3282
 9240SOL    HW139356   4.057   2.164   4.531 -1.0850 -0.2815  0.0358
 9240SOL    HW239357   4.055   2.190   4.380 -1.2705  0.9337 -1.1575
 9241SOL     OW39358   3.157   1.989   7.255 -0.5459  0.1264 -0.4276
 9241SOL    HW139359   3.065   1.963   7.245 -0.4969 -0.5526  0.9448
 9241SOL    HW239360   3.175   2.047   7.181  0.2928 -2.1721 -2.0471
 9242SOL     OW39361   0.107   1.319   6.956  0.1115 -0.2607  0.2641
 9242SOL    HW139362   0.014   1.332   6.936  0.2808  0.5715  0.0135
 9242SOL    HW239363   0.096   1.287   7.045  2.3992 -0.9159  0.3053
 9243SOL     OW39364   2.573   0.786   9.425  0.0520  0.1148 -0.1574
 9243SOL    HW139365   2.627   0.864   9.413  0.4538 -0.0620  0.5050
 9243SOL    HW239366   2.504   0.793   9.359 -2.6778  1.4881  2.8142
 9244SOL     OW39367   3.010   0.695   1.754  0.6988 -0.1673 -0.1942
 9244SOL    HW139368   2.951   0.766   1.728  0.4648  0.2510  1.4705
 9244SOL    HW239369   3.000   0.637   1.679  0.5763  1.1029 -1.1483
 9245SOL     OW39370   3.031   3.549   3.367  0.2042 -0.6290 -0.3925
 9245SOL    HW139371   3.012   3.551   3.461  0.8296 -1.5958 -0.2469
 9245SOL    HW239372   3.080   3.467   3.367 -0.1600 -0.8449 -1.9350
 9246SOL     OW39373   1.754   1.746  15.928 -0.0183 -0.1039 -0.1275
 9246SOL    HW139374   1.701   1.690  15.871 -2.3852  0.5822  1.4026
 9246SOL    HW239375   1.801   1.789  15.857  1.2929 -0.7596  0.3365
 9247SOL     OW39376   0.190   0.136  16.602 -0.1062  0.1863 -0.7135
 9247SOL    HW139377   0.095   0.138  16.590 -0.2255 -0.3547  0.1920
 9247SOL    HW239378   0.197   0.058  16.657  0.3364  1.1556  0.6032
 9248SOL     OW39379   1.872   0.186   5.047  0.3506  0.2126 -0.0982
 9248SOL    HW139380   1.799   0.204   4.987  0.7415  0.4884 -0.4915
 9248SOL    HW239381   1.911   0.112   5.001 -0.4745  0.7191 -1.6178
 9249SOL     OW39382   1.076   4.318   0.995  0.0598 -0.0402 -0.2003
 9249SOL    HW139383   1.068   4.290   1.086 -0.1957  0.3868 -0.0901
 9249SOL    HW239384   1.073   4.413   1.004  0.8027  0.3201 -3.3918
 9250SOL     OW39385   3.234   0.161   7.087  0.8656  0.1482 -0.2450
 9250SOL    HW139386   3.321   0.202   7.084  0.7072  0.3633 -1.7959
 9250SOL    HW239387   3.198   0.226   7.027 -2.8917 -1.6182  0.1224
 9251SOL     OW39388   3.535   2.939   7.253 -0.5604 -0.1012  0.0104
 9251SOL    HW139389   3.607   2.894   7.209 -0.3920  1.4072 -1.2616
 9251SOL    HW239390   3.585   2.991   7.315  0.3492  0.5607 -1.2724
 9252SOL     OW39391   1.930   1.595  12.917  0.8766 -0.5241 -0.2014
 9252SOL    HW139392   1.878   1.515  12.928 -0.6449  0.2564 -1.6354
 9252SOL    HW239393   2.000   1.572  12.978  0.9166 -0.1183 -0.0914
 9253SOL     OW39394   3.577   0.410   7.614  0.6791  0.0246 -0.3843
 9253SOL    HW139395   3.509   0.472   7.640  1.0109 -0.2484  1.1276
 9253SOL    HW239396   3.651   0.462   7.582  0.5424 -0.4129 -1.4290
 9254SOL     OW39397   4.523   4.345   4.512 -0.4077  0.5759 -0.1963
 9254SOL    HW139398   4.593   4.319   4.572  0.6610  1.3243 -1.1497
 9254SOL    HW239399   4.543   4.434   4.484  3.2118 -1.0338 -2.5780
 9255SOL     OW39400   4.475   4.256  14.066  0.3378  0.1090  0.1843
 9255SOL    HW139401   4.496   4.162  14.069 -0.6561 -0.0701  1.4188
 9255SOL    HW239402   4.524   4.279  14.144 -1.8114 -2.0495  2.1636
 9256SOL     OW39403   3.043   0.736   5.047 -0.1333 -0.0098 -0.6418
 9256SOL    HW139404   2.987   0.699   4.978 -2.2807  0.6251  0.7884
 9256SOL    HW239405   3.031   0.829   5.029  3.6011  0.6583  0.2401
 9257SOL     OW39406   0.221   2.411   6.918  0.1188 -0.8447  0.2541
 9257SOL    HW139407   0.240   2.413   7.011  0.4702  0.7394  0.1474
 9257SOL    HW239408   0.307   2.386   6.884 -1.3575 -1.2808 -3.2131
 9258SOL     OW39409   3.918   3.779   2.922 -0.3904 -0.4017  0.0122
 9258SOL    HW139410   3.906   3.775   3.016  1.1264 -0.3044  0.1975
 9258SOL    HW239411   3.867   3.702   2.896  1.8446 -1.6729 -0.6132
 9259SOL     OW39412   4.327   1.896   7.722  0.1189  0.1981 -0.1913
 9259SOL    HW139413   4.395   1.919   7.658 -2.2022  0.0661 -2.7240
 9259SOL    HW239414   4.309   1.976   7.772 -0.3454 -1.9528  3.0499
 9260SOL     OW39415   2.230   0.761   2.065  0.2601 -0.4815  0.3835
 9260SOL    HW139416   2.320   0.790   2.075  0.0463 -0.1228  1.3058
 9260SOL    HW239417   2.191   0.832   2.014  0.2104  0.3965  1.6244
 9261SOL     OW39418   2.836   2.654  15.141  0.3968  0.0434 -0.0094
 9261SOL    HW139419   2.872   2.577  15.184  2.5306  0.7258 -0.5738
 9261SOL    HW239420   2.744   2.636  15.124  0.9218 -1.5742 -1.1411
 9262SOL     OW39421   1.028   3.855  16.395  0.3412  0.0450 -0.3809
 9262SOL    HW139422   0.955   3.792  16.390  0.0283  0.3674  0.1792
 9262SOL    HW239423   1.094   3.791  16.370  1.3036  0.1951  1.8038
 9263SOL     OW39424   4.498   1.574  10.112 -0.1138  0.1875 -0.5682
 9263SOL    HW139425   4.589   1.581  10.083  1.1615 -2.9381  2.6572
 9263SOL    HW239426   4.507   1.539  10.201 -1.0784  1.1291 -0.0987
 9264SOL     OW39427   1.828   3.621   6.460  0.1758 -0.3904 -0.0751
 9264SOL    HW139428   1.801   3.670   6.538 -0.0788  1.2577 -1.2006
 9264SOL    HW239429   1.773   3.655   6.389 -2.6839  0.1208  2.3819
 9265SOL     OW39430   0.048   0.952   7.653  0.3798  0.0067  0.3360
 9265SOL    HW139431   4.717   0.895   7.681  0.3558 -0.2044 -0.1524
 9265SOL    HW239432   0.119   0.889   7.639  0.8258  0.7876 -0.9013
 9266SOL     OW39433   2.986   1.382   9.828 -0.4025  0.1753  0.6895
 9266SOL    HW139434   3.001   1.296   9.788 -1.9503 -0.5625  1.6844
 9266SOL    HW239435   3.054   1.429   9.780 -1.4699  1.4376  0.4030
 9267SOL     OW39436   3.040   1.008  11.677  0.2756  0.2345  0.5723
 9267SOL    HW139437   3.124   0.999  11.723  0.5919 -0.9193 -0.2235
 9267SOL    HW239438   2.981   0.965  11.738 -1.8610  1.2036 -0.7998
 9268SOL     OW39439   2.287   4.274   5.291  0.3292 -0.3244  0.0505
 9268SOL    HW139440   2.360   4.332   5.314  1.7936 -2.3765  0.5782
 9268SOL    HW239441   2.287   4.291   5.197  0.0614  0.4679  0.1945
 9269SOL     OW39442   0.418   1.261   4.646  0.2267  0.0568  0.2014
 9269SOL    HW139443   0.348   1.215   4.600 -0.6795 -0.5097  2.1612
 9269SOL    HW239444   0.457   1.308   4.573 -0.3429 -0.0669 -0.1761
 9270SOL     OW39445   4.349   1.885   8.107 -0.6991 -0.1694 -0.4276
 9270SOL    HW139446   4.283   1.844   8.163  0.0489 -0.5596  0.1720
 9270SOL    HW239447   4.384   1.802   8.074 -2.9793 -0.5873 -1.7658
 9271SOL     OW39448   2.703   0.918   4.714  0.5778  0.5079  0.3980
 9271SOL    HW139449   2.613   0.937   4.740  0.3278 -0.8311  0.4755
 9271SOL    HW239450   2.690   0.824   4.702 -1.2887  0.7395  0.6999
 9272SOL     OW39451   0.212   3.221  11.645  0.0370 -0.5147 -0.2514
 9272SOL    HW139452   0.192   3.163  11.572  0.4481  0.5748 -1.2248
 9272SOL    HW239453   0.307   3.227  11.649  0.0164 -0.8465  0.9067
 9273SOL     OW39454   1.196   3.973   3.699  0.2970  0.3400 -0.2265
 9273SOL    HW139455   1.119   3.959   3.643 -0.3009  0.0221  0.6672
 9273SOL    HW239456   1.250   4.025   3.639  0.6493 -0.5485 -0.6792
 9274SOL     OW39457   4.611   4.422  12.455  0.2279  0.4158  0.2920
 9274SOL    HW139458   4.604   4.399  12.548  0.9990  1.9573  0.7347
 9274SOL    HW239459   4.531   4.374  12.435  0.6861 -0.9453  1.7254
 9275SOL     OW39460   0.575   3.016   3.292  0.4911  0.4587 -0.1294
 9275SOL    HW139461   0.530   2.993   3.374 -1.9234  1.4631 -1.1709
 9275SOL    HW239462   0.565   3.111   3.288 -1.1009  0.3861  1.5918
 9276SOL     OW39463   0.243   0.172   4.713  0.2354  0.5317 -0.2710
 9276SOL    HW139464   0.284   0.239   4.768  0.0663  0.6404 -0.2797
 9276SOL    HW239465   0.151   0.194   4.699 -0.5829 -2.0756  1.0835
 9277SOL     OW39466   1.032   1.971   9.968 -0.4989 -0.5483  0.2643
 9277SOL    HW139467   1.097   2.041   9.955 -1.2776  0.5024  1.9865
 9277SOL    HW239468   1.081   1.902   9.922 -0.9320 -0.7216  0.0615
 9278SOL     OW39469   1.990   0.377   8.881 -0.3434  0.2843  0.3690
 9278SOL    HW139470   2.061   0.389   8.944  0.4963  0.2599 -0.5685
 9278SOL    HW239471   1.952   0.464   8.872 -0.1647  0.2508 -0.7051
 9279SOL     OW39472   4.671   1.906   2.228 -0.2847 -0.0340  0.4052
 9279SOL    HW139473   4.706   1.820   2.205  1.7767  0.3995  1.8769
 9279SOL    HW239474   0.004   1.963   2.205  0.8180 -1.5341  0.1707
 9280SOL     OW39475   2.737   1.335   7.474 -0.4256  0.0615  0.5591
 9280SOL    HW139476   2.646   1.344   7.504 -1.3089 -0.8409 -1.8446
 9280SOL    HW239477   2.748   1.241   7.463 -1.3678  0.0759 -0.5391
 9281SOL     OW39478   3.605   2.158   5.289 -0.5571 -0.1015  0.2068
 9281SOL    HW139479   3.683   2.208   5.265  0.7070 -1.7957  0.7413
 9281SOL    HW239480   3.534   2.209   5.251 -0.5564 -0.3205 -0.0912
 9282SOL     OW39481   4.334   1.496   3.790 -0.0261 -0.1480  0.0157
 9282SOL    HW139482   4.344   1.479   3.696  0.9401  0.7019 -0.0264
 9282SOL    HW239483   4.417   1.532   3.819 -0.3940 -0.8468  1.9090
 9283SOL     OW39484   2.528   3.125   1.963 -0.2295 -0.0554  0.3476
 9283SOL    HW139485   2.589   3.069   2.012  0.3367  0.3053  0.0538
 9283SOL    HW239486   2.478   3.065   1.908 -0.6173  0.2191  0.3966
 9284SOL     OW39487   3.783   1.883   5.685 -0.4611 -0.1371 -0.2817
 9284SOL    HW139488   3.776   1.900   5.591  1.5663  1.5940 -0.1332
 9284SOL    HW239489   3.865   1.927   5.707 -0.9414  1.4290 -1.5956
 9285SOL     OW39490   4.078   3.004   7.369  0.1672  0.1397 -0.2015
 9285SOL    HW139491   4.154   3.002   7.428 -1.3712 -0.7770  1.7751
 9285SOL    HW239492   4.118   3.002   7.282  2.3743  1.1640  0.7906
 9286SOL     OW39493   0.006   0.737   8.550 -0.0770 -0.1058  0.3053
 9286SOL    HW139494   4.726   0.766   8.639 -1.4570  0.5253 -0.2113
 9286SOL    HW239495   0.101   0.741   8.541 -0.1732 -0.3733 -0.9075
 9287SOL     OW39496   1.557   1.404   6.073  0.2045 -0.8709 -0.1025
 9287SOL    HW139497   1.473   1.369   6.104 -1.3973  0.5240 -2.8055
 9287SOL    HW239498   1.538   1.498   6.069  1.4537 -0.5163  2.7304
 9288SOL     OW39499   0.475   3.341   7.736  0.0342  0.2447  0.0988
 9288SOL    HW139500   0.430   3.381   7.810 -1.5839 -2.4515  0.5774
 9288SOL    HW239501   0.554   3.305   7.776  0.5729  0.6033 -0.6393
 9289SOL     OW39502   2.613   4.699   5.182  0.5985 -0.1365  0.0811
 9289SOL    HW139503   2.581   4.630   5.124 -0.7497 -0.1646  0.8443
 9289SOL    HW239504   2.559   0.033   5.151 -0.2363 -0.5461  0.5354
 9290SOL     OW39505   4.214   3.297   9.227  0.1246  0.7100  0.2154
 9290SOL    HW139506   4.177   3.281   9.140  0.8520 -1.1403  0.2413
 9290SOL    HW239507   4.155   3.366   9.257  0.0524  0.2142  1.2232
 9291SOL     OW39508   3.335   0.605   6.110  0.3767  0.4322 -0.2479
 9291SOL    HW139509   3.273   0.595   6.037  1.1823 -2.0698 -0.5752
 9291SOL    HW239510   3.293   0.538   6.164  1.0266 -0.1839 -0.5134
 9292SOL     OW39511   1.137   4.117   7.668 -0.0901 -0.2973  0.8473
 9292SOL    HW139512   1.226   4.083   7.678  0.3582  0.8051  0.5207
 9292SOL    HW239513   1.137   4.179   7.595 -0.1212  0.6599  1.6683
 9293SOL     OW39514   4.547   2.509  13.460 -0.4212  0.1919 -0.4683
 9293SOL    HW139515   4.598   2.468  13.530 -0.3807  2.7496  0.9912
 9293SOL    HW239516   4.611   2.572  13.428  0.0029 -0.4774 -0.9299
 9294SOL     OW39517   0.842   4.458   3.392  0.3512  0.6744  0.3166
 9294SOL    HW139518   0.929   4.473   3.429  0.2872 -0.7324  1.0378
 9294SOL    HW239519   0.859   4.456   3.298  1.9930 -1.1898  0.6682
 9295SOL     OW39520   4.220   1.032   6.477 -0.6651 -0.2820  0.0648
 9295SOL    HW139521   4.195   1.107   6.423  0.2195 -0.2449 -0.3096
 9295SOL    HW239522   4.145   0.973   6.476 -0.6726 -0.3035  2.5464
 9296SOL     OW39523   1.264   0.125   4.139 -0.0014  0.2956  0.4263
 9296SOL    HW139524   1.312   0.172   4.071 -0.9659  2.2359  1.0586
 9296SOL    HW239525   1.285   0.033   4.124 -0.8626  0.2004 -0.1412
 9297SOL     OW39526   2.856   4.617  10.893 -0.3799  0.4540 -0.3311
 9297SOL    HW139527   2.901   4.628  10.977 -1.1030  1.4233 -0.0702
 9297SOL    HW239528   2.770   4.597  10.930  0.4047  0.1573  1.3333
 9298SOL     OW39529   2.123   1.438  12.240  0.3561 -0.5766 -0.0999
 9298SOL    HW139530   2.173   1.454  12.320 -0.5592 -1.6014  0.6809
 9298SOL    HW239531   2.117   1.342  12.237 -0.0091 -0.5212 -1.0375
 9299SOL     OW39532   1.484   0.729   8.134 -0.2365 -0.1093  0.1571
 9299SOL    HW139533   1.459   0.716   8.043 -2.1801  1.2775  0.4943
 9299SOL    HW239534   1.486   0.640   8.169 -0.0783 -0.9950 -2.1396
 9300SOL     OW39535   4.614   1.369   6.887 -0.6971 -0.4226  0.0843
 9300SOL    HW139536   4.588   1.444   6.940  0.1227 -0.0275 -0.0817
 9300SOL    HW239537   4.619   1.412   6.802 -0.0995 -2.0859 -0.7351
 9301SOL     OW39538   1.265   2.306   7.463  0.2682 -0.0683  0.0794
 9301SOL    HW139539   1.256   2.400   7.475  1.0467 -0.1371  1.1962
 9301SOL    HW239540   1.359   2.295   7.449  0.3515  1.2341 -0.3973
 9302SOL     OW39541   3.881   0.140   6.349 -0.0149 -0.4438  0.0390
 9302SOL    HW139542   3.866   0.078   6.421 -0.5028 -0.3291  0.0331
 9302SOL    HW239543   3.813   0.204   6.368  2.5736  2.1370  0.6055
 9303SOL     OW39544   2.941   3.448   7.684 -0.2509 -0.3413  0.3513
 9303SOL    HW139545   2.940   3.377   7.748 -1.0110  1.1664  2.0101
 9303SOL    HW239546   3.036   3.446   7.673 -0.3333  1.4201 -0.7168
 9304SOL     OW39547   1.442   2.343   8.539 -0.0159 -0.1886 -0.0062
 9304SOL    HW139548   1.481   2.256   8.547  1.7196  0.6412  0.6184
 9304SOL    HW239549   1.405   2.346   8.627  2.6487  0.6253  1.0847
 9305SOL     OW39550   3.772   0.261  16.514 -0.1224  0.4146 -0.3947
 9305SOL    HW139551   3.777   0.290  16.606 -0.6341 -1.6071  0.2585
 9305SOL    HW239552   3.845   0.199  16.512 -0.5230 -0.1381  1.7487
 9306SOL     OW39553   2.906   3.015   3.482 -0.3194 -0.1447 -0.3362
 9306SOL    HW139554   2.858   2.948   3.433  0.1602 -0.2742 -0.6206
 9306SOL    HW239555   2.929   2.960   3.557 -1.3880 -0.5259 -0.2931
 9307SOL     OW39556   4.135   1.011   5.738 -0.2556  0.1105  0.6759
 9307SOL    HW139557   4.099   1.099   5.724 -0.3889  0.3727  2.7197
 9307SOL    HW239558   4.158   1.020   5.830  1.4983  0.6562  0.1787
 9308SOL     OW39559   1.892   4.507   1.752  0.6935 -0.0386 -0.0889
 9308SOL    HW139560   1.872   4.580   1.694 -2.5668 -0.1080  0.9251
 9308SOL    HW239561   1.911   4.550   1.835  1.1837 -0.1670 -0.1380
 9309SOL     OW39562   2.325   4.416   2.959 -0.8466  0.0730 -0.2147
 9309SOL    HW139563   2.277   4.470   2.897  0.9966 -0.2352 -1.9271
 9309SOL    HW239564   2.263   4.343   2.963  0.3008 -0.7996  1.9901
 9310SOL     OW39565   2.732   4.166  14.486 -0.4294  0.2268 -0.2355
 9310SOL    HW139566   2.753   4.088  14.435 -0.4284 -0.8470  1.4258
 9310SOL    HW239567   2.790   4.151  14.560 -0.6568  1.5848  0.2117
 9311SOL     OW39568   1.680   1.100   1.010  0.2432 -0.3404 -0.6595
 9311SOL    HW139569   1.615   1.104   0.940 -0.4226  1.0534  0.0275
 9311SOL    HW239570   1.751   1.060   0.961 -1.1849  0.5375 -3.4570
 9312SOL     OW39571   1.468   4.001   7.053 -0.2386  0.1169 -0.1311
 9312SOL    HW139572   1.454   4.055   7.131 -1.2612  0.1935 -0.3656
 9312SOL    HW239573   1.468   4.063   6.980 -2.2844  1.0968  0.6963
 9313SOL     OW39574   3.378   1.310   1.821 -0.1020 -0.0470 -0.7207
 9313SOL    HW139575   3.370   1.223   1.783  2.3993 -1.6080  2.4040
 9313SOL    HW239576   3.290   1.343   1.838 -0.3258 -0.7989 -0.4275
 9314SOL     OW39577   3.424   1.234  12.012  0.1099 -0.1199  0.1564
 9314SOL    HW139578   3.396   1.315  11.970  1.8868  0.4297  0.0137
 9314SOL    HW239579   3.477   1.276  12.080 -1.0958 -1.1457  1.7484
 9315SOL     OW39580   1.907   2.629   2.002  0.1300  0.2587 -0.4488
 9315SOL    HW139581   1.852   2.654   1.928  0.0386  2.0284  0.2091
 9315SOL    HW239582   1.932   2.541   1.976 -1.1142  0.1512 -1.2625
 9316SOL     OW39583   3.434   3.651   4.791  0.1119  0.1768 -0.0508
 9316SOL    HW139584   3.371   3.596   4.745  0.2718 -0.9371  1.0343
 9316SOL    HW239585   3.492   3.669   4.717 -0.0053 -1.2719 -0.4859
 9317SOL     OW39586   0.570   0.885   5.291  0.0964  0.4009  0.8459
 9317SOL    HW139587   0.476   0.904   5.295  0.1859  1.5697 -2.1547
 9317SOL    HW239588   0.570   0.800   5.335  2.3498 -1.1389 -2.1615
 9318SOL     OW39589   4.463   0.657   8.497  0.3447 -0.4796  0.1732
 9318SOL    HW139590   4.440   0.707   8.576  1.3779 -0.8554  0.7092
 9318SOL    HW239591   4.525   0.591   8.527 -0.3909 -0.8766  0.8346
 9319SOL     OW39592   2.939   0.879   8.605 -0.1918 -0.1871  0.0173
 9319SOL    HW139593   2.879   0.943   8.567  0.9907 -0.7968 -2.8728
 9319SOL    HW239594   2.941   0.813   8.536 -0.8112 -0.3672  0.1737
 9320SOL     OW39595   2.628   1.867   2.717  0.8425 -0.4761 -0.3322
 9320SOL    HW139596   2.566   1.795   2.728  1.3761 -0.6143  1.7470
 9320SOL    HW239597   2.716   1.830   2.709  0.7555 -1.1293  1.9171
 9321SOL     OW39598   3.813   0.056   5.438  0.2907 -0.1318  0.1315
 9321SOL    HW139599   3.811   0.022   5.527 -0.2606 -0.3408  0.0392
 9321SOL    HW239600   3.722   0.080   5.421  0.2683  0.6164  1.2896
 9322SOL     OW39601   4.654   0.839  10.264  0.2732  0.5632  0.1571
 9322SOL    HW139602   4.667   0.745  10.271  1.9169  0.8839  1.5022
 9322SOL    HW239603   4.563   0.848  10.293  0.2529 -1.2857  0.6671
 9323SOL     OW39604   3.450   1.054  17.394  0.4575  0.3475  0.9547
 9323SOL    HW139605   3.460   0.974  17.342 -1.9011 -0.2230  1.3340
 9323SOL    HW239606   3.394   1.112  17.343  0.4032 -1.3281 -0.9077
 9324SOL     OW39607   2.234   1.720   3.097  0.2306  0.5254  0.0198
 9324SOL    HW139608   2.237   1.691   3.188 -1.6175 -1.6090 -0.6053
 9324SOL    HW239609   2.141   1.716   3.074  0.3464  1.1303 -0.5555
 9325SOL     OW39610   2.038   3.685   7.021 -0.0182  0.0549 -0.2799
 9325SOL    HW139611   2.119   3.732   6.999  0.7418 -0.5633  1.2195
 9325SOL    HW239612   2.022   3.720   7.108 -1.6264  2.0981 -1.3861
 9326SOL     OW39613   1.473   2.752   5.874  0.0719 -0.0007 -0.0667
 9326SOL    HW139614   1.426   2.684   5.923  1.0315  0.8385  2.0541
 9326SOL    HW239615   1.451   2.831   5.925 -3.0932 -0.1768 -1.1246
 9327SOL     OW39616   1.925   1.674  16.333  0.2382  0.0639 -0.7760
 9327SOL    HW139617   1.953   1.680  16.242  0.8669 -0.9905 -0.6560
 9327SOL    HW239618   1.963   1.751  16.374  0.2944 -0.1992 -0.3362
 9328SOL     OW39619   0.180   1.903   3.838 -0.2394 -0.4110 -0.0058
 9328SOL    HW139620   0.237   1.833   3.807 -0.1120 -0.4100  0.2230
 9328SOL    HW239621   0.236   1.950   3.900 -0.2997  0.1487 -0.3668
 9329SOL     OW39622   3.869   3.456   4.470  0.3324  0.6981 -0.1136
 9329SOL    HW139623   3.947   3.495   4.433  1.3333 -0.8831  0.3099
 9329SOL    HW239624   3.859   3.507   4.550  1.7156 -1.0354  1.1678
 9330SOL     OW39625   3.359   1.623   3.360 -0.2930 -0.0751  0.1782
 9330SOL    HW139626   3.369   1.706   3.313 -1.4125  0.5867  1.1148
 9330SOL    HW239627   3.264   1.612   3.356 -0.2698 -0.0107 -0.5950
 9331SOL     OW39628   4.073   1.939   9.171 -0.4248 -0.1252  0.4451
 9331SOL    HW139629   4.148   1.960   9.225 -1.0389  0.2345  1.1570
 9331SOL    HW239630   4.074   2.013   9.110 -0.4754  1.5337  2.4657
 9332SOL     OW39631   3.524   4.214  14.187 -0.4106 -0.3596 -0.7563
 9332SOL    HW139632   3.440   4.254  14.163  1.1661  2.6610 -1.2595
 9332SOL    HW239633   3.576   4.237  14.110 -0.1160 -1.5667 -0.9039
 9333SOL     OW39634   1.639   0.246  10.777 -0.8831  0.0454 -0.0918
 9333SOL    HW139635   1.579   0.299  10.830  0.7367 -0.0892  1.8730
 9333SOL    HW239636   1.710   0.309  10.765 -0.3711 -1.1306 -3.2603
 9334SOL     OW39637   1.703   1.527  10.101 -0.1120 -0.3191 -0.0633
 9334SOL    HW139638   1.748   1.539  10.018 -1.8567  1.5123 -0.7580
 9334SOL    HW239639   1.734   1.605  10.148 -1.7923 -0.4517  1.2798
 9335SOL     OW39640   2.416   1.130   1.971 -0.1809  0.6867 -0.5370
 9335SOL    HW139641   2.339   1.111   1.918 -0.5397 -1.1638  0.6457
 9335SOL    HW239642   2.474   1.173   1.907  0.4232  0.1673 -0.3380
 9336SOL     OW39643   0.923   2.430   4.642  0.3407 -0.0506  0.7956
 9336SOL    HW139644   0.978   2.420   4.719  0.5356  0.4499  0.7188
 9336SOL    HW239645   0.883   2.517   4.653 -1.5282 -0.7885 -0.1357
 9337SOL     OW39646   1.230   3.500   9.105  0.3954 -0.5810 -0.1780
 9337SOL    HW139647   1.321   3.501   9.133  0.3162  2.5702 -0.0321
 9337SOL    HW239648   1.206   3.418   9.149  0.3861 -0.7295 -0.4556
 9338SOL     OW39649   0.951   2.545   6.439 -0.4707  0.7172 -0.3596
 9338SOL    HW139650   0.899   2.501   6.372 -0.2145  1.6639 -1.1803
 9338SOL    HW239651   1.040   2.509   6.438 -0.7356 -0.0476  2.0050
 9339SOL     OW39652   1.950   0.489   7.551 -0.0837  0.3001  0.3738
 9339SOL    HW139653   2.021   0.438   7.589  0.4026  2.0691  1.8788
 9339SOL    HW239654   1.935   0.559   7.615  2.9841  1.0997  0.1988
 9340SOL     OW39655   1.433   3.096   3.894  0.5502 -0.9589  0.2674
 9340SOL    HW139656   1.460   3.176   3.938  0.8629 -0.3714 -0.9962
 9340SOL    HW239657   1.417   3.139   3.810  0.8117 -0.7591  0.3222
 9341SOL     OW39658   0.285   1.609  13.152 -0.2831 -0.2870  0.8061
 9341SOL    HW139659   0.266   1.670  13.223 -1.1463 -1.6049  1.6874
 9341SOL    HW239660   0.283   1.526  13.200  0.0847 -0.6893  0.1284
 9342SOL     OW39661   3.833   3.523  14.562 -0.1545 -0.0337  0.4200
 9342SOL    HW139662   3.775   3.533  14.487  0.5906 -0.4639 -0.2087
 9342SOL    HW239663   3.920   3.519  14.523  0.2620  1.5763  1.1922
 9343SOL     OW39664   4.715   3.971   7.737 -1.1335 -0.3849  0.4507
 9343SOL    HW139665   4.701   4.047   7.681  2.6890  0.1660  0.2616
 9343SOL    HW239666   0.060   3.943   7.704 -1.9200 -0.2332 -1.6690
 9344SOL     OW39667   2.554   1.182  14.210  0.1145  0.0852  0.0333
 9344SOL    HW139668   2.506   1.105  14.239  0.3417  0.4839  1.4552
 9344SOL    HW239669   2.509   1.251  14.258  0.7009  1.1488 -0.9487
 9345SOL     OW39670   0.571   0.563  17.476  0.3430  0.1413 -0.2506
 9345SOL    HW139671   0.588   0.552  17.570  2.4293  0.4392 -0.5999
 9345SOL    HW239672   0.481   0.594  17.486  0.8143  1.0923  1.0185
 9346SOL     OW39673   2.764   2.505   5.110 -0.6034  0.2652  0.3001
 9346SOL    HW139674   2.845   2.553   5.097 -0.6138 -0.0493 -0.9491
 9346SOL    HW239675   2.808   2.428   5.148 -0.9119  0.4527  1.0363
 9347SOL     OW39676   4.580   4.645  12.956 -0.0001  0.4385 -0.2778
 9347SOL    HW139677   4.659   4.670  12.910  1.5937  0.5121  2.5108
 9347SOL    HW239678   4.513   4.653  12.887  2.7795  3.1254 -2.6177
 9348SOL     OW39679   1.374   2.833  14.558 -0.4125 -0.1935 -0.0242
 9348SOL    HW139680   1.352   2.863  14.469 -0.5197 -1.3824 -0.3913
 9348SOL    HW239681   1.361   2.916  14.605 -0.3814  1.1283 -2.3265
 9349SOL     OW39682   3.175   4.137   0.148  0.1800 -0.3786 -0.0136
 9349SOL    HW139683   3.267   4.164   0.146  0.2889 -0.6433  2.1938
 9349SOL    HW239684   3.141   4.211   0.096 -0.8603  0.6613  2.1442
 9350SOL     OW39685   0.064   2.003  15.724 -0.1294  0.2538 -0.1742
 9350SOL    HW139686   0.156   1.979  15.736 -0.0863  0.7055  0.4287
 9350SOL    HW239687   0.038   1.943  15.794  0.6254  1.5338  1.2070
 9351SOL     OW39688   4.613   1.048   0.610  0.2023 -0.1282  0.7136
 9351SOL    HW139689   4.674   0.979   0.581 -1.0470 -0.8713 -0.1551
 9351SOL    HW239690   4.551   1.029   0.540  0.3590  0.5289  0.3967
 9352SOL     OW39691   4.274   4.459  16.923  0.2060 -0.4418 -0.1591
 9352SOL    HW139692   4.228   4.539  16.899 -0.1019  0.2110  2.6757
 9352SOL    HW239693   4.269   4.402  16.846 -0.0241 -2.8022  1.6132
 9353SOL     OW39694   1.219   4.258  10.958  0.0107  0.2612  0.0331
 9353SOL    HW139695   1.231   4.202  10.881  1.6078 -0.9583  1.1790
 9353SOL    HW239696   1.212   4.340  10.909  3.1545  0.4294 -0.1337
 9354SOL     OW39697   1.002   2.479   2.862 -0.0896 -0.1862  0.3553
 9354SOL    HW139698   0.942   2.538   2.908  0.1423 -0.7390  1.3754
 9354SOL    HW239699   1.080   2.473   2.918  2.2720  2.2195 -2.6549
 9355SOL     OW39700   4.391   2.685   1.159 -0.3481 -0.5581  0.2594
 9355SOL    HW139701   4.393   2.757   1.222  0.7236 -0.2860 -0.0851
 9355SOL    HW239702   4.440   2.612   1.197 -2.1132 -1.4718  0.7953
 9356SOL     OW39703   3.734   4.134   3.061 -0.1245  0.0750 -0.9767
 9356SOL    HW139704   3.809   4.194   3.061 -3.2896  4.0176 -0.0284
 9356SOL    HW239705   3.673   4.183   3.115 -0.4379 -0.7069 -0.6179
 9357SOL     OW39706   4.546   4.015  10.240  0.1886 -0.6252  1.0074
 9357SOL    HW139707   4.638   3.994  10.223  0.2874  1.4116 -1.1199
 9357SOL    HW239708   4.549   4.088  10.302 -2.2299 -1.1830  1.7987
 9358SOL     OW39709   4.129   3.816   7.369 -0.1417  0.2741 -0.2921
 9358SOL    HW139710   4.174   3.739   7.404  2.2801  1.2358 -1.2458
 9358SOL    HW239711   4.131   3.869   7.449  0.2865  0.5320 -0.4740
 9359SOL     OW39712   1.372   4.346   1.182  0.5113  0.1217 -0.3040
 9359SOL    HW139713   1.287   4.386   1.161  1.0127  2.6359  2.2829
 9359SOL    HW239714   1.373   4.272   1.122 -1.2676 -0.8333  0.8596
 9360SOL     OW39715   1.736   1.961   7.360 -0.2935 -0.3340 -0.2564
 9360SOL    HW139716   1.656   1.957   7.307  0.0110  3.1678 -0.9926
 9360SOL    HW239717   1.755   2.055   7.355  1.0736 -0.6227 -0.3944
 9361SOL     OW39718   4.074   3.160  13.823  0.0200 -0.0404  0.8044
 9361SOL    HW139719   4.160   3.187  13.853 -0.4204  0.3432  1.7007
 9361SOL    HW239720   4.023   3.234  13.857 -0.0619 -0.2032  1.0340
 9362SOL     OW39721   1.074   1.440  12.943  0.0985  0.2760  0.3439
 9362SOL    HW139722   1.070   1.437  12.848 -0.6816  1.4868  0.3458
 9362SOL    HW239723   1.134   1.514  12.955 -0.1788  0.4843  0.4308
 9363SOL     OW39724   2.727   3.645  12.058  0.9006  0.0950 -0.4219
 9363SOL    HW139725   2.644   3.688  12.036 -0.6546 -2.4160  0.5408
 9363SOL    HW239726   2.700   3.562  12.096 -0.7484 -0.0742 -1.9701
 9364SOL     OW39727   2.362   1.640  13.259 -0.2750  0.2898  0.1291
 9364SOL    HW139728   2.418   1.647  13.182 -2.7192 -0.1861 -1.6910
 9364SOL    HW239729   2.402   1.698  13.324  2.5083 -0.0982 -1.2085
 9365SOL     OW39730   0.279   2.802   3.927  0.1685 -0.3822  0.0695
 9365SOL    HW139731   0.252   2.713   3.904 -1.6066  0.2331 -0.3100
 9365SOL    HW239732   0.360   2.781   3.972  1.7544 -0.0016 -2.5823
 9366SOL     OW39733   3.566   0.084   5.127  0.1235  0.2856  0.3293
 9366SOL    HW139734   3.546   0.001   5.085 -0.0359 -0.7637  2.5184
 9366SOL    HW239735   3.560   0.145   5.053  0.1092 -0.7406 -0.5065
 9367SOL     OW39736   4.602   3.446   4.004 -0.0177  0.4608  0.0252
 9367SOL    HW139737   4.545   3.411   3.935 -1.7322 -0.3807  1.8852
 9367SOL    HW239738   4.668   3.377   4.005  0.7067  1.1112 -2.9114
 9368SOL     OW39739   4.599   2.440   3.837  0.5345  0.2567  0.2429
 9368SOL    HW139740   4.630   2.523   3.872  2.8258 -0.7796  0.6624
 9368SOL    HW239741   4.518   2.425   3.886 -0.2004  0.4285 -0.9411
 9369SOL     OW39742   3.003   3.794  15.707  0.5368  0.3499 -0.1687
 9369SOL    HW139743   3.051   3.726  15.752  1.5489  1.5022  0.4860
 9369SOL    HW239744   3.070   3.845  15.661 -1.1107  2.0190 -0.7442
 9370SOL     OW39745   2.674   0.746   7.147  0.0359 -0.1084  0.0817
 9370SOL    HW139746   2.766   0.765   7.128  0.2762 -1.7820 -0.4486
 9370SOL    HW239747   2.645   0.836   7.165  1.1751  0.9835 -3.5617
 9371SOL     OW39748   2.971   2.435   2.266 -0.0991 -0.5385 -0.4269
 9371SOL    HW139749   3.058   2.437   2.306 -1.1477 -1.2030  1.8980
 9371SOL    HW239750   2.917   2.464   2.340 -0.4410  2.7580 -1.9781
 9372SOL     OW39751   2.761   1.487  14.703 -0.3247  0.5494 -0.1448
 9372SOL    HW139752   2.831   1.429  14.730  0.6757  1.4871 -0.7125
 9372SOL    HW239753   2.821   1.561  14.697 -0.4441  0.6911  0.3842
 9373SOL     OW39754   0.150   3.852   5.636 -0.5949  0.6474  0.1990
 9373SOL    HW139755   0.065   3.870   5.676 -1.0047  1.7469 -1.1560
 9373SOL    HW239756   0.191   3.893   5.712 -0.6388  2.2785 -0.6584
 9374SOL     OW39757   1.765   0.339  10.354  0.1213 -0.4468  0.1163
 9374SOL    HW139758   1.671   0.355  10.348  0.5572  1.0586 -2.5209
 9374SOL    HW239759   1.765   0.293  10.438  0.1801 -1.8158 -0.6435
 9375SOL     OW39760   3.793   3.341  15.312 -0.5091  0.1184  0.5081
 9375SOL    HW139761   3.829   3.349  15.224 -2.3804 -0.0281 -0.2701
 9375SOL    HW239762   3.702   3.359  15.285 -1.2068 -0.1308  2.6911
 9376SOL     OW39763   4.137   1.451   8.066  0.0948  0.1603 -0.1849
 9376SOL    HW139764   4.148   1.386   7.997 -1.1414  1.0486 -1.2341
 9376SOL    HW239765   4.043   1.455   8.085 -0.4053  3.5462 -3.3853
 9377SOL     OW39766   4.394   3.932   5.846  0.5351  0.2750  0.8846
 9377SOL    HW139767   4.337   4.008   5.839  0.2338  0.1833  2.5046
 9377SOL    HW239768   4.335   3.858   5.828 -0.2275  1.4256 -1.4176
 9378SOL     OW39769   1.521   1.559   9.042 -0.6551 -0.5089  0.1913
 9378SOL    HW139770   1.585   1.628   9.060  0.3744 -1.7189  1.1921
 9378SOL    HW239771   1.443   1.614   9.041  0.2623  0.8030  0.4567
 9379SOL     OW39772   3.621   1.294   6.017  0.1105  0.2087  0.3120
 9379SOL    HW139773   3.638   1.201   6.003 -2.3063  0.0310 -1.3102
 9379SOL    HW239774   3.643   1.322   5.928  1.1753  3.7086  1.6872
 9380SOL     OW39775   0.667   2.776   6.222 -0.1688 -0.3745  0.0714
 9380SOL    HW139776   0.639   2.685   6.214 -1.0824 -0.0607 -0.1832
 9380SOL    HW239777   0.626   2.814   6.144 -2.3924  0.1739  1.5202
 9381SOL     OW39778   1.826   0.110   2.945 -0.1370  0.2587  0.0729
 9381SOL    HW139779   1.805   0.132   3.036  0.3499 -1.1679  0.5423
 9381SOL    HW239780   1.874   0.026   2.949  3.2917  2.2457  0.9346
 9382SOL     OW39781   1.547   2.938   9.144  0.0811  0.1873  0.6113
 9382SOL    HW139782   1.462   2.915   9.108  0.1875  0.2001  0.3562
 9382SOL    HW239783   1.582   2.850   9.154 -0.8488 -0.3289 -0.7756
 9383SOL     OW39784   3.947   4.032   9.455 -0.3985 -0.3522 -0.7337
 9383SOL    HW139785   3.968   4.021   9.548 -0.1511  2.1130 -0.5137
 9383SOL    HW239786   3.917   4.122   9.467  0.9439  0.2922 -2.0652
 9384SOL     OW39787   4.227   4.353   4.517 -0.3340 -0.0205  0.1296
 9384SOL    HW139788   4.318   4.340   4.491 -0.3262 -1.2239  0.7605
 9384SOL    HW239789   4.214   4.312   4.603  2.5703  0.1117  0.6229
 9385SOL     OW39790   0.844   0.095   3.848 -0.0843 -0.2229 -0.0319
 9385SOL    HW139791   0.854   0.188   3.869  1.5986 -0.0452 -1.5752
 9385SOL    HW239792   0.931   0.056   3.860  0.2572  0.1523 -1.2954
 9386SOL     OW39793   2.410   0.988  12.871  0.4091 -0.0514 -0.2863
 9386SOL    HW139794   2.351   1.059  12.846  0.6294  0.7654  1.5419
 9386SOL    HW239795   2.387   0.917  12.810  1.1546 -0.1070 -0.4944
 9387SOL     OW39796   2.810   0.938  17.551 -0.1143 -0.2134 -0.1131
 9387SOL    HW139797   2.881   0.909  17.608 -0.0081 -0.8001 -0.5507
 9387SOL    HW239798   2.861   0.944  17.471  0.0798 -0.7236 -0.0266
 9388SOL     OW39799   2.782   3.666   1.800  0.0322 -0.4396 -1.0603
 9388SOL    HW139800   2.810   3.607   1.869  1.2166  1.3027 -0.0303
 9388SOL    HW239801   2.825   3.749   1.824  0.6904 -0.5890 -1.6996
 9389SOL     OW39802   3.280   2.748   5.025 -0.0773 -0.9774 -0.1653
 9389SOL    HW139803   3.321   2.689   4.962  1.9193  1.3537 -1.0375
 9389SOL    HW239804   3.322   2.708   5.101 -1.4715 -1.0516  0.5621
 9390SOL     OW39805   1.417   3.006  13.629 -0.4826  0.2755 -0.0914
 9390SOL    HW139806   1.386   3.077  13.686 -2.8856 -1.1048  0.3242
 9390SOL    HW239807   1.483   2.973  13.689  0.7874  0.5622 -1.3234
 9391SOL     OW39808   3.509   3.742   2.804  0.0266 -0.4989 -0.5415
 9391SOL    HW139809   3.530   3.754   2.711  1.1311  0.9318 -0.1029
 9391SOL    HW239810   3.529   3.649   2.817  0.2746 -0.4883 -0.8545
 9392SOL     OW39811   3.110   3.201   2.784 -0.8285 -0.0674 -0.1775
 9392SOL    HW139812   3.053   3.167   2.854  1.5634  0.8027  2.2141
 9392SOL    HW239813   3.058   3.276   2.756  1.9620  1.8318 -0.3168
 9393SOL     OW39814   2.233   2.835   1.856 -0.0034  0.3835  0.0814
 9393SOL    HW139815   2.269   2.752   1.887 -0.9400  1.3368  3.7702
 9393SOL    HW239816   2.192   2.803   1.776 -0.0409 -3.8404  1.7774
 9394SOL     OW39817   2.895   3.790   6.180 -0.8623 -0.0200  0.1792
 9394SOL    HW139818   2.823   3.806   6.119 -1.0927 -0.2031  0.4024
 9394SOL    HW239819   2.858   3.775   6.267  1.2300 -1.5945  0.8085
 9395SOL     OW39820   2.823   2.265   4.198  0.1633  0.2445  0.0886
 9395SOL    HW139821   2.824   2.328   4.271 -0.2872 -0.2594  0.5296
 9395SOL    HW239822   2.747   2.211   4.221  0.6343 -0.1898  0.6206
 9396SOL     OW39823   1.040   3.399  15.913 -0.1503 -0.1809  0.3044
 9396SOL    HW139824   0.978   3.471  15.909  1.1945  0.8728 -1.5871
 9396SOL    HW239825   1.120   3.441  15.943 -1.1296  0.6842  1.6830
 9397SOL     OW39826   3.167   4.493  17.426  0.2163  0.0853 -0.2445
 9397SOL    HW139827   3.081   4.469  17.460 -0.2482  0.5155 -1.1267
 9397SOL    HW239828   3.188   4.406  17.392  1.9094  0.7205 -0.8129
 9398SOL     OW39829   1.173   4.059   6.271  0.4912 -0.1035 -0.0871
 9398SOL    HW139830   1.183   4.054   6.366  1.7924  1.3623 -0.1329
 9398SOL    HW239831   1.263   4.035   6.247  0.8777  0.8556  0.4016
 9399SOL     OW39832   2.086   4.344   0.298  0.2200  0.0071  0.1682
 9399SOL    HW139833   2.149   4.401   0.342  2.4667 -2.1959 -0.1661
 9399SOL    HW239834   2.142   4.267   0.290  1.6232  0.9314  1.1305
 9400SOL     OW39835   3.912   2.930   5.246  0.5069 -0.1181  0.1958
 9400SOL    HW139836   3.925   3.011   5.196 -1.8609  0.9833  1.3960
 9400SOL    HW239837   3.829   2.943   5.291  0.9671  2.2885  0.3572
 9401SOL     OW39838   0.583   4.034   4.763  0.1906 -0.5951  0.3000
 9401SOL    HW139839   0.490   4.012   4.752  0.1135 -0.2276  0.1984
 9401SOL    HW239840   0.574   4.124   4.731 -0.4366 -0.7969 -0.1098
 9402SOL     OW39841   4.088   1.973   0.325 -0.3819 -0.6429 -0.0397
 9402SOL    HW139842   4.177   2.006   0.326 -0.5960 -0.1468  1.7693
 9402SOL    HW239843   4.041   2.040   0.375  2.2042  0.8571  0.3379
 9403SOL     OW39844   0.613   0.080   4.151  0.0859  0.0393 -0.2026
 9403SOL    HW139845   0.643   4.734   4.181 -1.6576 -0.9547 -1.3103
 9403SOL    HW239846   0.518   0.067   4.157  0.0883  0.9735  1.8586
 9404SOL     OW39847   2.129   4.486   2.338  0.6738  0.0219  0.1426
 9404SOL    HW139848   2.215   4.470   2.376 -0.0390  1.1529  2.2220
 9404SOL    HW239849   2.078   4.407   2.357  0.8058 -0.4941 -1.6192
 9405SOL     OW39850   3.120   4.178   2.559  0.8053  0.2075  0.4312
 9405SOL    HW139851   3.191   4.225   2.516 -0.0546  1.7772  0.7067
 9405SOL    HW239852   3.078   4.129   2.488  2.1127  1.9024 -1.5144
 9406SOL     OW39853   2.384   0.216  12.573 -0.2264  0.0102 -0.3244
 9406SOL    HW139854   2.366   0.264  12.654 -1.8810  0.1726 -0.8065
 9406SOL    HW239855   2.332   0.136  12.580 -0.6478  0.3012 -0.1895
 9407SOL     OW39856   0.188   1.713  15.621  0.4240 -0.3402  0.2257
 9407SOL    HW139857   0.249   1.777  15.658 -0.8058  0.8289  0.2217
 9407SOL    HW239858   0.162   1.750  15.537  1.5812 -0.3197 -0.1280
 9408SOL     OW39859   1.495   3.759  13.339 -0.4443  0.6286 -0.4550
 9408SOL    HW139860   1.460   3.686  13.288 -0.9479  0.7442 -0.2730
 9408SOL    HW239861   1.539   3.713  13.411  0.7801  0.5500 -1.2588
 9409SOL     OW39862   1.815   3.350  10.598  0.3380  0.3488  0.2665
 9409SOL    HW139863   1.754   3.326  10.528 -0.1441 -0.2342  0.8914
 9409SOL    HW239864   1.819   3.268  10.647  0.1204  0.6558  0.7931
 9410SOL     OW39865   4.543   1.771   1.424 -0.0269 -0.3727  0.3067
 9410SOL    HW139866   4.464   1.725   1.398 -1.1228  0.9928  1.2507
 9410SOL    HW239867   4.531   1.859   1.387  0.2217 -0.7100 -0.5799
 9411SOL     OW39868   0.317   4.678   7.030  0.3676 -0.3035 -0.0782
 9411SOL    HW139869   0.317   4.681   7.126  2.3870  2.5785 -0.1357
 9411SOL    HW239870   0.355   4.594   7.006 -0.4927 -0.0066 -2.4983
 9412SOL     OW39871   1.226   2.566   8.549 -0.3933 -0.1175 -0.1266
 9412SOL    HW139872   1.277   2.625   8.494  0.4815  0.2161  1.0407
 9412SOL    HW239873   1.251   2.478   8.522 -1.8388 -0.0371 -1.7273
 9413SOL     OW39874   2.074   1.332   8.003  0.1153 -0.3501 -0.0505
 9413SOL    HW139875   2.014   1.316   7.930  2.1519 -2.7158 -1.2270
 9413SOL    HW239876   2.022   1.297   8.075  0.4813 -1.2689 -0.2234
 9414SOL     OW39877   2.045   1.183   7.547 -0.3385  0.2208 -0.0505
 9414SOL    HW139878   2.103   1.116   7.511 -0.0288 -0.9353  2.6031
 9414SOL    HW239879   1.979   1.192   7.479  0.2322  0.8355 -0.5325
 9415SOL     OW39880   4.588   3.754   9.800 -0.2255  0.0958  0.0536
 9415SOL    HW139881   4.546   3.706   9.872 -0.4691  1.2767  0.7002
 9415SOL    HW239882   4.626   3.690   9.740  0.1805  2.2905 -1.9994
 9416SOL     OW39883   1.590   1.949  11.330 -0.6178 -0.2219  0.2883
 9416SOL    HW139884   1.618   2.039  11.313  1.3838 -0.0483  4.5089
 9416SOL    HW239885   1.496   1.958  11.316 -0.4421  0.8783 -0.1873
 9417SOL     OW39886   3.075   1.592   3.334 -0.1120 -0.2152  0.3130
 9417SOL    HW139887   3.032   1.588   3.248  1.1020 -2.9705 -0.1541
 9417SOL    HW239888   3.010   1.643   3.384 -1.2112  0.6948 -2.0374
 9418SOL     OW39889   4.021   4.648   8.930  0.4361 -0.5063 -0.6360
 9418SOL    HW139890   4.068   4.686   9.004 -0.9695 -1.9864  1.0161
 9418SOL    HW239891   4.048   4.690   8.849  0.0806  2.7388  0.9430
 9419SOL     OW39892   3.866   4.600   9.820 -0.4267 -0.3385 -0.3693
 9419SOL    HW139893   3.919   4.584   9.899  0.6186  0.7600 -0.8473
 9419SOL    HW239894   3.821   4.517   9.806 -2.5549  0.2701  2.8929
 9420SOL     OW39895   0.573   2.671   3.995 -0.4913  0.3420 -0.6574
 9420SOL    HW139896   0.580   2.595   3.937 -2.3916 -0.0689 -0.3505
 9420SOL    HW239897   0.571   2.631   4.082  0.8483  2.5022  0.3713
 9421SOL     OW39898   3.666   3.745   1.385 -0.2153 -0.1735 -0.1366
 9421SOL    HW139899   3.618   3.719   1.307  0.0887 -1.6995  0.1922
 9421SOL    HW239900   3.603   3.738   1.457  0.4131  0.5400  0.4833
 9422SOL     OW39901   2.622   0.220   1.760 -0.5965  0.1779 -0.3118
 9422SOL    HW139902   2.600   0.127   1.771 -0.3234  0.2375  0.8085
 9422SOL    HW239903   2.709   0.220   1.720 -0.5749 -0.0936 -0.2669
 9423SOL     OW39904   0.206   4.598   3.494  0.3538  0.3097  0.9817
 9423SOL    HW139905   0.194   4.504   3.478 -0.2766  0.9218 -2.1528
 9423SOL    HW239906   0.284   4.586   3.548  1.3432  0.0282 -0.4900
 9424SOL     OW39907   1.610   2.341   6.871 -0.4986 -0.0059 -0.3493
 9424SOL    HW139908   1.572   2.375   6.790  1.3368  0.9814 -0.7917
 9424SOL    HW239909   1.604   2.408   6.938  2.5039 -0.3715  0.2876
 9425SOL     OW39910   3.358   4.590   9.117  0.2205 -0.1026 -0.5633
 9425SOL    HW139911   3.364   4.599   9.213  0.5707  3.1425 -0.8721
 9425SOL    HW239912   3.362   4.495   9.113  0.7078 -0.0777 -0.6187
 9426SOL     OW39913   1.071   1.973   7.955 -0.0438 -0.4798  0.3838
 9426SOL    HW139914   1.097   2.064   7.970  0.5124 -0.6158  0.2255
 9426SOL    HW239915   1.068   1.969   7.860 -1.6265  0.7148  0.3816
 9427SOL     OW39916   3.625   3.249   8.868  0.6696 -0.4439  0.1153
 9427SOL    HW139917   3.565   3.275   8.938 -0.4540  1.4140 -1.5339
 9427SOL    HW239918   3.703   3.300   8.888  0.1615  0.2297  0.3865
 9428SOL     OW39919   4.572   1.475   3.417 -0.5208 -0.8072  0.6003
 9428SOL    HW139920   4.538   1.555   3.377 -0.3173 -1.4347 -0.8455
 9428SOL    HW239921   4.495   1.421   3.435  0.0125 -2.3995 -1.8694
 9429SOL     OW39922   1.431   1.674   7.909  0.0052 -0.6424  0.0563
 9429SOL    HW139923   1.455   1.734   7.838  1.0594 -0.9992  0.1276
 9429SOL    HW239924   1.363   1.619   7.868 -1.6041  0.0037  1.8615
 9430SOL     OW39925   4.062   2.438   6.009  0.0443  0.2967 -0.0254
 9430SOL    HW139926   4.143   2.387   6.010 -0.2977 -0.2574 -1.9103
 9430SOL    HW239927   3.992   2.379   5.981 -0.0346  1.6344 -2.5509
 9431SOL     OW39928   1.718   3.120   9.639 -0.0600 -0.4023  0.7929
 9431SOL    HW139929   1.685   3.184   9.575 -1.9293 -3.1501 -1.0320
 9431SOL    HW239930   1.798   3.166   9.663  0.4027 -0.1677 -1.1372
 9432SOL     OW39931   0.859   1.623   4.438  0.5201 -0.0047 -0.5262
 9432SOL    HW139932   0.828   1.537   4.466  1.2896 -0.4706 -1.1085
 9432SOL    HW239933   0.814   1.676   4.504 -1.8331  0.3410 -2.3679
 9433SOL     OW39934   2.924   0.520   6.985 -0.6532 -0.2459 -0.0220
 9433SOL    HW139935   2.860   0.513   7.056 -0.0401 -0.5820  0.5009
 9433SOL    HW239936   2.998   0.543   7.043 -1.0419  2.0613 -0.4503
 9434SOL     OW39937   3.245   4.182   5.895 -0.0179  0.1152  0.6818
 9434SOL    HW139938   3.264   4.243   5.824  1.5936 -0.7215  0.4039
 9434SOL    HW239939   3.230   4.105   5.840  1.4408 -0.2588  0.8244
 9435SOL     OW39940   0.402   0.018   8.818 -0.5291  0.4312 -0.0897
 9435SOL    HW139941   0.366   0.099   8.782  1.4150  0.8014 -1.1433
 9435SOL    HW239942   0.481   0.056   8.856 -1.7739  1.1101  1.8307
 9436SOL     OW39943   0.347   0.304   1.414  0.4330 -0.0047  0.1673
 9436SOL    HW139944   0.373   0.268   1.329 -0.2073  0.8282 -0.3913
 9436SOL    HW239945   0.289   0.378   1.395  0.5659 -0.7739 -3.2019
 9437SOL     OW39946   3.648   1.714  15.552 -0.1360 -0.0244 -0.6230
 9437SOL    HW139947   3.594   1.778  15.599  0.1796 -0.1825 -0.0343
 9437SOL    HW239948   3.657   1.761  15.469 -1.2081 -0.0298 -0.7399
 9438SOL     OW39949   3.618   3.976   3.853 -0.1801 -0.3421 -0.5501
 9438SOL    HW139950   3.580   4.049   3.902 -0.7459 -0.7485 -0.3845
 9438SOL    HW239951   3.709   4.003   3.846 -0.4985  0.8988 -0.0557
 9439SOL     OW39952   4.014   2.825   1.919  0.1095 -0.3242 -0.3672
 9439SOL    HW139953   3.984   2.887   1.986  0.9390  1.2915 -1.4823
 9439SOL    HW239954   3.930   2.803   1.879 -0.6903  1.1727  0.4688
 9440SOL     OW39955   2.874   3.522  12.435 -0.2787  0.0374  0.0322
 9440SOL    HW139956   2.850   3.431  12.454  0.2487 -0.4027 -1.3931
 9440SOL    HW239957   2.896   3.519  12.342  1.3996 -0.0339  0.4445
 9441SOL     OW39958   4.458   4.510   6.034  0.4370 -0.6911 -0.6750
 9441SOL    HW139959   4.509   4.504   5.953  0.0322 -0.2258 -0.9654
 9441SOL    HW239960   4.458   4.417   6.059 -0.3775 -0.3533  0.6011
 9442SOL     OW39961   1.806   2.377   6.566 -0.7028  0.2285  0.8001
 9442SOL    HW139962   1.720   2.418   6.558 -0.5785  0.5261  0.9957
 9442SOL    HW239963   1.850   2.379   6.481  1.8336 -4.7829  1.9448
 9443SOL     OW39964   1.548   3.091   2.284 -0.0900  0.3639 -0.1025
 9443SOL    HW139965   1.629   3.097   2.335 -0.1485 -0.2277  0.0630
 9443SOL    HW239966   1.551   3.004   2.244 -0.6121  0.3450 -0.0980
 9444SOL     OW39967   0.721   3.705  14.402 -0.2728  0.4169  0.2483
 9444SOL    HW139968   0.708   3.637  14.336  0.5400  1.6110 -1.1409
 9444SOL    HW239969   0.650   3.684  14.463  1.0031 -1.9149  0.9486
 9445SOL     OW39970   2.672   3.827   5.252 -0.4375 -0.0129 -0.1373
 9445SOL    HW139971   2.648   3.837   5.160 -0.4585  2.3614  0.1020
 9445SOL    HW239972   2.766   3.811   5.247 -0.8646 -2.2728 -0.7147
 9446SOL     OW39973   0.915   0.525  15.996 -0.2142 -0.1030  0.3635
 9446SOL    HW139974   0.904   0.527  15.901  0.5209 -1.2468  0.2583
 9446SOL    HW239975   0.845   0.462  16.009 -0.8591  0.9630  2.1309
 9447SOL     OW39976   0.930   0.573   6.669 -0.0852 -0.2283 -0.4691
 9447SOL    HW139977   0.966   0.635   6.606  2.0931 -0.8842  0.1241
 9447SOL    HW239978   1.004   0.514   6.683 -0.3224 -0.4305 -0.0452
 9448SOL     OW39979   0.025   4.462   7.150  0.1792 -0.5682  0.3346
 9448SOL    HW139980   0.121   4.469   7.151  0.2428 -1.4234  1.0552
 9448SOL    HW239981   0.012   4.390   7.089  0.2253 -0.5075  0.2534
 9449SOL     OW39982   4.509   3.594   3.127 -0.1201  0.3471  0.0972
 9449SOL    HW139983   4.569   3.669   3.119  0.7103 -0.1538  1.6622
 9449SOL    HW239984   4.536   3.548   3.048 -0.6334 -0.9820  0.7054
 9450SOL     OW39985   4.442   3.598   2.601  0.5385 -0.3090  0.3775
 9450SOL    HW139986   4.387   3.620   2.677 -1.6838  1.1791 -1.6639
 9450SOL    HW239987   4.447   3.677   2.547  1.6276 -0.3903  0.3711
 9451SOL     OW39988   0.491   4.552  14.985  0.3709 -0.0729 -0.2883
 9451SOL    HW139989   0.519   4.521  15.071 -1.0100  0.9326  0.5323
 9451SOL    HW239990   0.506   4.647  14.991 -0.7861  0.0748  0.1579
 9452SOL     OW39991   3.325   3.564   5.028 -0.2259  0.3743 -0.3131
 9452SOL    HW139992   3.387   3.605   4.967  3.7610 -1.9785  2.1870
 9452SOL    HW239993   3.360   3.475   5.036  1.3413  0.9911 -0.2704
 9453SOL     OW39994   0.322   3.735   4.584  0.4460 -0.1716  0.2290
 9453SOL    HW139995   0.331   3.782   4.501 -0.0724 -0.2378  0.1308
 9453SOL    HW239996   0.284   3.651   4.556  2.0298 -1.6705  2.6496
 9454SOL     OW39997   0.768   0.633   5.298  0.2076  0.0056  0.0827
 9454SOL    HW139998   0.674   0.635   5.313  0.5430  0.5886  2.1102
 9454SOL    HW239999   0.782   0.554   5.245  0.2735  0.0864 -0.0197
 9455SOL     OW40000   0.958   1.892   5.447 -0.1652  0.4005  0.0047
 9455SOL    HW140001   0.929   1.804   5.425  1.0003  0.1677 -0.6008
 9455SOL    HW240002   1.053   1.877   5.452 -0.5300 -1.9707 -0.0498
 9456SOL     OW40003   1.044   1.971   7.691  0.1574  0.1353  0.3530
 9456SOL    HW140004   1.110   2.028   7.651  2.2097 -1.8468  0.9610
 9456SOL    HW240005   1.044   1.898   7.630  0.2165  0.6099 -0.2146
 9457SOL     OW40006   1.459   2.163  11.752  0.0371  0.1149  0.0741
 9457SOL    HW140007   1.445   2.197  11.664 -0.2348  0.1355  0.1236
 9457SOL    HW240008   1.410   2.080  11.751 -1.0203  0.7375 -0.0206
 9458SOL     OW40009   0.438   2.668   8.211 -0.5521 -0.0436 -0.3023
 9458SOL    HW140010   0.359   2.684   8.262  0.3143 -1.4961  1.5276
 9458SOL    HW240011   0.503   2.633   8.273 -2.6122 -4.5013 -0.6664
 9459SOL     OW40012   1.288   2.126   6.185 -0.7440 -0.3024 -0.6256
 9459SOL    HW140013   1.322   2.159   6.101  0.3265 -1.6069 -0.7067
 9459SOL    HW240014   1.314   2.185   6.256  0.3746 -1.9284  0.3045
 9460SOL     OW40015   3.223   3.584   2.195  0.0932 -0.4499  0.1482
 9460SOL    HW140016   3.308   3.608   2.158  0.9252 -2.0032  1.0486
 9460SOL    HW240017   3.235   3.538   2.278 -1.7247 -0.7549  0.2444
 9461SOL     OW40018   3.399   1.418   5.006 -0.0038  0.4930  0.1210
 9461SOL    HW140019   3.382   1.389   5.096 -0.7333 -2.1591 -0.8822
 9461SOL    HW240020   3.479   1.467   5.023  1.3850 -1.3688 -1.0515
 9462SOL     OW40021   0.670   3.118   6.561 -0.2335  0.2532  0.1129
 9462SOL    HW140022   0.714   3.040   6.527 -0.5019  0.3286 -0.4096
 9462SOL    HW240023   0.625   3.151   6.483 -0.9344  0.5763  0.6567
 9463SOL     OW40024   4.121   0.639   4.847 -0.4742  0.1154 -0.5188
 9463SOL    HW140025   4.090   0.638   4.938  1.4667  0.3535  0.1414
 9463SOL    HW240026   4.191   0.574   4.847 -0.4999  0.1098  2.5660
 9464SOL     OW40027   3.332   4.124   5.379 -0.6682 -0.2801  0.6362
 9464SOL    HW140028   3.411   4.126   5.433  0.2388  2.8532 -0.8308
 9464SOL    HW240029   3.288   4.207   5.399 -1.4889 -1.1792  2.5600
 9465SOL     OW40030   0.819   1.377   4.527  0.3812 -0.0111 -0.4507
 9465SOL    HW140031   0.794   1.395   4.618  1.3288 -1.1102  0.0255
 9465SOL    HW240032   0.777   1.298   4.493 -0.6450  0.9778 -1.4561
 9466SOL     OW40033   1.781   1.822   7.043 -0.0985  0.5836 -0.1740
 9466SOL    HW140034   1.797   1.828   6.949 -1.5864 -1.0220 -0.5258
 9466SOL    HW240035   1.707   1.882   7.049 -0.2141  0.6852 -2.4934
 9467SOL     OW40036   3.773   1.213  15.629 -0.3332  0.3163 -0.5596
 9467SOL    HW140037   3.826   1.197  15.707 -0.3673 -0.9565 -0.8100
 9467SOL    HW240038   3.755   1.307  15.638 -3.0480 -0.3995  1.0894
 9468SOL     OW40039   1.558   3.732  16.070  0.3934  0.2048 -0.3753
 9468SOL    HW140040   1.620   3.713  16.141  0.1120  1.7052  0.2551
 9468SOL    HW240041   1.614   3.767  16.002  1.0282 -0.7193 -0.3351
 9469SOL     OW40042   1.239   4.599   8.054 -0.0605 -0.2548  0.0184
 9469SOL    HW140043   1.170   4.653   8.092  0.3290  0.1152  0.1981
 9469SOL    HW240044   1.199   4.513   8.067 -0.9004 -0.1008 -1.6219
 9470SOL     OW40045   4.185   0.298   1.930  0.4558  0.0659  0.2570
 9470SOL    HW140046   4.271   0.337   1.942  2.0797 -3.3207 -0.3235
 9470SOL    HW240047   4.118   0.353   1.969 -0.6036 -1.2866  0.3702
 9471SOL     OW40048   0.260   2.717   6.398  0.3276 -0.4080  0.3008
 9471SOL    HW140049   0.306   2.747   6.320  1.3537  0.0794  1.0868
 9471SOL    HW240050   0.307   2.637   6.423 -0.5618 -1.4759 -1.4808
 9472SOL     OW40051   4.656   4.676  14.003  0.2806 -0.6590  0.2338
 9472SOL    HW140052   4.574   4.721  13.984  1.5704  0.0103 -3.6698
 9472SOL    HW240053   4.714   0.002  13.966 -0.8747  0.4880  0.4619
 9473SOL     OW40054   3.432   3.756   3.231 -0.0758  0.0036  0.4389
 9473SOL    HW140055   3.500   3.781   3.168 -0.3475 -1.7386 -0.5206
 9473SOL    HW240056   3.490   3.744   3.307  1.6196  0.2965 -0.8032
 9474SOL     OW40057   0.462   1.963   2.622  0.5417 -0.2770  0.6464
 9474SOL    HW140058   0.411   1.948   2.543  1.2929  1.6809 -0.2174
 9474SOL    HW240059   0.514   1.883   2.631  1.2935  0.0949 -0.3014
 9475SOL     OW40060   3.953   4.173   4.539 -0.0508 -0.1045  0.9042
 9475SOL    HW140061   4.023   4.140   4.596  0.0130 -0.6547  0.5031
 9475SOL    HW240062   3.988   4.261   4.524 -2.2297  0.6817  0.3740
 9476SOL     OW40063   3.341   0.323   5.468  0.2773  0.0386  0.0055
 9476SOL    HW140064   3.380   0.259   5.408  0.8266 -0.1536  0.5664
 9476SOL    HW240065   3.404   0.320   5.540  0.4020  2.7048  0.0051
 9477SOL     OW40066   2.575   0.353   3.086 -0.1120  0.5575 -0.0511
 9477SOL    HW140067   2.548   0.404   3.009 -1.0705 -2.8988 -1.9657
 9477SOL    HW240068   2.633   0.285   3.053  0.6560  2.2247 -2.1586
 9478SOL     OW40069   4.610   0.155  15.433 -0.1042 -0.0215  0.9168
 9478SOL    HW140070   4.690   0.205  15.452  1.0058 -1.0749 -0.9614
 9478SOL    HW240071   4.538   0.216  15.449 -0.0696  0.3765 -0.4667
 9479SOL     OW40072   0.739   0.278   4.675  0.6167 -0.8754 -0.5345
 9479SOL    HW140073   0.728   0.243   4.586  1.7659 -1.4630 -0.4499
 9479SOL    HW240074   0.646   0.299   4.688  0.7080  1.2099 -3.1759
 9480SOL     OW40075   0.103   0.376   3.068 -0.0828  0.0748 -0.1177
 9480SOL    HW140076   0.080   0.440   3.135  0.0662 -0.2706  0.2657
 9480SOL    HW240077   0.019   0.334   3.047 -0.3661  0.9488 -0.7537
 9481SOL     OW40078   4.223   2.217   8.783 -0.4679 -0.4298 -0.2618
 9481SOL    HW140079   4.165   2.276   8.736  0.7084 -0.9363 -2.3666
 9481SOL    HW240080   4.212   2.145   8.721 -1.4291 -0.4959 -0.0150
 9482SOL     OW40081   0.369   1.767   6.817 -0.1425  0.3417  0.1450
 9482SOL    HW140082   0.362   1.861   6.799 -2.4407  0.4092  1.4603
 9482SOL    HW240083   0.359   1.763   6.912  0.0789 -0.2235  0.1414
 9483SOL     OW40084   0.570   0.239   1.574  0.2463  0.0752 -0.0208
 9483SOL    HW140085   0.524   0.281   1.647  0.3295  0.7874 -0.3770
 9483SOL    HW240086   0.508   0.248   1.502 -1.5374 -0.7083  1.4423
 9484SOL     OW40087   0.269   1.311   8.475  0.6256  0.4933  0.0663
 9484SOL    HW140088   0.201   1.247   8.494  1.9785 -0.6705  0.9989
 9484SOL    HW240089   0.253   1.358   8.556  1.9358  3.2926 -1.2946
 9485SOL     OW40090   4.650   2.119   1.512 -0.1232  0.7810  0.5285
 9485SOL    HW140091   4.629   2.205   1.474 -0.5256  0.6528  0.4605
 9485SOL    HW240092   4.621   2.069   1.436  1.7929  0.8057 -0.2303
 9486SOL     OW40093   3.175   3.429   9.099  0.5735 -0.2597  0.1996
 9486SOL    HW140094   3.181   3.430   9.195  0.8553 -2.2790  0.2043
 9486SOL    HW240095   3.119   3.353   9.080 -0.9289  0.4992  1.5355
 9487SOL     OW40096   0.574   1.602   6.156  0.0850  0.5384  0.2636
 9487SOL    HW140097   0.538   1.689   6.137  1.2874  1.2393  1.1571
 9487SOL    HW240098   0.570   1.558   6.071  1.6290  1.9957 -0.5770
 9488SOL     OW40099   4.686   3.785   5.153 -0.4093 -0.0043  0.6157
 9488SOL    HW140100   0.035   3.750   5.162 -0.7240 -0.8630  0.3679
 9488SOL    HW240101   4.647   3.749   5.232 -1.6380 -0.4861 -0.2048
 9489SOL     OW40102   2.340   0.917   9.312 -0.0589 -0.4649  0.4815
 9489SOL    HW140103   2.305   0.866   9.385  1.2372  1.9905  2.8477
 9489SOL    HW240104   2.381   0.992   9.356  0.0478  0.1728 -0.7153
 9490SOL     OW40105   3.057   4.027   3.184 -0.3565  0.3821 -0.3721
 9490SOL    HW140106   2.974   4.068   3.210  0.1546  0.3159  1.3404
 9490SOL    HW240107   3.113   4.022   3.261  0.1170  3.1124 -0.5360
 9491SOL     OW40108   4.437   2.202   6.823 -0.4831  0.2589  0.0529
 9491SOL    HW140109   4.403   2.214   6.734  0.1980  0.3329 -0.1976
 9491SOL    HW240110   4.528   2.231   6.826 -1.2571  2.8963 -1.9178
 9492SOL     OW40111   0.256   4.733  14.774 -0.2754 -0.7216 -0.0352
 9492SOL    HW140112   0.295   0.033  14.852 -1.2976  2.0344 -0.9336
 9492SOL    HW240113   0.173   0.041  14.767 -0.0492 -0.0675  1.7894
 9493SOL     OW40114   0.288   4.065  11.242  0.9462  0.1663 -0.0746
 9493SOL    HW140115   0.365   4.059  11.186  0.3384 -0.9469 -0.8061
 9493SOL    HW240116   0.327   4.069  11.329  0.0644 -1.3934  0.4037
 9494SOL     OW40117   3.494   3.532   9.320 -0.3922 -0.4755  0.6925
 9494SOL    HW140118   3.537   3.607   9.280  1.7131 -2.7764 -1.3540
 9494SOL    HW240119   3.404   3.566   9.319 -0.8378 -1.6212  1.5406
 9495SOL     OW40120   2.201   0.677  16.930  0.4640  0.3224 -0.7393
 9495SOL    HW140121   2.149   0.598  16.914 -0.0545  0.2691  1.2973
 9495SOL    HW240122   2.264   0.668  16.859 -0.4487 -1.1629 -1.3754
 9496SOL     OW40123   1.161   4.102   8.406 -0.1434 -0.0957 -0.2095
 9496SOL    HW140124   1.140   4.073   8.317  1.3603  1.4698 -1.0553
 9496SOL    HW240125   1.130   4.031   8.463  0.1285  0.4080  0.5603
 9497SOL     OW40126   3.966   3.605   4.985  0.4749  0.3515  0.3565
 9497SOL    HW140127   3.882   3.607   5.031  0.4456 -0.0636  0.3269
 9497SOL    HW240128   4.029   3.595   5.056  2.1666 -1.1046 -1.3646
 9498SOL     OW40129   4.256   2.266   6.319 -0.1018 -0.0652 -0.6113
 9498SOL    HW140130   4.280   2.311   6.238 -1.6918  0.1735 -0.9465
 9498SOL    HW240131   4.195   2.202   6.281 -0.8054 -0.6862  1.5750
 9499SOL     OW40132   1.008   4.672   6.968  0.7438  0.3201 -0.1778
 9499SOL    HW140133   0.980   4.725   7.043  0.8530 -0.3629  0.3340
 9499SOL    HW240134   0.991   0.000   6.902 -0.5339  2.1917  2.0727
 9500SOL     OW40135   4.058   2.131   8.984 -0.2556  0.3526 -0.3663
 9500SOL    HW140136   4.108   2.111   8.905 -1.9242  1.0211 -1.5857
 9500SOL    HW240137   4.121   2.185   9.031 -2.9866  3.3305 -0.1448
 9501SOL     OW40138   1.462   2.661  10.322 -0.6112  0.5283  0.6415
 9501SOL    HW140139   1.459   2.737  10.263  2.0197 -1.4641 -2.0396
 9501SOL    HW240140   1.378   2.673  10.367 -0.2018  0.4918  1.4091
 9502SOL     OW40141   0.851   4.314   7.809 -0.8008  0.1034 -0.0250
 9502SOL    HW140142   0.845   4.231   7.763 -3.8365  0.6111 -0.5759
 9502SOL    HW240143   0.874   4.283   7.896  0.5683 -2.1523 -1.1842
 9503SOL     OW40144   1.779   2.528  11.526 -0.3702 -0.3946  0.0618
 9503SOL    HW140145   1.828   2.547  11.605 -0.2589  0.5061 -0.2320
 9503SOL    HW240146   1.810   2.440  11.503 -0.0234 -0.3692  0.4473
 9504SOL     OW40147   3.821   2.399  11.066 -0.6575  0.1192 -0.2946
 9504SOL    HW140148   3.825   2.314  11.023 -0.4768 -1.3208  2.5323
 9504SOL    HW240149   3.756   2.374  11.132  0.0556 -0.3755  0.2229
 9505SOL     OW40150   0.951   0.473   2.515 -0.1194  0.7102  0.4187
 9505SOL    HW140151   0.940   0.494   2.607  0.6811 -0.1261  0.7024
 9505SOL    HW240152   1.029   0.525   2.494 -0.0143 -0.6615 -2.6322
 9506SOL     OW40153   2.858   3.961   5.507  0.4087  0.7437  0.0434
 9506SOL    HW140154   2.884   4.044   5.546 -1.1149  0.7187  1.1276
 9506SOL    HW240155   2.921   3.950   5.435  2.6691  0.4638  2.0502
 9507SOL     OW40156   1.836   0.625  11.919  0.0159 -0.0652 -0.0017
 9507SOL    HW140157   1.809   0.552  11.864 -1.3247  1.0324 -0.7700
 9507SOL    HW240158   1.925   0.595  11.939  0.0735  0.2305  0.1835
 9508SOL     OW40159   3.732   0.472   5.613 -0.2625 -0.3143  0.4609
 9508SOL    HW140160   3.791   0.528   5.563  0.0386 -2.0053 -1.0541
 9508SOL    HW240161   3.789   0.409   5.656 -0.1713  1.1826  2.5559
 9509SOL     OW40162   3.376   4.338   5.100  0.0786 -0.2287  0.3739
 9509SOL    HW140163   3.450   4.338   5.160  0.8062 -2.2873 -0.5226
 9509SOL    HW240164   3.303   4.357   5.159  0.4384  0.1659  0.6904
 9510SOL     OW40165   2.295   4.423   1.789  0.7656  0.6863 -0.0401
 9510SOL    HW140166   2.294   4.503   1.736 -1.8397  0.6965  0.0593
 9510SOL    HW240167   2.375   4.424   1.842  0.2950  0.4246  0.6653
 9511SOL     OW40168   0.832   1.142   5.638 -0.2603  0.0435  0.5029
 9511SOL    HW140169   0.908   1.162   5.583  1.1034 -0.6539  2.1373
 9511SOL    HW240170   0.807   1.234   5.644 -1.3444 -0.2963  1.1295
 9512SOL     OW40171   0.640   4.353   0.615  0.1348 -0.2147  0.4913
 9512SOL    HW140172   0.674   4.264   0.628  2.3458  0.7780  1.4902
 9512SOL    HW240173   0.554   4.344   0.655  1.2168 -0.0936  2.8231
 9513SOL     OW40174   0.471   4.274   3.657 -0.4400  0.6249  0.2752
 9513SOL    HW140175   0.542   4.216   3.684 -2.1720 -1.5620  0.1572
 9513SOL    HW240176   0.484   4.271   3.562 -3.6934  0.1542 -0.1593
 9514SOL     OW40177   0.924   4.404   2.305 -0.2254 -1.0923 -0.1067
 9514SOL    HW140178   0.835   4.438   2.307  0.8031  1.6492 -1.0250
 9514SOL    HW240179   0.914   4.314   2.335  0.0026 -0.9896  0.2773
 9515SOL     OW40180   2.471   2.285   9.635  0.1260 -0.2307 -0.0609
 9515SOL    HW140181   2.513   2.252   9.555 -1.9639  1.5452 -1.9122
 9515SOL    HW240182   2.443   2.200   9.667  0.8420 -0.3697  0.1894
 9516SOL     OW40183   4.631   3.039  17.022 -0.0510  0.5826 -0.4755
 9516SOL    HW140184   4.725   3.046  17.010 -0.0276  1.5434  0.2231
 9516SOL    HW240185   4.624   3.043  17.118  0.3081 -0.8328 -0.3824
 9517SOL     OW40186   1.951   1.862   1.402 -0.4462  0.1437 -0.1909
 9517SOL    HW140187   1.951   1.954   1.427 -1.0944 -0.2053  1.0980
 9517SOL    HW240188   2.034   1.867   1.355  1.4872 -1.2141  3.0577
 9518SOL     OW40189   3.148   4.079   3.857 -0.1075 -0.4629 -0.4242
 9518SOL    HW140190   3.145   4.109   3.766  1.4212  0.3615 -0.2156
 9518SOL    HW240191   3.066   4.109   3.896  0.1542  0.4562 -0.5848
 9519SOL     OW40192   3.634   2.268  13.332 -0.1409 -0.0163 -0.6966
 9519SOL    HW140193   3.667   2.178  13.324 -0.1427 -0.2085  1.5347
 9519SOL    HW240194   3.702   2.321  13.290  1.4529 -1.0819  0.5321
 9520SOL     OW40195   4.109   2.914   9.467 -0.2513  0.5098  0.1155
 9520SOL    HW140196   4.071   2.954   9.388  1.7093  1.1387 -0.5224
 9520SOL    HW240197   4.184   2.973   9.471 -0.9727  1.5266 -1.1554
 9521SOL     OW40198   1.434   3.259   7.155 -0.0944 -0.6476  0.8146
 9521SOL    HW140199   1.397   3.287   7.238 -0.2629  0.5815  0.3182
 9521SOL    HW240200   1.503   3.322   7.138  0.2733 -1.3751 -0.4145
 9522SOL     OW40201   1.221   4.588   7.093 -0.0469 -0.0105  0.0262
 9522SOL    HW140202   1.183   4.633   7.018  2.9771 -0.6544 -1.8793
 9522SOL    HW240203   1.212   4.661   7.154  1.2615 -1.0521  1.4851
 9523SOL     OW40204   0.834   3.597  15.415 -0.1686  0.1844 -0.6290
 9523SOL    HW140205   0.807   3.509  15.443  0.8146  0.4311  1.1594
 9523SOL    HW240206   0.751   3.639  15.391 -0.6748 -0.8487 -0.6914
 9524SOL     OW40207   2.538   2.481   5.559  0.3569 -0.0872 -0.0387
 9524SOL    HW140208   2.572   2.476   5.469 -0.0504  1.7411 -0.2874
 9524SOL    HW240209   2.604   2.537   5.600  0.4203  0.2957 -0.6697
 9525SOL     OW40210   3.844   0.498  15.529 -0.5229 -0.9265  0.5739
 9525SOL    HW140211   3.827   0.476  15.621 -1.6897 -0.6296  0.4188
 9525SOL    HW240212   3.850   0.593  15.531 -0.9399 -0.8838 -0.4770
 9526SOL     OW40213   1.215   1.217   1.435  0.2692 -0.4011  0.0324
 9526SOL    HW140214   1.302   1.241   1.402  0.4100 -1.7886 -0.5813
 9526SOL    HW240215   1.155   1.269   1.381  0.4765  0.1327  0.3197
 9527SOL     OW40216   1.718   2.017   3.490 -0.2493  0.0195  0.3894
 9527SOL    HW140217   1.798   2.047   3.533 -0.5623  0.2079  0.8406
 9527SOL    HW240218   1.695   1.937   3.539 -0.4295 -0.8933 -1.1856
 9528SOL     OW40219   3.900   0.823   6.922 -0.2843 -0.0690 -0.2558
 9528SOL    HW140220   3.950   0.905   6.916  0.5092 -0.5637 -0.4659
 9528SOL    HW240221   3.902   0.814   7.018 -3.0688 -0.5879 -0.2463
 9529SOL     OW40222   2.168   3.337  12.091 -0.4296 -0.2326  0.6643
 9529SOL    HW140223   2.173   3.406  12.157  1.1761 -0.9712  1.3030
 9529SOL    HW240224   2.097   3.379  12.042 -1.9594  0.1641  3.2372
 9530SOL     OW40225   1.053   2.772   9.355 -0.4407  0.6906  0.3945
 9530SOL    HW140226   0.995   2.764   9.279  0.0456  1.6245 -0.0686
 9530SOL    HW240227   1.048   2.867   9.368 -0.2824  0.7249  0.2033
 9531SOL     OW40228   0.835   0.648   4.598  0.0851 -0.0130  0.2557
 9531SOL    HW140229   0.827   0.667   4.505  0.0260 -0.1800  0.2268
 9531SOL    HW240230   0.907   0.586   4.614 -0.1743 -0.3599  0.0800
 9532SOL     OW40231   0.375   1.162  13.454 -0.3206 -0.2125 -0.5747
 9532SOL    HW140232   0.328   1.182  13.373  0.9021  0.9799 -0.9707
 9532SOL    HW240233   0.444   1.110  13.413  0.0327 -0.6758  0.5868
 9533SOL     OW40234   1.437   4.350  12.462 -0.8158  0.3253 -0.1553
 9533SOL    HW140235   1.360   4.329  12.514 -0.2643 -2.6211 -0.5500
 9533SOL    HW240236   1.503   4.303  12.512 -1.4556 -0.3193  0.0781
 9534SOL     OW40237   2.320   0.002  11.911  0.3757 -0.8173  0.7541
 9534SOL    HW140238   2.230   0.011  11.880  0.6209 -0.2072  0.2082
 9534SOL    HW240239   2.362   0.007  11.824  0.4289 -0.0792  0.8175
 9535SOL     OW40240   3.042   0.910  16.797  0.0870 -0.8437 -0.1451
 9535SOL    HW140241   3.081   0.985  16.841 -0.7920  0.7334 -2.0592
 9535SOL    HW240242   3.112   0.846  16.811  1.4605  0.4246 -1.2754
 9536SOL     OW40243   3.387   0.263   3.350 -0.4288 -0.6760 -0.1312
 9536SOL    HW140244   3.400   0.323   3.276  0.2482  0.8936  1.2432
 9536SOL    HW240245   3.307   0.224   3.316 -2.2123  2.4891  0.4875
 9537SOL     OW40246   2.936   4.026   2.390  0.2748 -0.0964  0.4944
 9537SOL    HW140247   2.926   4.079   2.311  1.6055  0.3378  0.6125
 9537SOL    HW240248   2.933   3.937   2.355  0.8489  0.8716 -2.0095
 9538SOL     OW40249   0.927   3.760   4.499  0.4462 -0.0657 -0.1110
 9538SOL    HW140250   0.854   3.700   4.482  2.9357 -2.2171 -3.1727
 9538SOL    HW240251   1.004   3.704   4.486 -0.1771 -0.9483  0.0310
 9539SOL     OW40252   1.990   4.712   5.908  0.5099 -0.5035 -0.2964
 9539SOL    HW140253   1.920   4.652   5.881  1.7817 -1.2006 -2.0714
 9539SOL    HW240254   2.068   4.656   5.909  0.9692  0.1791  1.1752
 9540SOL     OW40255   1.341   4.531   9.948 -0.3311 -0.4209 -0.0292
 9540SOL    HW140256   1.316   4.513   9.857 -2.3327  1.8633  0.0799
 9540SOL    HW240257   1.276   4.491  10.006 -0.2470  0.9269  0.9909
 9541SOL     OW40258   3.160   3.567   9.742  0.2686  0.1128  0.1456
 9541SOL    HW140259   3.132   3.572   9.833 -0.4412 -0.2370 -0.0500
 9541SOL    HW240260   3.216   3.489   9.740  1.0906  0.6411  3.1076
 9542SOL     OW40261   0.551   4.026   2.917 -0.5010 -0.1738 -0.4333
 9542SOL    HW140262   0.460   3.998   2.909 -0.9396  1.1125 -0.0217
 9542SOL    HW240263   0.587   3.953   2.968  0.9144 -0.7587 -2.2733
 9543SOL     OW40264   4.023   4.689   3.434  0.0765  0.1598 -0.5293
 9543SOL    HW140265   3.968   4.651   3.503  1.2969  0.4166  0.5750
 9543SOL    HW240266   4.037   4.605   3.389  2.8003 -0.6599  1.8437
 9544SOL     OW40267   1.528   3.447   8.136 -0.1100  0.0739 -0.4375
 9544SOL    HW140268   1.531   3.355   8.108 -0.1248 -0.3387  0.8885
 9544SOL    HW240269   1.614   3.484   8.120 -1.1823  1.2771 -3.3208
 9545SOL     OW40270   2.052   4.711   4.963  0.1832  0.2563  0.3041
 9545SOL    HW140271   2.141   4.707   4.927 -0.3783  0.0511 -1.0926
 9545SOL    HW240272   2.016   4.629   4.928  0.4969 -0.7560  2.3706
 9546SOL     OW40273   4.504   4.599   0.314  0.0455  0.0053  0.0406
 9546SOL    HW140274   4.435   4.561   0.259  0.8093 -0.4476 -0.5974
 9546SOL    HW240275   4.584   4.579   0.265  0.1056 -0.7146  0.4360
 9547SOL     OW40276   0.902   1.962   3.688 -0.2306  0.6312  0.3716
 9547SOL    HW140277   0.850   1.889   3.652  1.2655  0.1681 -0.8567
 9547SOL    HW240278   0.843   2.036   3.685 -1.8401 -0.6978 -0.7500
 9548SOL     OW40279   1.886   3.890   0.019  0.7224  0.4701  0.3433
 9548SOL    HW140280   1.838   3.958  17.730  1.8596  1.4928  0.6621
 9548SOL    HW240281   1.903   3.942   0.098  2.4743 -1.1958  1.0699
 9549SOL     OW40282   2.152   0.179   9.110  0.1589 -0.4005  0.6253
 9549SOL    HW140283   2.199   0.126   9.045  0.6152  0.6554  0.0869
 9549SOL    HW240284   2.066   0.137   9.108 -1.0486  2.0563  0.4612
 9550SOL     OW40285   4.131   2.984   6.643  0.1150 -0.0269 -0.2686
 9550SOL    HW140286   4.072   3.059   6.644  0.7141  0.4096  1.9939
 9550SOL    HW240287   4.128   2.961   6.735  2.0800 -1.9865 -0.6882
 9551SOL     OW40288   1.192   2.317  13.727  0.3312  0.1110 -0.2157
 9551SOL    HW140289   1.147   2.232  13.732  0.1271  0.2904  0.9451
 9551SOL    HW240290   1.131   2.356  13.664 -1.3796  0.7297  1.8069
 9552SOL     OW40291   4.304   4.031  10.103 -0.3525  0.3854 -0.7257
 9552SOL    HW140292   4.244   4.007  10.173  0.8336  0.1470  0.1957
 9552SOL    HW240293   4.386   4.009  10.145 -0.2716  0.1794 -0.9908
 9553SOL     OW40294   1.788   0.738  12.636 -0.3978 -0.1410  0.3602
 9553SOL    HW140295   1.805   0.645  12.619  1.2220 -0.1235  1.8869
 9553SOL    HW240296   1.876   0.775  12.639 -0.9129  1.2660 -1.9292
 9554SOL     OW40297   1.552   3.468   4.849  0.0957  0.1671  0.2792
 9554SOL    HW140298   1.459   3.487   4.844  0.5552  2.5031  0.4100
 9554SOL    HW240299   1.575   3.494   4.760 -0.4473 -1.0264 -0.2084
 9555SOL     OW40300   0.578   1.857  14.238 -0.1167  0.4888  0.3068
 9555SOL    HW140301   0.538   1.911  14.306  0.8453  3.4543 -1.4883
 9555SOL    HW240302   0.571   1.913  14.160  1.5874  2.0018  1.2454
 9556SOL     OW40303   1.327   2.641   4.287  0.4297 -0.4701 -0.4248
 9556SOL    HW140304   1.356   2.694   4.361  2.2352 -0.5394 -1.0876
 9556SOL    HW240305   1.348   2.552   4.316 -0.2706  0.5598  3.1729
 9557SOL     OW40306   3.536   4.175   0.213  0.0906  0.2247  0.5914
 9557SOL    HW140307   3.551   4.122   0.134  0.0787  1.0149  0.0589
 9557SOL    HW240308   3.625   4.165   0.245  0.3929  2.1243  0.3085
 9558SOL     OW40309   2.955   1.194  16.480  0.6013  0.5315 -0.3886
 9558SOL    HW140310   2.994   1.249  16.413  0.3183  2.8251  1.3344
 9558SOL    HW240311   3.030   1.196  16.539  0.7261  1.2141 -0.5688
 9559SOL     OW40312   0.695   0.190   2.037 -0.4224  0.5425  0.1807
 9559SOL    HW140313   0.735   0.277   2.041 -1.4580  1.0525 -0.8249
 9559SOL    HW240314   0.664   0.184   2.128  0.6854 -0.5558  0.4880
 9560SOL     OW40315   1.569   1.738   9.532 -0.1889 -0.1818  0.1877
 9560SOL    HW140316   1.642   1.777   9.580 -0.0176  2.0892 -1.9536
 9560SOL    HW240317   1.608   1.650   9.528  0.0607 -0.1782  2.5313
 9561SOL     OW40318   0.986   4.392   9.028 -0.3355 -0.3591  0.2330
 9561SOL    HW140319   0.945   4.397   8.942  1.7572 -0.7528 -0.7713
 9561SOL    HW240320   1.064   4.338   9.019 -1.2031 -1.1074 -2.8868
 9562SOL     OW40321   2.239   3.846   6.958  0.9141 -0.4953 -0.6022
 9562SOL    HW140322   2.211   3.906   7.027  0.2620  1.4084 -2.5354
 9562SOL    HW240323   2.253   3.915   6.894  0.4454  0.1770  0.0244
 9563SOL     OW40324   2.139   0.634   9.237 -0.4380  0.3939  0.0314
 9563SOL    HW140325   2.209   0.611   9.177  0.1695  2.2322  0.0210
 9563SOL    HW240326   2.154   0.557   9.291 -1.1273  0.2494  0.0242
 9564SOL     OW40327   2.497   4.300   8.329  0.0891 -0.8264  0.0398
 9564SOL    HW140328   2.553   4.342   8.395  0.8729 -0.3041 -0.9476
 9564SOL    HW240329   2.561   4.254   8.274  2.1082  1.3871  0.5264
 9565SOL     OW40330   4.037   3.011   7.063  0.3225  0.6985  0.0451
 9565SOL    HW140331   3.964   3.000   7.003 -1.5787  2.0541  2.0643
 9565SOL    HW240332   4.078   2.928   7.042 -0.3556  0.6862 -1.2074
 9566SOL     OW40333   1.519   4.433   2.820 -0.3040 -0.1007 -0.0430
 9566SOL    HW140334   1.445   4.433   2.760  0.6957 -2.9853 -1.2718
 9566SOL    HW240335   1.594   4.443   2.761 -1.4617  3.7072 -0.8969
 9567SOL     OW40336   2.310   0.388   9.684  0.2435 -0.1502 -0.0684
 9567SOL    HW140337   2.345   0.433   9.761 -1.6411 -0.9530  1.2492
 9567SOL    HW240338   2.370   0.418   9.615  2.1207 -0.4272  1.4523
 9568SOL     OW40339   1.885   1.204  10.121  0.7524 -0.3264  0.0427
 9568SOL    HW140340   1.929   1.288  10.107 -0.6249  0.0635 -1.8680
 9568SOL    HW240341   1.959   1.146  10.105  1.6224  1.4427 -2.2327
 9569SOL     OW40342   4.362   1.548   1.692 -0.1612 -0.3250  0.4437
 9569SOL    HW140343   4.286   1.538   1.635 -0.8231  0.5598  1.1671
 9569SOL    HW240344   4.389   1.457   1.706  0.2543 -0.1965  0.4962
   4.73974   4.73974  17.75664
