Membrane in water
40344
    1TMC1    C1    1   0.730   1.380  11.335  0.3440 -0.8496  0.3165
    1TMC1    C2    2   0.765   1.492  11.395 -0.0021 -0.6389  0.6083
    1TMC1    C3    3   0.802   1.596  11.315  0.7630 -0.1180  0.7443
    1TMC1    C4    4   0.732   1.362  11.203 -0.3215  0.4096 -0.0799
    1TMC1    C5    5   0.768   1.467  11.122  0.0853  0.1362  0.7418
    1TMC1    C6    6   0.796   1.591  11.181 -0.0021 -0.0069  0.5215
    1TMC1     C    7   0.647   1.292  11.414 -1.1439 -0.1825 -0.2227
    1TMC1     O    8   0.565   1.344  11.486 -0.2029 -0.3983 -0.0903
    1TMC1     H    9   0.761   1.497  11.503 -2.2974 -0.0223  0.4911
    1TMC1    H1   10   0.704   1.271  11.151 -0.6902 -0.4633  1.6497
    1TMC1    H2   11   0.836   1.666  11.114  2.2850 -0.2622  1.6123
    1TMC1    C7   12   0.775   1.441  10.983  0.3962  0.4536 -1.1765
    1TMC1    C8   13   0.799   1.723  11.375 -0.3548  0.3402 -0.1201
    1TMC1    O1   14   0.784   1.327  10.941 -0.1875  0.1282 -0.0601
    1TMC1    O2   15   0.890   1.771  11.441  0.0270  0.1096  0.0535
    1TMC1    O3   16   0.664   1.515  10.955 -0.4439  0.0974  0.5782
    1TMC1    H3   17   0.630   1.572  11.027 -1.3602 -0.0042  0.2239
    1TMC1    O5   18   0.717   1.793  11.288 -0.3684 -0.1180  0.4646
    1TMC1    H5   19   0.658   1.725  11.250  0.8343 -0.7802 -0.2123
    2MPD2     C   20   0.556   0.842  11.628 -0.0487  0.5154 -0.4665
    2MPD2    C1   21   0.486   0.956  11.642 -0.0831  0.0589  0.2510
    2MPD2    C2   22   0.524   1.066  11.564  0.0027 -0.3687 -0.1467
    2MPD2    C3   23   0.636   1.058  11.481 -0.2549  0.3596  0.0155
    2MPD2    C4   24   0.698   0.938  11.464 -0.1960  0.0515  0.9497
    2MPD2    C5   25   0.654   0.827  11.536 -0.1601 -0.2766 -0.1944
    2MPD2     H   26   0.480   1.161  11.590 -0.2257 -1.0927  2.1852
    2MPD2    H1   27   0.783   0.936  11.396  0.6341  0.0615  1.9898
    2MPD2    H2   28   0.528   0.751  11.679  2.4957  1.0845  1.9847
    2MPD2    H3   29   0.698   0.730  11.517 -2.4440 -1.1470 -1.0672
    2MPD2     N   30   0.688   1.160  11.408  0.6749  0.0330  0.0791
    2MPD2    H5   31   0.771   1.144  11.351 -0.0091  0.8897 -1.1575
    2MPD2    N1   32   0.369   0.968  11.719  0.2557 -0.0576  0.5969
    2MPD2    H7   33   0.333   1.063  11.728 -1.8813 -0.7417 -0.8451
    3TMC1    C1   34   4.279   2.993  11.054 -0.1291 -0.9609  0.0636
    3TMC1    C2   35   4.306   2.938  11.177 -0.0920 -0.7273  0.3801
    3TMC1    C3   36   4.407   2.846  11.185 -0.1447 -0.0519 -0.4195
    3TMC1    C4   37   4.362   2.971  10.945  0.3127  0.0062 -1.2009
    3TMC1    C5   38   4.471   2.885  10.962  0.8978 -0.1951 -0.2149
    3TMC1    C6   39   4.490   2.827  11.082 -0.6511 -0.6002  0.5108
    3TMC1     C   40   4.171   3.092  11.045  0.3300  0.0104  0.2158
    3TMC1     O   41   4.167   3.155  10.942 -0.4786 -0.1060 -0.2895
    3TMC1     H   42   4.251   2.962  11.267 -1.8420 -0.5903 -0.7435
    3TMC1    H1   43   4.341   3.022  10.852 -3.2489 -0.5593 -0.6997
    3TMC1    H2   44   4.554   2.740  11.092 -1.9287 -1.6607 -0.5400
    3TMC1    C7   45   4.558   2.876  10.846  0.7467  0.5642 -0.6516
    3TMC1    C8   46   4.421   2.778  11.312  0.7289 -0.7998  0.1345
    3TMC1    O1   47   4.513   2.913  10.737 -0.1934  0.2496  0.0887
    3TMC1    O2   48   4.388   2.830  11.414  0.2542 -0.1796 -0.5968
    3TMC1    O3   49   4.679   2.917  10.894  0.1979 -0.1612  0.2776
    3TMC1    H3   50   4.711   2.866  10.971 -1.3522 -2.9303 -0.8963
    3TMC1    O5   51   4.445   2.644  11.296  0.0406 -0.2956 -0.1233
    3TMC1    H5   52   4.457   2.619  11.202  0.7981  0.8773 -0.3411
    4MPD2     C   53   3.777   3.374  11.219  0.9099 -0.2524  0.2400
    4MPD2    C1   54   3.807   3.278  11.317  0.3402  0.1752 -0.1224
    4MPD2    C2   55   3.912   3.194  11.294 -0.4246  0.3898  0.2243
    4MPD2    C3   56   3.987   3.199  11.170 -0.5812 -0.1149  0.2068
    4MPD2    C4   57   3.957   3.296  11.079  0.6483 -0.7914  0.3071
    4MPD2    C5   58   3.845   3.372  11.102  0.3191  0.5072  0.0877
    4MPD2     H   59   3.935   3.111  11.360 -1.8954  0.7318  1.1751
    4MPD2    H1   60   3.992   3.309  10.978  1.1700  1.8731  0.8423
    4MPD2    H2   61   3.695   3.444  11.229 -1.0380 -2.7234  1.8423
    4MPD2    H3   62   3.820   3.441  11.022 -0.7869 -1.4431 -1.2414
    4MPD2     N   63   4.091   3.098  11.154  0.2323  0.2721 -0.4158
    4MPD2    H5   64   4.094   3.021  11.221  1.0902 -1.2979 -2.2600
    4MPD2    N1   65   3.739   3.261  11.439 -0.1886 -0.0162 -0.1763
    4MPD2    H7   66   3.768   3.181  11.493  1.3886 -0.4919 -1.7412
    5TCq1    O1   67   0.911   3.592  10.993  0.0190  0.2641 -0.1068
    5TCq1    C1   68   0.865   3.621  11.118  0.3545  0.2921  0.1348
    5TCq1    O2   69   0.938   3.658  11.214 -0.4121 -0.0782 -0.6862
    5TCq1    C2   70   0.721   3.665  11.111  0.0102  0.4948  0.2520
    5TCq1    C3   71   0.690   3.797  11.146  0.8735 -0.3882  0.0546
    5TCq1    C4   72   0.563   3.841  11.132 -0.7365 -0.1017  0.3197
    5TCq1    C5   73   0.469   3.758  11.080  0.1119  0.6925  0.0456
    5TCq1    C6   74   0.509   3.630  11.040 -0.2169 -0.4183  0.4694
    5TCq1    C7   75   0.630   3.580  11.066  0.2131  0.7206 -0.0254
    5TCq1    C8   76   0.427   3.552  10.940 -0.5179  0.1457  0.3830
    5TCq1    O4   77   0.461   3.441  10.916 -0.8607 -0.6678  0.2419
    5TCq1    C9   78   0.520   3.969  11.157 -0.8313  0.0493 -0.0795
    5TCq1    O5   79   0.614   4.055  11.172 -0.5367 -0.2934  0.5674
    5TCq1    O6   80   0.398   3.985  11.181 -0.0847 -0.3387 -0.2830
    5TCq1    H1   81   0.837   3.563  10.936 -1.4395  1.3731  1.2179
    5TCq1    H2   82   0.771   3.861  11.179  0.4933 -0.1765  0.5681
    5TCq1    H3   83   0.369   3.793  11.059  0.6963  0.3887 -3.2895
    5TCq1    H4   84   0.648   3.474  11.047 -3.0807  0.1329 -0.0400
    6MPD2     C   85   0.203   3.691  10.689 -0.6876  0.3973 -0.4103
    6MPD2    C1   86   0.255   3.594  10.769  0.3606  0.1520  0.4074
    6MPD2    C2   87   0.213   3.468  10.761  0.1884  0.6348  0.0081
    6MPD2    C3   88   0.124   3.426  10.663 -0.5067  0.1524 -0.2647
    6MPD2    C4   89   0.080   3.521  10.571  0.8092 -0.1385  0.0677
    6MPD2    C5   90   0.107   3.658  10.595  0.6994  0.1922  0.1813
    6MPD2     H   91   0.245   3.392  10.831 -1.2808  0.5448  0.5796
    6MPD2    H1   92   0.008   3.493  10.495 -0.3281 -0.6215  1.3175
    6MPD2    H2   93   0.235   3.794  10.705 -0.7722  0.9291 -3.6934
    6MPD2    H3   94   0.068   3.729  10.522  0.5307 -0.6819 -0.5855
    6MPD2     N   95   0.096   3.290  10.657 -0.0724  0.4796  0.5569
    6MPD2    H5   96   0.150   3.229  10.717 -0.1379  0.1417  0.2697
    6MPD2    N1   97   0.343   3.634  10.871  0.2212  0.0409 -0.1723
    6MPD2    H7   98   0.363   3.732  10.887 -0.3357 -0.0557  1.1444
    7TCq1    O1   99   1.370   3.266  12.919  0.4003 -0.1562  0.3315
    7TCq1    C1  100   1.500   3.261  12.954  0.1759 -0.4079  0.4094
    7TCq1    O2  101   1.590   3.291  12.877 -0.5052  0.0024 -0.3286
    7TCq1    C2  102   1.515   3.153  13.044 -0.5201 -0.0946  0.1261
    7TCq1    C3  103   1.431   3.049  13.046 -0.7271 -0.3868  0.4413
    7TCq1    C4  104   1.470   2.931  13.104 -0.2746 -0.6429 -0.2016
    7TCq1    C5  105   1.597   2.916  13.151  0.4628  0.0802  0.3464
    7TCq1    C6  106   1.681   3.022  13.149  1.1204 -0.6696 -0.9397
    7TCq1    C7  107   1.646   3.139  13.091  0.6770 -0.1598 -0.2450
    7TCq1    C8  108   1.822   2.984  13.188  0.0887  0.0177 -0.2544
    7TCq1    O4  109   1.848   2.867  13.188  0.7087  0.2527 -0.4433
    7TCq1    C9  110   1.379   2.824  13.120  0.3973 -0.5638 -0.2554
    7TCq1    O5  111   1.252   2.835  13.095  0.1633  0.1217  0.3315
    7TCq1    O6  112   1.428   2.712  13.142 -0.2419 -0.1796 -0.4216
    7TCq1    H1  113   1.330   3.256  13.008  1.2201 -1.8895  0.5158
    7TCq1    H2  114   1.327   3.053  13.014 -0.0042  0.1482 -1.8483
    7TCq1    H3  115   1.630   2.821  13.193 -3.0082 -1.8273 -1.2018
    7TCq1    H4  116   1.710   3.226  13.086 -0.4344  0.5741 -1.6964
    8MPD2     C  117   2.280   3.106  13.367 -0.2398  0.4663 -0.2024
    8MPD2    C1  118   2.200   2.986  13.373 -0.3183  0.8710 -0.8630
    8MPD2    C2  119   2.081   2.980  13.313 -0.5624  0.0395  0.2979
    8MPD2    C3  120   2.039   3.097  13.256  0.0977  0.7089  0.4438
    8MPD2    C4  121   2.108   3.216  13.248  0.1001 -1.0258  0.4653
    8MPD2    C5  122   2.239   3.214  13.295  0.1467 -0.3587  0.6583
    8MPD2     H  123   2.020   2.893  13.334 -0.6026 -0.0049  0.0026
    8MPD2    H1  124   2.067   3.304  13.201 -0.4074 -1.1412  0.6909
    8MPD2    H2  125   2.379   3.108  13.411 -1.0908 -2.2713  1.8194
    8MPD2    H3  126   2.301   3.303  13.286 -0.2827 -0.2233 -0.9503
    8MPD2     N  127   1.906   3.100  13.204 -0.2242  0.2652 -0.1529
    8MPD2    H5  128   1.873   3.191  13.174 -0.9542 -0.4569 -1.5439
    8MPD2    N1  129   2.259   2.869  13.443 -0.0512 -0.0688  0.3065
    8MPD2    H7  130   2.344   2.885  13.495  0.0256 -2.0997  0.7878
    9TMC1    C1  131   0.199   1.474  10.872  0.4731  0.0537  0.1160
    9TMC1    C2  132   0.087   1.420  10.817  0.8547 -0.3781 -0.2316
    9TMC1    C3  133   0.086   1.286  10.815 -0.5031 -0.2679  0.1354
    9TMC1    C4  134   0.307   1.409  10.924 -0.1341  0.3767  0.6197
    9TMC1    C5  135   0.292   1.279  10.932  0.8022 -0.9098 -0.0457
    9TMC1    C6  136   0.177   1.213  10.891 -0.2688  0.2735 -0.4845
    9TMC1     C  137   0.205   1.617  10.891 -1.1260  0.2376  0.0378
    9TMC1     O  138   0.315   1.661  10.905  0.0302 -0.2131 -0.1317
    9TMC1     H  139   0.019   1.485  10.763 -0.9608 -1.3243  0.8879
    9TMC1    H1  140   0.397   1.456  10.961  1.4765 -1.5737 -0.8365
    9TMC1    H2  141   0.179   1.104  10.892  0.6699  0.3014  0.4047
    9TMC1    C7  142   0.385   1.194  10.989  0.4275  0.3192  0.7679
    9TMC1    C8  143   4.734   1.239  10.715 -0.2192 -0.2579  0.1153
    9TMC1    O1  144   0.369   1.075  10.991 -0.2683  0.7280  0.2133
    9TMC1    O2  145   4.660   1.312  10.653  0.3176 -0.2981  0.4552
    9TMC1    O3  146   0.448   1.254  11.095  0.6159  0.2361 -0.1636
    9TMC1    H3  147   0.426   1.349  11.109  1.7283  0.7260 -1.7126
    9TMC1    O5  148   4.729   1.103  10.726  0.3595  0.1836  0.0986
    9TMC1    H5  149   0.033   1.075  10.810  1.0533  0.4087 -0.1765
   10MPD2     C  150   0.141   1.906  10.925  0.4370 -0.3869 -0.2500
   10MPD2    C1  151   0.052   1.801  10.949  0.1280 -0.1747 -0.2224
   10MPD2    C2  152   4.666   1.828  11.003  0.6730 -0.2543  0.5674
   10MPD2    C3  153   4.645   1.952  11.067  0.1237  0.0428 -0.0109
   10MPD2    C4  154   4.736   2.049  11.052 -0.3624 -0.8536 -0.2464
   10MPD2    C5  155   0.110   2.028  10.973 -0.1593 -0.6664 -0.4383
   10MPD2     H  156   4.595   1.748  11.021 -3.0778  2.8709 -0.2301
   10MPD2    H1  157   4.726   2.143  11.105  0.6277 -0.2533 -1.1179
   10MPD2    H2  158   0.222   1.883  10.856  1.7668  1.8034  0.5803
   10MPD2    H3  159   0.183   2.107  10.966 -1.0273  0.0614 -1.3507
   10MPD2     N  160   4.532   1.979  11.154  0.3782  0.1645  0.2859
   10MPD2    H5  161   4.524   2.070  11.198  1.4732  0.6538 -0.5140
   10MPD2    N1  162   0.082   1.667  10.925 -0.2355  0.3393 -0.3903
   10MPD2    H7  163   0.009   1.599  10.942  0.3884 -0.3361 -0.4079
   11TCq1    O1  164   0.360   1.904  13.552 -0.1335  0.0637 -0.0485
   11TCq1    C1  165   0.304   1.920  13.676 -0.3422  0.3181 -0.5320
   11TCq1    O2  166   0.212   1.993  13.704 -0.4667 -0.4847  0.1734
   11TCq1    C2  167   0.403   1.869  13.776  0.4845 -0.0352  0.0809
   11TCq1    C3  168   0.536   1.858  13.750  0.1718  0.0898 -0.0683
   11TCq1    C4  169   0.626   1.813  13.849 -0.9691 -0.6146  0.4279
   11TCq1    C5  170   0.574   1.809  13.976 -0.2956 -0.1577 -0.2554
   11TCq1    C6  171   0.437   1.816  13.998  0.3866  0.7716 -0.5215
   11TCq1    C7  172   0.352   1.848  13.898 -0.1001 -0.3971 -0.4530
   11TCq1    C8  173   0.391   1.726  14.098  0.0476  0.4678  0.1786
   11TCq1    O4  174   0.451   1.738  14.202  0.4265 -0.1170 -0.2297
   11TCq1    C9  175   0.769   1.837  13.841  0.3410 -0.2197  0.1071
   11TCq1    O5  176   0.819   1.861  13.729 -0.0263 -0.3803  0.0564
   11TCq1    O6  177   0.833   1.810  13.944  0.1112 -0.5818 -0.2527
   11TCq1    H1  178   0.409   1.819  13.551 -0.2773  0.0133 -2.7538
   11TCq1    H2  179   0.583   1.882  13.655  0.3101 -0.7221 -0.2061
   11TCq1    H3  180   0.641   1.787  14.058 -0.5722  0.9297  0.2613
   11TCq1    H4  181   0.245   1.857  13.915  0.0236  1.5576 -0.6292
   12MPD2     C  182   0.219   1.540  14.259 -0.1473  0.1762  0.8100
   12MPD2    C1  183   0.244   1.531  14.125  1.0246 -0.1604  0.0733
   12MPD2    C2  184   0.189   1.420  14.061  0.1496 -0.8739  0.3684
   12MPD2    C3  185   0.111   1.333  14.134  0.0495  0.3423 -0.6491
   12MPD2    C4  186   0.088   1.346  14.267 -0.0998 -0.2774 -0.3125
   12MPD2    C5  187   0.145   1.452  14.331 -0.3260  0.2294 -0.0251
   12MPD2     H  188   0.218   1.394  13.960  1.3912  0.7509  0.2978
   12MPD2    H1  189   0.015   1.291  14.326  0.2965  0.2256  0.6373
   12MPD2    H2  190   0.264   1.622  14.315 -0.0590  1.5767 -1.3100
   12MPD2    H3  191   0.118   1.477  14.433 -1.3710 -0.6163 -0.0917
   12MPD2     N  192   0.083   1.205  14.079  0.5722  0.1368 -0.4601
   12MPD2    H5  193   0.039   1.136  14.139  1.8777 -2.6437 -2.6456
   12MPD2    N1  194   0.313   1.626  14.053  0.5208  0.2025  0.2036
   12MPD2    H7  195   0.306   1.608  13.953  1.8991 -1.1596  0.3620
   13TCq1    O1  196   0.328   2.045  11.363 -0.2554  0.2369 -0.1904
   13TCq1    C1  197   0.202   2.006  11.338 -0.0375  0.0451  0.5620
   13TCq1    O2  198   0.121   2.091  11.319 -0.2196 -0.1310 -0.5698
   13TCq1    C2  199   0.208   1.868  11.285  0.0806 -0.4066  0.3847
   13TCq1    C3  200   0.324   1.809  11.247 -0.6808  0.0666 -0.4472
   13TCq1    C4  201   0.319   1.677  11.212 -0.4703  0.2004  0.3529
   13TCq1    C5  202   0.200   1.608  11.228 -0.1264  0.4528  0.3203
   13TCq1    C6  203   0.089   1.669  11.277  0.0551 -0.1585 -0.8118
   13TCq1    C7  204   0.089   1.804  11.309 -0.5244 -0.1860 -1.6579
   13TCq1    C8  205   4.710   1.593  11.305  0.1623  0.3507  0.0252
   13TCq1    O4  206   4.619   1.652  11.365 -0.3048  0.0813 -0.0432
   13TCq1    C9  207   0.437   1.604  11.185 -0.3875 -0.7308  0.0255
   13TCq1    O5  208   0.425   1.478  11.195  0.4724 -0.2063 -0.3444
   13TCq1    O6  209   0.538   1.667  11.148  0.0322  0.0880 -0.3655
   13TCq1    H1  210   0.374   1.969  11.406 -0.5209  0.6644  0.8482
   13TCq1    H2  211   0.419   1.861  11.250  0.4735 -2.0647 -0.2363
   13TCq1    H3  212   0.196   1.502  11.207 -0.3800  0.1007  2.1341
   13TCq1    H4  213   0.003   1.856  11.351  2.4646  2.4013  1.2713
   14MPD2     C  214   4.692   1.225  11.301  0.0938  0.7219 -0.1222
   14MPD2    C1  215   4.638   1.352  11.296 -0.9383 -0.4757 -0.2949
   14MPD2    C2  216   4.501   1.375  11.298  0.7694  0.0351  0.2247
   14MPD2    C3  217   4.411   1.269  11.298  0.4749 -1.1354  0.6524
   14MPD2    C4  218   4.466   1.138  11.314 -0.0853  0.2846  0.0310
   14MPD2    C5  219   4.601   1.119  11.315  0.3168 -0.2239 -0.1761
   14MPD2     H  220   4.471   1.479  11.293 -1.0346 -0.4864  0.0557
   14MPD2    H1  221   4.417   1.042  11.324 -0.8648  0.8024  1.1037
   14MPD2    H2  222   0.058   1.200  11.292 -0.3839 -1.8679  1.4424
   14MPD2    H3  223   4.641   1.019  11.319  0.6412 -0.0327  1.2730
   14MPD2     N  224   4.271   1.296  11.299 -0.1256  0.4861  0.3686
   14MPD2    H5  225   4.231   1.390  11.298 -1.4971 -0.1040 -1.8164
   14MPD2    N1  226   4.729   1.454  11.284  0.0344 -0.0077  0.1697
   14MPD2    H7  227   0.084   1.422  11.260 -0.3263  1.4585 -3.1613
   15TCq1    O1  228   2.741   0.982   1.980  0.2118 -0.4375 -0.4776
   15TCq1    C1  229   2.652   1.071   1.934  0.6521  0.0182  0.8314
   15TCq1    O2  230   2.556   1.093   2.006 -0.2924  0.0840  0.1697
   15TCq1    C2  231   2.648   1.042   1.789 -0.0501  0.0597 -0.2051
   15TCq1    C3  232   2.767   1.054   1.722 -0.0228 -0.9748  0.2755
   15TCq1    C4  233   2.787   0.985   1.607 -0.2093 -0.6819  0.2216
   15TCq1    C5  234   2.691   0.903   1.555  0.1518 -0.4561  0.3296
   15TCq1    C6  235   2.564   0.892   1.623  0.5688  0.7761 -0.2817
   15TCq1    C7  236   2.550   0.959   1.743  0.0230 -0.0380  0.1495
   15TCq1    C8  237   2.471   0.796   1.566 -0.0814  0.0427  0.2039
   15TCq1    O4  238   2.519   0.730   1.473  0.3647 -0.6531  0.4337
   15TCq1    C9  239   2.913   0.990   1.537 -0.0538  0.3370 -0.1891
   15TCq1    O5  240   3.017   0.986   1.608  0.3963  0.2634  0.8305
   15TCq1    O6  241   2.921   0.982   1.410 -0.1984 -0.0527  0.2641
   15TCq1    H1  242   2.806   0.950   1.914  0.0639 -0.2069 -0.7340
   15TCq1    H2  243   2.846   1.107   1.775  0.5452 -0.2857 -1.2844
   15TCq1    H3  244   2.697   0.855   1.458 -0.7175  0.7707 -0.3242
   15TCq1    H4  245   2.462   0.936   1.803  0.3308 -1.2028  0.1447
   16MPD2     C  246   2.105   0.826   1.546  0.0667  0.0798  0.0316
   16MPD2    C1  247   2.225   0.763   1.541  0.4227  0.1291  0.2064
   16MPD2    C2  248   2.232   0.629   1.495 -0.5243 -0.0227  0.5064
   16MPD2    C3  249   2.126   0.559   1.451 -0.3432 -0.3607 -0.2785
   16MPD2    C4  250   2.005   0.628   1.457 -0.5197  0.1745 -0.1526
   16MPD2    C5  251   1.999   0.755   1.502  0.2298  0.3649  0.2104
   16MPD2     H  252   2.327   0.576   1.502 -0.0280  0.8129  0.0716
   16MPD2    H1  253   1.910   0.580   1.435 -0.8291  1.2121 -1.1151
   16MPD2    H2  254   2.080   0.928   1.572  0.2687  0.5048 -1.4351
   16MPD2    H3  255   1.902   0.800   1.517 -0.4168 -1.3125  1.0533
   16MPD2     N  256   2.151   0.421   1.423  0.1080 -0.0723 -1.0778
   16MPD2    H5  257   2.248   0.392   1.431 -0.7974 -3.1606 -1.1801
   16MPD2    N1  258   2.339   0.832   1.587 -0.6056  0.2203  0.2664
   16MPD2    H7  259   2.318   0.906   1.654 -1.2130  1.0571 -0.8362
   17TMC1    C1  260   0.113   0.507  11.707  0.5015  0.5152  0.1132
   17TMC1    C2  261   0.111   0.381  11.651  0.0133 -0.1612 -0.1175
   17TMC1    C3  262   0.165   0.278  11.713  0.3394 -0.9425  0.1455
   17TMC1    C4  263   0.142   0.519  11.836  0.5654 -0.3536 -0.5483
   17TMC1    C5  264   0.193   0.410  11.899  0.0256  0.2220 -0.3400
   17TMC1    C6  265   0.210   0.288  11.839  0.4558 -0.0818  0.4833
   17TMC1     C  266   0.087   0.625  11.633  0.4960  0.2060 -0.2625
   17TMC1     O  267   0.019   0.715  11.682  0.3242  0.3113 -0.2122
   17TMC1     H  268   0.090   0.369  11.545 -0.3377  1.5057 -0.2339
   17TMC1    H1  269   0.155   0.618  11.878 -0.8941 -1.0482  1.5658
   17TMC1    H2  270   0.260   0.207  11.891  2.8150  0.3738 -1.0745
   17TMC1    C7  271   0.240   0.448  12.032  0.3989  0.3765 -0.0040
   17TMC1    C8  272   0.166   0.152  11.649  0.6864 -0.3797 -0.2695
   17TMC1    O1  273   0.244   0.558  12.085  0.4878  0.8132 -0.2400
   17TMC1    O2  274   0.141   0.139  11.529 -0.3984  0.1420  0.1766
   17TMC1    O3  275   0.257   0.331  12.088  0.0365  0.3717  0.1407
   17TMC1    H3  276   0.207   0.259  12.045 -1.5643  0.3773  1.9803
   17TMC1    O5  277   0.097   0.085  11.743 -0.1918  0.3789  0.5426
   17TMC1    H5  278   0.106   0.124  11.832  1.0388  1.4946 -0.0703
   18MPD2     C  279   0.158   0.868  11.471 -0.8754 -0.1472 -0.2323
   18MPD2    C1  280   0.203   0.739  11.444  0.0263  0.5683  0.4298
   18MPD2    C2  281   0.278   0.718  11.328 -0.2658  0.5633  0.1738
   18MPD2    C3  282   0.303   0.826  11.244 -0.5233 -0.1771 -0.0778
   18MPD2    C4  283   0.270   0.954  11.276 -0.1922 -0.1634  0.3208
   18MPD2    C5  284   0.196   0.976  11.393  0.6310 -0.2142 -0.2179
   18MPD2     H  285   0.311   0.617  11.304 -1.9170 -0.2104  1.1945
   18MPD2    H1  286   0.292   1.033  11.205  0.0664 -0.6157 -0.1022
   18MPD2    H2  287   0.089   0.892  11.551  0.2577  0.3438  0.6070
   18MPD2    H3  288   0.170   1.078  11.417 -0.6137 -1.0757  2.0020
   18MPD2     N  289   0.344   0.803  11.109 -0.4958  0.4913  0.0051
   18MPD2    H5  290   0.365   0.891  11.062 -2.5560 -0.8366 -3.3420
   18MPD2    N1  291   0.171   0.623  11.526 -0.4372  0.0268  0.0272
   18MPD2    H7  292   0.220   0.535  11.515  0.7174  0.6488  0.1588
   19TMC2    C1  293   1.288   1.913  14.107 -0.1220 -0.8239 -0.0056
   19TMC2    C2  294   1.186   2.007  14.129 -0.3804 -0.5695 -0.8595
   19TMC2    C3  295   1.065   1.965  14.162 -0.1333  0.7391  0.1807
   19TMC2    C4  296   1.268   1.780  14.129  0.0359 -0.6249 -0.1363
   19TMC2    C5  297   1.133   1.746  14.141 -0.5956 -0.4653  0.5737
   19TMC2    C6  298   1.034   1.837  14.164  0.0522 -0.4117  0.1680
   19TMC2     C  299   1.418   1.962  14.133 -0.0670  0.1072 -1.6058
   19TMC2     O  300   1.446   2.081  14.120 -0.3394 -0.3997 -0.2662
   19TMC2     H  301   1.203   2.114  14.120  0.4607 -0.4918  1.6683
   19TMC2    H1  302   1.339   1.699  14.114 -0.1340 -0.3819 -2.2146
   19TMC2    H2  303   0.932   1.800  14.168 -0.5200  0.7752 -3.4010
   19TMC2    C7  304   1.101   1.610  14.102  0.0087  0.5627  0.6458
   19TMC2    C8  305   0.961   2.067  14.171 -0.0245  0.3979 -0.5354
   19TMC2    O1  306   1.192   1.524  14.108 -0.2151  0.5913  0.1648
   19TMC2    O2  307   0.995   2.183  14.199  0.1343  0.7166  0.3674
   19TMC2    O5  308   0.868   2.019  14.093 -0.2139 -0.6836  0.2548
   19TMC2    H5  309   0.894   1.938  14.044 -0.0981 -0.2952 -0.3240
   20MPD2     C  310   1.716   1.986  14.152  0.3781  0.2384 -0.2753
   20MPD2    C1  311   1.646   1.879  14.198 -0.0286  0.0433 -0.5170
   20MPD2    C2  312   1.708   1.774  14.262 -0.1319 -0.5888  0.6432
   20MPD2    C3  313   1.847   1.773  14.282  0.3482  0.0237 -0.0111
   20MPD2    C4  314   1.917   1.886  14.242 -0.3347 -0.8100  0.5547
   20MPD2    C5  315   1.850   1.996  14.189  0.3743  0.1718 -0.3347
   20MPD2     H  316   1.635   1.697  14.283 -2.3836  1.3898  0.1309
   20MPD2    H1  317   2.025   1.892  14.248 -0.6558  2.5481  2.9430
   20MPD2    H2  318   1.677   2.065  14.089 -0.4894 -1.6899 -2.1529
   20MPD2    H3  319   1.917   2.074  14.154  1.6613 -0.7587  0.0362
   20MPD2     N  320   1.919   1.661  14.324 -0.1036  0.2452  0.5800
   20MPD2    H5  321   2.019   1.670  14.332 -0.5265  0.7021  5.0945
   20MPD2    N1  322   1.506   1.863  14.176 -1.2174 -0.0692  0.1529
   20MPD2    H7  323   1.467   1.770  14.184 -1.6513  0.0303 -0.7177
   21TMC2    C1  324   3.860   2.019  14.158 -0.2098  0.1676  0.2575
   21TMC2    C2  325   3.949   1.918  14.113  0.0657 -0.4836 -0.6594
   21TMC2    C3  326   3.987   1.842  14.216  0.2840  0.1655  0.3558
   21TMC2    C4  327   3.823   2.043  14.291 -0.4453  0.1263 -0.1971
   21TMC2    C5  328   3.872   1.951  14.386  0.0474  0.0434  0.5234
   21TMC2    C6  329   3.951   1.851  14.347 -0.1444  0.3604  0.7360
   21TMC2     C  330   3.850   2.125  14.061 -0.4081 -0.4125 -0.0530
   21TMC2     O  331   3.798   2.095  13.954  0.3674  0.0131 -0.1213
   21TMC2     H  332   3.987   1.915  14.011 -2.3803  2.3642 -1.6576
   21TMC2    H1  333   3.764   2.131  14.315  0.5167  1.1606 -1.6200
   21TMC2    H2  334   3.986   1.782  14.423 -0.3268 -0.0243  0.4702
   21TMC2    C7  335   3.879   1.995  14.525  0.5666 -0.0620 -0.2884
   21TMC2    C8  336   4.011   1.706  14.175 -0.3000 -0.3972  0.4566
   21TMC2    O1  337   3.966   1.948  14.597 -0.0778 -0.3484  0.3967
   21TMC2    O2  338   3.982   1.675  14.061 -0.2279 -0.4842 -0.3703
   21TMC2    O5  339   4.111   1.652  14.240  0.0351  0.0695 -0.1195
   21TMC2    H5  340   4.156   1.719  14.294 -0.3573 -0.1470  0.4757
   22MPD2     C  341   4.007   2.417  14.457  0.7400 -0.0835 -0.0828
   22MPD2    C1  342   4.074   2.315  14.391  0.3103  0.0315  0.1003
   22MPD2    C2  343   4.011   2.262  14.276  0.5482 -0.6219  0.3066
   22MPD2    C3  344   3.903   2.316  14.225 -0.0661 -0.4730  0.0318
   22MPD2    C4  345   3.843   2.428  14.276 -0.6608  0.3251 -0.7089
   22MPD2    C5  346   3.892   2.477  14.400 -0.2172  0.5625 -0.5026
   22MPD2     H  347   4.054   2.174  14.229 -0.5912  0.0527 -1.9890
   22MPD2    H1  348   3.764   2.488  14.232 -0.5384  1.1943  0.2575
   22MPD2    H2  349   4.038   2.464  14.550  0.4220  1.3064 -0.6748
   22MPD2    H3  350   3.844   2.566  14.439 -0.2009  1.4699 -2.5966
   22MPD2     N  351   3.837   2.253  14.119 -0.3054 -0.1923 -0.3332
   22MPD2    H5  352   3.769   2.300  14.060 -0.2660 -1.2281 -1.2092
   22MPD2    N1  353   4.194   2.256  14.428 -0.6196  0.7003 -0.3042
   22MPD2    H7  354   4.230   2.190  14.359 -1.0085  0.9321 -0.7324
   23TMC2    C1  355   0.446   2.936  14.642  0.0675 -0.5878 -0.3224
   23TMC2    C2  356   0.503   2.997  14.532  0.5102 -0.3008 -0.2096
   23TMC2    C3  357   0.464   2.954  14.409 -0.6157  0.4685  0.2891
   23TMC2    C4  358   0.359   2.831  14.633 -0.1486  0.2859  0.4342
   23TMC2    C5  359   0.327   2.789  14.507  0.2192 -0.1225  0.3550
   23TMC2    C6  360   0.388   2.840  14.397 -0.4078  0.6676  0.0878
   23TMC2     C  361   0.483   2.983  14.779  0.2173  0.1158  0.5740
   23TMC2     O  362   0.479   2.894  14.869 -0.1585 -0.1881 -0.2199
   23TMC2     H  363   0.588   3.061  14.552  1.0810 -0.4361 -2.1925
   23TMC2    H1  364   0.294   2.805  14.716  2.1270 -1.5249  1.6340
   23TMC2    H2  365   0.363   2.809  14.296 -1.4989  0.9819  0.2599
   23TMC2    C7  366   0.241   2.673  14.493  0.1882  0.2850 -0.0358
   23TMC2    C8  367   0.508   3.020  14.290  0.3618 -0.3691  0.3919
   23TMC2    O1  368   0.263   2.574  14.567 -0.5496 -0.2766 -0.3248
   23TMC2    O2  369   0.500   2.977  14.178 -0.1366 -0.1488 -0.6887
   23TMC2    O5  370   0.521   3.153  14.323  0.1564 -0.2600  0.4496
   23TMC2    H5  371   0.508   3.166  14.419  1.8635 -0.3924  0.7006
   24MPD2     C  372   0.715   3.303  15.099  0.7685 -0.2434  0.4105
   24MPD2    C1  373   0.693   3.169  15.109 -0.1093  0.8039 -0.1161
   24MPD2    C2  374   0.623   3.111  15.010 -0.7142 -0.3610 -0.0665
   24MPD2    C3  375   0.579   3.178  14.895 -0.0343 -0.3675 -0.2503
   24MPD2    C4  376   0.606   3.312  14.889  0.0309  0.1324  0.3691
   24MPD2    C5  377   0.675   3.378  14.990 -0.4242  0.2948 -1.0335
   24MPD2     H  378   0.595   3.007  15.027  2.0612 -1.1287 -0.3023
   24MPD2    H1  379   0.566   3.376  14.811 -1.6292  0.1290  1.2192
   24MPD2    H2  380   0.763   3.368  15.173 -1.8167  1.9787  0.1267
   24MPD2    H3  381   0.700   3.483  14.988  1.7346 -0.1872  0.7819
   24MPD2     N  382   0.513   3.116  14.790  0.0348 -0.3456  0.3658
   24MPD2    H5  383   0.505   3.175  14.708  0.5266  0.5382  0.9686
   24MPD2    N1  384   0.731   3.092  15.216  0.2055  0.4682  0.4414
   24MPD2    H7  385   0.712   2.993  15.204  1.0566  0.3328  0.2256
   25TMC2    C1  386   4.367   0.680  11.198  0.0779 -0.4781 -0.6209
   25TMC2    C2  387   4.446   0.579  11.240 -0.1035 -0.2035  0.0165
   25TMC2    C3  388   4.463   0.574  11.378  0.5241 -1.2399  0.6317
   25TMC2    C4  389   4.307   0.779  11.277 -0.0881 -0.1252 -0.4120
   25TMC2    C5  390   4.342   0.783  11.409  0.8730 -0.1864 -0.0013
   25TMC2    C6  391   4.409   0.674  11.463  0.6117 -0.3340 -0.6850
   25TMC2     C  392   4.349   0.710  11.055  0.3950  0.6580 -0.3593
   25TMC2     O  393   4.357   0.826  11.027 -0.2227  0.0363  0.9358
   25TMC2     H  394   4.493   0.509  11.172 -0.2808 -0.7889  0.4922
   25TMC2    H1  395   4.251   0.863  11.236  0.2782  0.2289 -0.1886
   25TMC2    H2  396   4.426   0.657  11.569 -3.8788  1.7422  0.3892
   25TMC2    C7  397   4.229   0.798  11.501 -0.0855  0.5480  0.2701
   25TMC2    C8  398   4.533   0.463  11.438  0.7986  0.5767  0.2486
   25TMC2    O1  399   4.241   0.756  11.617 -0.2208 -0.5098 -0.1069
   25TMC2    O2  400   4.539   0.452  11.563 -0.4741  0.3376 -0.3800
   25TMC2    O5  401   4.623   0.410  11.350  0.7015  0.7973 -0.6440
   25TMC2    H5  402   4.597   0.412  11.256 -0.2929  0.4918 -0.3806
   26MPD2     C  403   4.050   0.633  10.647  0.6171  0.2260 -0.3344
   26MPD2    C1  404   4.034   0.536  10.736  0.3982  0.2863 -0.2128
   26MPD2    C2  405   4.121   0.528  10.839 -0.2614 -0.5685  0.2185
   26MPD2    C3  406   4.210   0.631  10.866 -0.2612 -0.3861  0.3562
   26MPD2    C4  407   4.218   0.738  10.778 -0.3565  0.0616 -0.0333
   26MPD2    C5  408   4.131   0.743  10.673  0.6036  0.5710  0.5313
   26MPD2     H  409   4.114   0.440  10.903 -1.9251  0.5641  1.5956
   26MPD2    H1  410   4.284   0.823  10.792  0.3680 -0.4005 -0.6388
   26MPD2    H2  411   3.985   0.637  10.561  0.7689 -1.3707 -0.5377
   26MPD2    H3  412   4.144   0.823  10.601 -0.5068  0.4193  0.1678
   26MPD2     N  413   4.276   0.612  10.988 -1.0859 -0.3550  0.0364
   26MPD2    H5  414   4.254   0.523  11.031  2.9959 -1.5258 -0.3411
   26MPD2    N1  415   3.931   0.446  10.703 -0.1347  0.1225  0.3346
   26MPD2    H7  416   3.871   0.472  10.626 -0.4100 -2.4679 -0.3325
   27TMC2    C1  417   2.720   2.834  11.871  0.1038  0.4098 -0.0688
   27TMC2    C2  418   2.728   2.847  11.735  0.1532 -0.2580 -0.0830
   27TMC2    C3  419   2.841   2.896  11.676  0.0958 -0.3561 -0.0245
   27TMC2    C4  420   2.829   2.876  11.947 -1.0785 -0.1086  0.4367
   27TMC2    C5  421   2.945   2.920  11.885  0.1923 -0.2270  0.3576
   27TMC2    C6  422   2.947   2.936  11.756 -0.6977  0.4755  0.1322
   27TMC2     C  423   2.639   2.727  11.925 -0.8033  0.1444  0.3717
   27TMC2     O  424   2.613   2.639  11.844  0.1739 -0.0092  0.2558
   27TMC2     H  425   2.641   2.828  11.673  0.0558  0.0598 -0.0410
   27TMC2    H1  426   2.818   2.866  12.054 -0.9357 -0.4247  0.4239
   27TMC2    H2  427   3.033   2.986  11.711 -0.4609 -2.2396 -2.4295
   27TMC2    C7  428   3.066   2.881  11.960 -0.6316 -0.2260 -0.0466
   27TMC2    C8  429   2.818   2.948  11.545  0.1876  0.1095 -0.2318
   27TMC2    O1  430   3.038   2.872  12.077 -0.4090  0.0576  0.5657
   27TMC2    O2  431   2.706   2.979  11.502 -0.4841  0.1328  0.1608
   27TMC2    O5  432   2.932   2.991  11.495  0.7229 -0.3968  0.4475
   27TMC2    H5  433   3.015   2.945  11.520  1.3617  1.3370  1.5707
   28MPD2     C  434   2.394   2.468  12.261  0.2371  0.1167  0.2551
   28MPD2    C1  435   2.402   2.596  12.315 -0.2956 -0.7580  0.0348
   28MPD2    C2  436   2.485   2.683  12.252 -0.5143  1.1433 -0.5964
   28MPD2    C3  437   2.539   2.641  12.135 -0.0634 -0.1084  0.1771
   28MPD2    C4  438   2.545   2.518  12.093  0.3718 -0.0548 -0.5382
   28MPD2    C5  439   2.466   2.427  12.149 -0.3271 -0.0007  0.2054
   28MPD2     H  440   2.500   2.786  12.282  3.6247  0.2056  0.5854
   28MPD2    H1  441   2.614   2.483  12.017 -0.8395 -0.2772 -1.5350
   28MPD2    H2  442   2.332   2.391  12.305 -1.6742  0.6704 -1.4528
   28MPD2    H3  443   2.464   2.323  12.116  1.3047 -0.9854  3.1437
   28MPD2     N  444   2.612   2.736  12.059  0.8299  0.5282 -0.6453
   28MPD2    H5  445   2.612   2.830  12.097  2.3083  0.1990  0.1850
   28MPD2    N1  446   2.322   2.629  12.429 -0.2597 -0.0339 -0.0243
   28MPD2    H7  447   2.264   2.557  12.471 -0.0508  0.1192  0.5304
   29TMC2    C1  448   2.377   0.791  14.527 -0.1280 -0.2574 -0.4907
   29TMC2    C2  449   2.290   0.832  14.625 -0.3521 -0.4835  0.0393
   29TMC2    C3  450   2.288   0.957  14.679 -0.4539  0.0459 -0.1253
   29TMC2    C4  451   2.490   0.872  14.506  0.3596 -0.2676 -1.1406
   29TMC2    C5  452   2.492   0.988  14.572  0.0410 -0.4662 -0.2790
   29TMC2    C6  453   2.398   1.037  14.656 -0.4810  0.0694 -0.2041
   29TMC2     C  454   2.322   0.715  14.418  0.3019  0.3320  0.0726
   29TMC2     O  455   2.197   0.717  14.408 -0.4895 -0.0920  0.0330
   29TMC2     H  456   2.201   0.771  14.637 -2.6267  3.0457  1.0355
   29TMC2    H1  457   2.540   0.855  14.411  0.1221  1.3387 -1.5613
   29TMC2    H2  458   2.419   1.126  14.714 -0.2492  0.4225 -0.8351
   29TMC2    C7  459   2.598   1.083  14.529 -0.4058 -0.2517  0.4063
   29TMC2    C8  460   2.218   0.967  14.810 -0.0298 -0.4280 -0.6952
   29TMC2    O1  461   2.698   1.037  14.477 -0.2277  0.0983  0.1126
   29TMC2    O2  462   2.154   0.873  14.850  0.1091 -0.2302  0.7735
   29TMC2    O5  463   2.173   1.102  14.799  0.0814 -0.0382  0.0999
   29TMC2    H5  464   2.212   1.162  14.732  2.7707 -1.4051  0.4263
   30MPD2     C  465   2.348   0.412  14.001 -0.2180  0.6400  0.3642
   30MPD2    C1  466   2.467   0.395  14.067 -0.4103 -0.0137 -0.2677
   30MPD2    C2  467   2.492   0.483  14.169  0.2860 -0.4120  0.3436
   30MPD2    C3  468   2.389   0.561  14.230  0.2921 -0.2812  0.3773
   30MPD2    C4  469   2.271   0.570  14.161 -0.1121 -0.7893 -0.6755
   30MPD2    C5  470   2.251   0.498  14.041 -0.2133 -0.1083 -0.4502
   30MPD2     H  471   2.587   0.486  14.221 -0.1298  0.2472  1.0889
   30MPD2    H1  472   2.193   0.638  14.192 -1.4787 -2.3726 -0.6434
   30MPD2    H2  473   2.309   0.343  13.926 -0.4960  0.2936  0.8298
   30MPD2    H3  474   2.155   0.500  13.991 -0.4248 -2.5318 -0.1358
   30MPD2     N  475   2.415   0.643  14.353 -0.2796  0.9200 -0.1183
   30MPD2    H5  476   2.509   0.624  14.385 -0.3790 -0.8703 -0.8438
   30MPD2    N1  477   2.564   0.297  14.037  0.0411  0.2694  0.0495
   30MPD2    H7  478   2.644   0.293  14.099  0.7459 -0.2270 -0.8950
   31TMC2    C1  479   0.190   3.763  15.577  0.1977  0.5415 -0.2615
   31TMC2    C2  480   0.066   3.823  15.587 -0.1734 -1.5411 -0.6511
   31TMC2    C3  481   0.038   3.897  15.697  0.2070 -0.2370 -0.1154
   31TMC2    C4  482   0.280   3.763  15.678  0.0122  0.7660  1.0360
   31TMC2    C5  483   0.251   3.856  15.782 -0.0658 -0.3975 -0.3088
   31TMC2    C6  484   0.130   3.921  15.793  0.4242  0.7427 -0.1539
   31TMC2     C  485   0.243   3.760  15.446 -0.6564 -0.5544  0.5559
   31TMC2     O  486   0.184   3.828  15.369  0.5907  0.7037 -0.2376
   31TMC2     H  487   4.734   3.831  15.505 -0.8772  0.2467  0.1349
   31TMC2    H1  488   0.382   3.729  15.667  0.2463  1.7266  0.2606
   31TMC2    H2  489   0.116   3.980  15.883  1.6483  0.4656  0.2224
   31TMC2    C7  490   0.348   3.883  15.883 -1.2429  0.2565 -0.6917
   31TMC2    C8  491   4.666   3.992  15.686  0.3694  0.1061  0.0566
   31TMC2    O1  492   0.347   3.994  15.921  1.0545 -0.7494 -0.2274
   31TMC2    O2  493   4.564   3.961  15.626  0.4074  0.0589  0.5861
   31TMC2    O5  494   4.719   4.121  15.706  0.0280 -0.3451  0.3964
   31TMC2    H5  495   0.078   4.114  15.703  0.0995  1.2706 -1.3237
   32MPD2     C  496   0.645   3.746  15.132 -0.1613  0.1154 -0.1602
   32MPD2    C1  497   0.533   3.826  15.132  0.8334 -0.3098  0.8461
   32MPD2    C2  498   0.432   3.803  15.225 -0.3191 -0.1185 -0.6008
   32MPD2    C3  499   0.448   3.704  15.326 -0.2627  0.2913  0.3966
   32MPD2    C4  500   0.562   3.618  15.320  0.0547 -0.2132  0.6958
   32MPD2    C5  501   0.660   3.647  15.228 -0.1272 -0.4492 -0.0133
   32MPD2     H  502   0.356   3.879  15.235 -0.3644  0.2338 -3.8208
   32MPD2    H1  503   0.582   3.536  15.389 -0.1332 -0.7866  0.0723
   32MPD2    H2  504   0.725   3.756  15.059 -2.7800  1.0500 -2.9207
   32MPD2    H3  505   0.739   3.573  15.232  0.0274 -0.2353  0.7764
   32MPD2     N  506   0.361   3.688  15.433  0.3270  0.0314 -0.2334
   32MPD2    H5  507   0.385   3.625  15.509 -1.0767  0.0057  0.2009
   32MPD2    N1  508   0.535   3.945  15.057  0.7511  0.1785 -0.4783
   32MPD2    H7  509   0.622   3.968  15.008  1.0802  0.1176  0.0800
   33TMC2    C1  510   0.089   1.470  10.311 -0.1184 -0.0880 -0.5414
   33TMC2    C2  511   4.718   1.407  10.258  0.4269  0.1016  0.0370
   33TMC2    C3  512   4.654   1.459  10.150  0.1213 -0.3552  0.7721
   33TMC2    C4  513   0.139   1.584  10.251  0.1840  0.0501  0.0239
   33TMC2    C5  514   0.074   1.631  10.140 -0.0929  0.8349 -1.0710
   33TMC2    C6  515   4.699   1.573  10.090 -0.7160  0.5393  0.5460
   33TMC2     C  516   0.157   1.391  10.406  0.4025 -0.2121 -0.3555
   33TMC2     O  517   0.110   1.280  10.428  0.0344 -0.0606  0.1255
   33TMC2     H  518   4.677   1.316  10.300 -1.2605  0.5116 -0.6929
   33TMC2    H1  519   0.221   1.631  10.303 -0.8255  1.3263  0.4733
   33TMC2    H2  520   4.658   1.607   9.996  0.4320 -0.7037 -0.3931
   33TMC2    C7  521   0.139   1.749  10.083 -0.2846  0.2109  1.0378
   33TMC2    C8  522   4.532   1.401  10.082 -0.1468  0.7635 -0.6019
   33TMC2    O1  523   0.062   1.836  10.037  0.1904  0.0889  0.0349
   33TMC2    O2  524   4.502   1.422   9.968  0.5734 -0.4067 -0.3793
   33TMC2    O5  525   4.453   1.362  10.185 -0.1558 -0.0101  0.5900
   33TMC2    H5  526   4.478   1.401  10.272 -0.8574  1.5644  0.0872
   34MPD2     C  527   0.602   1.280  10.631  0.5781  0.0611 -0.2884
   34MPD2    C1  528   0.494   1.198  10.611  0.0626  0.4520  0.7141
   34MPD2    C2  529   0.381   1.258  10.557 -0.5201  0.4105 -0.1400
   34MPD2    C3  530   0.380   1.389  10.515 -0.1227  0.2726  0.3285
   34MPD2    C4  531   0.492   1.464  10.516 -0.0739  0.6232  0.1464
   34MPD2    C5  532   0.597   1.408  10.585  0.0649  0.3746 -0.6716
   34MPD2     H  533   0.290   1.198  10.554  0.1792 -0.5779 -1.3484
   34MPD2    H1  534   0.494   1.566  10.479  0.3818  1.3808  2.2305
   34MPD2    H2  535   0.694   1.254  10.681  0.9895  1.4555 -0.3190
   34MPD2    H3  536   0.681   1.474  10.601  1.3248 -1.2851 -0.5141
   34MPD2     N  537   0.274   1.448  10.450 -0.2322  0.1052 -0.0189
   34MPD2    H5  538   0.281   1.546  10.425 -1.3092 -0.1322 -1.3226
   34MPD2    N1  539   0.503   1.065  10.652 -0.0233 -0.6805  0.3442
   34MPD2    H7  540   0.593   1.040  10.692 -0.0474 -0.2247  0.6899
   35TMC2    C1  541   1.164   2.945  11.448 -0.5947  0.2162  0.1984
   35TMC2    C2  542   1.068   2.959  11.357 -0.6575  0.3705 -0.2634
   35TMC2    C3  543   1.041   2.860  11.263 -0.0084  0.2753  0.4318
   35TMC2    C4  544   1.228   2.829  11.453 -0.1419 -0.2104 -0.6825
   35TMC2    C5  545   1.192   2.723  11.375 -0.1993  0.1009 -0.3207
   35TMC2    C6  546   1.100   2.740  11.275 -0.6007  0.9191 -0.3113
   35TMC2     C  547   1.237   3.064  11.480 -0.0688  0.0219  0.2542
   35TMC2     O  548   1.204   3.167  11.426  0.1845 -0.1827  0.1187
   35TMC2     H  549   1.006   3.048  11.355 -2.2149 -0.6990  0.8853
   35TMC2    H1  550   1.307   2.819  11.527 -1.8172  0.2819  1.1772
   35TMC2    H2  551   1.071   2.660  11.208  3.4138  1.2811 -2.5172
   35TMC2    C7  552   1.267   2.595  11.365 -0.1600 -0.2540 -0.3914
   35TMC2    C8  553   0.904   2.858  11.216  0.1809  0.6110 -0.4605
   35TMC2    O1  554   1.212   2.505  11.301  0.4703 -0.1567 -0.5697
   35TMC2    O2  555   0.884   2.780  11.125 -0.5774  0.4563  0.0296
   35TMC2    O5  556   0.832   2.855  11.332  0.3526  0.2891 -0.4197
   35TMC2    H5  557   0.871   2.903  11.408 -0.4988  2.1004 -1.1216
   36MPD2     C  558   1.626   3.274  11.733 -0.3157 -0.4062 -0.3803
   36MPD2    C1  559   1.600   3.152  11.789 -0.3899  1.0721 -0.0550
   36MPD2    C2  560   1.484   3.085  11.752 -0.2519  0.4739 -0.5903
   36MPD2    C3  561   1.409   3.135  11.639 -0.4773 -0.1698 -0.4316
   36MPD2    C4  562   1.439   3.262  11.585 -0.3396  0.0363 -0.4730
   36MPD2    C5  563   1.543   3.335  11.636 -0.0750 -0.4286  0.2834
   36MPD2     H  564   1.459   2.987  11.792 -1.4314  1.1146  0.2214
   36MPD2    H1  565   1.382   3.306  11.504 -0.3552  0.8051 -0.0440
   36MPD2    H2  566   1.717   3.326  11.761 -0.9431  0.5873 -0.1909
   36MPD2    H3  567   1.561   3.436  11.600  0.1804 -0.6639 -0.2559
   36MPD2     N  568   1.308   3.047  11.595 -0.0561  0.5229 -0.1352
   36MPD2    H5  569   1.302   2.956  11.641  1.5821 -0.0238 -1.0047
   36MPD2    N1  570   1.692   3.098  11.883 -0.5388 -0.1637  0.6666
   36MPD2    H7  571   1.762   3.167  11.907 -0.2117 -0.0368 -0.6666
   37TMC2    C1  572   3.743   3.690  11.478  0.2611 -0.2492  0.4320
   37TMC2    C2  573   3.623   3.704  11.413 -0.0691  0.1771  0.0052
   37TMC2    C3  574   3.633   3.721  11.279  0.2049  0.1565  0.3154
   37TMC2    C4  575   3.865   3.682  11.422 -0.3433 -0.2186  0.0352
   37TMC2    C5  576   3.860   3.715  11.290 -0.0107 -0.0175 -0.1206
   37TMC2    C6  577   3.752   3.720  11.209  0.3007 -0.5982  0.5568
   37TMC2     C  578   3.737   3.648  11.614 -0.0386 -0.3423 -0.0457
   37TMC2     O  579   3.633   3.664  11.667 -0.1522  0.5181  0.0859
   37TMC2     H  580   3.524   3.705  11.457 -0.1272 -2.6885 -0.0956
   37TMC2    H1  581   3.957   3.684  11.479 -0.3872 -0.9129  0.1263
   37TMC2    H2  582   3.738   3.726  11.101  0.0801 -0.7637  0.5777
   37TMC2    C7  583   3.985   3.670  11.227  0.4040  0.0914 -0.8100
   37TMC2    C8  584   3.525   3.685  11.194  0.0788  0.2704  0.8712
   37TMC2    O1  585   4.073   3.629  11.298  0.1333  0.0199 -0.1983
   37TMC2    O2  586   3.482   3.757  11.108  0.0682  0.1182  0.0239
   37TMC2    O5  587   3.449   3.600  11.260  0.1952  0.0447 -0.6415
   37TMC2    H5  588   3.501   3.553  11.329 -0.2833 -0.4755 -0.6339
   38MPD2     C  589   3.894   3.273  11.929 -0.1613 -0.4146  0.2293
   38MPD2    C1  590   3.955   3.258  11.807 -0.2967  0.0546  0.4934
   38MPD2    C2  591   3.929   3.358  11.717  0.7979  0.0152 -0.2526
   38MPD2    C3  592   3.844   3.470  11.739 -0.2060  0.0315 -0.0793
   38MPD2    C4  593   3.783   3.478  11.864 -0.7754  0.1545  0.4156
   38MPD2    C5  594   3.811   3.380  11.956  0.7345  0.0407 -1.0560
   38MPD2     H  595   3.963   3.342  11.616  0.3076 -1.3726 -0.1882
   38MPD2    H1  596   3.710   3.555  11.887 -0.9708 -0.2335  1.0780
   38MPD2    H2  597   3.883   3.190  11.997  0.3871 -1.7596 -1.3235
   38MPD2    H3  598   3.749   3.373  12.045 -0.0776  0.2760 -1.6025
   38MPD2     N  599   3.835   3.554  11.628 -0.2110  0.0913  0.1134
   38MPD2    H5  600   3.895   3.539  11.548 -0.4479  2.1242 -0.4370
   38MPD2    N1  601   4.026   3.138  11.765 -0.4431 -0.3630 -0.2501
   38MPD2    H7  602   4.066   3.140  11.672 -0.6942  0.5593 -0.3289
   39TMC2    C1  603   1.843   0.433   1.739  0.0008 -0.1378 -0.3029
   39TMC2    C2  604   1.786   0.548   1.783  0.3060  0.1459  0.3816
   39TMC2    C3  605   1.868   0.650   1.817 -0.5228 -0.4551  0.2723
   39TMC2    C4  606   1.976   0.412   1.736  0.9424  0.4330 -0.4541
   39TMC2    C5  607   2.054   0.513   1.774 -0.7858 -0.0305 -0.7283
   39TMC2    C6  608   2.008   0.636   1.816 -0.3357  0.5411  0.6351
   39TMC2     C  609   1.752   0.352   1.653  0.9815 -0.6995 -0.2687
   39TMC2     O  610   1.649   0.403   1.609  0.3225  0.6293  0.8378
   39TMC2     H  611   1.680   0.567   1.771  0.7604  1.7915 -1.1353
   39TMC2    H1  612   2.014   0.316   1.705 -0.8940 -0.9085  1.4909
   39TMC2    H2  613   2.067   0.726   1.812 -1.3385  1.1995  0.7250
   39TMC2    C7  614   2.196   0.493   1.772 -0.3054  0.1735 -0.2348
   39TMC2    C8  615   1.821   0.787   1.826 -0.6480 -0.7545  0.3255
   39TMC2    O1  616   2.242   0.406   1.698 -0.2841 -0.4661 -0.0559
   39TMC2    O2  617   1.888   0.877   1.780  0.0818  0.9890  0.1499
   39TMC2    O5  618   1.753   0.795   1.942 -0.2412  0.0691 -0.1808
   39TMC2    H5  619   1.709   0.711   1.968 -0.3103  1.0287  2.8082
   40MPD2     C  620   1.779   4.736   1.576  0.0804 -0.3476  0.3607
   40MPD2    C1  621   1.732   0.125   1.555  0.1144 -0.3935  0.0354
   40MPD2    C2  622   1.631   0.145   1.456 -0.0156 -0.5083 -1.4358
   40MPD2    C3  623   1.578   0.034   1.386  0.0581 -0.2590  0.0451
   40MPD2    C4  624   1.616   4.644   1.408 -0.3642 -0.2230 -0.1258
   40MPD2    C5  625   1.719   4.632   1.504 -0.4624  0.2461  0.2978
   40MPD2     H  626   1.608   0.247   1.427  0.0539 -0.1977 -0.4132
   40MPD2    H1  627   1.587   4.562   1.344 -2.5541  0.6791 -0.3055
   40MPD2    H2  628   1.858   4.724   1.649 -0.3110  0.7266  0.9558
   40MPD2    H3  629   1.756   4.531   1.515 -0.8935 -0.0108 -0.5926
   40MPD2     N  630   1.490   0.051   1.274 -0.0576  0.2141 -1.0192
   40MPD2    H5  631   1.457   4.699   1.241  0.4266  0.8724 -3.3299
   40MPD2    N1  632   1.791   0.221   1.645 -0.1936  0.5574  0.5375
   40MPD2    H7  633   1.857   0.189   1.715 -0.7989 -1.4038  0.2203
   41TMC2    C1  634   0.662   2.711  13.250  0.4594  0.5206  0.3493
   41TMC2    C2  635   0.530   2.686  13.241 -0.3782  0.4965  1.4021
   41TMC2    C3  636   0.450   2.771  13.167  0.2038  0.7052  0.1556
   41TMC2    C4  637   0.714   2.829  13.200 -0.0844 -0.1951 -1.0747
   41TMC2    C5  638   0.637   2.898  13.103  0.7864  0.3262 -0.1648
   41TMC2    C6  639   0.503   2.875  13.094  0.1077  0.1062 -0.3066
   41TMC2     C  640   0.730   2.633  13.355  0.7198  0.3135 -0.5545
   41TMC2     O  641   0.650   2.603  13.442 -0.0087 -0.6584 -0.0730
   41TMC2     H  642   0.493   2.595  13.287  0.7125 -1.2152 -1.0847
   41TMC2    H1  643   0.814   2.858  13.228 -0.0023 -1.4757 -0.0713
   41TMC2    H2  644   0.429   2.947  13.060 -1.3827 -0.8808  0.8688
   41TMC2    C7  645   0.697   3.004  13.028  0.7133 -0.1379 -0.5972
   41TMC2    C8  646   0.311   2.785  13.216  0.3519 -0.5192 -0.3267
   41TMC2    O1  647   0.621   3.075  12.969  0.2212  0.2197 -0.2768
   41TMC2    O2  648   0.240   2.861  13.150 -0.9905  0.1965 -0.7677
   41TMC2    O5  649   0.331   2.797  13.349  0.3217 -0.0631  0.7059
   41TMC2    H5  650   0.416   2.763  13.385 -0.7035 -0.8601  2.3617
   42MPD2     C  651   0.899   2.527  13.568 -0.0240  0.0908 -0.4429
   42MPD2    C1  652   0.941   2.623  13.477  0.0627 -0.9722  0.2188
   42MPD2    C2  653   1.061   2.687  13.503 -0.4383 -0.4100  0.2472
   42MPD2    C3  654   1.128   2.668  13.622  0.4181  0.2020 -0.0150
   42MPD2    C4  655   1.083   2.570  13.705  0.1553 -0.0764 -0.2638
   42MPD2    C5  656   0.973   2.497  13.677  0.2075 -0.2175  0.0071
   42MPD2     H  657   1.089   2.768  13.437 -0.5831  0.1342  0.8548
   42MPD2    H1  658   1.136   2.534  13.792  1.6036  0.9403 -0.7234
   42MPD2    H2  659   0.807   2.473  13.552 -0.1462 -0.4042  2.0890
   42MPD2    H3  660   0.947   2.418  13.746  1.0322 -0.0523  0.5082
   42MPD2     N  661   1.229   2.754  13.665 -0.3309 -0.3542 -0.8721
   42MPD2    H5  662   1.261   2.737  13.760 -1.0348  0.0102 -0.5696
   42MPD2    N1  663   0.864   2.665  13.367  0.0003 -0.0597  0.4099
   42MPD2    H7  664   0.907   2.724  13.296 -0.5941 -1.5006 -1.1378
   43TMC2    C1  665   2.303   1.023   0.552 -0.6808  0.3213  0.1004
   43TMC2    C2  666   2.172   1.018   0.527  0.1295 -0.0870  0.4839
   43TMC2    C3  667   2.114   1.144   0.505  0.2657  0.5598  0.2323
   43TMC2    C4  668   2.381   1.132   0.572 -0.5638 -0.0256  0.0901
   43TMC2    C5  669   2.317   1.253   0.569  0.2738  0.7768  0.3461
   43TMC2    C6  670   2.181   1.260   0.529 -0.0890 -0.3477 -0.3235
   43TMC2     C  671   2.381   0.894   0.544  0.3768 -0.1988 -0.8945
   43TMC2     O  672   2.487   0.885   0.482 -0.1729 -0.2604 -0.8162
   43TMC2     H  673   2.115   0.935   0.487  1.5172  0.4658 -2.6146
   43TMC2    H1  674   2.486   1.120   0.594 -0.5873 -1.4718 -0.5950
   43TMC2    H2  675   2.135   1.358   0.530  0.1591 -0.1988 -2.5790
   43TMC2    C7  676   2.401   1.372   0.564  0.7544  0.5980  0.1451
   43TMC2    C8  677   1.978   1.156   0.462 -0.9227 -0.7705  0.3950
   43TMC2    O1  678   2.381   1.453   0.476  0.2546 -0.6731 -0.4714
   43TMC2    O2  679   1.943   1.257   0.406 -0.0250  0.3289 -0.4091
   43TMC2    O5  680   1.900   1.048   0.492 -0.2884  0.5894  0.5041
   43TMC2    H5  681   1.953   0.989   0.550 -1.3284 -0.6260  0.2204
   44MPD2     C  682   2.315   0.384   0.584 -0.0960 -0.1234  0.5751
   44MPD2    C1  683   2.419   0.456   0.529  0.2816  0.4102  0.5765
   44MPD2    C2  684   2.428   0.593   0.543 -0.1324  0.0083  0.3070
   44MPD2    C3  685   2.324   0.662   0.609  0.6896  0.2684 -0.4934
   44MPD2    C4  686   2.234   0.585   0.676 -0.2505 -0.1942  0.0487
   44MPD2    C5  687   2.225   0.449   0.658  0.0772 -0.1355 -0.2435
   44MPD2     H  688   2.498   0.654   0.486  0.9355  0.0302  1.6539
   44MPD2    H1  689   2.155   0.632   0.733 -0.9235 -1.2538 -0.0243
   44MPD2    H2  690   2.301   0.278   0.565 -0.5013  0.0348  0.0049
   44MPD2    H3  691   2.132   0.405   0.693  0.3681  0.1319  0.8583
   44MPD2     N  692   2.299   0.799   0.605  0.4519 -0.0140  0.2290
   44MPD2    H5  693   2.212   0.834   0.645  0.1847 -2.5563  1.9122
   44MPD2    N1  694   2.514   0.393   0.457 -0.0683  0.3451  0.2290
   44MPD2    H7  695   2.593   0.443   0.417  1.8270 -1.3893  1.8223
   45TMC2    C1  696   3.062   2.971   9.708 -0.3281  0.9851  0.2664
   45TMC2    C2  697   3.176   2.899   9.744  0.7650 -0.5267  0.5446
   45TMC2    C3  698   3.265   2.970   9.822 -0.1731  0.6731  0.1891
   45TMC2    C4  699   3.041   3.106   9.732  0.5373  0.0217 -0.0527
   45TMC2    C5  700   3.149   3.169   9.799 -0.4506  0.2902  0.4682
   45TMC2    C6  701   3.256   3.103   9.847  0.2937 -0.0983 -0.2269
   45TMC2     C  702   2.935   2.897   9.699  0.1713  0.2539 -0.6219
   45TMC2     O  703   2.954   2.773   9.703 -0.4450 -0.8937  0.0226
   45TMC2     H  704   3.181   2.791   9.732  0.4056 -0.5778  0.8444
   45TMC2    H1  705   2.945   3.157   9.730  0.2082 -0.5807  0.4536
   45TMC2    H2  706   3.325   3.151   9.915  0.4911 -1.5827  0.6234
   45TMC2    C7  707   3.169   3.317   9.801 -0.1080  0.0343 -0.2578
   45TMC2    C8  708   3.371   2.886   9.881  0.3367  0.4375  0.3503
   45TMC2    O1  709   3.256   3.357   9.876  0.2320 -0.5588  0.3007
   45TMC2    O2  710   3.398   2.905   9.997 -0.4061 -0.0925 -0.4202
   45TMC2    O5  711   3.450   2.873   9.772 -0.5273  0.4418  1.2522
   45TMC2    H5  712   3.401   2.880   9.688  1.3830  1.1111  0.1821
   46MPD2     C  713   2.678   2.780   9.603 -0.1018 -0.3708  0.1951
   46MPD2    C1  714   2.695   2.921   9.613 -0.7564 -0.4268 -0.3754
   46MPD2    C2  715   2.585   3.004   9.596  0.2231 -0.7177  0.0230
   46MPD2    C3  716   2.456   2.960   9.579  0.2299  0.0970  0.5263
   46MPD2    C4  717   2.439   2.822   9.587  0.4323 -0.1626 -0.4206
   46MPD2    C5  718   2.545   2.735   9.596  0.0747  0.5836  0.0006
   46MPD2     H  719   2.603   3.109   9.615 -0.7084 -0.5530 -0.0265
   46MPD2    H1  720   2.345   2.770   9.599  0.9931 -1.4383 -1.4195
   46MPD2    H2  721   2.762   2.712   9.611  0.2178  0.2372  2.0806
   46MPD2    H3  722   2.525   2.628   9.599 -2.7892  1.1010 -1.0750
   46MPD2     N  723   2.350   3.050   9.587 -0.2337  0.1667 -0.6378
   46MPD2    H5  724   2.368   3.149   9.598  1.1099 -0.1234 -0.1817
   46MPD2    N1  725   2.824   2.971   9.652 -0.1785 -0.3381 -0.7222
   46MPD2    H7  726   2.826   3.072   9.649  3.6134 -0.4130 -1.0002
   47TMC2    C1  727   0.403   4.100   9.353 -0.3118  0.4504  0.7577
   47TMC2    C2  728   0.377   3.979   9.298  0.0886 -0.0290 -0.2310
   47TMC2    C3  729   0.255   3.975   9.238  1.1569 -0.2117  0.4739
   47TMC2    C4  730   0.323   4.211   9.336  1.0207  0.8230  0.1715
   47TMC2    C5  731   0.211   4.193   9.265 -0.3366  0.6097  0.5377
   47TMC2    C6  732   0.169   4.073   9.211  0.1514  0.2815  0.3785
   47TMC2     C  733   0.530   4.134   9.407 -0.1432  0.3771  0.6718
   47TMC2     O  734   0.571   4.247   9.395  0.1414  0.2186  0.4701
   47TMC2     H  735   0.431   3.890   9.330  0.6568 -0.3703 -2.1429
   47TMC2    H1  736   0.357   4.301   9.385  0.0722  1.1129  0.2882
   47TMC2    H2  737   0.070   4.053   9.172  1.1059 -1.5583 -1.0968
   47TMC2    C7  738   0.147   4.312   9.220  0.2913  0.5257 -0.3233
   47TMC2    C8  739   0.216   3.852   9.179  0.1687  0.3173 -0.1514
   47TMC2    O1  740   0.226   4.408   9.212  0.2209  0.2012  0.1510
   47TMC2    O2  741   0.105   3.805   9.205  0.4429 -0.0091  0.5886
   47TMC2    O5  742   0.328   3.780   9.155 -0.3834 -0.5617 -0.8993
   47TMC2    H5  743   0.402   3.834   9.119  0.6395 -2.7880 -2.1763
   48MPD2     C  744   0.743   4.165   9.618  0.5008 -0.6348 -0.2587
   48MPD2    C1  745   0.682   4.046   9.572  0.1559  0.1041 -0.0887
   48MPD2    C2  746   0.714   3.926   9.632  0.5284  0.4213 -0.0102
   48MPD2    C3  747   0.812   3.931   9.728 -0.6852  0.2641 -0.1675
   48MPD2    C4  748   0.888   4.037   9.764  0.3176 -0.5418 -0.1790
   48MPD2    C5  749   0.838   4.161   9.722  0.1869  0.3937  0.0166
   48MPD2     H  750   0.665   3.832   9.612  0.4281  0.5554 -0.3936
   48MPD2    H1  751   0.972   4.033   9.833  0.2404  1.3050  0.0311
   48MPD2    H2  752   0.704   4.262   9.590 -2.0495 -1.2340  1.2785
   48MPD2    H3  753   0.898   4.246   9.753  1.0585 -1.6159  3.8542
   48MPD2     N  754   0.847   3.806   9.770  0.6226  0.1002 -0.1281
   48MPD2    H5  755   0.804   3.727   9.723  3.3916 -0.2029 -2.1671
   48MPD2    N1  756   0.575   4.032   9.481  0.0340  0.0674  0.6601
   48MPD2    H7  757   0.524   3.944   9.476 -1.2262  0.8982 -1.0743
   49TMC2    C1  758   3.568   1.237   9.975 -0.1642 -0.2955 -0.6487
   49TMC2    C2  759   3.480   1.301   9.893  0.8222  0.0057  0.0336
   49TMC2    C3  760   3.386   1.230   9.828 -0.6737  1.2924 -0.2787
   49TMC2    C4  761   3.563   1.098   9.990  0.5991  0.1716  0.4109
   49TMC2    C5  762   3.458   1.029   9.928  0.1181 -0.7536  0.0369
   49TMC2    C6  763   3.369   1.098   9.849 -0.7173 -0.3388  0.0328
   49TMC2     C  764   3.694   1.293  10.012 -0.5318  0.7438 -0.0134
   49TMC2     O  765   3.732   1.389   9.945 -0.1738  0.1215  0.0036
   49TMC2     H  766   3.489   1.407   9.872  2.2977 -0.1179  0.0245
   49TMC2    H1  767   3.635   1.039  10.045 -2.1842 -0.5644  3.2251
   49TMC2    H2  768   3.298   1.047   9.786  0.3424 -2.3595  0.4870
   49TMC2    C7  769   3.421   0.891   9.965  0.8118 -0.2449  0.0486
   49TMC2    C8  770   3.296   1.292   9.734  0.7797 -0.0603  0.2254
   49TMC2    O1  771   3.325   0.848   9.903 -0.2083 -0.1853  0.2171
   49TMC2    O2  772   3.199   1.227   9.701  0.3136 -0.5360  0.0197
   49TMC2    O5  773   3.364   1.377   9.651  0.0816 -0.3887  0.2776
   49TMC2    H5  774   3.457   1.382   9.684 -0.3967  0.4541  1.4983
   50MPD2     C  775   3.973   1.360  10.118 -0.2024 -0.2411  0.1012
   50MPD2    C1  776   3.890   1.270  10.174  0.5118  0.6293  0.3362
   50MPD2    C2  777   3.935   1.208  10.295  0.6611 -0.1738 -0.2671
   50MPD2    C3  778   4.052   1.247  10.359  0.0375  0.0223 -0.2031
   50MPD2    C4  779   4.131   1.345  10.297  0.1512 -0.3671 -0.7581
   50MPD2    C5  780   4.094   1.395  10.174 -0.0360  0.1889  0.4199
   50MPD2     H  781   3.865   1.135  10.335  0.7984 -0.2287 -0.1262
   50MPD2    H1  782   4.227   1.375  10.339 -0.0622 -0.0771 -0.4794
   50MPD2    H2  783   3.949   1.406  10.023  2.5780  1.1916  0.0959
   50MPD2    H3  784   4.154   1.468  10.121 -1.1550 -1.1604 -2.7045
   50MPD2     N  785   4.093   1.202  10.489  0.3584 -0.2541 -0.3997
   50MPD2    H5  786   4.180   1.242  10.523 -0.4544  0.3845  0.9604
   50MPD2    N1  787   3.763   1.227  10.119  0.8434 -0.3592  0.5062
   50MPD2    H7  788   3.714   1.155  10.171 -0.2380  0.0359  0.0344
   51TMC2    C1  789   1.191   4.217   1.856 -0.2965 -0.5129  0.6436
   51TMC2    C2  790   1.210   4.209   1.991 -0.2490 -0.5634 -0.6453
   51TMC2    C3  791   1.204   4.328   2.065  1.0714  0.3258  0.1584
   51TMC2    C4  792   1.146   4.331   1.795  0.1806 -0.6294 -0.6152
   51TMC2    C5  793   1.146   4.446   1.871  0.6152 -0.5000  0.2041
   51TMC2    C6  794   1.183   4.443   2.003 -0.1689  0.0374 -0.0011
   51TMC2     C  795   1.178   4.098   1.785  1.1344  0.0876  0.2067
   51TMC2     O  796   1.095   4.097   1.700  0.0786  0.1601 -0.5308
   51TMC2     H  797   1.232   4.112   2.034 -0.7628  0.0141  0.8917
   51TMC2    H1  798   1.148   4.335   1.687  1.5150  0.4662 -0.5632
   51TMC2    H2  799   1.187   4.538   2.054  1.5230 -0.0217 -0.0243
   51TMC2    C7  800   1.083   4.566   1.818 -0.2055  0.1935  0.0195
   51TMC2    C8  801   1.228   4.312   2.202  0.8908  0.0887 -0.0233
   51TMC2    O1  802   1.118   4.667   1.876 -0.3108 -0.0792 -0.6216
   51TMC2    O2  803   1.308   4.228   2.252 -0.0971  0.5080 -0.5239
   51TMC2    O5  804   1.143   4.399   2.266  0.4786 -0.1182 -0.4079
   51TMC2    H5  805   1.086   4.455   2.208 -0.0040 -0.0917  0.0940
   52MPD2     C  806   1.370   3.657   1.617 -0.0600 -0.3780 -0.7682
   52MPD2    C1  807   1.286   3.740   1.551 -0.3202 -0.1598 -0.2934
   52MPD2    C2  808   1.260   3.863   1.608 -0.9377 -0.0950  0.3702
   52MPD2    C3  809   1.316   3.899   1.729 -0.6448 -0.1121  0.3860
   52MPD2    C4  810   1.409   3.815   1.787 -0.2774  0.4861 -0.4338
   52MPD2    C5  811   1.433   3.691   1.728 -0.3821 -0.0051 -0.2082
   52MPD2     H  812   1.191   3.929   1.556 -1.7909 -0.2240  1.3389
   52MPD2    H1  813   1.466   3.843   1.876 -2.3329 -1.1172  1.3931
   52MPD2    H2  814   1.413   3.565   1.581  1.9982  0.2991 -0.0132
   52MPD2    H3  815   1.509   3.623   1.764  0.0137  1.7905  2.3456
   52MPD2     N  816   1.285   4.016   1.798  0.0835 -0.3007  0.3332
   52MPD2    H5  817   1.348   4.040   1.873 -1.2847  1.0925  1.0416
   52MPD2    N1  818   1.225   3.710   1.428 -0.5545 -0.5517  0.3782
   52MPD2    H7  819   1.183   3.794   1.389  3.9031  0.3720 -2.4488
   53TMC2    C1  820   4.545   3.276  11.037 -0.1116 -0.3445 -0.9762
   53TMC2    C2  821   4.659   3.223  10.990 -0.6815 -0.0713  0.1224
   53TMC2    C3  822   0.016   3.199  11.080  0.0806  0.0596 -0.5225
   53TMC2    C4  823   4.505   3.276  11.167 -0.0588  0.3049  0.1803
   53TMC2    C5  824   4.591   3.219  11.255  0.1146  0.2400  0.1116
   53TMC2    C6  825   4.725   3.196  11.219  0.2128  1.0047  0.4529
   53TMC2     C  826   4.447   3.320  10.943  0.8684  0.0218  0.4272
   53TMC2     O  827   4.438   3.273  10.830 -0.1669 -0.6250 -0.1149
   53TMC2     H  828   4.687   3.208  10.887  0.9287  0.2757  0.5065
   53TMC2    H1  829   4.402   3.303  11.191  0.0642 -0.0017  1.0503
   53TMC2    H2  830   0.054   3.171  11.300 -0.3695  1.5617  1.1134
   53TMC2    C7  831   4.543   3.189  11.387  0.5782  1.4071 -0.2879
   53TMC2    C8  832   0.147   3.158  11.036  0.0308 -0.5454  0.1461
   53TMC2    O1  833   4.434   3.233  11.418  0.1132  0.0566 -0.1984
   53TMC2    O2  834   0.161   3.115  10.925  0.4740 -0.6040  0.4105
   53TMC2    O5  835   0.225   3.249  11.087  0.1023 -0.6686  0.0980
   53TMC2    H5  836   0.182   3.310  11.152  1.8402  0.1789  0.4607
   54MPD2     C  837   4.217   3.473  10.813  0.4753  0.4298 -0.3861
   54MPD2    C1  838   4.260   3.486  10.946 -0.4798  0.3742  0.4914
   54MPD2    C2  839   4.190   3.555  11.038 -0.2898 -0.9843 -0.8285
   54MPD2    C3  840   4.066   3.612  10.999 -0.2923  0.1081 -0.4318
   54MPD2    C4  841   4.027   3.599  10.863 -0.0925  0.4733 -0.1312
   54MPD2    C5  842   4.107   3.542  10.767 -0.2286  0.1027  0.0069
   54MPD2     H  843   4.222   3.554  11.141  0.5287  0.8772 -1.0653
   54MPD2    H1  844   3.926   3.628  10.838 -0.7432 -2.3623 -0.7710
   54MPD2    H2  845   4.273   3.418  10.738  0.8332  1.2228 -0.6943
   54MPD2    H3  846   4.087   3.542  10.661 -1.9420 -0.1041  0.3269
   54MPD2     N  847   3.979   3.670  11.088  0.0631 -0.4818 -0.4171
   54MPD2    H5  848   3.893   3.711  11.052  0.5085 -0.0306 -0.9622
   54MPD2    N1  849   4.384   3.432  10.994 -0.5189 -0.5548  0.6922
   54MPD2    H7  850   4.425   3.462  11.081 -2.8776  0.8356  1.3350
   55TMC2    C1  851   0.626   1.092  17.677 -0.6488  0.0586 -0.1187
   55TMC2    C2  852   0.619   1.046  17.548 -0.8479  0.4601 -0.0278
   55TMC2    C3  853   0.627   0.910  17.521 -0.0122  0.0248 -0.6570
   55TMC2    C4  854   0.627   1.000   0.033 -0.5773 -0.4140 -0.5072
   55TMC2    C5  855   0.639   0.867   0.002  0.3175  0.6437  0.6684
   55TMC2    C6  856   0.637   0.820  17.623  0.3890 -0.0310  0.3347
   55TMC2     C  857   0.599   1.227  17.708  0.4195  0.1078  0.3811
   55TMC2     O  858   0.568   1.260   0.071 -0.0813 -0.2435 -0.2234
   55TMC2     H  859   0.597   1.106  17.460 -0.4057  0.3805 -0.1928
   55TMC2    H1  860   0.617   1.035   0.135 -0.6473 -0.0144 -0.6489
   55TMC2    H2  861   0.651   0.714  17.606  0.9512  0.3202 -1.4090
   55TMC2    C7  862   0.614   0.768   0.105 -0.7409  0.3155 -0.0498
   55TMC2    C8  863   0.647   0.855  17.385 -0.0164  0.2051 -0.3166
   55TMC2    O1  864   0.605   0.654   0.056 -0.3985  0.1851  0.2461
   55TMC2    O2  865   0.620   0.925  17.285  0.2785 -0.3031 -0.6621
   55TMC2    O5  866   0.755   0.775  17.391 -0.0476 -0.1142  0.1712
   55TMC2    H5  867   0.784   0.742  17.479  2.8261 -0.3810 -0.8846
   56MPD2     C  868   0.597   1.516  17.484 -0.5678 -0.3386 -0.1510
   56MPD2    C1  869   0.576   1.449  17.596 -0.2314  0.2736  0.1832
   56MPD2    C2  870   0.519   1.520  17.701 -0.6464 -0.1422  0.1574
   56MPD2    C3  871   0.472   1.652  17.687  0.1608 -0.9931  0.4824
   56MPD2    C4  872   0.489   1.714  17.564  0.3485  0.0517 -0.0136
   56MPD2    C5  873   0.549   1.643  17.468  0.0586 -0.2999  0.1808
   56MPD2     H  874   0.500   1.468   0.043 -0.6056  0.6112  0.5888
   56MPD2    H1  875   0.452   1.811  17.531  0.4823  0.7213  1.7822
   56MPD2    H2  876   0.626   1.453  17.400  0.6377  1.0213 -0.7594
   56MPD2    H3  877   0.577   1.692  17.376  2.2649 -0.1942  0.9024
   56MPD2     N  878   0.423   1.715   0.048 -0.3777 -0.2805  0.2886
   56MPD2    H5  879   0.423   1.653   0.129 -0.1425  0.0451  0.5366
   56MPD2    N1  880   0.618   1.311  17.600  0.5090  0.4650  0.4778
   56MPD2    H7  881   0.669   1.273  17.521 -0.8418 -0.4658  0.0669
   57TMC2    C1  882   4.351   1.626  13.896 -0.1433  0.2903  0.6510
   57TMC2    C2  883   4.392   1.553  14.007 -0.6515 -0.5453  0.4446
   57TMC2    C3  884   4.455   1.434  13.983 -0.6689  0.3017  0.6122
   57TMC2    C4  885   4.366   1.573  13.770  0.3378 -0.4112 -0.0076
   57TMC2    C5  886   4.440   1.461  13.750 -0.2471 -0.4551 -0.7609
   57TMC2    C6  887   4.481   1.382  13.855  0.4928 -0.1438 -0.7956
   57TMC2     C  888   4.292   1.759  13.916  0.6691 -0.3790  0.5644
   57TMC2     O  889   4.202   1.794  13.842  0.7976  0.2342  0.4433
   57TMC2     H  890   4.396   1.589  14.109  2.2451 -1.8538  0.7974
   57TMC2    H1  891   4.351   1.643  13.689 -0.5996 -1.0583 -0.3929
   57TMC2    H2  892   4.517   1.283  13.830  2.4277 -0.1881  2.1404
   57TMC2    C7  893   4.441   1.409  13.614 -0.1202  0.2880  0.0580
   57TMC2    C8  894   4.451   1.325  14.077  0.6508 -0.3154 -0.2002
   57TMC2    O1  895   4.365   1.470  13.543 -0.5384  0.1736  0.4481
   57TMC2    O2  896   4.522   1.223  14.074  0.1369 -0.2134  0.4539
   57TMC2    O5  897   4.327   1.312  14.106 -0.1903  0.5738 -0.5779
   57TMC2    H5  898   4.276   1.389  14.073 -0.1092  1.0730  0.4632
   58MPD2     C  899   4.338   2.251  14.087  0.0143  0.7517  0.6762
   58MPD2    C1  900   4.269   2.189  13.977 -0.0862  0.0524 -0.2424
   58MPD2    C2  901   4.268   2.053  13.951 -0.0769 -0.4141 -0.0908
   58MPD2    C3  902   4.338   1.969  14.040  0.3610 -0.0014  0.1098
   58MPD2    C4  903   4.390   2.019  14.150 -0.9172  0.4457 -0.3482
   58MPD2    C5  904   4.394   2.157  14.171  0.7291  0.0727 -0.0269
   58MPD2     H  905   4.229   2.019  13.855  1.5529  2.3820 -1.7489
   58MPD2    H1  906   4.450   1.959  14.217 -2.0763  2.0398  2.1179
   58MPD2    H2  907   4.325   2.353  14.120 -0.6586  0.9070 -0.0486
   58MPD2    H3  908   4.439   2.199  14.260 -1.6206  0.6910  0.8543
   58MPD2     N  909   4.358   1.834  14.014  0.6059 -0.2608 -0.5172
   58MPD2    H5  910   4.414   1.781  14.080 -0.0649 -0.5342 -0.1597
   58MPD2    N1  911   4.182   2.258  13.886 -0.1756  0.2043  0.1113
   58MPD2    H7  912   4.137   2.195  13.820  1.8919 -1.8369  0.6571
   59TMC2    C1  913   2.361   2.325  12.808  0.1304 -0.9979  0.1795
   59TMC2    C2  914   2.436   2.214  12.843  1.1547 -0.3973  0.6920
   59TMC2    C3  915   2.411   2.099  12.775  0.6388  0.2386  0.0458
   59TMC2    C4  916   2.257   2.313  12.713  0.0318 -0.9811  0.0418
   59TMC2    C5  917   2.240   2.189  12.656 -0.7282 -0.1374 -0.3794
   59TMC2    C6  918   2.313   2.075  12.684 -0.4054 -0.0095 -0.1022
   59TMC2     C  919   2.395   2.460  12.865  0.1041  0.4558  0.0075
   59TMC2     O  920   2.335   2.557  12.819  0.0315  0.4363  0.6184
   59TMC2     H  921   2.526   2.233  12.901  2.0298  1.4495 -1.2422
   59TMC2    H1  922   2.203   2.404  12.689  1.2611 -0.8939 -2.4259
   59TMC2    H2  923   2.297   1.982  12.630  2.0286  0.0383 -0.9098
   59TMC2    C7  924   2.193   2.184  12.521 -0.1463  0.6780  0.2406
   59TMC2    C8  925   2.510   1.998  12.800  0.6216  0.2505 -0.0600
   59TMC2    O1  926   2.247   2.103  12.448 -0.1889 -0.4284 -0.1450
   59TMC2    O2  927   2.616   2.020  12.858  0.0842  0.8055  0.5962
   59TMC2    O5  928   2.464   1.873  12.777  0.0682  0.0245 -0.1055
   59TMC2    H5  929   2.375   1.888  12.740 -1.3651 -1.7487  2.6422
   60MPD2     C  930   2.412   2.677  13.066  0.2905 -1.0004 -0.3870
   60MPD2    C1  931   2.472   2.553  13.086 -0.0277 -0.7003  0.7805
   60MPD2    C2  932   2.560   2.534  13.189  0.7181  0.6393  0.1538
   60MPD2    C3  933   2.582   2.635  13.285  0.1908 -0.3592  0.5024
   60MPD2    C4  934   2.524   2.759  13.260  0.1297 -0.3627 -0.1356
   60MPD2    C5  935   2.437   2.778  13.154  0.1614  0.5191 -1.0484
   60MPD2     H  936   2.609   2.437  13.194 -0.9704 -0.2001  0.7940
   60MPD2    H1  937   2.520   2.839  13.333  2.6486  0.5469 -1.0186
   60MPD2    H2  938   2.344   2.695  12.983  0.7733  1.6073 -0.2176
   60MPD2    H3  939   2.388   2.872  13.131  0.6162  0.9485 -0.2488
   60MPD2     N  940   2.678   2.599  13.385 -0.3335 -0.1911 -0.2058
   60MPD2    H5  941   2.719   2.506  13.376  0.0138  0.0891 -1.6207
   60MPD2    N1  942   2.464   2.449  12.988  0.3680 -0.2800  0.0385
   60MPD2    H7  943   2.497   2.358  13.016 -1.1654 -0.3284  1.6847
   61TMC2    C1  944   1.749   3.461  15.074  0.1395  0.2307  0.8500
   61TMC2    C2  945   1.743   3.402  15.198  0.0374  0.6221 -0.2057
   61TMC2    C3  946   1.709   3.465  15.311 -0.4171  0.3383  0.2081
   61TMC2    C4  947   1.747   3.601  15.071 -0.0674  0.5982 -0.4575
   61TMC2    C5  948   1.722   3.670  15.186 -0.2009  0.0379  0.0775
   61TMC2    C6  949   1.699   3.607  15.308  0.1769 -0.2359  0.2601
   61TMC2     C  950   1.763   3.375  14.956 -0.1006 -0.4388 -0.6520
   61TMC2     O  951   1.774   3.252  14.968  0.4710 -0.2480  0.0090
   61TMC2     H  952   1.771   3.299  15.214  0.3150  0.9857  1.5873
   61TMC2    H1  953   1.750   3.644  14.972  1.8393 -0.2252 -0.7644
   61TMC2    H2  954   1.673   3.668  15.393  1.1951  0.3186  0.1735
   61TMC2    C7  955   1.676   3.816  15.170 -0.1431  0.9667 -0.0445
   61TMC2    C8  956   1.737   3.390  15.432  0.5896  0.5235  0.1863
   61TMC2    O1  957   1.671   3.880  15.272  0.3911  0.0818 -0.0380
   61TMC2    O2  958   1.788   3.278  15.434 -0.6969 -0.2559  0.1059
   61TMC2    O5  959   1.661   3.442  15.529 -0.4078 -0.5850  0.5420
   61TMC2    H5  960   1.632   3.533  15.505 -0.0310 -0.4813  0.4784
   62MPD2     C  961   1.790   3.287  14.676  1.0852 -0.5140  1.0422
   62MPD2    C1  962   1.823   3.415  14.724 -0.1304 -0.1983 -0.2555
   62MPD2    C2  963   1.884   3.503  14.635 -0.1326 -0.6637 -0.2876
   62MPD2    C3  964   1.889   3.472  14.499  0.1965  0.0377 -0.3461
   62MPD2    C4  965   1.863   3.343  14.458  0.3326  0.1181 -0.2578
   62MPD2    C5  966   1.822   3.251  14.549  0.1203  0.2627 -0.0470
   62MPD2     H  967   1.904   3.603  14.672 -1.6977  0.2320 -1.8638
   62MPD2    H1  968   1.875   3.320  14.353  0.6299  0.3783 -0.2810
   62MPD2    H2  969   1.743   3.210  14.737  1.5934 -0.5240  1.4147
   62MPD2    H3  970   1.798   3.150  14.517 -0.4079  1.0207 -2.0287
   62MPD2     N  971   1.942   3.560  14.399 -0.2257  0.5008 -0.2240
   62MPD2    H5  972   1.948   3.529  14.303  1.8768  1.0633 -0.2776
   62MPD2    N1  973   1.791   3.459  14.848  0.7203  0.1341 -0.7097
   62MPD2    H7  974   1.828   3.553  14.863  2.0476 -0.7942  1.8537
   63TMC2    C1  975   0.471   3.462  10.505  0.0880 -0.1391 -0.4622
   63TMC2    C2  976   0.577   3.477  10.601 -0.8517 -0.3138  0.2121
   63TMC2    C3  977   0.636   3.601  10.616 -0.8336 -0.2194 -0.3835
   63TMC2    C4  978   0.427   3.573  10.438  0.2610  0.7330 -0.0988
   63TMC2    C5  979   0.477   3.697  10.472 -0.6835  0.7047  0.2739
   63TMC2    C6  980   0.580   3.711  10.563 -0.7535  0.7674 -0.3444
   63TMC2     C  981   0.425   3.333  10.460 -0.0433  0.5528  0.4152
   63TMC2     O  982   0.382   3.342  10.345 -0.4078 -0.3293  0.5404
   63TMC2     H  983   0.629   3.391  10.642  1.3823  0.6946 -0.5095
   63TMC2    H1  984   0.347   3.574  10.364 -1.3771  0.5646  1.6690
   63TMC2    H2  985   0.628   3.807  10.571  0.2802  0.3048 -0.9745
   63TMC2    C7  986   0.409   3.810  10.423 -0.1146 -0.0246 -0.2463
   63TMC2    C8  987   0.746   3.601  10.710  0.0739 -0.1883  0.4575
   63TMC2    O1  988   0.327   3.800  10.329 -0.3404 -0.3542 -0.3804
   63TMC2    O2  989   0.759   3.522  10.801  0.3005  0.4214 -0.4557
   63TMC2    O5  990   0.842   3.690  10.678  0.0133 -0.7150  0.2012
   63TMC2    H5  991   0.828   3.733  10.590  2.3974  1.5925  0.9820
   64MPD2     C  992   0.421   2.841  10.370  0.3058  0.4921  0.3804
   64MPD2    C1  993   0.508   2.862  10.481 -0.2423  0.3168  0.3846
   64MPD2    C2  994   0.498   2.986  10.548 -0.2436 -0.1380  0.0828
   64MPD2    C3  995   0.433   3.090  10.483  0.1288  0.5475 -0.2845
   64MPD2    C4  996   0.356   3.067  10.380  0.5142 -0.0338 -0.4811
   64MPD2    C5  997   0.353   2.946  10.321  0.0347  0.1340 -0.0562
   64MPD2     H  998   0.556   3.009  10.637 -0.5172 -4.0019  1.2606
   64MPD2    H1  999   0.297   3.143  10.331  0.6242  1.4323  1.6665
   64MPD2    H2 1000   0.410   2.754  10.306 -0.4274  0.2902  0.7799
   64MPD2    H3 1001   0.293   2.927  10.233 -0.2640 -4.4630  1.1606
   64MPD2     N 1002   0.461   3.221  10.530  0.4591  0.0449  0.8571
   64MPD2    H5 1003   0.515   3.225  10.616 -0.5119  1.3040  1.4013
   64MPD2    N1 1004   0.587   2.757  10.534  0.3326  0.0833  0.1557
   64MPD2    H7 1005   0.648   2.781  10.612  0.2414 -2.0792  0.9260
   65TMC2    C1 1006   2.128   2.915  15.262 -0.0420  0.8061  0.1441
   65TMC2    C2 1007   2.067   2.852  15.153 -1.0758  0.3046 -0.3753
   65TMC2    C3 1008   2.067   2.928  15.037  0.5715 -0.1450 -0.5145
   65TMC2    C4 1009   2.147   3.056  15.264  0.3818  0.5189 -0.0288
   65TMC2    C5 1010   2.132   3.124  15.149  0.1216 -0.0175  0.2448
   65TMC2    C6 1011   2.100   3.061  15.034  0.1072 -0.2538  0.4805
   65TMC2     C 1012   2.136   2.838  15.384 -0.0699  0.5801 -0.0982
   65TMC2     O 1013   2.141   2.904  15.487 -0.3518 -0.0110  0.7702
   65TMC2     H 1014   2.008   2.761  15.160 -0.2172 -0.2053  0.2135
   65TMC2    H1 1015   2.179   3.101  15.357 -1.6287  0.4050  0.7316
   65TMC2    H2 1016   2.099   3.110  14.937  3.3494  0.1629  0.6747
   65TMC2    C7 1017   2.123   3.269  15.146 -0.5338  0.1676 -0.0656
   65TMC2    C8 1018   2.002   2.871  14.918  0.4254 -0.5751 -0.0372
   65TMC2    O1 1019   2.156   3.325  15.041  0.4177  0.3928  0.1987
   65TMC2    O2 1020   1.955   2.938  14.831  0.2242  1.1357 -0.2823
   65TMC2    O5 1021   2.026   2.738  14.926  0.5454  0.4792 -0.1740
   65TMC2    H5 1022   2.079   2.716  15.006 -0.8150 -1.0079  0.3164
   66MPD2     C 1023   2.134   2.609  15.600  0.1315 -0.4621 -0.0377
   66MPD2    C1 1024   2.144   2.590  15.463  1.0073 -0.1186 -0.3785
   66MPD2    C2 1025   2.155   2.460  15.413 -0.7547 -0.2765  0.1833
   66MPD2    C3 1026   2.135   2.354  15.501  0.1189 -0.1829 -0.2216
   66MPD2    C4 1027   2.112   2.376  15.637 -0.9106 -0.4994 -0.5129
   66MPD2    C5 1028   2.105   2.505  15.683 -0.2291 -0.4775  0.0085
   66MPD2     H 1029   2.174   2.444  15.308  0.9078  1.0003  0.2814
   66MPD2    H1 1030   2.105   2.298  15.713  1.4321 -0.4130 -0.1903
   66MPD2    H2 1031   2.132   2.711  15.638  0.0830 -1.2783  2.1281
   66MPD2    H3 1032   2.088   2.518  15.789  0.9117  1.8736 -0.0741
   66MPD2     N 1033   2.152   2.218  15.469  0.3844 -0.0601 -0.3092
   66MPD2    H5 1034   2.124   2.149  15.537  0.3897  0.3477  0.1119
   66MPD2    N1 1035   2.136   2.694  15.367 -0.3497 -0.4253  0.2422
   66MPD2    H7 1036   2.143   2.656  15.273  0.0875 -0.0366  0.1130
   67TMC2    C1 1037   2.657   2.631  14.498  0.3885  0.2185 -0.1820
   67TMC2    C2 1038   2.618   2.757  14.539 -0.6869 -0.2551 -0.0442
   67TMC2    C3 1039   2.702   2.836  14.620  0.4795 -0.1462 -0.1980
   67TMC2    C4 1040   2.772   2.581  14.539  0.2453  0.2472  0.3908
   67TMC2    C5 1041   2.855   2.662  14.621  0.1755  0.4013 -0.8832
   67TMC2    C6 1042   2.823   2.785  14.671  0.1181 -0.1208 -0.7402
   67TMC2     C 1043   2.584   2.558  14.401  0.0628  0.0467 -0.2137
   67TMC2     O 1044   2.626   2.449  14.371 -0.1121  0.2883 -0.0344
   67TMC2     H 1045   2.532   2.809  14.500 -0.1674 -0.6444 -1.7190
   67TMC2    H1 1046   2.805   2.486  14.499  0.0029  0.3335 -0.0228
   67TMC2    H2 1047   2.893   2.853  14.718 -0.4450 -0.9859  1.3148
   67TMC2    C7 1048   2.957   2.585  14.687 -0.0618 -0.4869 -0.5704
   67TMC2    C8 1049   2.657   2.967  14.653  0.0250 -0.8138 -0.5294
   67TMC2    O1 1050   2.972   2.472  14.645 -0.9217 -0.3294  0.2898
   67TMC2    O2 1051   2.599   3.031  14.567  0.2780  0.7533 -0.0377
   67TMC2    O5 1052   2.709   3.013  14.760  0.1477 -0.5247  0.0903
   67TMC2    H5 1053   2.738   2.948  14.827  0.8979  1.2237  1.4654
   68MPD2     C 1054   2.395   2.426  14.208 -0.6242  0.4159  0.2870
   68MPD2    C1 1055   2.384   2.558  14.252 -0.5333 -0.3021  0.3569
   68MPD2    C2 1056   2.269   2.627  14.221  1.3500  1.1175 -0.1127
   68MPD2    C3 1057   2.164   2.574  14.149 -0.2856  0.0343 -0.6541
   68MPD2    C4 1058   2.171   2.442  14.125  0.1226 -0.4275  0.6873
   68MPD2    C5 1059   2.283   2.369  14.147  1.3356  0.2211  0.6345
   68MPD2     H 1060   2.255   2.725  14.265  2.2407  1.3409 -0.3267
   68MPD2    H1 1061   2.088   2.385  14.085 -1.0592  1.5835  0.2914
   68MPD2    H2 1062   2.481   2.361  14.221 -0.1686  0.6995 -1.2572
   68MPD2    H3 1063   2.287   2.264  14.121  2.0189  0.1150  1.1580
   68MPD2     N 1064   2.046   2.647  14.122  0.2159 -0.9992 -0.3366
   68MPD2    H5 1065   1.970   2.599  14.075 -1.5043  0.6930  0.7125
   68MPD2    N1 1066   2.475   2.619  14.348  0.6192 -0.2914 -0.2184
   68MPD2    H7 1067   2.458   2.718  14.362  1.1222 -0.0548 -1.2817
   69TMC2    C1 1068   4.447   3.093  12.347  0.1429 -0.1292  0.1440
   69TMC2    C2 1069   4.376   3.198  12.396  0.0402  0.1187  0.1324
   69TMC2    C3 1070   4.416   3.324  12.355 -0.0561  0.6923  0.3177
   69TMC2    C4 1071   4.548   3.108  12.256  0.5207  0.1369  0.2036
   69TMC2    C5 1072   4.566   3.238  12.207  0.0354 -0.4365  0.2439
   69TMC2    C6 1073   4.511   3.345  12.264  1.0139 -0.0001 -1.2278
   69TMC2     C 1074   4.389   2.968  12.349  0.1159 -0.2703  0.2446
   69TMC2     O 1075   4.270   2.963  12.373 -0.9499 -0.2080 -0.6782
   69TMC2     H 1076   4.293   3.182  12.463 -0.6547 -0.8892 -0.9603
   69TMC2    H1 1077   4.589   3.019  12.209 -2.3999 -1.9420  1.6294
   69TMC2    H2 1078   4.551   3.444  12.250  0.4966  0.3800  0.0136
   69TMC2    C7 1079   4.678   3.262  12.117  0.0096 -0.2509 -0.6948
   69TMC2    C8 1080   4.367   3.445  12.419 -0.3898 -0.6274 -0.0585
   69TMC2    O1 1081   0.035   3.185  12.116 -0.8862 -0.1459  0.4547
   69TMC2    O2 1082   4.312   3.531  12.348 -0.5015  0.5838  0.2588
   69TMC2    O5 1083   4.339   3.418  12.545 -0.5684 -0.4654  0.0628
   69TMC2    H5 1084   4.396   3.346  12.579  0.9365 -0.4499 -2.4435
   70MPD2     C 1085   4.564   2.638  12.385 -0.2751  0.4757  0.4119
   70MPD2    C1 1086   4.463   2.729  12.352  0.0821 -0.0257 -1.2667
   70MPD2    C2 1087   4.353   2.678  12.283 -0.1403 -0.1988 -0.1788
   70MPD2    C3 1088   4.327   2.544  12.264 -1.0796 -0.0430 -0.3964
   70MPD2    C4 1089   4.417   2.460  12.309  0.7079  0.1009 -0.2301
   70MPD2    C5 1090   4.533   2.508  12.370 -0.1920 -0.5250  0.9579
   70MPD2     H 1091   4.279   2.749  12.248  0.9943  0.7237 -0.6937
   70MPD2    H1 1092   4.400   2.353  12.307  0.8143  0.0359  2.2499
   70MPD2    H2 1093   4.665   2.669  12.411 -0.0245  1.6775 -2.0130
   70MPD2    H3 1094   4.616   2.444  12.398  0.7204  0.2123 -0.0892
   70MPD2     N 1095   4.215   2.494  12.198  0.3234 -0.4572 -1.3197
   70MPD2    H5 1096   4.219   2.394  12.185 -0.5595 -0.4176 -1.8863
   70MPD2    N1 1097   4.487   2.867  12.358 -0.1031  0.2529  0.3508
   70MPD2    H7 1098   4.582   2.891  12.384 -0.1184 -0.2873  0.9103
   71TMC2    C1 1099   2.588   3.781   1.298 -0.3898 -0.1551  0.1270
   71TMC2    C2 1100   2.714   3.724   1.280  0.5888  0.4795 -0.4470
   71TMC2    C3 1101   2.795   3.720   1.386  1.0356 -0.3913 -0.4528
   71TMC2    C4 1102   2.544   3.827   1.421  0.4840 -0.0800  0.3354
   71TMC2    C5 1103   2.640   3.817   1.526  0.4811 -0.0625 -0.4554
   71TMC2    C6 1104   2.759   3.750   1.515  0.6387 -0.4453  0.4117
   71TMC2     C 1105   2.495   3.786   1.192  0.1292  0.3785  0.5714
   71TMC2     O 1106   2.385   3.828   1.221 -0.1224  0.4790 -0.5142
   71TMC2     H 1107   2.752   3.702   1.181 -2.8541  1.2000 -1.9313
   71TMC2    H1 1108   2.445   3.869   1.431  0.4823 -0.4877  2.1038
   71TMC2    H2 1109   2.810   3.721   1.606  0.3722 -2.3768 -0.0733
   71TMC2    C7 1110   2.593   3.856   1.662  0.1995 -0.6659  0.2899
   71TMC2    C8 1111   2.936   3.705   1.356  0.6415 -0.0736  0.1663
   71TMC2    O1 1112   2.675   3.885   1.750 -0.1574 -0.3765  0.0386
   71TMC2    O2 1113   2.979   3.692   1.242  0.3584  0.3568  0.1020
   71TMC2    O5 1114   3.010   3.765   1.449 -0.5744  0.1517  1.0084
   71TMC2    H5 1115   2.963   3.747   1.534  0.2088 -1.4665  1.0848
   72MPD2     C 1116   2.303   3.746   0.713 -0.6462  0.1566 -0.1769
   72MPD2    C1 1117   2.252   3.811   0.818 -0.7930 -0.3641 -0.2074
   72MPD2    C2 1118   2.327   3.818   0.939 -0.2546 -0.5729 -0.4260
   72MPD2    C3 1119   2.449   3.756   0.949  0.4079 -0.2870  0.4121
   72MPD2    C4 1120   2.508   3.701   0.839  0.4347  0.2425 -0.4380
   72MPD2    C5 1121   2.429   3.689   0.726  0.2821 -0.4551  0.7292
   72MPD2     H 1122   2.300   3.875   1.027 -3.1294 -2.3201 -0.1460
   72MPD2    H1 1123   2.598   3.641   0.849 -0.2803 -0.8695 -0.6222
   72MPD2    H2 1124   2.233   3.717   0.635 -0.5972  1.3144 -0.6515
   72MPD2    H3 1125   2.467   3.629   0.645  1.5901 -3.0904  3.3024
   72MPD2     N 1126   2.533   3.755   1.065  0.2080 -0.2791  0.3941
   72MPD2    H5 1127   2.624   3.712   1.053 -0.4954 -1.4472 -0.8466
   72MPD2    N1 1128   2.131   3.874   0.812  0.1854  0.0407  0.0701
   72MPD2    H7 1129   2.105   3.935   0.890 -0.9798 -1.8780  1.1842
   73TMC2    C1 1130   1.577   1.084  13.980  0.2985  0.2021 -0.0400
   73TMC2    C2 1131   1.509   1.077  14.099  0.2838 -0.1222  0.2057
   73TMC2    C3 1132   1.574   1.018  14.204  0.3116  0.2291 -0.5909
   73TMC2    C4 1133   1.697   1.037  13.971 -0.1135 -0.2096 -0.2473
   73TMC2    C5 1134   1.762   0.985  14.079  0.2893  0.1595 -0.0841
   73TMC2    C6 1135   1.698   0.960  14.197  0.6167 -0.2970  0.1174
   73TMC2     C 1136   1.560   1.210  13.907  0.0511 -0.7090 -0.0194
   73TMC2     O 1137   1.669   1.252  13.878 -0.0818  0.3203 -0.3086
   73TMC2     H 1138   1.427   1.144  14.121  2.3088  2.7541 -0.9643
   73TMC2    H1 1139   1.753   1.066  13.883 -0.0626 -0.3875 -0.2737
   73TMC2    H2 1140   1.752   0.918  14.281 -0.6605 -1.6805  0.2417
   73TMC2    C7 1141   1.894   1.037  14.093 -0.0726  0.3178 -0.1009
   73TMC2    C8 1142   1.488   0.956  14.307 -0.7629  0.0057 -0.1340
   73TMC2    O1 1143   1.979   0.985  14.168 -0.1970 -0.1081  0.9720
   73TMC2    O2 1144   1.373   1.000  14.315 -0.7012  0.3339 -0.5101
   73TMC2    O5 1145   1.510   0.827  14.271 -0.1269 -0.7838  0.8262
   73TMC2    H5 1146   1.606   0.814  14.287  0.2689  2.4810  1.0058
   74MPD2     C 1147   1.339   1.643  13.743  0.4264 -0.1198  0.2900
   74MPD2    C1 1148   1.477   1.609  13.750  0.9915  0.0249 -0.0352
   74MPD2    C2 1149   1.511   1.482  13.803 -0.0314 -0.4391 -0.2702
   74MPD2    C3 1150   1.412   1.392  13.848  0.0888  1.0515 -0.2334
   74MPD2    C4 1151   1.277   1.426  13.831  0.3256  0.3280  0.4184
   74MPD2    C5 1152   1.245   1.552  13.783  0.1777  0.4590 -0.0007
   74MPD2     H 1153   1.615   1.460  13.824 -0.0218  0.2192  0.3798
   74MPD2    H1 1154   1.202   1.358  13.869  1.2774 -0.0460  1.5955
   74MPD2    H2 1155   1.304   1.739  13.709  3.2977  0.3514 -1.2630
   74MPD2    H3 1156   1.140   1.576  13.777  0.2402  1.2241  1.9117
   74MPD2     N 1157   1.432   1.264  13.904 -0.2356 -0.5195 -0.2010
   74MPD2    H5 1158   1.352   1.209  13.932 -1.5213  1.6619  0.3645
   74MPD2    N1 1159   1.580   1.705  13.736  0.0258  0.8233  0.0694
   74MPD2    H7 1160   1.557   1.789  13.684  0.4545 -0.3518 -2.0108
   75TMC2    C1 1161   1.892   2.811  14.077 -0.2104 -0.0669  0.3960
   75TMC2    C2 1162   1.849   2.940  14.104  0.1470 -0.3421  0.1172
   75TMC2    C3 1163   1.743   2.995  14.040 -0.4394 -0.2638 -0.5739
   75TMC2    C4 1164   1.830   2.730  13.980  0.3172 -0.9038  0.3258
   75TMC2    C5 1165   1.720   2.794  13.916 -0.1403 -0.6555  0.1537
   75TMC2    C6 1166   1.680   2.920  13.945  0.1941  0.2051 -0.4844
   75TMC2     C 1167   2.023   2.780  14.139 -0.8401 -0.1786  0.3714
   75TMC2     O 1168   2.090   2.858  14.206 -0.4897  0.4030  0.0660
   75TMC2     H 1169   1.910   2.998  14.172  0.5839  0.4671 -0.9625
   75TMC2    H1 1170   1.868   2.638  13.936  0.7948 -0.4305 -0.2355
   75TMC2    H2 1171   1.599   2.966  13.890 -0.5558  0.1267  0.5442
   75TMC2    C7 1172   1.629   2.710  13.835  0.2577 -0.0263 -0.4294
   75TMC2    C8 1173   1.722   3.140  14.050  0.0198 -0.1711 -0.8709
   75TMC2    O1 1174   1.536   2.769  13.779  0.4820  0.0389 -0.4658
   75TMC2    O2 1175   1.654   3.196  13.963 -0.1638 -0.1020 -0.4291
   75TMC2    O5 1176   1.701   3.159  14.185 -0.5983  0.0263 -0.0947
   75TMC2    H5 1177   1.721   3.080  14.240 -1.6577 -0.1889 -0.0056
   76TMC2    C1 1178   1.167   2.316  11.706  0.9601  0.1787 -0.1288
   76TMC2    C2 1179   1.068   2.220  11.693 -0.2051 -0.0350  0.4507
   76TMC2    C3 1180   1.098   2.105  11.761  0.4937  0.1954 -0.0557
   76TMC2    C4 1181   1.275   2.313  11.787 -0.5366 -0.0058  0.7975
   76TMC2    C5 1182   1.298   2.197  11.854  0.6217  0.6417 -0.1879
   76TMC2    C6 1183   1.209   2.097  11.845 -0.2039  0.5449 -0.2111
   76TMC2     C 1184   1.108   2.450  11.682  0.8060 -0.5122  0.2216
   76TMC2     O 1185   1.012   2.439  11.609 -0.2320 -0.4065 -0.0658
   76TMC2     H 1186   0.977   2.230  11.636 -0.4938 -0.9208  0.7537
   76TMC2    H1 1187   1.362   2.377  11.773 -0.5905 -0.4548 -1.5958
   76TMC2    H2 1188   1.222   2.010  11.909  1.3503  0.1642 -1.0587
   76TMC2    C7 1189   1.396   2.186  11.958 -0.4072 -0.3116  0.2546
   76TMC2    C8 1190   0.991   2.017  11.792 -0.4701 -0.5415  0.3503
   76TMC2    O1 1191   1.430   2.080  12.000  0.4108 -0.5915  0.3623
   76TMC2    O2 1192   0.944   1.999  11.903  0.2430  0.3641 -0.2599
   76TMC2    O5 1193   0.923   1.989  11.674  0.4471  0.2500 -0.6092
   76TMC2    H5 1194   0.968   2.038  11.602  0.0377 -0.4218 -1.3192
   77MPD2     C 1195   0.987   2.930  11.776  1.2442  0.5225 -0.4996
   77MPD2    C1 1196   0.920   2.836  11.700  0.2539  0.0620 -0.1698
   77MPD2    C2 1197   0.987   2.717  11.668 -0.5149 -0.3588 -0.0208
   77MPD2    C3 1198   1.111   2.687  11.722 -0.3673 -0.0391  0.3084
   77MPD2    C4 1199   1.173   2.790  11.796  0.0027 -0.0782 -0.2800
   77MPD2    C5 1200   1.106   2.901  11.833  0.6963  0.2326 -0.5778
   77MPD2     H 1201   0.936   2.647  11.602  0.9766  0.2375 -1.8209
   77MPD2    H1 1202   1.266   2.761  11.843 -0.8184  1.4291  2.2275
   77MPD2    H2 1203   0.961   3.034  11.791 -0.5265  0.0520 -0.3184
   77MPD2    H3 1204   1.156   2.969  11.900  0.9188 -1.0858  0.5831
   77MPD2     N 1205   1.167   2.561  11.728  0.1908  0.3058  0.7248
   77MPD2    H5 1206   1.255   2.555  11.778  0.4097 -0.8848  0.2000
   77MPD2    N1 1207   0.795   2.865  11.643 -0.2032 -0.0330 -0.0109
   77MPD2    H7 1208   0.751   2.800  11.578  2.3288  0.2018 -1.9330
   78TMC2    C1 1209   2.063   3.496   0.875  0.0924 -0.0351 -0.7252
   78TMC2    C2 1210   1.994   3.582   0.954 -0.1685 -0.9472 -0.1871
   78TMC2    C3 1211   2.043   3.602   1.080 -0.0189  0.3666  0.3324
   78TMC2    C4 1212   2.173   3.437   0.919 -0.2902 -0.0226  0.1173
   78TMC2    C5 1213   2.225   3.475   1.040 -0.2431  0.3719 -0.0684
   78TMC2    C6 1214   2.161   3.565   1.124 -0.1742 -0.1301  0.0191
   78TMC2     C 1215   2.011   3.468   0.738  0.8749 -0.6146 -0.0388
   78TMC2     O 1216   1.902   3.519   0.707 -0.4034 -0.8917  0.0936
   78TMC2     H 1217   1.894   3.612   0.924 -0.9606  0.4804  3.8793
   78TMC2    H1 1218   2.230   3.369   0.857 -0.6878 -1.5714  1.4653
   78TMC2    H2 1219   2.213   3.614   1.206  1.8096 -1.2087 -0.6085
   78TMC2    C7 1220   2.362   3.446   1.063  0.1643 -0.3762 -0.0713
   78TMC2    C8 1221   1.968   3.701   1.151 -0.5239 -0.0549 -0.1804
   78TMC2    O1 1222   2.421   3.407   0.965 -0.4825  0.3142  0.0433
   78TMC2    O2 1223   1.937   3.800   1.089  0.2630 -0.4226  0.1877
   78TMC2    O5 1224   2.012   3.695   1.282 -0.3552 -0.1572 -0.4363
   78TMC2    H5 1225   2.009   3.605   1.320  0.3112 -0.0409 -0.1165
   79MPD1     C 1226   1.994   3.165   0.327  0.2722  0.5061 -0.2025
   79MPD1    C1 1227   1.895   3.254   0.376 -0.0041  0.4368 -0.1148
   79MPD1    C2 1228   1.925   3.318   0.493  0.0652 -0.0250  0.1100
   79MPD1    C3 1229   2.054   3.317   0.544 -0.4726 -0.9204 -0.0509
   79MPD1    C4 1230   2.147   3.237   0.485  0.3810 -0.2255 -0.4340
   79MPD1    C5 1231   2.119   3.161   0.374  0.1598  0.1542  0.2006
   79MPD1     H 1232   1.843   3.363   0.547 -0.3393  0.6633 -1.0670
   79MPD1    H1 1233   2.246   3.230   0.530  0.5786  1.7573 -0.5639
   79MPD1    H2 1234   1.968   3.104   0.241  0.7560 -1.7642  1.2541
   79MPD1    H3 1235   2.194   3.088   0.345  0.3621  0.8216 -0.9531
   79MPD1     N 1236   2.091   3.388   0.667  0.2130  0.2936  0.1547
   79MPD1    H5 1237   2.181   3.370   0.710 -1.0698 -2.3859  1.7188
   79MPD1    N1 1238   1.760   3.245   0.331 -0.0340 -0.1657 -0.0707
   79MPD1    H6 1239   1.749   3.211   0.235 -1.5470  0.7141 -0.1910
   79MPD1    H7 1240   1.703   3.326   0.353 -2.1053 -1.4966 -0.5677
   80TMC2    C1 1241   3.697   2.084  11.121  0.4622 -0.5885 -0.0075
   80TMC2    C2 1242   3.608   2.035  11.032  0.7828  0.5167  0.1698
   80TMC2    C3 1243   3.565   1.912  11.057  0.6569 -0.5909 -0.9064
   80TMC2    C4 1244   3.737   2.018  11.235  0.4331 -0.2069  0.0346
   80TMC2    C5 1245   3.694   1.886  11.249  0.0445  0.0254 -0.3229
   80TMC2    C6 1246   3.610   1.831  11.158 -0.7848 -0.1580 -0.1058
   80TMC2     C 1247   3.760   2.200  11.069 -0.0566 -0.3069  0.4474
   80TMC2     O 1248   3.731   2.243  10.961 -0.6901 -0.3737 -0.3840
   80TMC2     H 1249   3.555   2.085  10.951  0.9856 -0.4180 -0.5458
   80TMC2    H1 1250   3.801   2.056  11.313 -0.6428  0.6139  0.5049
   80TMC2    H2 1251   3.575   1.729  11.163 -0.4483 -0.3318 -1.2636
   80TMC2    C7 1252   3.682   1.823  11.383  0.2928  0.2399 -0.4735
   80TMC2    C8 1253   3.493   1.843  10.949 -0.3656  0.1151  0.1116
   80TMC2    O1 1254   3.579   1.762  11.412  0.0237 -0.0455  0.2585
   80TMC2    O2 1255   3.547   1.798  10.851 -0.2360 -0.3540  0.6696
   80TMC2    O5 1256   3.392   1.784  11.017 -0.5375 -0.7094 -0.1865
   80TMC2    H5 1257   3.357   1.831  11.095 -1.1945 -1.1604 -0.2077
   81MPD2     C 1258   3.845   2.482  11.044 -0.3416 -0.3714 -0.2803
   81MPD2    C1 1259   3.873   2.407  11.157 -0.2550  0.1530  0.2368
   81MPD2    C2 1260   3.926   2.474  11.267  0.4822 -0.3635  0.3345
   81MPD2    C3 1261   3.953   2.602  11.264  0.0976 -0.2446  0.2367
   81MPD2    C4 1262   3.925   2.679  11.152  0.3870  0.4503  0.2887
   81MPD2    C5 1263   3.880   2.619  11.038  0.2417 -0.6116 -1.0953
   81MPD2     H 1264   3.937   2.413  11.355  0.4645 -1.5326 -0.4802
   81MPD2    H1 1265   3.955   2.783  11.143 -0.1018  0.3571 -2.6080
   81MPD2    H2 1266   3.821   2.441  10.947  0.1525 -0.8455 -0.2033
   81MPD2    H3 1267   3.873   2.672  10.943 -0.7573 -0.8740 -1.1733
   81MPD2     N 1268   4.013   2.656  11.381  0.0931 -0.6461 -0.0462
   81MPD2    H5 1269   4.035   2.587  11.451 -0.4637 -0.3572  0.4184
   81MPD2    N1 1270   3.829   2.273  11.171 -0.3805  0.9442 -0.8213
   81MPD2    H7 1271   3.837   2.224  11.260  0.6575 -0.5740 -1.7513
   82TMC2    C1 1272   2.362   1.626  10.855 -0.0265 -0.3283  0.0248
   82TMC2    C2 1273   2.379   1.556  10.742  0.3594 -0.4362  0.1595
   82TMC2    C3 1274   2.344   1.425  10.732 -0.3967  0.4948 -0.1681
   82TMC2    C4 1275   2.296   1.565  10.961 -0.2823  0.5783 -0.1041
   82TMC2    C5 1276   2.269   1.432  10.948  0.0219 -0.0240 -0.6338
   82TMC2    C6 1277   2.307   1.358  10.839  0.3004 -0.1774 -0.4560
   82TMC2     C 1278   2.384   1.768  10.835 -0.3427 -0.0069  0.1147
   82TMC2     O 1279   2.389   1.816  10.722 -0.0963  0.1628  1.2062
   82TMC2     H 1280   2.413   1.605  10.652 -1.0614 -1.0671 -0.7288
   82TMC2    H1 1281   2.252   1.618  11.045 -2.0462 -0.7383 -0.2005
   82TMC2    H2 1282   2.292   1.250  10.833  0.0128 -0.1565 -0.1455
   82TMC2    C7 1283   2.216   1.377  11.074 -0.6180 -0.2700 -0.1265
   82TMC2    C8 1284   2.318   1.375  10.601  0.0565  0.8225 -0.2395
   82TMC2    O1 1285   2.194   1.453  11.166 -0.4695  0.1272  0.5344
   82TMC2    O2 1286   2.371   1.413  10.501 -0.2312  0.2801  0.2131
   82TMC2    O5 1287   2.208   1.294  10.606  0.5110 -0.0336 -0.3630
   82TMC2    H5 1288   2.163   1.271  10.690 -0.9299 -0.2348 -1.1881
   83MPD2     C 1289   2.357   2.252  10.998 -0.4659  0.9712  0.4170
   83MPD2    C1 1290   2.309   2.197  10.887 -0.2509  0.6278 -0.1110
   83MPD2    C2 1291   2.309   2.057  10.870  0.3251  0.1664  0.1976
   83MPD2    C3 1292   2.367   1.975  10.963 -0.1689  0.1402  0.6616
   83MPD2    C4 1293   2.397   2.027  11.083  0.0781  0.4097  0.1068
   83MPD2    C5 1294   2.397   2.168  11.092 -0.2689  0.0541 -0.1647
   83MPD2     H 1295   2.282   2.014  10.775  2.3433  0.7808 -0.6722
   83MPD2    H1 1296   2.436   1.971  11.167  1.2524  0.1966 -0.5763
   83MPD2    H2 1297   2.359   2.360  11.012 -1.1527  1.0687 -0.2213
   83MPD2    H3 1298   2.430   2.207  11.188  0.9081 -0.6309 -0.2974
   83MPD2     N 1299   2.390   1.835  10.950  0.4888 -0.9232 -0.9177
   83MPD2    H5 1300   2.408   1.779  11.033 -2.2004 -2.2501 -1.2051
   83MPD2    N1 1301   2.258   2.280  10.784 -0.5286 -0.2042  0.6548
   83MPD2    H7 1302   2.257   2.382  10.791  0.0391 -0.1026 -0.6893
   84TMC2    C1 1303   4.042   1.010  10.918  0.2296  0.3158 -0.4746
   84TMC2    C2 1304   4.172   1.052  10.956 -0.5633  0.6770 -0.9866
   84TMC2    C3 1305   4.242   1.121  10.864 -0.1838  1.0219  0.7139
   84TMC2    C4 1306   3.997   1.026  10.788 -0.2099 -0.6930 -0.4577
   84TMC2    C5 1307   4.072   1.107  10.702 -0.3461 -1.1805  0.1716
   84TMC2    C6 1308   4.192   1.155  10.736 -0.5927 -0.4183  0.5401
   84TMC2     C 1309   3.941   1.022  11.019 -0.0547  0.6050  0.0965
   84TMC2     O 1310   3.960   0.960  11.124 -0.0371 -0.2651 -0.4783
   84TMC2     H 1311   4.211   1.047  11.057 -0.2783 -0.3957 -1.1426
   84TMC2    H1 1312   3.904   0.975  10.764  1.8142 -4.4670 -0.2251
   84TMC2    H2 1313   4.261   1.190  10.660 -2.2831 -0.9248 -1.2036
   84TMC2    C7 1314   4.022   1.112  10.566 -0.0110 -0.2892 -0.7170
   84TMC2    C8 1315   4.375   1.176  10.901  0.5346  0.8002 -0.6235
   84TMC2    O1 1316   3.913   1.069  10.544 -0.1209 -0.3397 -1.0203
   84TMC2    O2 1317   4.414   1.279  10.844  0.3211  0.3517 -0.4878
   84TMC2    O5 1318   4.456   1.072  10.945  0.4464  0.0797  0.3313
   84TMC2    H5 1319   4.415   0.992  10.982 -2.1202  0.8431 -0.8515
   85TMC2    C1 1320   0.045   4.420  15.884 -0.3637  0.2127 -0.3985
   85TMC2    C2 1321   4.666   4.471  15.816  0.6932  0.3892  0.9949
   85TMC2    C3 1322   4.666   4.599  15.771 -0.0741  0.0470 -0.0178
   85TMC2    C4 1323   0.156   4.497  15.910  0.5389 -0.4164 -0.1407
   85TMC2    C5 1324   0.143   4.627  15.865  0.3009  1.2089 -0.4244
   85TMC2    C6 1325   0.035   4.681  15.799 -0.7586 -0.1005 -0.1316
   85TMC2     C 1326   0.035   4.308  15.981 -0.2109 -0.0098 -0.5180
   85TMC2     O 1327   0.129   4.300  16.060  0.0225 -0.0193 -0.0748
   85TMC2     H 1328   4.584   4.403  15.794  0.2231  0.7387  1.6613
   85TMC2    H1 1329   0.247   4.471  15.961 -0.2919  1.4678  2.3083
   85TMC2    H2 1330   0.036   0.047  15.772  2.7370  0.1028  0.7808
   85TMC2    C7 1331   0.258   4.709  15.877 -0.4374 -0.3938 -0.1346
   85TMC2    C8 1332   4.554   4.675  15.713 -0.3188 -0.4464 -0.2648
   85TMC2    O1 1333   0.366   4.656  15.859 -0.0422 -0.1964  0.4973
   85TMC2    O2 1334   4.568   0.052  15.682  1.4297 -0.0951 -0.5003
   85TMC2    O5 1335   4.440   4.620  15.753  0.1849  0.5340 -0.2470
   85TMC2    H5 1336   4.446   4.548  15.820  2.0502 -0.0706 -1.0616
   86MPD2     C 1337   4.508   3.952  16.265  0.0776  0.3021  0.0320
   86MPD2    C1 1338   4.453   3.964  16.132  0.2028 -0.1844 -0.0617
   86MPD2    C2 1339   4.509   4.053  16.044 -0.0346 -0.1454  0.0058
   86MPD2    C3 1340   4.616   4.139  16.070 -0.0998  0.0257  0.9958
   86MPD2    C4 1341   4.676   4.122  16.200 -0.3335  0.2169  0.2227
   86MPD2    C5 1342   4.620   4.030  16.298 -0.5956  0.0162 -0.7202
   86MPD2     H 1343   4.462   4.070  15.948 -0.6859  1.6990  0.6453
   86MPD2    H1 1344   0.011   4.193  16.238  2.3865 -1.4620 -1.9136
   86MPD2    H2 1345   4.473   3.875  16.332  0.2518  0.2197  0.0285
   86MPD2    H3 1346   4.666   4.017  16.395 -1.2777  0.8958 -0.2809
   86MPD2     N 1347   4.654   4.232  15.978  0.0247  0.5703  0.8908
   86MPD2    H5 1348   4.600   4.243  15.893  1.5313  0.2251 -0.1134
   86MPD2    N1 1349   4.358   3.877  16.075  0.0489  0.3559  0.0349
   86MPD2    H7 1350   4.328   3.883  15.978 -1.2361 -0.9886  0.3324
   87TMC2    C1 1351   2.502   2.156   0.857  0.4450 -0.4649  0.7729
   87TMC2    C2 1352   2.458   2.048   0.922  0.5913  0.2992  0.2603
   87TMC2    C3 1353   2.473   2.048   1.057 -0.6946 -0.5659  0.5081
   87TMC2    C4 1354   2.549   2.269   0.911 -0.6117 -0.1349 -0.0952
   87TMC2    C5 1355   2.553   2.276   1.046 -0.7066 -0.0596  0.3182
   87TMC2    C6 1356   2.524   2.164   1.119  0.1938  0.5265 -0.5986
   87TMC2     C 1357   2.465   2.159   0.722 -0.2918 -0.3300  0.0507
   87TMC2     O 1358   2.456   2.051   0.666 -0.5952  0.5107 -0.2183
   87TMC2     H 1359   2.402   1.967   0.876  3.8868 -1.7747 -0.1395
   87TMC2    H1 1360   2.586   2.353   0.853  1.8471 -1.4862 -0.5004
   87TMC2    H2 1361   2.516   2.177   1.226 -3.4602  0.0359 -0.7816
   87TMC2    C7 1362   2.656   2.364   1.095 -0.0625  0.3630 -0.0177
   87TMC2    C8 1363   2.416   1.938   1.135 -0.3183 -0.7845 -0.9460
   87TMC2    O1 1364   2.685   2.458   1.025  0.1014 -0.1704  0.7734
   87TMC2    O2 1365   2.341   1.855   1.083  0.5060  0.0319  0.1966
   87TMC2    O5 1366   2.440   1.953   1.269 -0.2850 -0.5569  0.6326
   87TMC2    H5 1367   2.508   2.024   1.279 -0.9377  0.0232  0.9343
   88MPD2     C 1368   2.908   2.281   1.354 -0.1051 -0.5722 -1.0378
   88MPD2    C1 1369   2.849   2.348   1.247  0.1574 -0.1238  0.4382
   88MPD2    C2 1370   2.909   2.465   1.208 -0.2906 -0.2985 -0.4379
   88MPD2    C3 1371   3.026   2.514   1.274  0.5501 -0.4441  0.0416
   88MPD2    C4 1372   3.080   2.442   1.382  0.6008 -0.1701 -0.3492
   88MPD2    C5 1373   3.022   2.321   1.416  0.3320  0.0725  0.0634
   88MPD2     H 1374   2.852   2.520   1.133  0.2353 -0.4224 -0.9268
   88MPD2    H1 1375   3.176   2.473   1.422  0.9648 -1.4877 -0.1777
   88MPD2    H2 1376   2.869   2.191   1.401 -1.4749  0.4559 -0.2063
   88MPD2    H3 1377   3.058   2.274   1.506 -0.0814 -0.9583 -0.3087
   88MPD2     N 1378   3.084   2.637   1.242  0.6447  0.0121 -0.2399
   88MPD2    H5 1379   3.145   2.684   1.307 -0.2554 -0.2708  0.8138
   88MPD2    N1 1380   2.727   2.304   1.197  0.4672  0.1621 -0.8075
   88MPD2    H7 1381   2.700   2.208   1.217  2.3294 -0.6046 -1.9926
   89TMC2    C1 1382   2.908   0.498   1.588 -0.0032  0.7873 -0.2303
   89TMC2    C2 1383   3.043   0.499   1.579 -0.1397  0.1468  0.0634
   89TMC2    C3 1384   3.093   0.509   1.454  0.0925  0.3499 -0.1907
   89TMC2    C4 1385   2.824   0.501   1.478  0.0892  0.2784  0.5105
   89TMC2    C5 1386   2.885   0.532   1.362 -0.2428  0.1341 -0.8050
   89TMC2    C6 1387   3.019   0.529   1.336  0.1144  0.0113 -0.1134
   89TMC2     C 1388   2.853   0.546   1.711  0.2218 -0.4107  0.0721
   89TMC2     O 1389   2.922   0.617   1.780  0.1017 -0.1567  0.2256
   89TMC2     H 1390   3.106   0.523   1.664  0.9163  0.1705 -0.7254
   89TMC2    H1 1391   2.723   0.540   1.471 -0.2737  0.0011  3.9806
   89TMC2    H2 1392   3.064   0.540   1.238  0.5712  1.3860  0.2565
   89TMC2    C7 1393   2.803   0.559   1.241 -0.2467  0.6172  0.7007
   89TMC2    C8 1394   3.234   0.499   1.458  0.2382  0.4320 -0.7405
   89TMC2    O1 1395   2.682   0.530   1.239  0.3549  0.1058  0.5404
   89TMC2    O2 1396   3.287   0.433   1.543  0.5369 -0.0614  0.0314
   89TMC2    O5 1397   3.295   0.579   1.373 -0.0506  0.1378  0.1890
   89TMC2    H5 1398   3.234   0.617   1.306  0.7379  3.6666  1.4946
   90MPD2     C 1399   2.435   0.664   1.997  0.5687  0.0460  0.1747
   90MPD2    C1 1400   2.394   0.589   1.887  0.1055  0.2869  0.6854
   90MPD2    C2 1401   2.489   0.545   1.798  0.5516 -0.1262 -0.0191
   90MPD2    C3 1402   2.627   0.577   1.819 -0.5273  0.4141  0.1034
   90MPD2    C4 1403   2.656   0.646   1.925  0.2275 -0.2108 -0.6730
   90MPD2    C5 1404   2.564   0.694   2.014 -0.3653 -0.0704  0.1579
   90MPD2     H 1405   2.456   0.484   1.715  1.7450 -1.0326  0.1669
   90MPD2    H1 1406   2.755   0.681   1.953  0.1695  1.5219 -2.6286
   90MPD2    H2 1407   2.358   0.696   2.066  0.5130 -2.3670  1.2286
   90MPD2    H3 1408   2.602   0.747   2.100 -0.3031 -1.5325  1.0297
   90MPD2     N 1409   2.719   0.524   1.723  0.0528  0.2656 -0.3777
   90MPD2    H5 1410   2.686   0.459   1.652 -0.2703 -0.0947  0.0939
   90MPD2    N1 1411   2.260   0.574   1.865 -0.0050  0.2408  0.2802
   90MPD2    H7 1412   2.197   0.625   1.926  0.9753  1.6256  0.1270
   91TMC2    C1 1413   4.374   0.624  16.804 -0.1749 -0.2402  0.0455
   91TMC2    C2 1414   4.420   0.737  16.733 -0.2739  0.4130  0.5590
   91TMC2    C3 1415   4.351   0.770  16.614  0.1446  0.5088 -0.8931
   91TMC2    C4 1416   4.262   0.561  16.763  0.0097 -0.5623 -0.2682
   91TMC2    C5 1417   4.204   0.598  16.647  0.7213  0.2646  0.2298
   91TMC2    C6 1418   4.238   0.706  16.574 -0.2611  0.2144 -0.6056
   91TMC2     C 1419   4.448   0.567  16.919 -0.5874  0.7465 -0.0022
   91TMC2     O 1420   4.393   0.486  16.992  0.3386 -0.0517 -0.2531
   91TMC2     H 1421   4.502   0.805  16.757 -0.0673 -0.8411  3.4615
   91TMC2    H1 1422   4.221   0.478  16.820 -1.1620  1.2205  1.4688
   91TMC2    H2 1423   4.197   0.725  16.475  0.5097  3.9172 -0.2125
   91TMC2    C7 1424   4.134   0.488  16.589  0.4287  0.8689 -0.2105
   91TMC2    C8 1425   4.411   0.874  16.530  0.3131 -0.5163 -0.1305
   91TMC2    O1 1426   4.127   0.381  16.645  0.2238  0.5841  0.2094
   91TMC2    O2 1427   4.347   0.952  16.459 -0.2644 -1.0644 -0.6412
   91TMC2    O5 1428   4.545   0.866  16.541  0.1736  0.1913 -0.1402
   91TMC2    H5 1429   4.579   0.795  16.599  0.5862 -0.2497 -0.9224
   92MPD2     C 1430   4.645   0.528  17.160 -0.1285  0.4265  0.5286
   92MPD2    C1 1431   4.676   0.565  17.028  1.0799  0.4862  0.3678
   92MPD2    C2 1432   0.067   0.583  17.009 -0.0612  0.7939 -0.3249
   92MPD2    C3 1433   0.171   0.554  17.098  1.2721 -0.6602 -0.6044
   92MPD2    C4 1434   0.137   0.506  17.225  0.0554 -0.3921  0.9875
   92MPD2    C5 1435   0.002   0.490  17.248  0.1787  0.3320  0.0150
   92MPD2     H 1436   0.106   0.632  16.920 -0.8701 -0.1000 -1.1683
   92MPD2    H1 1437   0.207   0.482  17.305  1.4068  3.4322  0.9375
   92MPD2    H2 1438   4.541   0.513  17.185 -0.4954  1.3014 -0.4735
   92MPD2    H3 1439   4.705   0.471  17.348 -2.2035  2.0291 -0.5016
   92MPD2     N 1440   0.302   0.585  17.056 -0.3963 -0.6719 -0.2319
   92MPD2    H5 1441   0.310   0.638  16.970  0.7709 -0.3552  0.0702
   92MPD2    N1 1442   4.583   0.603  16.926  0.2122  0.4532  0.3729
   92MPD2    H7 1443   4.627   0.652  16.849  1.6491 -1.8642 -0.2646
   93TMC2    C1 1444   1.822   0.653  13.746  0.8101 -0.2635 -0.5046
   93TMC2    C2 1445   1.766   0.595  13.856 -0.6473 -0.3707 -0.1744
   93TMC2    C3 1446   1.824   0.625  13.978  0.2682 -0.6539  0.5454
   93TMC2    C4 1447   1.936   0.726  13.754 -0.5726 -0.3565 -1.3247
   93TMC2    C5 1448   1.984   0.751  13.879  0.0450  0.6811 -0.2737
   93TMC2    C6 1449   1.930   0.704  13.995 -0.3975  0.5021  0.0240
   93TMC2     C 1450   1.764   0.659  13.614  0.9324 -0.2561 -0.5660
   93TMC2     O 1451   1.823   0.715  13.526  0.3249 -0.1348  0.1070
   93TMC2     H 1452   1.666   0.553  13.867  0.1790 -1.7809  1.8406
   93TMC2    H1 1453   1.990   0.764  13.668  2.4871 -1.1344  0.2149
   93TMC2    H2 1454   1.957   0.723  14.098  1.5604  0.3262 -0.4738
   93TMC2    C7 1455   2.120   0.808  13.877 -0.3429 -0.1025  0.0633
   93TMC2    C8 1456   1.755   0.586  14.095  0.4149 -0.2410  0.7705
   93TMC2    O1 1457   2.179   0.824  13.772  0.3074 -0.4054  0.0714
   93TMC2    O2 1458   1.731   0.661  14.185 -0.2161 -0.2924  0.3376
   93TMC2    O5 1459   1.723   0.457  14.085 -0.4420 -0.1510  0.3087
   93TMC2    H5 1460   1.768   0.398  14.020  1.5864  0.5946  1.0370
   94MPD2     C 1461   1.566   0.708  13.399 -0.5183  0.5983  0.2306
   94MPD2    C1 1462   1.537   0.642  13.517 -0.2853  0.1500 -0.1173
   94MPD2    C2 1463   1.411   0.615  13.554 -0.1614  0.1712  0.3491
   94MPD2    C3 1464   1.305   0.656  13.474 -0.0017 -0.2991  0.0862
   94MPD2    C4 1465   1.331   0.729  13.357  0.0424  0.6632  0.5208
   94MPD2    C5 1466   1.462   0.755  13.320 -0.2346 -0.0342  0.8782
   94MPD2     H 1467   1.395   0.553  13.641 -0.9102  0.5622  0.4935
   94MPD2    H1 1468   1.252   0.760  13.290  0.1913 -1.4041 -0.6040
   94MPD2    H2 1469   1.666   0.740  13.373 -0.8804  1.2145 -0.4124
   94MPD2    H3 1470   1.490   0.802  13.227  0.2035  2.0571  2.0656
   94MPD2     N 1471   1.171   0.629  13.514 -0.3495  0.0295 -0.2872
   94MPD2    H5 1472   1.105   0.692  13.471  0.6000  0.6868 -0.7801
   94MPD2    N1 1473   1.634   0.618  13.620 -0.1201  0.1207  0.1559
   94MPD2    H7 1474   1.600   0.578  13.707 -0.5780  1.5808  0.6472
   95TMC2    C1 1475   1.378   2.021  15.362  0.0611  0.0842  0.1165
   95TMC2    C2 1476   1.284   1.971  15.453  0.0329 -0.0628 -0.2229
   95TMC2    C3 1477   1.184   2.068  15.484 -0.1276 -0.4591 -0.3333
   95TMC2    C4 1478   1.379   2.151  15.313  0.8659 -0.4754  0.4864
   95TMC2    C5 1479   1.272   2.233  15.349 -0.4591 -0.0119  0.0771
   95TMC2    C6 1480   1.177   2.194  15.442  0.7600 -0.0707 -0.3052
   95TMC2     C 1481   1.495   1.937  15.317 -0.9409  0.2903 -0.0655
   95TMC2     O 1482   1.593   1.987  15.262 -0.3651 -0.1414  0.3635
   95TMC2     H 1483   1.295   1.881  15.513 -0.1835  1.2103  1.7348
   95TMC2    H1 1484   1.460   2.174  15.245  0.4476 -1.3570 -0.3150
   95TMC2    H2 1485   1.095   2.259  15.468  0.6163 -0.7045  0.8200
   95TMC2    C7 1486   1.295   2.375  15.322  0.5253 -0.3591  0.0919
   95TMC2    C8 1487   1.074   2.012  15.568 -1.0435 -0.1057  0.4447
   95TMC2    O1 1488   1.380   2.403  15.239  0.1499 -0.1313 -0.0496
   95TMC2    O2 1489   1.048   1.894  15.567  0.0649  0.1772 -0.0556
   95TMC2    O5 1490   1.026   2.101  15.662  0.3425  0.1326  0.4261
   95TMC2    H5 1491   1.066   2.190  15.659 -1.0467  0.7116 -1.0251
   96MPD2     C 1492   1.746   1.498  15.412 -0.0566  0.2880  0.1077
   96MPD2    C1 1493   1.780   1.632  15.396  0.4884 -0.2067  0.9120
   96MPD2    C2 1494   1.687   1.730  15.378 -1.0107  0.3226 -0.2717
   96MPD2    C3 1495   1.553   1.704  15.370 -0.9530 -0.6274  0.1615
   96MPD2    C4 1496   1.515   1.573  15.402 -0.1158 -0.2765 -0.5098
   96MPD2    C5 1497   1.607   1.475  15.415  0.2508 -0.6942  0.3069
   96MPD2     H 1498   1.724   1.831  15.368  1.3143 -0.5483 -0.4642
   96MPD2    H1 1499   1.409   1.561  15.419  0.0185 -1.0673 -0.2153
   96MPD2    H2 1500   1.812   1.418  15.444 -0.9641 -1.7044 -2.9653
   96MPD2    H3 1501   1.571   1.377  15.443 -1.7970 -0.2670 -0.8833
   96MPD2     N 1502   1.461   1.809  15.351 -0.4654 -0.6666  0.5566
   96MPD2    H5 1503   1.366   1.781  15.377 -1.4017 -0.1164 -2.2812
   96MPD2    N1 1504   1.920   1.662  15.415 -0.6331 -0.2889 -0.6941
   96MPD2    H7 1505   1.985   1.584  15.412  0.7596  0.7796  1.7112
   97TMC2    C1 1506   4.020   4.724   0.278  0.1173 -0.3128 -0.3601
   97TMC2    C2 1507   3.898   4.660   0.255 -0.2614 -0.4349  0.2476
   97TMC2    C3 1508   3.819   4.717   0.155  1.4807 -0.4713  0.0976
   97TMC2    C4 1509   4.069   0.094   0.211  0.3326  0.0964  0.1444
   97TMC2    C5 1510   3.969   0.156   0.129  0.1015  0.1402 -0.1839
   97TMC2    C6 1511   3.849   0.098   0.100 -0.8187 -0.0118 -0.1295
   97TMC2     C 1512   4.099   4.660   0.381  0.3108 -0.2804  0.4240
   97TMC2     O 1513   4.034   4.598   0.463  0.4639 -0.9213  0.6954
   97TMC2     H 1514   3.856   4.586   0.322  0.5142 -0.2272  0.9683
   97TMC2    H1 1515   4.163   0.139   0.240 -0.5120  2.1294 -0.2298
   97TMC2    H2 1516   3.788   0.136   0.019 -0.8139  0.8243  0.2597
   97TMC2    C7 1517   3.992   0.301   0.115 -1.2015 -0.1358 -0.3581
   97TMC2    C8 1518   3.686   4.671   0.143 -0.3456 -0.9825 -0.0978
   97TMC2    O1 1519   4.106   0.341   0.140  0.0814 -0.3362 -0.6912
   97TMC2    O2 1520   3.597   0.006   0.100 -0.7008 -0.3405 -0.5604
   97TMC2    O5 1521   3.697   4.539   0.121  0.3101 -0.0010 -0.3897
   97TMC2    H5 1522   3.776   4.495   0.159 -0.2150  1.0745  1.9324
   98MPD2     C 1523   4.517   4.375   0.511  0.0275 -0.2242  0.1743
   98MPD2    C1 1524   4.387   4.371   0.550  0.1402  0.2882 -0.4406
   98MPD2    C2 1525   4.297   4.470   0.506 -0.5298 -0.5078  0.3978
   98MPD2    C3 1526   4.324   4.545   0.392 -0.2805 -0.7577  1.1636
   98MPD2    C4 1527   4.449   4.537   0.339  0.5394  0.6131  0.5118
   98MPD2    C5 1528   4.542   4.453   0.399  0.0689 -0.3796  0.9402
   98MPD2     H 1529   4.197   4.478   0.547 -0.1704 -0.8646  1.3525
   98MPD2    H1 1530   4.476   4.597   0.253 -0.2333  0.6052  0.2700
   98MPD2    H2 1531   4.592   4.308   0.551 -0.4097 -0.7956  0.0341
   98MPD2    H3 1532   4.640   4.447   0.353 -0.1313 -2.4724  0.7771
   98MPD2     N 1533   4.231   4.644   0.338  0.7308  0.0898  0.5002
   98MPD2    H5 1534   4.272   4.696   0.261  2.7497 -1.8966  0.2398
   98MPD2    N1 1535   4.346   4.278   0.642  0.1814 -0.7231 -0.1159
   98MPD2    H7 1536   4.411   4.200   0.643  1.2716  0.1723 -0.0131
   99TMC2    C1 1537   2.976   1.555   1.158  0.4304  0.2510  0.8017
   99TMC2    C2 1538   3.101   1.600   1.175 -0.9726 -0.0200 -0.5449
   99TMC2    C3 1539   3.170   1.575   1.293  0.0160  0.4866 -0.0835
   99TMC2    C4 1540   2.918   1.475   1.253  0.5377  0.3512 -0.2751
   99TMC2    C5 1541   2.982   1.449   1.367 -0.0097  0.6600 -0.3045
   99TMC2    C6 1542   3.106   1.500   1.394  0.9230  0.1405 -0.2832
   99TMC2     C 1543   2.918   1.607   1.039  0.4479 -0.0220  0.2291
   99TMC2     O 1544   2.979   1.694   0.976 -0.0452  0.2702 -0.2353
   99TMC2     H 1545   3.151   1.665   1.105 -0.2403 -0.9011 -0.8448
   99TMC2    H1 1546   2.817   1.440   1.237  0.8893 -1.0099  0.4520
   99TMC2    H2 1547   3.139   1.530   1.492  0.4143  0.0772 -0.0902
   99TMC2    C7 1548   2.910   1.401   1.482  0.6751  0.3772 -0.4686
   99TMC2    C8 1549   3.277   1.666   1.321 -0.1171  0.5016 -0.8150
   99TMC2    O1 1550   2.956   1.392   1.595  0.4443 -1.1210  0.1984
   99TMC2    O2 1551   3.294   1.775   1.261  0.5848 -0.0576  0.3073
   99TMC2    O5 1552   3.378   1.608   1.387 -0.5799  0.9358 -0.4164
   99TMC2    H5 1553   3.361   1.514   1.410 -1.6239  1.4624  0.9423
  100MPD2     C 1554   2.733   1.701   0.813 -0.5267  0.0561 -0.6525
  100MPD2    C1 1555   2.726   1.579   0.882  0.0977 -0.6293 -0.2124
  100MPD2    C2 1556   2.641   1.481   0.835 -0.3665 -0.5891 -0.5054
  100MPD2    C3 1557   2.562   1.501   0.722  0.1528  0.2799  0.1187
  100MPD2    C4 1558   2.574   1.624   0.651 -0.0863 -0.4354  0.5295
  100MPD2    C5 1559   2.658   1.721   0.706  0.3234  0.0441  0.6101
  100MPD2     H 1560   2.614   1.395   0.895 -1.8538 -0.7653 -1.4145
  100MPD2    H1 1561   2.519   1.648   0.561  0.5222 -0.2304  0.2149
  100MPD2    H2 1562   2.790   1.786   0.849  0.0499  0.5858 -2.8104
  100MPD2    H3 1563   2.674   1.812   0.650 -0.0682  0.4280  1.1205
  100MPD2     N 1564   2.473   1.388   0.688 -0.1781 -0.1366 -0.1260
  100MPD2    H5 1565   2.471   1.306   0.748 -2.2472  1.3219  1.7638
  100MPD2    N1 1566   2.800   1.547   1.001 -0.4681  0.8252  0.0654
  100MPD2    H7 1567   2.772   1.465   1.054  3.6958 -1.5865 -1.4543
  101TMC2    C1 1568   3.467   3.150  13.008 -0.3984 -0.2988  0.4767
  101TMC2    C2 1569   3.452   3.278  13.047  0.0870  0.3262 -0.0939
  101TMC2    C3 1570   3.462   3.373  12.953  0.0554 -0.6042  0.0924
  101TMC2    C4 1571   3.506   3.115  12.880 -0.6832  0.4616  0.0652
  101TMC2    C5 1572   3.521   3.216  12.791 -0.9512 -0.4642 -0.4685
  101TMC2    C6 1573   3.497   3.346  12.823 -0.4146 -0.2379  0.2584
  101TMC2     C 1574   3.441   3.043  13.099  0.2797  0.1341  0.1782
  101TMC2     O 1575   3.382   3.082  13.200  0.0407  0.3535  0.0635
  101TMC2     H 1576   3.429   3.318  13.146  4.7352  0.2112  1.0105
  101TMC2    H1 1577   3.529   3.013  12.854  2.6611  1.0322  0.7430
  101TMC2    H2 1578   3.517   3.429  12.757  0.8933 -2.9345 -2.7255
  101TMC2    C7 1579   3.593   3.195  12.675 -0.3026  0.1467 -0.0679
  101TMC2    C8 1580   3.421   3.505  12.992 -0.1214  0.3490  0.9541
  101TMC2    O1 1581   3.651   3.290  12.627  0.0115  0.4528  0.1023
  101TMC2    O2 1582   3.440   3.557  13.101 -0.4419 -0.1062 -0.3010
  101TMC2    O5 1583   3.349   3.557  12.888 -0.0240 -0.2591  0.1708
  101TMC2    H5 1584   3.334   3.496  12.813 -1.6345 -0.1668  0.4094
  102MPD2     C 1585   3.500   2.680  13.086  0.3699  0.5903  0.1557
  102MPD2    C1 1586   3.443   2.803  13.124  0.3043 -0.2358 -0.1344
  102MPD2    C2 1587   3.362   2.796  13.240 -0.7231  0.2112 -0.5222
  102MPD2    C3 1588   3.320   2.680  13.292  0.0852  0.9398  0.2646
  102MPD2    C4 1589   3.370   2.561  13.241 -0.5304  0.1532 -0.2381
  102MPD2    C5 1590   3.460   2.557  13.134 -0.4661 -0.0627 -0.4242
  102MPD2     H 1591   3.323   2.885  13.288  0.8470  0.2887  0.6405
  102MPD2    H1 1592   3.350   2.465  13.288  0.4388  1.0382  1.9954
  102MPD2    H2 1593   3.586   2.670  13.020 -0.8675 -0.8398 -1.2578
  102MPD2    H3 1594   3.504   2.461  13.111 -1.3440 -0.4840 -0.3359
  102MPD2     N 1595   3.239   2.678  13.400 -0.9358 -0.0483 -0.7530
  102MPD2    H5 1596   3.229   2.769  13.444  0.8276 -0.1924 -0.0411
  102MPD2    N1 1597   3.486   2.918  13.060  0.0237 -0.2744 -0.2870
  102MPD2    H7 1598   3.541   2.900  12.976  1.0723 -0.5430  0.4520
  103TMC2    C1 1599   1.488   2.768  12.507  0.4821 -0.0352  1.3332
  103TMC2    C2 1600   1.597   2.781  12.597 -0.0170 -0.0631  0.0128
  103TMC2    C3 1601   1.581   2.874  12.698 -0.1452 -0.5254  0.4298
  103TMC2    C4 1602   1.378   2.844  12.514  0.3358  0.8918 -0.3596
  103TMC2    C5 1603   1.366   2.938  12.604 -0.3586 -0.1482  0.4332
  103TMC2    C6 1604   1.467   2.957  12.695  0.3967  0.1521  0.1619
  103TMC2     C 1605   1.485   2.666  12.393  0.2543  0.2211 -0.2124
  103TMC2     O 1606   1.391   2.674  12.316 -0.2462 -0.2414  0.0689
  103TMC2     H 1607   1.696   2.747  12.571  0.1470  1.3805 -1.2294
  103TMC2    H1 1608   1.292   2.844  12.449 -0.5616 -0.7577  0.8386
  103TMC2    H2 1609   1.443   3.016  12.783 -1.8025 -1.2843  0.5354
  103TMC2    C7 1610   1.228   2.952  12.656 -0.5588  0.2556  0.7030
  103TMC2    C8 1611   1.701   2.934  12.752  0.4309  0.2267  0.2086
  103TMC2    O1 1612   1.167   2.848  12.677  0.0346 -0.6328 -0.1466
  103TMC2    O2 1613   1.785   2.861  12.804 -0.5632  0.3303  0.2785
  103TMC2    O5 1614   1.720   3.048  12.681 -0.0738 -0.3241  0.1808
  103TMC2    H5 1615   1.650   3.076  12.618  1.7393  1.0802 -1.2065
  104MPD2     C 1616   1.663   2.353  12.357  0.5170 -0.5688  0.0142
  104MPD2    C1 1617   1.572   2.448  12.325 -0.8629  0.0585  0.2996
  104MPD2    C2 1618   1.510   2.427  12.205  0.0150 -0.1262 -0.3111
  104MPD2    C3 1619   1.522   2.317  12.126  0.1783 -0.1689 -0.2151
  104MPD2    C4 1620   1.614   2.225  12.162 -0.7708 -0.3748 -0.3491
  104MPD2    C5 1621   1.697   2.253  12.270 -0.0514  0.1664  0.0700
  104MPD2     H 1622   1.430   2.493  12.173 -1.2861 -0.8692  1.3826
  104MPD2    H1 1623   1.631   2.137  12.100 -0.4442 -0.0658 -0.7030
  104MPD2    H2 1624   1.729   2.363  12.443  0.5857 -0.4258 -0.0545
  104MPD2    H3 1625   1.776   2.183  12.294  0.6919  1.0293  0.1662
  104MPD2     N 1626   1.433   2.306  12.019 -0.0723 -0.5924  0.1260
  104MPD2    H5 1627   1.382   2.389  11.991 -1.8265 -1.4247  0.8253
  104MPD2    N1 1628   1.571   2.564  12.411  0.7230 -0.4654  0.8202
  104MPD2    H7 1629   1.624   2.565  12.498  0.3153  1.3539  1.0432
  105TMC2    C1 1630   2.101   2.042  17.589  0.3013 -0.2783 -0.6348
  105TMC2    C2 1631   2.017   1.947  17.646  0.1791 -0.2935 -0.6668
  105TMC2    C3 1632   1.996   1.954   0.031  0.2955 -0.0561 -0.0715
  105TMC2    C4 1633   2.162   2.136  17.664 -0.7926 -0.2852  0.8494
  105TMC2    C5 1634   2.137   2.140   0.045  0.2478  0.5370 -0.8444
  105TMC2    C6 1635   2.064   2.046   0.100 -0.5733 -0.0288 -0.1751
  105TMC2     C 1636   2.164   1.993  17.470  0.6649 -0.3308 -0.0016
  105TMC2     O 1637   2.148   1.878  17.445  0.1508 -0.4287  0.3067
  105TMC2     H 1638   1.968   1.870  17.587 -0.9506  0.9630 -1.3431
  105TMC2    H1 1639   2.232   2.208  17.621  0.2164 -1.8177 -0.0672
  105TMC2    H2 1640   2.063   2.029   0.207 -2.2189 -2.2951 -0.5477
  105TMC2    C7 1641   2.198   2.248   0.122  0.5455  0.3279 -0.1326
  105TMC2    C8 1642   1.926   1.856   0.105 -0.6869  0.0042  0.1697
  105TMC2    O1 1643   2.231   2.341   0.057 -0.3786 -0.5568 -0.3557
  105TMC2    O2 1644   1.943   1.827   0.227 -0.1724  0.1904  0.0452
  105TMC2    O5 1645   1.852   1.787   0.022  0.0114  0.2208 -0.1614
  105TMC2    H5 1646   1.828   1.828  17.687 -3.0596  1.6683  1.3617
  106MPD2     C 1647   2.588   1.972  17.179 -0.6062 -0.2584  0.3273
  106MPD2    C1 1648   2.578   2.101  17.236  0.0412  0.2226 -0.0246
  106MPD2    C2 1649   2.465   2.130  17.311 -0.1072  0.2196 -0.5371
  106MPD2    C3 1650   2.369   2.035  17.335 -0.2414 -0.3998 -0.0218
  106MPD2    C4 1651   2.378   1.908  17.281 -1.2409  0.7037 -0.6623
  106MPD2    C5 1652   2.486   1.880  17.196  0.6384 -0.3150 -0.1066
  106MPD2     H 1653   2.443   2.227  17.355  1.7746  0.4374 -0.1041
  106MPD2    H1 1654   2.313   1.826  17.309 -0.4782  0.5887  0.7949
  106MPD2    H2 1655   2.670   1.940  17.116 -1.6831 -1.4805 -0.4439
  106MPD2    H3 1656   2.504   1.785  17.148 -2.1836 -0.1190 -1.5882
  106MPD2     N 1657   2.263   2.075  17.420  0.0044 -0.2760 -0.2462
  106MPD2    H5 1658   2.270   2.171  17.454  0.5264 -0.4376  0.1079
  106MPD2    N1 1659   2.666   2.207  17.201  0.6920 -0.1445 -0.3449
  106MPD2    H7 1660   2.629   2.300  17.219  1.3495  0.2170 -0.8516
  107TMC2    C1 1661   3.368   1.185  11.790 -0.9495  0.1061  0.2136
  107TMC2    C2 1662   3.476   1.131  11.852  0.1540 -1.1150 -0.3935
  107TMC2    C3 1663   3.575   1.084  11.773  0.4209  0.0067  0.0246
  107TMC2    C4 1664   3.349   1.160  11.660  0.1465 -0.4289  0.2396
  107TMC2    C5 1665   3.447   1.097  11.581 -0.2082  0.5079 -0.8333
  107TMC2    C6 1666   3.569   1.071  11.635  0.4171 -0.3111  0.7098
  107TMC2     C 1667   3.255   1.241  11.868 -0.0924 -0.4518 -0.5307
  107TMC2     O 1668   3.279   1.293  11.975 -0.0912  0.1201  0.3263
  107TMC2     H 1669   3.499   1.157  11.955  1.0879 -2.8303 -0.1710
  107TMC2    H1 1670   3.253   1.175  11.612 -0.8137  1.2858  2.7322
  107TMC2    H2 1671   3.646   1.007  11.594  0.4974  1.9965 -2.7848
  107TMC2    C7 1672   3.446   1.122  11.440  0.3331 -0.1831 -0.4503
  107TMC2    C8 1673   3.679   1.018  11.846 -0.3332  0.6745  0.7712
  107TMC2    O1 1674   3.353   1.198  11.405 -0.3000 -0.3043 -0.2407
  107TMC2    O2 1675   3.664   1.002  11.968  0.4606 -0.6226  0.3857
  107TMC2    O5 1676   3.793   1.056  11.786  0.0422  0.0157 -0.1378
  107TMC2    H5 1677   3.770   1.114  11.711 -1.6336  1.1614  1.2687
  108MPD2     C 1678   2.899   1.263  11.753 -0.0974  0.4418 -0.5499
  108MPD2    C1 1679   3.014   1.302  11.827  0.2656 -0.2968 -0.6668
  108MPD2    C2 1680   2.998   1.388  11.938 -0.5823 -0.8379 -0.1228
  108MPD2    C3 1681   2.878   1.453  11.965  0.0854  0.8977 -0.9823
  108MPD2    C4 1682   2.783   1.437  11.875  0.2286 -0.2756  0.7638
  108MPD2    C5 1683   2.791   1.349  11.768  0.2528  0.2156 -0.4116
  108MPD2     H 1684   3.081   1.402  12.006  1.3541 -1.5272 -2.3443
  108MPD2    H1 1685   2.690   1.491  11.883 -0.3057 -1.0733 -0.1169
  108MPD2    H2 1686   2.903   1.202  11.664  0.0740  0.5951 -0.6469
  108MPD2    H3 1687   2.705   1.349  11.702 -0.3125 -0.4006  0.3164
  108MPD2     N 1688   2.850   1.538  12.072  0.1068  0.0763  0.0413
  108MPD2    H5 1689   2.763   1.590  12.078  0.1653  0.3313 -1.2236
  108MPD2    N1 1690   3.136   1.236  11.801 -0.0986 -0.2717  0.2060
  108MPD2    H7 1691   3.132   1.174  11.721  1.7445 -0.9066  0.6207
  109TMC2    C1 1692   3.246   4.042   0.022  0.6170  0.1518 -0.2853
  109TMC2    C2 1693   3.229   4.169  17.730  0.3762 -0.1484 -0.3163
  109TMC2    C3 1694   3.338   4.252  17.733  0.2828  0.3185 -0.9187
  109TMC2    C4 1695   3.365   3.997   0.069 -0.0511 -0.8210 -0.3566
  109TMC2    C5 1696   3.469   4.082   0.068 -0.3025 -0.5904 -0.0434
  109TMC2    C6 1697   3.458   4.212   0.027 -0.2058  0.5428  0.0887
  109TMC2     C 1698   3.122   3.975   0.077 -0.2607 -0.4550 -0.0675
  109TMC2     O 1699   3.015   4.021   0.032  0.8829  0.2684 -0.7573
  109TMC2     H 1700   3.134   4.195  17.685  1.2736 -0.0379 -2.1568
  109TMC2    H1 1701   3.369   3.893   0.099 -0.6863 -0.1346  2.0693
  109TMC2    H2 1702   3.553   4.264   0.030  0.6182 -0.8996 -0.9458
  109TMC2    C7 1703   3.599   4.032   0.110 -0.5484 -0.0337 -0.2331
  109TMC2    C8 1704   3.310   4.396  17.697  0.3836 -0.0514  0.4984
  109TMC2    O1 1705   3.690   4.112   0.126  0.6425 -0.1609 -0.2669
  109TMC2    O2 1706   3.221   4.437  17.622 -1.1507  0.3052 -0.0000
  109TMC2    O5 1707   3.357   4.461   0.054  0.1646  0.2950 -0.2384
  109TMC2    H5 1708   3.417   4.407   0.110  2.8538 -0.1111 -3.5216
  110MPD2     C 1709   2.912   3.589   0.353 -0.9313  0.5490  0.6134
  110MPD2    C1 1710   3.021   3.638   0.423 -0.5162  0.2311 -0.1992
  110MPD2    C2 1711   3.107   3.727   0.353 -0.9680 -0.4578 -0.3449
  110MPD2    C3 1712   3.062   3.799   0.247 -0.6017 -0.3334  0.2585
  110MPD2    C4 1713   2.946   3.754   0.190 -0.3464 -0.4270 -0.5203
  110MPD2    C5 1714   2.870   3.649   0.240 -0.5562  0.1593 -0.0434
  110MPD2     H 1715   3.194   3.769   0.402 -0.4918  0.2193 -1.7704
  110MPD2    H1 1716   2.913   3.798   0.097 -2.7150 -0.2541  0.3959
  110MPD2    H2 1717   2.863   3.504   0.398 -0.3209  0.2154  0.6530
  110MPD2    H3 1718   2.782   3.609   0.191 -1.2617 -0.8218  2.0070
  110MPD2     N 1719   3.144   3.898   0.188 -0.4539  0.2069  0.1326
  110MPD2    H5 1720   3.238   3.903   0.225 -1.1915 -1.1307  2.1714
  110MPD2    N1 1721   3.048   3.577   0.544 -0.5066 -0.3011 -0.4236
  110MPD2    H7 1722   2.974   3.519   0.581  0.4200 -0.6561  0.8665
  111TMC2    C1 1723   3.438   3.907  11.709 -0.1848 -0.5372  0.4583
  111TMC2    C2 1724   3.413   3.886  11.842 -0.0156  0.6426 -0.2232
  111TMC2    C3 1725   3.515   3.922  11.932  0.6214 -0.3452  0.0133
  111TMC2    C4 1726   3.557   3.954  11.662 -0.4587 -0.0456 -0.3941
  111TMC2    C5 1727   3.653   3.998  11.749  0.4159 -0.7115  0.2321
  111TMC2    C6 1728   3.632   3.987  11.885  0.4750  0.1018  0.7368
  111TMC2     C 1729   3.343   3.856  11.610 -0.6826  0.5940 -0.7802
  111TMC2     O 1730   3.350   3.898  11.495  0.0826 -0.1290 -0.4062
  111TMC2     H 1731   3.314   3.852  11.873  0.1881 -1.2155 -1.6112
  111TMC2    H1 1732   3.582   3.954  11.556 -0.3449 -1.3396 -0.3651
  111TMC2    H2 1733   3.689   4.047  11.954  0.8233 -0.5661  1.0329
  111TMC2    C7 1734   3.785   3.964  11.704  0.4314 -0.1695 -0.3001
  111TMC2    C8 1735   3.455   3.989  12.044 -0.0459 -0.2068 -1.0326
  111TMC2    O1 1736   3.808   3.966  11.584  0.0017  0.4420  0.3273
  111TMC2    O2 1737   3.406   4.100  12.025  0.2906 -0.8659  0.8053
  111TMC2    O5 1738   3.387   3.894  12.109 -1.1521 -0.8438  0.0927
  111TMC2    H5 1739   3.440   3.811  12.108 -2.6711 -1.8190  1.4413
  112MPD2     C 1740   2.903   3.613  11.470  0.5697  0.1924 -0.1222
  112MPD2    C1 1741   3.002   3.671  11.396 -0.5386  0.3556 -0.3570
  112MPD2    C2 1742   3.115   3.730  11.457 -0.1625  0.0716  0.3640
  112MPD2    C3 1743   3.143   3.710  11.590  0.1274  0.1653 -0.5535
  112MPD2    C4 1744   3.061   3.633  11.659 -0.3461 -0.6429 -0.4055
  112MPD2    C5 1745   2.938   3.589  11.601  0.4074 -0.3456 -0.1189
  112MPD2     H 1746   3.178   3.780  11.385  0.7275 -0.1870  0.9693
  112MPD2    H1 1747   3.084   3.614  11.763 -0.0411  3.1406  0.2192
  112MPD2    H2 1748   2.803   3.592  11.434  0.3904  1.1529 -0.1960
  112MPD2    H3 1749   2.878   3.515  11.653 -0.1794  0.3947  0.2588
  112MPD2     N 1750   3.254   3.758  11.654  0.1504  0.4037 -0.3141
  112MPD2    H5 1751   3.263   3.723  11.749 -0.8362 -1.4004 -0.8938
  112MPD2    N1 1752   2.989   3.689  11.257 -0.5844  0.0966  0.1990
  112MPD2    H7 1753   3.063   3.729  11.201 -0.0873 -1.3048 -0.1304
  113TMC2    C1 1754   1.653   1.974   0.864  0.0855 -0.2626 -0.2829
  113TMC2    C2 1755   1.691   2.104   0.838  0.4523 -0.5907 -0.0885
  113TMC2    C3 1756   1.624   2.174   0.739 -0.5545 -0.5514  0.3784
  113TMC2    C4 1757   1.565   1.913   0.780 -0.0331 -0.6501 -0.7827
  113TMC2    C5 1758   1.492   1.989   0.697  0.3053  0.1885 -0.0857
  113TMC2    C6 1759   1.525   2.118   0.665 -0.8381 -0.2560 -0.4021
  113TMC2     C 1760   1.745   1.904   0.952  0.0723 -0.0029  0.0839
  113TMC2     O 1761   1.810   1.972   1.028  0.3810  0.7818  0.0581
  113TMC2     H 1762   1.776   2.153   0.885 -0.5355 -0.2274  1.3253
  113TMC2    H1 1763   1.523   1.820   0.815 -3.5398  1.4299  0.4956
  113TMC2    H2 1764   1.471   2.171   0.587  0.5258  1.7324 -0.0117
  113TMC2    C7 1765   1.385   1.930   0.616 -0.0064  0.2738 -0.5352
  113TMC2    C8 1766   1.668   2.307   0.711 -0.3139 -0.0130 -0.6606
  113TMC2    O1 1767   1.311   2.006   0.554 -0.2816  0.3780  0.2782
  113TMC2    O2 1768   1.714   2.384   0.792  0.1141 -0.4369  0.4515
  113TMC2    O5 1769   1.686   2.306   0.578 -0.0333  0.0973 -0.1644
  113TMC2    H5 1770   1.666   2.221   0.533 -3.8723  0.1941  1.3599
  114MPD2     C 1771   1.994   1.478   1.109 -0.1918  1.1518 -0.1077
  114MPD2    C1 1772   1.996   1.608   1.161  0.0891 -0.6489  0.0312
  114MPD2    C2 1773   1.910   1.702   1.112 -0.5313  0.2281  0.4307
  114MPD2    C3 1774   1.825   1.668   1.010  0.4644  0.0141  0.4244
  114MPD2    C4 1775   1.801   1.535   0.983  0.0792  0.2176  0.2978
  114MPD2    C5 1776   1.885   1.441   1.033 -0.8980  0.0989  0.2959
  114MPD2     H 1777   1.922   1.802   1.153  0.6766  0.0065  0.6128
  114MPD2    H1 1778   1.731   1.492   0.911 -0.1743 -0.0130  0.6817
  114MPD2    H2 1779   2.069   1.404   1.132 -1.7209 -1.3892 -3.3004
  114MPD2    H3 1780   1.878   1.335   1.011  1.0774 -0.3405  1.7505
  114MPD2     N 1781   1.741   1.766   0.943 -0.0633  0.0092 -0.3323
  114MPD2    H5 1782   1.672   1.723   0.882 -1.7001  1.1364  0.7198
  114MPD2    N1 1783   2.085   1.651   1.266 -0.3820 -0.3600 -0.2147
  114MPD2    H7 1784   2.055   1.734   1.315 -0.4741 -0.5638  0.0736
  115TMC2    C1 1785   2.432   3.778  17.335  0.2929  0.6802 -0.3205
  115TMC2    C2 1786   2.523   3.689  17.375 -0.2863  0.2343  0.7778
  115TMC2    C3 1787   2.602   3.724  17.481 -0.5619 -0.3775 -0.0660
  115TMC2    C4 1788   2.417   3.904  17.395  0.5912  0.9692  0.2780
  115TMC2    C5 1789   2.504   3.930  17.495  0.5853 -0.4204 -0.1133
  115TMC2    C6 1790   2.602   3.845  17.542 -0.2563 -0.5714  0.2745
  115TMC2     C 1791   2.314   3.717  17.269 -0.0943  0.4054  0.0664
  115TMC2     O 1792   2.339   3.614  17.212 -0.2286  0.5073  0.0952
  115TMC2     H 1793   2.541   3.589  17.336  1.0070  0.7025  0.1751
  115TMC2    H1 1794   2.347   3.979  17.360  0.1857  0.8737  0.8888
  115TMC2    H2 1795   2.668   3.873  17.624 -0.1381 -0.0391 -0.0038
  115TMC2    C7 1796   2.481   4.047  17.571 -0.6505 -0.1862  0.1491
  115TMC2    C8 1797   2.698   3.629  17.511  0.4706 -0.1885  0.4182
  115TMC2    O1 1798   2.498   4.034  17.690 -0.1294 -0.0280  0.9512
  115TMC2    O2 1799   2.743   3.546  17.433 -0.0606 -0.0971  0.1927
  115TMC2    O5 1800   2.748   3.651  17.629  0.7632  0.1727 -0.3518
  115TMC2    H5 1801   2.701   3.685  17.707  2.8269  0.7763  0.6283
  116MPD2     C 1802   1.794   3.667  17.223 -0.0469 -0.2113 -0.2905
  116MPD2    C1 1803   1.897   3.601  17.156 -0.1085  0.4766  0.5911
  116MPD2    C2 1804   2.029   3.628  17.189 -0.0124 -0.9959 -0.0522
  116MPD2    C3 1805   2.053   3.732  17.278 -0.2603  0.1789  0.0658
  116MPD2    C4 1806   1.956   3.814  17.320  0.2549  0.1270 -0.0018
  116MPD2    C5 1807   1.827   3.786  17.292 -0.0156 -0.3370  0.0864
  116MPD2     H 1808   2.115   3.569  17.160  0.3917  0.0747 -1.0006
  116MPD2    H1 1809   1.970   3.901  17.382  1.8128 -0.5738  0.6036
  116MPD2    H2 1810   1.695   3.638  17.188 -1.3344  2.7285  0.9126
  116MPD2    H3 1811   1.749   3.853  17.327 -0.4204 -0.4660 -0.5642
  116MPD2     N 1812   2.192   3.772  17.308 -0.5916 -0.0861 -0.0682
  116MPD2    H5 1813   2.210   3.840  17.381 -0.5455 -1.0027  0.7782
  116MPD2    N1 1814   1.863   3.506  17.057 -0.4928 -0.3345  0.7867
  116MPD2    H7 1815   1.765   3.492  17.034 -0.2794 -0.8569  0.1836
  117TMC2    C1 1816   1.056   0.706  14.017 -0.3349  0.3579  0.4710
  117TMC2    C2 1817   1.187   0.665  13.986 -0.1096 -0.6196 -0.0714
  117TMC2    C3 1818   1.274   0.768  13.956  0.3331 -0.2866  0.1756
  117TMC2    C4 1819   1.021   0.834  14.030 -0.3339  0.0941  0.1001
  117TMC2    C5 1820   1.113   0.931  13.995 -0.5874 -0.4684  0.6208
  117TMC2    C6 1821   1.241   0.903  13.968 -0.2048 -0.8639  0.2318
  117TMC2     C 1822   0.957   0.596  14.020  0.6548 -0.2199 -0.2817
  117TMC2     O 1823   1.002   0.482  14.019  0.1881 -0.3299 -0.7662
  117TMC2     H 1824   1.202   0.564  13.949 -0.9748 -1.3832  1.6877
  117TMC2    H1 1825   0.917   0.860  14.042 -0.1689  0.1496  1.3738
  117TMC2    H2 1826   1.311   0.977  13.930  0.1117 -0.6186  1.3137
  117TMC2    C7 1827   1.085   1.079  14.004  0.0086 -0.5605  0.4932
  117TMC2    C8 1828   1.400   0.743  13.895  0.3004  0.4156 -0.1576
  117TMC2    O1 1829   1.183   1.153  13.987 -0.3894 -0.9002  0.0555
  117TMC2    O2 1830   1.446   0.815  13.815  0.3789 -0.1233 -0.1711
  117TMC2    O5 1831   1.459   0.624  13.940  0.0650  0.0087  0.0487
  117TMC2    H5 1832   1.424   0.577  14.018  3.1004 -1.3103  0.5961
  118MPD2     C 1833   0.769   1.234  14.011 -0.3349 -0.1342 -0.6836
  118MPD2    C1 1834   0.902   1.229  14.025  0.3024  0.1122  0.5480
  118MPD2    C2 1835   0.976   1.339  14.060  0.2148 -0.7463  0.3906
  118MPD2    C3 1836   0.912   1.464  14.046  0.1217  0.3859  0.1625
  118MPD2    C4 1837   0.776   1.468  14.027  0.2217 -0.6279  0.1655
  118MPD2    C5 1838   0.703   1.351  14.022  0.1146  0.1486 -0.5200
  118MPD2     H 1839   1.079   1.327  14.089 -0.3571  1.8053  3.4976
  118MPD2    H1 1840   0.712   1.555  14.021  0.4267 -0.3943  1.2500
  118MPD2    H2 1841   0.708   1.147  13.991 -0.6955 -0.5387  2.0939
  118MPD2    H3 1842   0.596   1.360  14.011  0.3267  4.1214  0.5967
  118MPD2     N 1843   0.969   1.593  14.066  0.2275 -0.0001 -0.4894
  118MPD2    H5 1844   0.907   1.668  14.037  0.2472  0.5583  0.8909
  118MPD2    N1 1845   0.956   1.105  14.013 -0.3557 -0.4069 -0.3772
  118MPD2    H7 1846   0.890   1.028  13.998 -1.9671  1.2367 -1.7697
  119TMC2    C1 1847   3.955   1.840  13.010 -1.3698  0.9238  0.2095
  119TMC2    C2 1848   3.962   1.842  12.873  0.1814 -0.0188 -0.7050
  119TMC2    C3 1849   3.842   1.836  12.806 -0.0230 -0.5584  0.3423
  119TMC2    C4 1850   3.838   1.825  13.076  0.3872  0.0431  0.3338
  119TMC2    C5 1851   3.717   1.810  13.010 -0.0118  0.8679 -0.6163
  119TMC2    C6 1852   3.720   1.826  12.872  0.2245 -0.7510 -0.0833
  119TMC2     C 1853   4.037   1.922  13.094  0.0772 -0.0116 -0.2297
  119TMC2     O 1854   4.022   1.905  13.214  0.0438  0.1243 -0.4606
  119TMC2     H 1855   4.061   1.816  12.837  0.9554  1.7339  0.1265
  119TMC2    H1 1856   3.836   1.785  13.176  3.2839  0.3965  0.5268
  119TMC2    H2 1857   3.631   1.816  12.811 -0.9697 -2.8785  2.0346
  119TMC2    C7 1858   3.586   1.848  13.071  0.2863  0.0420 -0.7111
  119TMC2    C8 1859   3.848   1.798  12.663 -0.6545  0.2173  0.1434
  119TMC2    O1 1860   3.489   1.846  12.997 -0.1984 -0.3560  0.3792
  119TMC2    O2 1861   3.752   1.759  12.600  0.1857  0.2315 -0.6270
  119TMC2    O5 1862   3.947   1.875  12.617  0.1131  0.3656 -0.1091
  119TMC2    H5 1863   4.001   1.924  12.683 -1.2964  2.3173 -0.4135
  120MPD2     C 1864   4.181   2.402  13.197  0.4819 -0.1203 -1.1857
  120MPD2    C1 1865   4.114   2.312  13.272 -0.2849  0.9311 -0.5073
  120MPD2    C2 1866   4.097   2.188  13.221  0.7449  1.2888 -0.2132
  120MPD2    C3 1867   4.136   2.152  13.096  0.7630  0.0282 -0.0176
  120MPD2    C4 1868   4.211   2.239  13.026 -0.3042  0.0586  0.1408
  120MPD2    C5 1869   4.226   2.367  13.075  0.0499 -0.7548  0.6378
  120MPD2     H 1870   4.039   2.118  13.280 -2.6148  3.9344 -0.3376
  120MPD2    H1 1871   4.247   2.209  12.928 -1.9094 -0.7687 -0.1864
  120MPD2    H2 1872   4.202   2.501  13.234 -1.5890 -1.0760  2.5354
  120MPD2    H3 1873   4.267   2.440  13.006 -0.1449 -2.1245 -0.9137
  120MPD2     N 1874   4.098   2.029  13.033 -0.3488 -0.4137 -0.2641
  120MPD2    H5 1875   4.098   2.026  12.931  1.1175 -1.5169 -0.2244
  120MPD2    N1 1876   4.079   2.343  13.403  0.1478 -0.2758 -0.4360
  120MPD2    H7 1877   4.116   2.432  13.437  0.5177 -1.4327  2.1658
  121TMC2    C1 1878   0.548   3.470  14.091  0.3828  0.1935  0.6342
  121TMC2    C2 1879   0.605   3.368  14.020  0.0672  0.3830  0.6766
  121TMC2    C3 1880   0.525   3.260  13.996  0.3878 -0.0275 -0.4117
  121TMC2    C4 1881   0.426   3.447  14.162 -0.0625 -0.5573  0.0417
  121TMC2    C5 1882   0.359   3.325  14.142 -0.1131  0.2547  0.3690
  121TMC2    C6 1883   0.407   3.235  14.055 -0.5592  0.5914  0.1616
  121TMC2     C 1884   0.625   3.590  14.127  0.1128  0.2159 -0.2357
  121TMC2     O 1885   0.590   3.645  14.230  0.0447  0.1696 -0.0215
  121TMC2     H 1886   0.695   3.387  13.962  0.0881 -3.0573 -0.4583
  121TMC2    H1 1887   0.382   3.532  14.213 -0.6458 -0.1489 -1.1450
  121TMC2    H2 1888   0.342   3.155  14.022  1.4296 -1.1349  0.4129
  121TMC2    C7 1889   0.212   3.334  14.163 -0.0229  0.4669  0.1722
  121TMC2    C8 1890   0.582   3.170  13.891 -0.3869  0.4612 -0.1980
  121TMC2    O1 1891   0.160   3.226  14.186  0.3097  0.6280  0.0881
  121TMC2    O2 1892   0.642   3.203  13.790  0.3610  0.1021  0.1219
  121TMC2    O5 1893   0.564   3.044  13.932 -0.6574  0.4289 -0.2472
  121TMC2    H5 1894   0.531   3.039  14.024  0.2768  0.4932  0.0940
  122MPD2     C 1895   0.757   3.859  14.151 -0.2838 -0.9818  0.5767
  122MPD2    C1 1896   0.786   3.760  14.059 -0.1876  0.0324 -0.0122
  122MPD2    C2 1897   0.873   3.786  13.954  0.5693 -0.0037  0.2706
  122MPD2    C3 1898   0.931   3.906  13.949 -0.1464 -0.3445  0.2040
  122MPD2    C4 1899   0.891   4.005  14.037  0.5592 -0.1618 -0.0825
  122MPD2    C5 1900   0.811   3.983  14.146  0.5190 -0.1323  0.4214
  122MPD2     H 1901   0.883   3.717  13.872 -0.7947 -0.4494  0.4849
  122MPD2    H1 1902   0.912   4.108  14.011  0.0386 -0.5874 -2.2221
  122MPD2    H2 1903   0.697   3.838  14.239 -0.9399 -0.6544  0.2143
  122MPD2    H3 1904   0.792   4.058  14.222  1.4605  0.0242  0.4935
  122MPD2     N 1905   1.032   3.942  13.849 -0.0036  0.6623 -0.7563
  122MPD2    H5 1906   1.074   4.034  13.858  0.9145  0.3500 -1.7880
  122MPD2    N1 1907   0.709   3.641  14.030  0.1231  0.2746  0.4852
  122MPD2    H7 1908   0.726   3.578  13.953  0.4511 -2.0115  2.4245
  123TMC2    C1 1909   4.114   2.316   9.803 -0.0365 -0.7013 -0.0599
  123TMC2    C2 1910   4.222   2.347   9.722  0.6647 -0.2066  0.2611
  123TMC2    C3 1911   4.343   2.288   9.760  0.3000  0.1138  0.3512
  123TMC2    C4 1912   4.122   2.240   9.917  0.6977 -0.4107 -0.2430
  123TMC2    C5 1913   4.246   2.184   9.949  0.7254 -0.3940 -0.2932
  123TMC2    C6 1914   4.361   2.206   9.871 -0.0371 -0.7734 -1.1485
  123TMC2     C 1915   4.003   2.405   9.785  0.6383  0.0373 -0.3625
  123TMC2     O 1916   4.023   2.509   9.722  0.1270  0.1501 -0.0964
  123TMC2     H 1917   4.217   2.401   9.628  0.4917 -0.7200 -0.0268
  123TMC2    H1 1918   4.042   2.218   9.986  0.0774 -0.4484 -0.9769
  123TMC2    H2 1919   4.461   2.191   9.909 -0.8897 -0.8253  1.0608
  123TMC2    C7 1920   4.250   2.094  10.066  0.3888  0.2998 -0.1885
  123TMC2    C8 1921   4.438   2.284   9.655  0.7186 -0.7954 -0.2852
  123TMC2    O1 1922   4.156   2.099  10.142 -0.2427  1.1043 -0.1086
  123TMC2    O2 1923   4.510   2.189   9.638 -0.1355 -0.2943  0.1353
  123TMC2    O5 1924   4.483   2.409   9.643  0.7431  0.4234  0.1915
  123TMC2    H5 1925   4.417   2.475   9.676 -2.0558 -1.8663 -0.8070
  124MPD2     C 1926   3.490   2.464   9.875  0.7225 -0.3943  0.3434
  124MPD2    C1 1927   3.521   2.328   9.871 -0.1417 -0.5931 -0.3548
  124MPD2    C2 1928   3.655   2.289   9.851 -0.3127  0.5400  0.5875
  124MPD2    C3 1929   3.756   2.387   9.825  0.6175  0.4518 -0.0124
  124MPD2    C4 1930   3.718   2.519   9.811 -0.9443  0.0643 -0.2055
  124MPD2    C5 1931   3.589   2.552   9.840  0.2586  0.5041 -0.3917
  124MPD2     H 1932   3.680   2.184   9.860  1.0814  0.8730  0.4909
  124MPD2    H1 1933   3.797   2.588   9.784 -0.9119 -0.2517 -0.9208
  124MPD2    H2 1934   3.392   2.504   9.901  0.2764 -0.1245 -1.6930
  124MPD2    H3 1935   3.572   2.659   9.832  2.9889  0.8500 -1.4722
  124MPD2     N 1936   3.888   2.340   9.812  0.6569 -0.4020 -0.0802
  124MPD2    H5 1937   3.897   2.240   9.829 -0.1054 -0.7066 -1.4655
  124MPD2    N1 1938   3.415   2.243   9.905 -0.4517  0.0204 -1.3246
  124MPD2    H7 1939   3.320   2.277   9.909  0.0157  0.8282  2.3870
  125TMC2    C1 1940   0.170   0.313   8.838  0.4980 -0.2435 -0.0552
  125TMC2    C2 1941   0.114   0.439   8.831  0.1836  0.0874 -0.1655
  125TMC2    C3 1942   4.722   0.458   8.877  0.4251  0.1524  0.1187
  125TMC2    C4 1943   0.105   0.212   8.902  0.3701  0.9242 -0.4554
  125TMC2    C5 1944   4.711   0.234   8.949 -0.4965  0.4304  0.4797
  125TMC2    C6 1945   4.651   0.359   8.935  0.3574 -0.2088 -0.3516
  125TMC2     C 1946   0.308   0.295   8.795 -0.4517  0.1118  0.2064
  125TMC2     O 1947   0.340   0.379   8.715  0.5938  0.1809 -0.1333
  125TMC2     H 1948   0.174   0.520   8.793  0.3714 -0.4062 -0.9156
  125TMC2    H1 1949   0.138   0.109   8.904 -2.0033  0.2160  2.3352
  125TMC2    H2 1950   4.545   0.369   8.956  0.8154  1.9741  0.9264
  125TMC2    C7 1951   4.616   0.123   8.998  0.1566 -0.1964 -0.0940
  125TMC2    C8 1952   4.663   0.587   8.875 -0.5129  0.0439  0.3506
  125TMC2    O1 1953   4.495   0.149   8.992  0.5669 -0.4120 -0.0358
  125TMC2    O2 1954   4.718   0.692   8.901  0.4902  0.4485 -0.4536
  125TMC2    O5 1955   4.536   0.578   8.825 -0.3684 -0.2933  0.9088
  125TMC2    H5 1956   4.515   0.488   8.794 -0.6056 -0.1115  0.5396
  126MPD1     C 1957   0.762   0.065   8.761  0.4817 -0.5109  0.2231
  126MPD1    C1 1958   0.693   0.015   8.872 -0.0128 -0.2929  0.0925
  126MPD1    C2 1959   0.561   0.052   8.888 -0.2896 -0.2017  0.4318
  126MPD1    C3 1960   0.505   0.156   8.812  0.7676  0.1037 -0.0304
  126MPD1    C4 1961   0.575   0.199   8.702  0.3931 -0.3258  1.2130
  126MPD1    C5 1962   0.699   0.146   8.676  0.2694 -0.0811 -0.4868
  126MPD1     H 1963   0.500   0.001   8.962  1.8081  0.7112  2.7597
  126MPD1    H1 1964   0.535   0.272   8.633 -0.2371 -0.6880  1.2004
  126MPD1    H2 1965   0.864   0.034   8.742  0.8270  0.0748  1.0847
  126MPD1    H3 1966   0.754   0.191   8.594  2.7691  1.0521  1.8233
  126MPD1     N 1967   0.373   0.191   8.850 -0.4831 -0.4984 -0.4353
  126MPD1    H5 1968   0.334   0.144   8.931 -1.8052  1.2865 -0.0113
  126MPD1    N1 1969   0.748   4.645   8.940 -0.1141 -0.3174 -0.1924
  126MPD1    H6 1970   0.712   4.649   9.035 -1.2986  1.5647 -0.7067
  126MPD1    H7 1971   0.848   4.663   8.942 -0.2218  0.3470 -0.6026
  127TMC2    C1 1972   0.379   2.692   9.955 -0.4202  0.3168  0.3275
  127TMC2    C2 1973   0.270   2.724  10.044 -0.2717  0.2800  0.1526
  127TMC2    C3 1974   0.202   2.611  10.086 -0.5242  0.5557  0.1975
  127TMC2    C4 1975   0.411   2.565   9.912  0.1731 -0.6700 -0.4774
  127TMC2    C5 1976   0.347   2.463   9.962 -0.9213 -0.4759  0.3008
  127TMC2    C6 1977   0.244   2.480  10.060 -0.4649  0.4808  0.6303
  127TMC2     C 1978   0.463   2.807   9.918  0.0827 -0.5400  0.7449
  127TMC2     O 1979   0.453   2.914   9.976 -0.1966  0.2919 -0.3052
  127TMC2     H 1980   0.236   2.822  10.075 -1.7009 -0.9530  2.4472
  127TMC2    H1 1981   0.494   2.538   9.848 -0.1431  1.9426 -2.0020
  127TMC2    H2 1982   0.201   2.395  10.111 -1.8395  0.6123 -0.3005
  127TMC2    C7 1983   0.413   2.335   9.951  0.0463 -0.1859 -0.2962
  127TMC2    C8 1984   0.127   2.615  10.212 -0.1035  0.2369  0.0540
  127TMC2    O1 1985   0.528   2.338   9.914 -0.0422  0.2384 -0.0158
  127TMC2    O2 1986   0.129   2.525  10.298  0.1458 -0.0617  0.0814
  127TMC2    O5 1987   0.014   2.671  10.158  0.1533  0.3315  0.7796
  127TMC2    H5 1988   0.032   2.697  10.065 -0.1198  1.7071  1.1078
  128MPD2     C 1989   0.651   2.864   9.611 -0.4094  0.4998  0.0302
  128MPD2    C1 1990   0.624   2.881   9.745  0.0113  0.2800  0.2540
  128MPD2    C2 1991   0.687   2.992   9.808 -0.1099  0.4584 -0.4321
  128MPD2    C3 1992   0.770   3.079   9.733 -0.3356 -0.4288 -0.7000
  128MPD2    C4 1993   0.793   3.054   9.595 -0.3825 -0.7432  0.1785
  128MPD2    C5 1994   0.739   2.946   9.542 -0.9189 -0.6347 -0.0929
  128MPD2     H 1995   0.675   3.017   9.913  0.1700  2.2850 -0.8364
  128MPD2    H1 1996   0.852   3.123   9.536 -0.5035  0.0698  1.0258
  128MPD2    H2 1997   0.610   2.777   9.562 -0.7529  0.8660 -0.3299
  128MPD2    H3 1998   0.765   2.928   9.438 -1.5434  0.9697 -0.5230
  128MPD2     N 1999   0.818   3.191   9.796  0.0126  0.0635 -0.3465
  128MPD2    H5 2000   0.815   3.189   9.897  1.1838 -1.9635 -0.3565
  128MPD2    N1 2001   0.542   2.784   9.806  0.1035  0.0241 -0.4262
  128MPD2    H7 2002   0.527   2.701   9.749  0.7218  1.5887 -2.8216
  129TMC2    C1 2003   0.269   3.104   0.878 -0.2782 -0.2482 -0.0322
  129TMC2    C2 2004   0.228   3.201   0.963 -0.4105 -0.1905  0.1801
  129TMC2    C3 2005   0.099   3.198   1.016 -0.9035 -0.3840 -0.0091
  129TMC2    C4 2006   0.189   3.001   0.832 -0.3208 -0.0157  0.3073
  129TMC2    C5 2007   0.068   2.993   0.902 -0.0248  0.2446  0.2746
  129TMC2    C6 2008   0.015   3.091   0.984  0.0108 -0.0621 -0.2553
  129TMC2     C 2009   0.404   3.096   0.826 -0.1274 -0.1561  0.8025
  129TMC2     O 2010   0.429   3.000   0.751  0.0235  0.7108 -0.8423
  129TMC2     H 2011   0.292   3.285   0.987 -0.6211 -0.4625  1.7269
  129TMC2    H1 2012   0.233   2.924   0.770  0.8400  1.6025 -0.9052
  129TMC2    H2 2013   4.654   3.078   1.025  0.5774  0.4355  1.2580
  129TMC2    C7 2014   4.725   2.874   0.886  0.0533 -0.6216  0.1849
  129TMC2    C8 2015   0.063   3.310   1.100  0.0209 -0.6682 -0.8421
  129TMC2    O1 2016   4.603   2.885   0.887 -0.0463 -0.2338 -0.5892
  129TMC2    O2 2017   0.146   3.394   1.133 -0.0559 -0.2241  0.1941
  129TMC2    O5 2018   4.707   3.261   1.182  0.3015 -0.3620 -0.3466
  129TMC2    H5 2019   4.640   3.204   1.140 -0.3970 -0.8145  1.3738
  130MPD2     C 2020   0.701   3.025   0.856 -0.3754 -0.3475 -0.3166
  130MPD2    C1 2021   0.635   3.147   0.893  0.6102  0.2610  0.7262
  130MPD2    C2 2022   0.710   3.257   0.941 -0.5944 -0.0614 -0.3388
  130MPD2    C3 2023   0.847   3.239   0.952  0.3324 -0.8219 -0.5519
  130MPD2    C4 2024   0.910   3.126   0.905  0.0065  0.0707 -0.2636
  130MPD2    C5 2025   0.837   3.025   0.852  0.1622 -0.4268  0.1614
  130MPD2     H 2026   0.672   3.358   0.952  0.2575 -0.0121  2.0800
  130MPD2    H1 2027   1.018   3.118   0.896 -0.0491  1.1618 -1.8735
  130MPD2    H2 2028   0.648   2.934   0.832 -0.1903 -0.8207  1.0603
  130MPD2    H3 2029   0.893   2.939   0.817 -0.4851 -1.8670  2.6442
  130MPD2     N 2030   0.930   3.350   0.975 -0.8568  0.0497 -0.0006
  130MPD2    H5 2031   0.886   3.433   1.013  0.6182 -0.3076  2.5383
  130MPD2    N1 2032   0.493   3.173   0.894  0.1815  0.3143  0.0455
  130MPD2    H7 2033   0.458   3.254   0.945 -2.9984  0.1851 -1.9167
  131TMC2    C1 2034   3.083   2.741   9.374  0.2819  0.0809 -0.6568
  131TMC2    C2 2035   2.972   2.808   9.327  0.2836 -0.5749  0.4216
  131TMC2    C3 2036   2.977   2.939   9.301 -0.0671 -0.3261  0.0297
  131TMC2    C4 2037   3.201   2.812   9.388 -0.1310 -0.5711  0.1809
  131TMC2    C5 2038   3.202   2.941   9.376  1.2127 -0.0268 -0.1067
  131TMC2    C6 2039   3.090   3.013   9.336  0.2132 -0.3127  0.5330
  131TMC2     C 2040   3.063   2.624   9.454 -0.7263 -0.6055  0.8523
  131TMC2     O 2041   3.158   2.584   9.517 -0.0931  0.4783  0.1432
  131TMC2     H 2042   2.883   2.747   9.316 -0.7137  0.8786  0.3672
  131TMC2    H1 2043   3.289   2.760   9.421  2.3351  3.3268 -0.2920
  131TMC2    H2 2044   3.086   3.121   9.338  1.7672 -0.1791 -2.5518
  131TMC2    C7 2045   3.304   3.008   9.456 -0.1870  0.5281 -0.2155
  131TMC2    C8 2046   2.855   3.006   9.282  0.2881 -0.6118  0.4001
  131TMC2    O1 2047   3.378   2.937   9.523 -0.3260 -0.1568 -0.1570
  131TMC2    O2 2048   2.828   3.119   9.322 -0.2645  0.4464 -0.4296
  131TMC2    O5 2049   2.770   2.937   9.208 -0.0221 -0.8158 -0.2896
  131TMC2    H5 2050   2.813   2.865   9.157  0.6364  3.0036 -5.1371
  132MPD2     C 2051   2.758   2.431   9.507  0.8400 -0.2105  0.0970
  132MPD2    C1 2052   2.883   2.473   9.545 -0.8337 -0.0794 -0.0660
  132MPD2    C2 2053   2.954   2.403   9.638  0.3643 -0.1294  0.4345
  132MPD2    C3 2054   2.896   2.298   9.702 -0.7109  0.3220 -0.3922
  132MPD2    C4 2055   2.782   2.244   9.659  0.2815 -0.2120 -0.5271
  132MPD2    C5 2056   2.715   2.316   9.563 -0.6101 -0.3799 -0.6485
  132MPD2     H 2057   3.047   2.448   9.673 -2.3802  2.5123  4.3082
  132MPD2    H1 2058   2.720   2.177   9.717 -0.5129  0.1006 -1.0008
  132MPD2    H2 2059   2.711   2.475   9.420 -1.5418 -1.2112  0.9001
  132MPD2    H3 2060   2.615   2.277   9.545 -1.3345  1.9526 -1.8053
  132MPD2     N 2061   2.980   2.242   9.802 -0.2347  0.4052 -0.0814
  132MPD2    H5 2062   3.056   2.299   9.837  0.0912  1.5121 -2.6007
  132MPD2    N1 2063   2.938   2.572   9.455 -0.1463  0.2413  0.1605
  132MPD2    H7 2064   2.873   2.595   9.380  2.0143  1.9694 -1.2010
  133TMC2    C1 2065   2.224   4.096   9.518 -0.3569  0.9636  0.3495
  133TMC2    C2 2066   2.361   4.105   9.514 -0.6339 -0.9088  0.0608
  133TMC2    C3 2067   2.424   4.217   9.554  0.1181  0.3453  0.5883
  133TMC2    C4 2068   2.153   4.194   9.578 -0.2607  0.6685  0.3281
  133TMC2    C5 2069   2.223   4.300   9.630 -0.5770  0.2358  0.0994
  133TMC2    C6 2070   2.352   4.318   9.609 -0.2237  0.5628  0.0063
  133TMC2     C 2071   2.171   3.966   9.480 -0.4465  0.2954  0.1713
  133TMC2     O 2072   2.245   3.871   9.481  0.8785 -0.1453 -0.4739
  133TMC2     H 2073   2.410   4.018   9.472  1.3789  1.3841 -2.3547
  133TMC2    H1 2074   2.045   4.201   9.591 -0.1811 -0.6129  1.6543
  133TMC2    H2 2075   2.405   4.411   9.630 -0.0739  1.0502 -2.5249
  133TMC2    C7 2076   2.141   4.423   9.667 -0.0772 -0.3776 -0.5364
  133TMC2    C8 2077   2.570   4.221   9.547 -0.4391 -0.4503  0.2270
  133TMC2    O1 2078   2.044   4.448   9.602  0.0093  0.2585 -0.5954
  133TMC2    O2 2079   2.638   4.267   9.634 -0.2719 -0.4824 -0.7128
  133TMC2    O5 2080   2.608   4.143   9.450 -0.0340 -0.5381 -0.7025
  133TMC2    H5 2081   2.542   4.122   9.381  0.4550 -0.3263 -1.2383
  134MPD2     C 2082   1.840   3.890   9.343 -0.5846 -0.3497  0.6720
  134MPD2    C1 2083   1.969   3.854   9.386  0.9183  0.2479 -0.4521
  134MPD2    C2 2084   2.003   3.728   9.404  0.3441 -0.2744 -0.4664
  134MPD2    C3 2085   1.902   3.629   9.377  0.1007  0.0742  0.0127
  134MPD2    C4 2086   1.784   3.657   9.314  0.2267 -0.2660  0.0340
  134MPD2    C5 2087   1.752   3.788   9.307  0.8823  0.2165 -0.4539
  134MPD2     H 2088   2.093   3.703   9.458  0.6837 -1.9581 -1.8040
  134MPD2    H1 2089   1.709   3.584   9.286 -0.0180  0.9303 -2.4005
  134MPD2    H2 2090   1.798   3.990   9.337  1.4843  0.4657 -0.1701
  134MPD2    H3 2091   1.657   3.819   9.264 -0.1070 -0.3813  1.2907
  134MPD2     N 2092   1.932   3.495   9.403  0.1388 -0.1100 -0.2444
  134MPD2    H5 2093   1.860   3.428   9.379  0.7897 -1.5017  1.6914
  134MPD2    N1 2094   2.049   3.970   9.425 -0.4935 -0.6300  0.2728
  134MPD2    H7 2095   2.002   4.059   9.419  0.5533 -0.1804 -1.3034
  135TMC2    C1 2096   4.652   0.197   9.345  0.7752  0.1093  0.5960
  135TMC2    C2 2097   4.516   0.194   9.350  0.3502 -0.1692 -0.0103
  135TMC2    C3 2098   4.449   0.092   9.407 -0.0402  0.2617 -0.4149
  135TMC2    C4 2099   4.725   0.091   9.389 -0.0580  0.1330  0.6196
  135TMC2    C5 2100   4.655   4.725   9.440 -0.8624 -0.2341 -0.0100
  135TMC2    C6 2101   4.516   4.714   9.441 -0.0228  0.3177 -1.3102
  135TMC2     C 2102   4.715   0.308   9.271  0.0562 -0.1234  0.3724
  135TMC2     O 2103   4.643   0.394   9.230 -0.2965 -0.2723 -0.9165
  135TMC2     H 2104   4.467   0.276   9.299 -0.7382 -0.4049  0.6493
  135TMC2    H1 2105   0.095   0.086   9.394 -0.1352  1.9558  4.1209
  135TMC2    H2 2106   4.469   4.630   9.491  0.7300  0.4024 -0.4473
  135TMC2    C7 2107   0.008   4.619   9.482  0.8940  0.7879  0.1944
  135TMC2    C8 2108   4.307   0.079   9.389 -0.2853 -0.3789  0.2891
  135TMC2    O1 2109   0.131   4.625   9.475 -0.0682  0.0366 -0.3481
  135TMC2    O2 2110   4.258   4.701   9.393  0.0081  0.2627 -0.6163
  135TMC2    O5 2111   4.247   0.196   9.411 -0.6438  0.1026 -0.0624
  135TMC2    H5 2112   4.306   0.272   9.428  0.5912 -0.4644 -1.7910
  136MPD2     C 2113   0.161   0.511   9.178 -0.5334 -0.0347  0.7049
  136MPD2    C1 2114   0.200   0.382   9.207 -0.5142  0.2569 -0.4058
  136MPD2    C2 2115   0.334   0.352   9.183  0.4965  0.3740 -0.2255
  136MPD2    C3 2116   0.422   0.441   9.132 -0.0107  0.4449 -0.4505
  136MPD2    C4 2117   0.373   0.559   9.089  0.0372  0.7196 -0.2490
  136MPD2    C5 2118   0.250   0.597   9.117  0.3451  0.2201  0.5269
  136MPD2     H 2119   0.366   0.250   9.199 -1.8368 -0.6386 -1.9747
  136MPD2    H1 2120   0.429   0.636   9.036  0.0903  0.7707 -0.1195
  136MPD2    H2 2121   0.063   0.556   9.195 -0.7568 -0.9718  1.9256
  136MPD2    H3 2122   0.216   0.698   9.096  0.2823  0.3316  1.1488
  136MPD2     N 2123   0.557   0.415   9.106  1.0086 -0.4997 -0.1493
  136MPD2    H5 2124   0.612   0.486   9.059  2.2820 -1.8240 -0.6738
  136MPD2    N1 2125   0.110   0.289   9.261 -0.6851 -0.2502 -0.5083
  136MPD2    H7 2126   0.142   0.200   9.298  0.8276  0.1684 -0.8087
  137TMC2    C1 2127   4.500   3.674   9.148 -0.4167 -0.2209  1.2394
  137TMC2    C2 2128   4.535   3.801   9.187 -0.2456  0.2300 -0.0265
  137TMC2    C3 2129   4.455   3.907   9.165  0.1708  0.2469 -0.6623
  137TMC2    C4 2130   4.387   3.645   9.077 -0.1162  0.1625 -0.3904
  137TMC2    C5 2131   4.304   3.758   9.065 -0.4437  0.5231  0.0544
  137TMC2    C6 2132   4.341   3.883   9.100 -0.0356 -0.1960 -0.2061
  137TMC2     C 2133   4.558   3.560   9.220  0.3686 -0.2294  0.1260
  137TMC2     O 2134   4.496   3.457   9.216 -0.0646 -0.6022 -0.1784
  137TMC2     H 2135   4.626   3.818   9.243 -0.2258 -1.4306  0.4519
  137TMC2    H1 2136   4.348   3.545   9.067 -1.4931  0.8784 -2.2135
  137TMC2    H2 2137   4.291   3.969   9.059 -0.7519 -0.8240 -0.6442
  137TMC2    C7 2138   4.182   3.732   8.995  0.1765 -0.1186  0.0837
  137TMC2    C8 2139   4.474   4.031   9.244 -0.2937 -0.1500  0.0991
  137TMC2    O1 2140   4.177   3.625   8.936  0.4800  0.3740  0.1682
  137TMC2    O2 2141   4.586   4.066   9.282 -0.4030 -0.6582 -0.1318
  137TMC2    O5 2142   4.368   4.106   9.249  0.0751 -0.0533  0.6616
  137TMC2    H5 2143   4.281   4.073   9.217  0.8141 -0.1464 -1.2399
  138MPD2     C 2144   0.113   3.582   9.417  0.2712  0.6112  0.4949
  138MPD2    C1 2145   4.732   3.535   9.382  0.1061 -0.0709 -0.6739
  138MPD2    C2 2146   4.664   3.446   9.451 -0.6191 -0.5220  1.0677
  138MPD2    C3 2147   4.732   3.386   9.556  0.0950  0.6091  0.2659
  138MPD2    C4 2148   0.122   3.429   9.584 -0.1268 -0.4927 -1.2787
  138MPD2    C5 2149   0.172   3.532   9.529 -0.5327  0.2964 -0.8928
  138MPD2     H 2150   4.559   3.423   9.434 -0.8460  2.5150 -1.6442
  138MPD2    H1 2151   0.171   3.390   9.672 -0.4568 -0.9927 -1.3109
  138MPD2    H2 2152   0.168   3.659   9.364 -2.4408  0.1536 -2.9635
  138MPD2    H3 2153   0.271   3.568   9.551 -0.7501  0.2729  0.1564
  138MPD2     N 2154   4.656   3.293   9.633  0.2981 -0.4969  0.0804
  138MPD2    H5 2155   4.560   3.268   9.611  0.5705 -0.7901 -0.7984
  138MPD2    N1 2156   4.678   3.594   9.272 -0.4970  0.6411  0.5192
  138MPD2    H7 2157   4.738   3.668   9.237 -0.3465 -0.0770 -0.7580
  139TMC2    C1 2158   0.130   1.481  13.270  0.4397  0.0204  0.0549
  139TMC2    C2 2159   0.062   1.450  13.155 -0.8968  0.4907  0.3343
  139TMC2    C3 2160   4.674   1.506  13.155 -0.1960 -0.0767 -0.4651
  139TMC2    C4 2161   0.082   1.545  13.381  0.6410  0.6148 -0.1809
  139TMC2    C5 2162   4.700   1.593  13.360  0.2557 -0.0619 -0.7099
  139TMC2    C6 2163   4.621   1.574  13.252 -0.1319  0.0857  0.1593
  139TMC2     C 2164   0.271   1.480  13.268  0.2006  0.2925 -0.5527
  139TMC2     O 2165   0.332   1.514  13.370  0.1784  0.0647 -0.1382
  139TMC2     H 2166   0.096   1.387  13.074  1.9726  1.3643  0.8457
  139TMC2    H1 2167   0.143   1.578  13.464 -1.6076 -0.0220  1.7193
  139TMC2    H2 2168   4.530   1.628  13.231 -0.8557 -0.9502  0.6205
  139TMC2    C7 2169   4.655   1.687  13.461  0.0818  0.2145 -0.8327
  139TMC2    C8 2170   4.605   1.492  13.026 -0.4898 -0.4917 -0.2027
  139TMC2    O1 2171   4.582   1.778  13.421  0.1641  0.1062 -0.8399
  139TMC2    O2 2172   4.668   1.479  12.922 -0.5066  0.1958 -0.3104
  139TMC2    O5 2173   4.472   1.475  13.041 -0.2496  0.0495 -0.1195
  139TMC2    H5 2174   4.427   1.492  13.126 -0.1190 -0.4672  0.0487
  140MPD2     C 2175   0.496   1.560  13.015  0.2162 -0.2570  0.1030
  140MPD2    C1 2176   0.463   1.497  13.128  0.2004 -0.7553 -0.1236
  140MPD2    C2 2177   0.555   1.470  13.223 -0.4157  0.5694 -0.5577
  140MPD2    C3 2178   0.684   1.517  13.198 -0.2643 -0.3323  0.3941
  140MPD2    C4 2179   0.721   1.574  13.082  0.5579 -0.1708  0.4040
  140MPD2    C5 2180   0.625   1.590  12.990  0.1310  0.5131 -0.3735
  140MPD2     H 2181   0.540   1.416  13.316  1.3074  0.0707 -0.5752
  140MPD2    H1 2182   0.821   1.606  13.057  0.1722  0.4449 -0.3747
  140MPD2    H2 2183   0.421   1.581  12.939 -0.4291 -0.4135  0.7003
  140MPD2    H3 2184   0.653   1.631  12.894 -0.0336  0.4775 -0.4377
  140MPD2     N 2185   0.767   1.527  13.309 -0.4079 -0.1932 -0.3796
  140MPD2    H5 2186   0.731   1.482  13.393 -1.3589  0.0241 -0.6657
  140MPD2    N1 2187   0.326   1.459  13.143 -0.2864  0.7852 -0.2609
  140MPD2    H7 2188   0.263   1.464  13.064 -1.7682 -0.2293  0.8524
  141TMC2    C1 2189   1.318   2.966  13.684 -0.1117  0.0801  0.6512
  141TMC2    C2 2190   1.269   2.962  13.815 -0.1816 -0.1452  0.6203
  141TMC2    C3 2191   1.286   3.072  13.895  0.1572  0.4659  0.1459
  141TMC2    C4 2192   1.377   3.075  13.635 -0.4696 -0.1026  0.0123
  141TMC2    C5 2193   1.406   3.181  13.721  0.1536 -0.0849 -0.0216
  141TMC2    C6 2194   1.353   3.183  13.845 -0.2899  0.1851 -0.7346
  141TMC2     C 2195   1.269   2.869  13.595 -1.0499 -0.1876 -0.4269
  141TMC2     O 2196   1.260   2.897  13.477 -0.0585 -0.2369 -0.3713
  141TMC2     H 2197   1.199   2.888  13.853 -1.5765  0.9240  0.1136
  141TMC2    H1 2198   1.410   3.072  13.532  0.4622 -0.4057  0.3193
  141TMC2    H2 2199   1.349   3.267  13.913  0.1158 -1.2965  1.1346
  141TMC2    C7 2200   1.477   3.299  13.662  0.2600  0.3581 -0.3280
  141TMC2    C8 2201   1.263   3.062  14.037 -0.5028 -0.3679 -0.2206
  141TMC2    O1 2202   1.481   3.305  13.539 -0.0998  0.5179  0.0416
  141TMC2    O2 2203   1.256   3.159  14.111 -0.1096  0.9180 -0.4669
  141TMC2    O5 2204   1.270   2.930  14.065 -0.2161 -0.2727 -0.3780
  141TMC2    H5 2205   1.290   2.865  13.994 -2.1876 -0.8122 -0.4397
  142TMC2    C1 2206   3.710   1.537  10.375  0.3288 -0.3315 -0.2928
  142TMC2    C2 2207   3.731   1.467  10.491  0.2986 -0.4266  0.2727
  142TMC2    C3 2208   3.846   1.504  10.562 -0.4895  0.5034 -0.1244
  142TMC2    C4 2209   3.800   1.622  10.326 -0.0368 -0.0138  1.0896
  142TMC2    C5 2210   3.914   1.645  10.391  0.1259  0.3330  0.1445
  142TMC2    C6 2211   3.941   1.590  10.513  0.3150 -0.5820 -0.3092
  142TMC2     C 2212   3.594   1.499  10.294 -0.2223  0.1686 -0.7261
  142TMC2     O 2213   3.561   1.384  10.311  0.7684 -0.2639  0.0186
  142TMC2     H 2214   3.649   1.403  10.518 -0.8543  1.0852  0.3580
  142TMC2    H1 2215   3.774   1.668  10.231 -3.2397 -2.9650  0.5151
  142TMC2    H2 2216   4.026   1.616  10.576  0.2766 -0.0452 -0.4785
  142TMC2    C7 2217   4.026   1.692  10.302  0.1900  0.4657  0.4410
  142TMC2    C8 2218   3.890   1.435  10.687  0.0685 -0.8723 -0.2900
  142TMC2    O1 2219   3.986   1.737  10.194 -0.2874  0.8106  0.7635
  142TMC2    O2 2220   4.012   1.423  10.706  0.4739  0.3715 -0.0914
  142TMC2    O5 2221   3.803   1.338  10.702 -0.2561 -0.5836  0.3011
  142TMC2    H5 2222   3.716   1.369  10.668  0.2680  1.4879  0.8201
  143MPD2     C 2223   3.255   1.594   9.925 -1.4747 -0.1411  0.5425
  143MPD2    C1 2224   3.248   1.502  10.028  0.0901  0.5247  0.3445
  143MPD2    C2 2225   3.350   1.496  10.124  0.2294 -0.5269 -0.3134
  143MPD2    C3 2226   3.453   1.590  10.125 -0.4211  0.4264 -0.2373
  143MPD2    C4 2227   3.451   1.687  10.017  0.1538 -0.1098  0.3482
  143MPD2    C5 2228   3.352   1.689   9.921 -0.0916 -0.0317 -0.0728
  143MPD2     H 2229   3.347   1.424  10.205  0.5645 -0.6665 -0.4238
  143MPD2    H1 2230   3.533   1.757  10.004  1.8491 -2.1417  0.0771
  143MPD2    H2 2231   3.173   1.607   9.855 -0.8754 -1.6124 -0.4427
  143MPD2    H3 2232   3.344   1.774   9.853  2.6859 -1.1916 -1.8250
  143MPD2     N 2233   3.550   1.598  10.218 -0.7069 -0.5368 -0.2752
  143MPD2    H5 2234   3.598   1.686  10.235 -3.7658  0.9575  0.6740
  143MPD2    N1 2235   3.140   1.412  10.016  0.3751 -0.2275 -0.4619
  143MPD2    H7 2236   3.086   1.422   9.931 -0.3041 -0.6910 -0.0808
  144TMC2    C1 2237   1.705   0.177   0.876 -0.0999 -0.4221 -0.2714
  144TMC2    C2 2238   1.691   0.046   0.851 -0.5133 -0.0237  0.0431
  144TMC2    C3 2239   1.800   4.708   0.845 -0.4970 -0.0190  0.0890
  144TMC2    C4 2240   1.820   0.236   0.914  0.4927  0.0391  0.2210
  144TMC2    C5 2241   1.930   0.149   0.915  0.2565  0.3383 -0.6431
  144TMC2    C6 2242   1.923   0.017   0.886  0.3473 -0.0387  0.1488
  144TMC2     C 2243   1.598   0.264   0.844  0.1120  0.2962  0.2787
  144TMC2     O 2244   1.542   0.230   0.739  0.2889 -0.5384  0.2047
  144TMC2     H 2245   1.591   0.009   0.830 -0.0011 -0.2216 -1.9967
  144TMC2    H1 2246   1.833   0.341   0.936  2.4935 -0.1072 -0.2993
  144TMC2    H2 2247   2.010   4.692   0.872 -1.1957 -2.0512 -0.4960
  144TMC2    C7 2248   2.059   0.197   0.949  0.2665 -0.4579 -0.6152
  144TMC2    C8 2249   1.798   4.565   0.797 -0.0226 -0.4282 -0.1144
  144TMC2    O1 2250   2.158   0.132   0.916 -0.6142  0.2840  0.2046
  144TMC2    O2 2251   1.895   4.522   0.735  0.2423  0.6323  0.3825
  144TMC2    O5 2252   1.672   4.523   0.783  0.0201  0.4045 -0.0307
  144TMC2    H5 2253   1.605   4.571   0.835  1.4946  2.0411  0.3331
  145MPD2     C 2254   1.375   0.727   0.846 -0.1705 -0.5657 -0.1372
  145MPD2    C1 2255   1.375   0.625   0.752  0.1496  0.6272  0.2643
  145MPD2    C2 2256   1.436   0.505   0.774  0.0644  0.4363  0.2224
  145MPD2    C3 2257   1.496   0.487   0.897 -0.0812  0.0192  0.1837
  145MPD2    C4 2258   1.478   0.577   0.998  0.8837 -0.3462  0.3198
  145MPD2    C5 2259   1.417   0.701   0.971  0.1427 -0.4124  0.1251
  145MPD2     H 2260   1.447   0.428   0.698  1.0298  2.3023 -1.5261
  145MPD2    H1 2261   1.516   0.580   1.099  1.1075 -2.3830  0.2893
  145MPD2    H2 2262   1.333   0.824   0.823 -1.7986 -1.5432 -1.2871
  145MPD2    H3 2263   1.413   0.772   1.053  1.2734  1.1717 -1.1936
  145MPD2     N 2264   1.580   0.379   0.924  0.0101  0.4485 -0.0848
  145MPD2    H5 2265   1.636   0.382   1.009  0.6471  1.2745 -0.5353
  145MPD2    N1 2266   1.328   0.634   0.617  0.2902 -0.3307  0.1651
  145MPD2    H7 2267   1.324   0.543   0.571  2.4064 -1.4320  2.2037
  146TMC2    C1 2268   3.365   4.183  12.623 -0.2744  0.5498  0.0038
  146TMC2    C2 2269   3.318   4.260  12.514  0.2382 -0.2992 -0.2216
  146TMC2    C3 2270   3.369   4.236  12.387 -0.0867  0.5408  0.0827
  146TMC2    C4 2271   3.462   4.090  12.591  0.6470  0.5500 -0.5554
  146TMC2    C5 2272   3.519   4.072  12.468 -0.5122  0.6614  0.2438
  146TMC2    C6 2273   3.470   4.152  12.365  0.0918  0.4024 -0.1902
  146TMC2     C 2274   3.311   4.217  12.752  0.2738 -0.1981  0.2159
  146TMC2     O 2275   3.232   4.312  12.754 -0.0354 -0.2585 -0.1300
  146TMC2     H 2276   3.241   4.335  12.529 -0.2160 -0.8954  0.4059
  146TMC2    H1 2277   3.492   4.020  12.668  1.2351  1.1460 -0.2474
  146TMC2    H2 2278   3.499   4.129  12.263  1.0242  1.3505 -0.1453
  146TMC2    C7 2279   3.615   3.975  12.429  0.3340  0.6689 -0.5618
  146TMC2    C8 2280   3.337   4.331  12.281 -0.2386  0.0392 -0.3267
  146TMC2    O1 2281   3.662   3.984  12.319  0.3879  0.5605  0.0845
  146TMC2    O2 2282   3.423   4.385  12.214  0.1047 -0.4412 -0.2835
  146TMC2    O5 2283   3.211   4.369  12.297  0.3724  0.3968  0.1004
  146TMC2    H5 2284   3.170   4.305  12.359  0.3634  1.5464  1.2796
  147MPD2     C 2285   3.948   3.586  12.533  0.1989  0.6751  0.4721
  147MPD2    C1 2286   3.846   3.595  12.628 -0.0987 -0.3495 -0.1749
  147MPD2    C2 2287   3.743   3.690  12.620 -0.3090  0.0208  0.8846
  147MPD2    C3 2288   3.744   3.788  12.527 -0.6928  0.0146  0.1573
  147MPD2    C4 2289   3.851   3.799  12.444 -0.4285 -0.1901  0.5140
  147MPD2    C5 2290   3.950   3.697  12.449 -0.0215 -0.7190  0.2731
  147MPD2     H 2291   3.668   3.688  12.698 -0.5157  1.2554  0.7040
  147MPD2    H1 2292   3.868   3.884  12.379  2.0548 -1.3806 -0.3680
  147MPD2    H2 2293   4.019   3.504  12.526  0.6636  1.0043  1.4629
  147MPD2    H3 2294   4.025   3.712  12.372  0.7276 -0.3492  1.0722
  147MPD2     N 2295   3.634   3.877  12.527  0.0388  0.1754 -0.0128
  147MPD2    H5 2296   3.557   3.854  12.588 -0.3685 -1.0595 -0.9950
  147MPD2    N1 2297   3.853   3.501  12.734  0.4823 -0.0132  0.8430
  147MPD2    H7 2298   3.930   3.435  12.726  1.0766  0.9114 -1.2121
  148TMC2    C1 2299   3.621   3.083  10.129 -0.1362 -0.6868 -0.0402
  148TMC2    C2 2300   3.688   3.083  10.013 -0.0339 -0.0479 -0.4806
  148TMC2    C3 2301   3.743   2.967   9.964  0.1321 -0.2834 -0.4097
  148TMC2    C4 2302   3.604   2.965  10.202  0.2390 -0.1894 -0.0168
  148TMC2    C5 2303   3.665   2.852  10.151 -0.4768 -1.1200 -0.3371
  148TMC2    C6 2304   3.734   2.851  10.035 -0.4658 -0.4239  0.2377
  148TMC2     C 2305   3.523   3.186  10.151 -0.0642  0.1926 -0.3343
  148TMC2     O 2306   3.550   3.307  10.150 -0.4036 -0.4162 -0.3318
  148TMC2     H 2307   3.693   3.180   9.965 -2.0577  0.3130  0.0532
  148TMC2    H1 2308   3.555   2.960  10.298  0.0345 -0.9354 -0.1601
  148TMC2    H2 2309   3.752   2.756   9.986  1.2120 -0.1683  0.3600
  148TMC2    C7 2310   3.591   2.735  10.192 -0.6668 -0.3720  0.1801
  148TMC2    C8 2311   3.822   2.965   9.846  0.0019  0.0435 -0.0716
  148TMC2    O1 2312   3.481   2.750  10.247  0.5347  0.2091 -0.8984
  148TMC2    O2 2313   3.861   2.858   9.794 -0.3081 -0.0280 -0.2126
  148TMC2    O5 2314   3.791   3.080   9.777 -0.7768  0.1371  0.3715
  148TMC2    H5 2315   3.809   3.165   9.824  2.9366 -1.8485  2.5491
  149MPD2     C 2316   3.258   3.309  10.219  0.9745  0.6926 -0.4831
  149MPD2    C1 2317   3.281   3.177  10.202  0.1176  0.6279 -0.0211
  149MPD2    C2 2318   3.176   3.088  10.208  0.3965  0.3835 -0.3528
  149MPD2    C3 2319   3.046   3.135  10.248 -0.0142 -0.1851  0.1176
  149MPD2    C4 2320   3.027   3.271  10.267  0.1913  0.2194 -0.0556
  149MPD2    C5 2321   3.139   3.357  10.258  0.0046  0.5409  0.4368
  149MPD2     H 2322   3.205   2.986  10.185  0.6099  0.1873  0.7933
  149MPD2    H1 2323   2.934   3.319  10.297 -0.2443  0.2473 -1.4540
  149MPD2    H2 2324   3.331   3.386  10.194 -0.8275  2.4629 -0.3258
  149MPD2    H3 2325   3.124   3.461  10.288 -0.3742 -0.0901  2.4402
  149MPD2     N 2326   2.937   3.048  10.261  0.1781  0.4102 -0.1607
  149MPD2    H5 2327   2.848   3.092  10.283 -1.2078 -0.4949 -4.0124
  149MPD2    N1 2328   3.406   3.121  10.176 -0.2612  0.3233 -0.0209
  149MPD2    H7 2329   3.416   3.022  10.159 -0.8073  0.4011 -0.7777
  150TMC2    C1 2330   0.595   2.222  11.801  0.9799 -0.5201 -0.4267
  150TMC2    C2 2331   0.564   2.299  11.690 -0.4313  0.0051  0.7754
  150TMC2    C3 2332   0.640   2.411  11.671  0.3652  0.0251 -0.0186
  150TMC2    C4 2333   0.703   2.243  11.880  0.6932  0.3992 -0.0860
  150TMC2    C5 2334   0.773   2.359  11.858 -0.3616 -0.4077  0.4410
  150TMC2    C6 2335   0.735   2.445  11.757  0.1941  0.5144  0.6425
  150TMC2     C 2336   0.534   2.091  11.808 -0.2877 -0.2602  0.4430
  150TMC2     O 2337   0.600   2.003  11.861 -0.1328 -0.0368 -0.3024
  150TMC2     H 2338   0.495   2.267  11.612  2.2144 -1.5059 -0.9213
  150TMC2    H1 2339   0.730   2.177  11.962  0.0658 -0.1204 -0.2985
  150TMC2    H2 2340   0.792   2.535  11.739  2.4051 -0.5837  2.1619
  150TMC2    C7 2341   0.875   2.408  11.946  0.2996  0.9116 -0.7974
  150TMC2    C8 2342   0.594   2.513  11.586 -0.0896 -0.1624  0.6357
  150TMC2    O1 2343   0.916   2.520  11.935  0.0315 -0.3577 -0.6820
  150TMC2    O2 2344   0.660   2.614  11.567  0.5961  0.6017  0.0617
  150TMC2    O5 2345   0.464   2.516  11.603 -0.2296 -0.3374  0.6219
  150TMC2    H5 2346   0.410   2.437  11.626 -0.3694 -0.7214 -1.0491
  151MPD2     C 2347   0.144   1.749  11.751  0.8170  0.5030 -0.1841
  151MPD2    C1 2348   0.098   1.871  11.704 -0.1569 -0.2631 -0.2114
  151MPD2    C2 2349   0.182   1.988  11.710 -0.4170 -0.0676  0.5579
  151MPD2    C3 2350   0.310   1.974  11.767 -0.3953 -0.1839  0.3856
  151MPD2    C4 2351   0.348   1.849  11.817  0.7497  0.4617 -0.6325
  151MPD2    C5 2352   0.266   1.743  11.801 -0.5459 -1.2841 -0.5417
  151MPD2     H 2353   0.147   2.086  11.678 -0.8419  0.3847  2.3924
  151MPD2    H1 2354   0.449   1.836  11.853  1.0625  1.0705 -1.3009
  151MPD2    H2 2355   0.090   1.657  11.733  0.3950  0.1707  2.8374
  151MPD2    H3 2356   0.294   1.646  11.842 -1.1278 -1.8689 -1.5403
  151MPD2     N 2357   0.393   2.091  11.772 -0.3421  0.2141  0.1943
  151MPD2    H5 2358   0.352   2.172  11.728 -0.2149  0.5926  0.7715
  151MPD2    N1 2359   4.705   1.858  11.648  0.5415  0.2408  0.0966
  151MPD2    H7 2360   4.658   1.771  11.671  0.8644 -0.5490 -2.1917
  152TMC2    C1 2361   0.184   1.768  12.757 -0.4736 -0.5513 -0.2812
  152TMC2    C2 2362   0.134   1.785  12.883 -0.0312  0.1339  0.6977
  152TMC2    C3 2363   0.214   1.859  12.969  0.1358  0.0059 -0.0780
  152TMC2    C4 2364   0.313   1.799  12.720 -0.0762  1.2726 -0.5286
  152TMC2    C5 2365   0.383   1.865  12.811 -0.6435  0.0261  0.7176
  152TMC2    C6 2366   0.334   1.910  12.930  0.4185 -0.2178  0.5978
  152TMC2     C 2367   0.101   1.716  12.647  0.1862 -0.6263 -0.9374
  152TMC2     O 2368   0.140   1.748  12.536  0.2736  0.4982 -0.1528
  152TMC2     H 2369   0.030   1.761  12.904 -0.3798  0.6954 -0.3889
  152TMC2    H1 2370   0.351   1.761  12.626  0.4203 -1.9923  1.0083
  152TMC2    H2 2371   0.389   1.983  12.989  0.1559  1.2507 -0.9435
  152TMC2    C7 2372   0.524   1.894  12.769 -0.6645 -0.4174  0.2150
  152TMC2    C8 2373   0.162   1.883  13.101  0.0107 -0.8097  0.3942
  152TMC2    O1 2374   0.542   1.905  12.643  0.1828 -0.7238 -0.0139
  152TMC2    O2 2375   0.045   1.855  13.131  0.0476 -0.2458  0.3064
  152TMC2    O5 2376   0.261   1.859  13.186 -0.2611 -0.0369 -0.2516
  152TMC2    H5 2377   0.346   1.891  13.150 -0.1077  0.1279  0.2550
  153MPD2     C 2378   4.542   1.506  12.627  0.0037  0.1440  0.0631
  153MPD2    C1 2379   4.638   1.595  12.590  0.4856 -0.1038  1.1524
  153MPD2    C2 2380   4.628   1.654  12.464  0.0831  0.4655 -0.3642
  153MPD2    C3 2381   4.533   1.615  12.377  0.3550 -0.6136 -0.0471
  153MPD2    C4 2382   4.440   1.522  12.408  0.3194  0.3463 -0.9008
  153MPD2    C5 2383   4.450   1.468  12.532  0.3774  0.0205  0.0137
  153MPD2     H 2384   4.689   1.738  12.434  1.6194 -0.1465  1.0365
  153MPD2    H1 2385   4.365   1.476  12.344 -1.5289  0.6009  1.0759
  153MPD2    H2 2386   4.541   1.453  12.722 -2.6511 -0.7466 -0.4541
  153MPD2    H3 2387   4.402   1.377  12.566  1.9427 -1.5387 -1.9321
  153MPD2     N 2388   4.530   1.688  12.258  0.2015 -0.6345  0.1925
  153MPD2    H5 2389   4.607   1.752  12.245 -0.0676 -0.4543 -0.5393
  153MPD2    N1 2390   4.730   1.640  12.686  0.1381  0.8929 -0.4280
  153MPD2    H7 2391   4.722   1.593  12.776 -1.1464 -1.3521 -1.7337
  154TMC2    C1 2392   2.109   1.916   0.747 -0.0080 -0.5502  0.2133
  154TMC2    C2 2393   2.155   1.815   0.824 -0.0189 -0.5330 -0.4485
  154TMC2    C3 2394   2.230   1.718   0.767 -0.6108  0.1775 -0.2436
  154TMC2    C4 2395   2.142   1.925   0.615  0.0634  0.0300  0.6499
  154TMC2    C5 2396   2.197   1.815   0.554  0.0849  0.1633  0.3355
  154TMC2    C6 2397   2.239   1.711   0.629 -0.7079  0.1441 -0.0959
  154TMC2     C 2398   2.096   2.045   0.816 -0.4787  0.5934  0.2808
  154TMC2     O 2399   2.090   2.048   0.938 -0.0141 -0.3869 -0.0571
  154TMC2     H 2400   2.141   1.811   0.931 -1.2606 -1.7608 -0.6540
  154TMC2    H1 2401   2.121   2.006   0.546  2.0668 -0.2884 -0.3230
  154TMC2    H2 2402   2.293   1.631   0.581 -1.0933  0.0579 -0.3798
  154TMC2    C7 2403   2.232   1.822   0.414  0.3379  0.7863 -0.6867
  154TMC2    C8 2404   2.218   1.584   0.834 -0.9486  0.4817 -0.2276
  154TMC2    O1 2405   2.219   1.932   0.362 -0.4756 -0.3328  0.5290
  154TMC2    O2 2406   2.197   1.486   0.763 -0.3611 -0.7234  0.3832
  154TMC2    O5 2407   2.268   1.594   0.965 -0.2675  0.0482 -0.5107
  154TMC2    H5 2408   2.279   1.686   0.994 -1.6684  0.5725 -1.6407
  155MPD2     C 2409   2.065   2.380   0.665  0.9912 -0.0066 -0.3239
  155MPD2    C1 2410   2.066   2.285   0.768 -0.6164 -0.6900  0.1897
  155MPD2    C2 2411   2.079   2.339   0.896 -0.5463 -0.2213  0.6677
  155MPD2    C3 2412   2.067   2.476   0.928  0.0085 -0.0244 -0.3722
  155MPD2    C4 2413   2.066   2.563   0.823 -0.4162 -0.7480 -0.2199
  155MPD2    C5 2414   2.066   2.517   0.693  0.8931  0.4485 -0.1504
  155MPD2     H 2415   2.092   2.269   0.977  0.3121  0.1681  0.8657
  155MPD2    H1 2416   2.083   2.670   0.831 -3.0684 -0.4953  2.0829
  155MPD2    H2 2417   2.056   2.352   0.561  0.4452 -1.9037  0.2381
  155MPD2    H3 2418   2.077   2.582   0.606  0.1102  0.2819 -0.3735
  155MPD2     N 2419   2.063   2.509   1.066 -0.9271  0.1633 -0.1397
  155MPD2    H5 2420   2.073   2.431   1.131  0.1787  1.1102  0.8149
  155MPD2    N1 2421   2.082   2.155   0.734  0.0322  0.2529  0.1012
  155MPD2    H7 2422   2.078   2.143   0.633  1.6066  0.7963 -0.0281
  156TMC2    C1 2423   0.970   4.232  11.525 -0.0158  0.2256  0.3117
  156TMC2    C2 2424   1.094   4.274  11.505 -0.2819  0.5999 -0.0931
  156TMC2    C3 2425   1.118   4.330  11.381 -0.2432 -0.0824 -0.1375
  156TMC2    C4 2426   0.872   4.265  11.435 -0.7439  0.6662 -0.2486
  156TMC2    C5 2427   0.902   4.308  11.315 -1.0110 -0.6406  0.3701
  156TMC2    C6 2428   1.028   4.350  11.281 -0.1140 -0.7663 -0.1671
  156TMC2     C 2429   0.942   4.182  11.659 -0.0991  0.1081 -0.6176
  156TMC2     O 2430   1.030   4.204  11.740  0.5828 -0.2795  0.0987
  156TMC2     H 2431   1.178   4.253  11.570  0.7398 -0.4161 -1.7556
  156TMC2    H1 2432   0.766   4.247  11.452 -0.6622  0.0997 -0.3469
  156TMC2    H2 2433   1.051   4.410  11.194 -1.6072 -0.3786 -0.2881
  156TMC2    C7 2434   0.796   4.389  11.248 -0.2508 -0.0235 -0.5106
  156TMC2    C8 2435   1.254   4.317  11.332 -0.2838 -0.0310  0.2370
  156TMC2    O1 2436   0.708   4.423  11.328 -0.0025  0.0079 -0.1677
  156TMC2    O2 2437   1.273   4.292  11.214 -1.1968  0.0757  0.1383
  156TMC2    O5 2438   1.348   4.359  11.427  0.2584  0.0442  0.9696
  156TMC2    H5 2439   1.306   4.392  11.509  2.1311  2.0587  1.1218
  157MPD2     C 2440   0.666   3.978  11.791 -0.5742 -0.4208  0.1559
  157MPD2    C1 2441   0.794   4.034  11.791 -0.3209  0.0860  0.8504
  157MPD2    C2 2442   0.863   4.037  11.914 -0.5474  0.0171  0.6130
  157MPD2    C3 2443   0.800   3.974  12.022  0.5086  0.4916  0.7070
  157MPD2    C4 2444   0.683   3.907  12.009 -0.4492 -0.4080  0.3630
  157MPD2    C5 2445   0.612   3.914  11.896  0.1017 -0.5041  0.3510
  157MPD2     H 2446   0.967   4.070  11.919 -0.9712  1.3574  0.6829
  157MPD2    H1 2447   0.642   3.847  12.089 -1.1559 -2.6951 -1.7029
  157MPD2    H2 2448   0.602   3.992  11.705 -1.4392  2.0776  1.1844
  157MPD2    H3 2449   0.511   3.874  11.900  0.7066 -2.0153  0.4556
  157MPD2     N 2450   0.857   3.998  12.153 -0.1265 -0.3018 -0.5521
  157MPD2    H5 2451   0.941   4.053  12.161  0.0313 -1.1089  3.0158
  157MPD2    N1 2452   0.831   4.109  11.676  0.1221 -0.7462  0.2999
  157MPD2    H7 2453   0.776   4.106  11.591 -1.1761 -0.5938  1.1304
  158TMC2    C1 2454   0.285   3.291  13.292  0.0880  0.5488  0.4624
  158TMC2    C2 2455   0.249   3.413  13.238 -0.6700 -0.0882 -0.7257
  158TMC2    C3 2456   0.135   3.426  13.165  0.0870  0.1750 -0.1381
  158TMC2    C4 2457   0.201   3.180  13.276  0.3916  0.5815 -0.2560
  158TMC2    C5 2458   0.085   3.205  13.209  0.7874 -0.6016  0.0519
  158TMC2    C6 2459   0.051   3.318  13.149 -0.0917 -0.3818  0.2682
  158TMC2     C 2460   0.428   3.278  13.290  0.1785  0.2941  0.5504
  158TMC2     O 2461   0.490   3.377  13.264 -0.1498  0.3178  0.3453
  158TMC2     H 2462   0.304   3.506  13.243  1.8639 -1.5824 -0.2887
  158TMC2    H1 2463   0.238   3.079  13.296  2.2793  1.4478  0.6515
  158TMC2    H2 2464   4.685   3.337  13.126  0.1915 -0.1224 -0.7924
  158TMC2    C7 2465   4.727   3.101  13.200  0.0996  1.0299  0.2435
  158TMC2    C8 2466   0.100   3.557  13.107 -0.0591  0.5507 -0.0410
  158TMC2    O1 2467   4.659   3.104  13.098  0.9627  0.0028  0.2073
  158TMC2    O2 2468   0.132   3.663  13.159 -0.6496 -0.4286  0.4749
  158TMC2    O5 2469   0.014   3.547  13.006 -0.1852  0.7538 -0.3746
  158TMC2    H5 2470   0.033   3.458  12.968 -0.4067  1.1114 -1.3305
  159MPD2     C 2471   0.869   3.060  13.447  0.0731  0.3261  0.5403
  159MPD2    C1 2472   0.762   3.005  13.514  0.4463 -0.9961  0.1740
  159MPD2    C2 2473   0.629   3.039  13.485  0.3678 -0.2940 -0.4823
  159MPD2    C3 2474   0.607   3.131  13.381  0.8063 -0.1404  0.0101
  159MPD2    C4 2475   0.714   3.183  13.318  0.1009  0.1381  0.1722
  159MPD2    C5 2476   0.843   3.147  13.347  0.5152 -0.2173 -0.4770
  159MPD2     H 2477   0.549   2.989  13.537 -1.7616  1.4362 -2.1301
  159MPD2    H1 2478   0.684   3.241  13.232  1.3305  1.1129  0.4004
  159MPD2    H2 2479   0.972   3.027  13.458 -0.3250 -1.0550  0.1528
  159MPD2    H3 2480   0.928   3.190  13.295  0.5840  0.2712  0.0414
  159MPD2     N 2481   0.467   3.160  13.350  0.3167 -0.6985 -0.7849
  159MPD2    H5 2482   0.389   3.110  13.390 -0.1050 -0.1702 -0.9428
  159MPD2    N1 2483   0.783   2.919  13.621 -0.2842  0.0772  0.6157
  159MPD2    H7 2484   0.699   2.875  13.658 -0.5985  1.3963  1.4813
  160TMC2    C1 2485   0.447   1.080   1.347  0.0680  0.5899 -0.3471
  160TMC2    C2 2486   0.516   1.051   1.459 -0.4515 -0.7711  0.2558
  160TMC2    C3 2487   0.644   1.095   1.464 -0.5076  0.9775 -0.7235
  160TMC2    C4 2488   0.508   1.140   1.239  0.1389 -0.5137  0.7751
  160TMC2    C5 2489   0.636   1.186   1.256 -0.6819 -0.2726  0.2707
  160TMC2    C6 2490   0.703   1.165   1.370 -0.3239  0.3883 -0.3323
  160TMC2     C 2491   0.305   1.042   1.343  0.1742 -0.3584  0.7718
  160TMC2     O 2492   0.277   0.938   1.399  0.3961  0.3878  0.6159
  160TMC2     H 2493   0.471   0.990   1.536  3.9361 -2.0293  1.8402
  160TMC2    H1 2494   0.455   1.155   1.146  1.9629  0.0131 -0.1974
  160TMC2    H2 2495   0.806   1.199   1.376 -0.2225 -0.0581  0.5424
  160TMC2    C7 2496   0.702   1.244   1.138 -0.8170  0.4896 -0.6187
  160TMC2    C8 2497   0.723   1.092   1.591 -0.5691 -0.1016 -0.5767
  160TMC2    O1 2498   0.650   1.226   1.029 -0.0878 -0.3540 -0.9405
  160TMC2    O2 2499   0.792   1.184   1.625 -0.1945 -0.3486  0.1631
  160TMC2    O5 2500   0.721   0.963   1.642 -0.2663  0.0269  0.0842
  160TMC2    H5 2501   0.685   0.896   1.580  0.9009  1.4005 -2.1108
  161MPD2     C 2502   0.030   0.968   1.240 -0.2409  0.1875  0.1260
  161MPD2    C1 2503   0.097   1.085   1.203  1.1768  0.3782  0.4983
  161MPD2    C2 2504   0.037   1.186   1.132  0.2368  0.0191  0.3425
  161MPD2    C3 2505   4.643   1.176   1.094 -0.0932  0.2672  0.0202
  161MPD2    C4 2506   4.574   1.065   1.130 -0.4028 -0.0523 -0.0622
  161MPD2    C5 2507   4.632   0.968   1.208  0.9495  0.8235  0.1449
  161MPD2     H 2508   0.110   1.252   1.088 -1.0217  1.2143  0.0266
  161MPD2    H1 2509   4.467   1.050   1.121 -0.8998  2.5807  1.2789
  161MPD2    H2 2510   0.069   0.887   1.299 -0.4730 -0.9857 -1.3374
  161MPD2    H3 2511   4.577   0.880   1.239 -0.5171  1.6634 -0.1047
  161MPD2     N 2512   4.568   1.269   1.012 -0.0264 -0.3067 -0.6875
  161MPD2    H5 2513   4.474   1.237   0.990  0.2441  0.2066 -2.6285
  161MPD2    N1 2514   0.237   1.109   1.239 -0.6551 -0.2903  0.9107
  161MPD2    H7 2515   0.273   1.201   1.213 -0.6724 -0.5814 -0.1643
  162TMC2    C1 2516   3.371   3.064   1.038  0.0794 -0.1091  0.0653
  162TMC2    C2 2517   3.276   3.125   1.115  0.1387 -0.3223  0.1758
  162TMC2    C3 2518   3.320   3.213   1.202  0.3470 -1.1082 -0.0808
  162TMC2    C4 2519   3.506   3.080   1.046 -0.1998  0.3792 -0.3679
  162TMC2    C5 2520   3.549   3.163   1.148 -0.6964 -0.4318  0.2179
  162TMC2    C6 2521   3.454   3.242   1.209  1.1104  0.0631  0.6398
  162TMC2     C 2522   3.320   2.993   0.930  0.9105 -0.2137 -0.0748
  162TMC2     O 2523   3.221   3.033   0.867  0.8276 -0.0237  0.2173
  162TMC2     H 2524   3.171   3.101   1.106  0.0848  0.3469 -0.9183
  162TMC2    H1 2525   3.571   3.029   0.977  0.7681 -0.0086  0.8308
  162TMC2    H2 2526   3.489   3.323   1.272  0.2409  1.3299 -0.5161
  162TMC2    C7 2527   3.675   3.138   1.216 -0.5329 -0.7736 -0.0791
  162TMC2    C8 2528   3.236   3.286   1.299 -0.4155  0.3095 -0.2083
  162TMC2    O1 2529   3.729   3.238   1.266  0.5003  0.0238  0.0434
  162TMC2    O2 2530   3.118   3.303   1.269  0.1089  0.8553 -0.4046
  162TMC2    O5 2531   3.296   3.345   1.403 -0.1056  0.1651  0.2982
  162TMC2    H5 2532   3.379   3.297   1.421 -0.8122 -1.6614 -1.3329
  163MPD2     C 2533   3.393   2.569   0.644 -0.4009 -0.3096 -0.5843
  163MPD2    C1 2534   3.324   2.683   0.616  0.4910  0.0024  0.1080
  163MPD2    C2 2535   3.319   2.786   0.712  0.1280  0.3046  0.1844
  163MPD2    C3 2536   3.381   2.767   0.837 -0.2994 -0.4362 -0.1168
  163MPD2    C4 2537   3.445   2.644   0.868 -0.0826  0.1602  0.7019
  163MPD2    C5 2538   3.449   2.551   0.764 -0.0510  0.1367 -0.5844
  163MPD2     H 2539   3.251   2.867   0.689  0.1860  1.0387  2.6146
  163MPD2    H1 2540   3.499   2.632   0.961  0.5226 -0.0876  0.3127
  163MPD2    H2 2541   3.394   2.489   0.571  0.9037  0.9799 -1.9922
  163MPD2    H3 2542   3.498   2.455   0.774  0.7049  0.7057  1.2057
  163MPD2     N 2543   3.387   2.868   0.934 -0.2308  0.1329  0.3858
  163MPD2    H5 2544   3.448   2.846   1.012 -1.7344 -4.1592  0.3339
  163MPD2    N1 2545   3.262   2.690   0.497  0.0906  0.3204  0.0727
  163MPD2    H7 2546   3.268   2.605   0.442 -2.4838  1.2432 -1.6271
  164TMC2    C1 2547   3.566   3.279  11.599 -0.1484 -0.9430  0.1040
  164TMC2    C2 2548   3.638   3.204  11.686 -0.4157  0.2808  0.1877
  164TMC2    C3 2549   3.580   3.170  11.805 -0.0074  0.6127 -0.2669
  164TMC2    C4 2550   3.443   3.329  11.633 -0.2457  0.0747 -1.0875
  164TMC2    C5 2551   3.393   3.297  11.755  0.2117  0.0749 -0.3294
  164TMC2    C6 2552   3.455   3.207  11.843 -0.0645  0.1928 -0.3545
  164TMC2     C 2553   3.626   3.332  11.476 -0.0400 -0.0114 -0.3565
  164TMC2     O 2554   3.571   3.418  11.413  0.0840 -0.1228  0.5478
  164TMC2     H 2555   3.741   3.176  11.667  0.2836  1.2003  2.5177
  164TMC2    H1 2556   3.387   3.392  11.565 -0.3465  0.7889 -0.3447
  164TMC2    H2 2557   3.414   3.169  11.936 -2.0955 -1.8893 -2.1058
  164TMC2    C7 2558   3.252   3.282  11.748  0.6296  1.0403  0.8106
  164TMC2    C8 2559   3.642   3.073  11.888  0.4818 -0.4188  1.0268
  164TMC2    O1 2560   3.201   3.255  11.636 -0.1484 -0.5783 -0.9134
  164TMC2    O2 2561   3.639   3.075  12.011  0.0563  0.0521 -0.3369
  164TMC2    O5 2562   3.682   2.976  11.803  0.2382 -0.4823  0.3152
  164TMC2    H5 2563   3.661   2.999  11.710  0.2467 -1.6963  0.0224
  165TMC2    C1 2564   0.968   0.471   1.800  0.4766 -0.6629 -0.0339
  165TMC2    C2 2565   0.982   0.519   1.925 -0.5988  1.2036 -0.1250
  165TMC2    C3 2566   1.009   0.652   1.936  0.0848 -0.2790  0.6293
  165TMC2    C4 2567   0.988   0.546   1.690 -0.4398 -0.8365  0.4705
  165TMC2    C5 2568   1.029   0.678   1.707  0.2473 -0.6513  0.1619
  165TMC2    C6 2569   1.044   0.732   1.835 -0.3022 -0.0745 -0.3736
  165TMC2     C 2570   0.964   0.327   1.773  0.8178  0.4753 -0.8585
  165TMC2     O 2571   1.005   0.264   1.869 -0.4833 -0.1654 -0.2349
  165TMC2     H 2572   0.969   0.456   2.012  0.6524  1.8541  0.5240
  165TMC2    H1 2573   0.956   0.510   1.593 -1.1908  1.6371 -0.1897
  165TMC2    H2 2574   1.105   0.820   1.853 -1.2498  0.6782 -0.8707
  165TMC2    C7 2575   1.046   0.764   1.590  1.0614  0.5661 -0.4815
  165TMC2    C8 2576   1.014   0.693   2.068  0.1973 -0.3731 -0.4278
  165TMC2    O1 2577   1.055   0.710   1.483  1.1749 -0.1959 -0.1866
  165TMC2    O2 2578   1.007   0.615   2.163  0.4727  0.2790 -0.4911
  165TMC2    O5 2579   1.039   0.822   2.076 -0.4070  0.8419  0.1483
  165TMC2    H5 2580   1.014   0.873   1.995  0.4097 -0.6673 -1.0517
  166MPD2     C 2581   0.877   4.616   1.531 -0.1524 -0.1032  0.5442
  166MPD2    C1 2582   0.955   4.652   1.632  0.6359 -0.5458  0.1596
  166MPD2    C2 2583   0.956   0.046   1.677  0.4183  0.2769  0.7023
  166MPD2    C3 2584   0.888   0.146   1.617  0.0457  0.0666  0.4510
  166MPD2    C4 2585   0.815   0.113   1.503 -0.7614 -0.9298 -0.6890
  166MPD2    C5 2586   0.819   4.719   1.462 -0.0002 -0.0406  0.1095
  166MPD2     H 2587   1.026   0.073   1.755  2.4642  1.8051 -1.6761
  166MPD2    H1 2588   0.764   0.182   1.437 -0.2449  1.1682  1.0921
  166MPD2    H2 2589   0.869   4.520   1.481  0.7804  0.8032 -1.3695
  166MPD2    H3 2590   0.756   4.700   1.376  1.0986 -0.2783 -0.6364
  166MPD2     N 2591   0.905   0.284   1.647  0.3179  0.4230  0.0914
  166MPD2    H5 2592   0.866   0.353   1.584  1.5803 -0.3126 -1.4925
  166MPD2    N1 2593   1.013   4.547   1.702 -0.3631 -0.4694  0.6424
  166MPD2    H7 2594   1.005   4.450   1.671  0.7030 -0.5210  0.5279
  167TMC2    C1 2595   3.432   2.439  12.404 -0.0208  0.0388  0.2902
  167TMC2    C2 2596   3.447   2.506  12.520  0.3600 -0.2185 -0.7630
  167TMC2    C3 2597   3.370   2.473  12.630  0.1937 -0.1434  0.3930
  167TMC2    C4 2598   3.330   2.350  12.388 -0.3801 -0.2950  0.1809
  167TMC2    C5 2599   3.254   2.322  12.495 -1.0428 -0.0811  0.0663
  167TMC2    C6 2600   3.267   2.381  12.624  0.1845  0.0601  0.0470
  167TMC2     C 2601   3.489   2.502  12.290 -0.5234  0.4797  0.3376
  167TMC2     O 2602   3.596   2.464  12.250 -0.0628 -0.2370 -0.7857
  167TMC2     H 2603   3.521   2.583  12.538 -0.0983  0.5514 -2.1536
  167TMC2    H1 2604   3.319   2.323  12.284  3.6204 -0.5722 -0.1817
  167TMC2    H2 2605   3.233   2.335  12.716  1.3966 -0.7893  0.0723
  167TMC2    C7 2606   3.119   2.285  12.446  0.0684  0.3137 -0.0702
  167TMC2    C8 2607   3.416   2.518  12.759 -0.8213  0.8255 -0.0156
  167TMC2    O1 2608   3.031   2.281  12.525  0.0852  0.0008  0.1942
  167TMC2    O2 2609   3.534   2.550  12.776 -0.0247 -0.2685  0.1461
  167TMC2    O5 2610   3.311   2.600  12.796 -0.0414  0.5600 -0.2002
  167TMC2    H5 2611   3.221   2.574  12.768 -0.2143 -0.6484  1.5044
  168MPD2     C 2612   3.524   2.653  12.031  0.4824  1.0815  0.2528
  168MPD2    C1 2613   3.413   2.671  12.110 -0.2660 -0.2222  0.0342
  168MPD2    C2 2614   3.300   2.744  12.072 -0.2665 -0.3050 -0.4389
  168MPD2    C3 2615   3.299   2.807  11.942 -0.1292 -1.8553 -0.0237
  168MPD2    C4 2616   3.415   2.797  11.865  0.3655 -0.8348 -0.6083
  168MPD2    C5 2617   3.525   2.722  11.911 -0.2445 -0.2583 -0.2810
  168MPD2     H 2618   3.206   2.737  12.126  1.0014  1.4963  2.0202
  168MPD2    H1 2619   3.419   2.842  11.766  0.8239 -3.2895 -1.6961
  168MPD2    H2 2620   3.607   2.594  12.068  0.3764  2.1885  2.1987
  168MPD2    H3 2621   3.617   2.737  11.856  0.4018  0.2404  0.9242
  168MPD2     N 2622   3.186   2.866  11.891 -0.0416 -0.0382  0.1045
  168MPD2    H5 2623   3.189   2.888  11.792 -2.0742  0.8247  0.2493
  168MPD2    N1 2624   3.405   2.601  12.242 -0.6327 -0.2980 -0.0466
  168MPD2    H7 2625   3.319   2.609  12.296  0.3147 -0.9476  1.5484
  169MPD1     C 2626   0.760   1.667   8.742 -0.0815  0.2029  0.9921
  169MPD1    C1 2627   0.638   1.702   8.795 -0.3037 -0.9268  0.0068
  169MPD1    C2 2628   0.641   1.794   8.903  0.0242 -0.5846 -0.2774
  169MPD1    C3 2629   0.765   1.857   8.943  0.4441  0.2376  0.7666
  169MPD1    C4 2630   0.885   1.822   8.882  0.4046 -0.4560  0.3548
  169MPD1    C5 2631   0.874   1.726   8.783 -0.3890 -0.4938  0.0160
  169MPD1     H 2632   0.547   1.813   8.953 -0.5605 -1.5769 -1.0159
  169MPD1    H1 2633   0.977   1.869   8.914  0.2458 -0.9117  1.4822
  169MPD1    H2 2634   0.764   1.586   8.670  0.5545  0.4504  0.7511
  169MPD1    H3 2635   0.966   1.684   8.746 -0.2087  0.6107 -0.7920
  169MPD1     N 2636   0.755   1.954   9.049 -0.0073  0.2792  0.3092
  169MPD1    H5 2637   0.661   1.967   9.086 -0.3523 -0.2871 -0.3788
  169MPD1    N1 2638   0.516   1.628   8.766  0.1854  0.8610  0.2701
  169MPD1    H6 2639   0.437   1.691   8.773 -0.2091  0.6048 -1.6689
  169MPD1    H7 2640   0.511   1.602   8.667 -0.4773  0.3201  0.4502
  170MPD1     C 2641   4.610   0.076  12.930 -0.1457  0.2456  0.0752
  170MPD1    C1 2642   4.596   0.017  13.057 -0.8041 -0.0627  0.1913
  170MPD1    C2 2643   4.475   0.031  13.116 -0.4967  1.1283 -0.3375
  170MPD1    C3 2644   4.379   0.111  13.058  0.1257 -0.5927 -0.1313
  170MPD1    C4 2645   4.403   0.167  12.932  0.1496  0.2915 -0.5023
  170MPD1    C5 2646   4.515   0.142  12.865 -0.2403 -0.5530 -0.7223
  170MPD1     H 2647   4.450   4.718  13.208 -1.0692  0.8060 -0.6725
  170MPD1    H1 2648   4.330   0.224  12.876 -0.3952 -1.3165 -1.4456
  170MPD1    H2 2649   4.706   0.087  12.882 -0.1213  1.4855  0.3954
  170MPD1    H3 2650   4.534   0.172  12.762  0.7795 -0.7375 -0.5935
  170MPD1     N 2651   4.253   0.127  13.124  0.1727 -0.0085  0.5676
  170MPD1    H5 2652   4.228   0.063  13.198 -3.9550  0.6506 -0.2506
  170MPD1    N1 2653   4.687   4.670  13.115 -0.1970  0.2002 -0.0049
  170MPD1    H6 2654   0.046   4.688  13.094 -0.1655  0.7490  0.6196
  170MPD1    H7 2655   4.672   4.654  13.215  1.6630 -2.7560 -0.2246
  171MPD1     C 2656   2.502   1.635  15.269  0.0290 -0.1334 -0.7174
  171MPD1    C1 2657   2.433   1.517  15.269  0.2535  0.1616 -1.2241
  171MPD1    C2 2658   2.467   1.410  15.356  0.0035  0.1452 -0.2449
  171MPD1    C3 2659   2.589   1.422  15.429 -0.3157 -0.2952  0.7646
  171MPD1    C4 2660   2.668   1.539  15.407 -0.4442 -1.1170 -0.0671
  171MPD1    C5 2661   2.620   1.641  15.333 -1.0458 -0.3303 -0.0226
  171MPD1     H 2662   2.412   1.317  15.361  1.4958 -0.6434  1.5904
  171MPD1    H1 2663   2.769   1.541  15.445  1.0517 -0.3851 -4.1386
  171MPD1    H2 2664   2.479   1.717  15.203 -0.7481  0.6003  0.4685
  171MPD1    H3 2665   2.684   1.726  15.313 -2.0770  0.6618  0.9108
  171MPD1     N 2666   2.639   1.303  15.499  0.4451  0.5308 -0.2908
  171MPD1    H5 2667   2.736   1.311  15.528  0.0964 -2.0889  1.5933
  171MPD1    N1 2668   2.322   1.517  15.183  0.7371 -0.0126  0.1338
  171MPD1    H6 2669   2.340   1.575  15.101  3.3754  0.8968  1.3516
  171MPD1    H7 2670   2.302   1.421  15.155  0.8810  0.1109 -0.4081
  172MPD1     C 2671   1.665   0.761   0.152  0.2196  0.1903 -0.1862
  172MPD1    C1 2672   1.616   0.887   0.187  0.2269  0.1143 -0.1467
  172MPD1    C2 2673   1.572   0.909   0.319 -0.3568 -0.6187  0.4574
  172MPD1    C3 2674   1.601   0.819   0.421 -0.2480  0.1249 -0.1137
  172MPD1    C4 2675   1.645   0.690   0.386 -0.1117  0.1492 -0.3604
  172MPD1    C5 2676   1.679   0.663   0.249  0.5932  0.3937  0.6450
  172MPD1     H 2677   1.520   0.999   0.350  0.8337 -0.7223  2.8105
  172MPD1    H1 2678   1.666   0.617   0.463  0.7917 -1.2958 -1.9545
  172MPD1    H2 2679   1.692   0.735   0.051  0.0294  0.1454 -0.2267
  172MPD1    H3 2680   1.729   0.572   0.218  0.8821  0.4572  0.9301
  172MPD1     N 2681   1.584   0.844   0.563  0.5556  0.4278 -0.1897
  172MPD1    H5 2682   1.604   0.766   0.625 -2.3316  1.1928  1.7260
  172MPD1    N1 2683   1.589   0.974   0.078  0.1474  0.2699  0.5420
  172MPD1    H6 2684   1.665   0.960   0.011  0.5458 -1.2404  1.3015
  172MPD1    H7 2685   1.605   1.073   0.094  2.8324  0.3150 -2.2890
  173MPD1     C 2686   3.176   1.091  13.768  0.6245  0.7763  0.8030
  173MPD1    C1 2687   3.119   1.095  13.894 -0.5223  0.3743  0.2696
  173MPD1    C2 2688   3.170   1.002  13.986 -0.2360  0.3388  0.1631
  173MPD1    C3 2689   3.253   0.900  13.955 -0.2005  0.3202 -1.1316
  173MPD1    C4 2690   3.302   0.896  13.824  0.2744  0.4423 -0.3860
  173MPD1    C5 2691   3.268   0.993  13.734  0.0927 -0.8073 -0.4003
  173MPD1     H 2692   3.121   1.009  14.083 -0.2124  0.1374  0.1899
  173MPD1    H1 2693   3.360   0.812  13.789  0.6195  1.2048 -1.6438
  173MPD1    H2 2694   3.158   1.176  13.703 -2.1613  0.4977  1.2277
  173MPD1    H3 2695   3.313   0.995  13.635  4.2997  0.3535  1.5257
  173MPD1     N 2696   3.273   0.797  14.051 -0.2188  0.4758 -0.5639
  173MPD1    H5 2697   3.227   0.817  14.139  0.9767 -0.1066  0.2016
  173MPD1    N1 2698   3.043   1.203  13.939 -0.3682  0.0136  0.2034
  173MPD1    H6 2699   2.981   1.243  13.869  0.7552  1.2908 -0.0728
  173MPD1    H7 2700   3.006   1.207  14.034 -1.9739 -0.2277 -0.4142
  174MPD1     C 2701   3.949   0.037  14.202  0.0449 -0.2123 -0.7359
  174MPD1    C1 2702   3.878   0.051  14.322  0.4802 -0.4444 -0.4595
  174MPD1    C2 2703   3.771   0.141  14.320  0.1209  0.2842 -0.0471
  174MPD1    C3 2704   3.752   0.234  14.218 -0.0483  0.2549  0.1714
  174MPD1    C4 2705   3.828   0.223  14.105  0.2525 -0.2946 -0.1369
  174MPD1    C5 2706   3.921   0.129  14.098  1.0070 -0.1626 -0.0940
  174MPD1     H 2707   3.701   0.140  14.403  1.4265 -2.2308  1.0221
  174MPD1    H1 2708   3.827   0.292  14.021  1.3920 -0.4857 -0.3031
  174MPD1    H2 2709   4.020   4.695  14.186  0.7724  0.5326 -1.2112
  174MPD1    H3 2710   3.995   0.124  14.019  1.5745 -1.0092  0.5016
  174MPD1     N 2711   3.645   0.324  14.221  0.5000  0.7719  0.2292
  174MPD1    H5 2712   3.643   0.385  14.140 -2.5702 -0.3911 -0.5886
  174MPD1    N1 2713   3.898   4.695  14.428 -0.2599  0.3590  0.1158
  174MPD1    H6 2714   3.874   4.729  14.520 -0.3351 -2.2314  1.0487
  174MPD1    H7 2715   3.993   4.659  14.438  0.0041  1.5785  1.9831
  175MPD1     C 2716   1.468   1.297  15.861 -0.5107  0.1169  0.2623
  175MPD1    C1 2717   1.359   1.286  15.936 -0.0255  0.7176  0.8663
  175MPD1    C2 2718   1.378   1.229  16.062 -0.4711  0.0791  0.2637
  175MPD1    C3 2719   1.495   1.172  16.109  0.0206 -0.2438 -1.0366
  175MPD1    C4 2720   1.606   1.179  16.026 -0.0046 -0.1850 -0.0560
  175MPD1    C5 2721   1.589   1.238  15.904  0.7350 -0.3514  0.3792
  175MPD1     H 2722   1.287   1.217  16.119 -0.0227 -1.1531  0.7076
  175MPD1    H1 2723   1.698   1.129  16.053 -0.0269  0.0464  0.4529
  175MPD1    H2 2724   1.469   1.334  15.760  0.7176 -2.5369 -0.7027
  175MPD1    H3 2725   1.671   1.242  15.833 -0.3172 -0.3505 -0.8240
  175MPD1     N 2726   1.502   1.091  16.226 -0.2110  0.5031  0.2420
  175MPD1    H5 2727   1.590   1.043  16.238  1.5303  3.2707 -1.6981
  175MPD1    N1 2728   1.251   1.369  15.896 -0.1720 -0.7300 -0.2428
  175MPD1    H6 2729   1.170   1.328  15.941 -0.9924 -1.8053 -2.7106
  175MPD1    H7 2730   1.231   1.349  15.798  0.6423 -1.8256 -0.1989
  176MPD1     C 2731   2.760   3.461  16.649  0.2171  0.4233 -0.0672
  176MPD1    C1 2732   2.718   3.504  16.773 -1.5091  0.0637  0.6951
  176MPD1    C2 2733   2.804   3.488  16.884  0.3209 -0.1339  0.2848
  176MPD1    C3 2734   2.934   3.438  16.869 -0.7277  0.4942 -0.6325
  176MPD1    C4 2735   2.972   3.396  16.747 -0.6401  0.0597 -0.3864
  176MPD1    C5 2736   2.888   3.417  16.636 -0.1878  0.3937  0.4728
  176MPD1     H 2737   2.776   3.531  16.979 -3.1994 -1.5136 -0.1142
  176MPD1    H1 2738   3.067   3.352  16.720 -1.7759 -1.4783 -1.8863
  176MPD1    H2 2739   2.707   3.503  16.564 -0.7747  1.3781  1.0178
  176MPD1    H3 2740   2.926   3.384  16.539 -0.1229 -0.4368  0.7819
  176MPD1     N 2741   3.021   3.437  16.982  0.3429  0.2202 -0.2344
  176MPD1    H5 2742   2.982   3.479  17.066  0.5943 -2.2546  1.1122
  176MPD1    N1 2743   2.603   3.587  16.787  0.1341 -0.6964 -0.9218
  176MPD1    H6 2744   2.519   3.565  16.733 -0.3206 -0.5850 -0.2553
  176MPD1    H7 2745   2.579   3.586  16.886 -0.5536 -1.7044 -1.0915
  177MPD1     C 2746   1.271   3.096  10.503 -0.2265  0.3226  0.6074
  177MPD1    C1 2747   1.138   3.067  10.469  0.2140 -0.5038 -0.1758
  177MPD1    C2 2748   1.093   3.122  10.356 -1.0429  0.4268  0.5016
  177MPD1    C3 2749   1.164   3.227  10.295  0.1807  0.8268  0.3550
  177MPD1    C4 2750   1.291   3.262  10.333 -0.2918  0.1294  0.5417
  177MPD1    C5 2751   1.343   3.192  10.441 -0.1803 -0.0736 -0.0144
  177MPD1     H 2752   0.994   3.090  10.324 -1.9245  2.8387  0.8789
  177MPD1    H1 2753   1.355   3.336  10.287 -1.6236  1.0967  0.2463
  177MPD1    H2 2754   1.326   3.047  10.582  0.4313  2.5317  1.5205
  177MPD1    H3 2755   1.447   3.216  10.459 -0.4949 -0.3075  2.0718
  177MPD1     N 2756   1.101   3.289  10.188 -0.2313  0.0133 -0.8136
  177MPD1    H5 2757   1.024   3.231  10.156 -1.5994  1.0285  0.5977
  177MPD1    N1 2758   1.062   2.969  10.537  0.1322  1.0222 -0.0432
  177MPD1    H6 2759   1.082   2.968  10.637  0.4148 -0.8307 -0.1203
  177MPD1    H7 2760   0.962   2.964  10.516 -0.6866  0.8144  3.9488
  178MPD1     C 2761   4.096   4.316   0.255  0.5220  1.2861 -0.2223
  178MPD1    C1 2762   3.979   4.313   0.187  0.5401  0.2501  0.0758
  178MPD1    C2 2763   3.984   4.288   0.047 -0.3766  0.1966  0.2786
  178MPD1    C3 2764   4.106   4.264  17.739  0.4594 -0.3369 -0.1118
  178MPD1    C4 2765   4.224   4.272   0.064  0.1803  0.0171 -0.7069
  178MPD1    C5 2766   4.218   4.285   0.199  0.5234 -0.7882  0.6566
  178MPD1     H 2767   3.889   4.287  17.746 -0.4045  0.9372  0.3069
  178MPD1    H1 2768   4.323   4.253   0.022  0.0144 -0.0362 -1.0739
  178MPD1    H2 2769   4.096   4.312   0.364  1.1591 -3.5124 -0.4288
  178MPD1    H3 2770   4.304   4.271   0.264  0.0637  0.7449  1.5823
  178MPD1     N 2771   4.113   4.228  17.603  0.3542  0.3527 -0.0792
  178MPD1    H5 2772   4.208   4.232  17.566  0.0429  0.7672 -0.8255
  178MPD1    N1 2773   3.856   4.326   0.252  0.0179 -0.0288 -0.0559
  178MPD1    H6 2774   3.860   4.298   0.350 -0.6930 -2.7979 -0.8020
  178MPD1    H7 2775   3.797   4.248   0.224 -1.0799  0.5109  0.7664
  179MPD1     C 2776   3.302   2.675  15.437  0.4593  0.9768 -0.4455
  179MPD1    C1 2777   3.334   2.642  15.567 -0.5745 -0.3571 -0.1136
  179MPD1    C2 2778   3.391   2.516  15.587  0.2411  0.6974 -0.2003
  179MPD1    C3 2779   3.378   2.411  15.492 -0.2213 -0.2061  0.2258
  179MPD1    C4 2780   3.321   2.449  15.370 -0.6116  0.0364 -0.3532
  179MPD1    C5 2781   3.281   2.576  15.350 -0.1226 -0.5662 -0.2578
  179MPD1     H 2782   3.439   2.499  15.682 -2.3231 -3.2997  0.4091
  179MPD1    H1 2783   3.321   2.377  15.288 -2.1238  0.1622 -0.4712
  179MPD1    H2 2784   3.271   2.775  15.411  0.9306  0.9617 -1.0692
  179MPD1    H3 2785   3.262   2.606  15.248 -1.2310  3.8341  1.2362
  179MPD1     N 2786   3.416   2.276  15.515 -0.3799  0.4425 -0.0044
  179MPD1    H5 2787   3.402   2.213  15.437 -0.1161 -0.2703  0.5341
  179MPD1    N1 2788   3.361   2.746  15.653  0.0860  0.2375 -0.3756
  179MPD1    H6 2789   3.359   2.705  15.746 -1.9650  1.8478  0.2724
  179MPD1    H7 2790   3.283   2.810  15.647  1.0008  1.2010 -1.9669
  180MPD1     C 2791   3.962   3.557  15.511  0.5403 -0.7182 -0.0244
  180MPD1    C1 2792   4.035   3.501  15.407  0.2301 -0.0091 -0.0006
  180MPD1    C2 2793   3.972   3.447  15.300  0.2151 -0.3395  0.0344
  180MPD1    C3 2794   3.834   3.464  15.282  0.2696  0.1622  0.5011
  180MPD1    C4 2795   3.760   3.531  15.383 -0.6816  0.2557  0.1570
  180MPD1    C5 2796   3.829   3.580  15.490 -0.6660  0.4315 -0.2808
  180MPD1     H 2797   4.032   3.395  15.227 -0.1142  1.4300 -1.4829
  180MPD1    H1 2798   3.655   3.552  15.373 -0.8420  0.3368  1.9216
  180MPD1    H2 2799   4.002   3.590  15.606  0.8451  1.9821 -1.0941
  180MPD1    H3 2800   3.766   3.620  15.568  0.7408  1.2314  0.4407
  180MPD1     N 2801   3.772   3.399  15.173  0.2576 -0.3181 -0.0077
  180MPD1    H5 2802   3.836   3.358  15.105 -1.8476 -2.4097 -0.6987
  180MPD1    N1 2803   4.167   3.468  15.432  0.6571 -0.6466  0.2712
  180MPD1    H6 2804   4.216   3.539  15.486 -0.6444  0.0254  0.5699
  180MPD1    H7 2805   4.220   3.454  15.346  0.2179 -0.3444 -0.0453
  181MPD1     C 2806   4.298   0.572   9.949 -0.0039 -0.4330 -0.4263
  181MPD1    C1 2807   4.298   0.691   9.875  0.2293 -0.4923  0.4599
  181MPD1    C2 2808   4.382   0.794   9.918 -0.3008  0.7294  0.7309
  181MPD1    C3 2809   4.470   0.785  10.023  0.2712  0.6742 -0.0260
  181MPD1    C4 2810   4.462   0.667  10.096 -0.4129 -0.9308 -0.3013
  181MPD1    C5 2811   4.383   0.558  10.050 -0.3914 -0.4191 -0.5104
  181MPD1     H 2812   4.381   0.894   9.876 -1.1683  0.3908 -0.0842
  181MPD1    H1 2813   4.524   0.648  10.182 -0.0631 -0.1805 -0.3978
  181MPD1    H2 2814   4.225   0.493   9.934  0.9446 -1.4577  0.4254
  181MPD1    H3 2815   4.383   0.468  10.109  1.9483 -0.0514  0.0336
  181MPD1     N 2816   4.573   0.882  10.057 -0.3645  0.8726 -0.3632
  181MPD1    H5 2817   4.644   0.855  10.124 -1.2765  0.1703  0.3181
  181MPD1    N1 2818   4.201   0.719   9.782 -1.1011 -0.1380  0.4643
  181MPD1    H6 2819   4.221   0.802   9.725 -1.8048  1.3592  2.4058
  181MPD1    H7 2820   4.163   0.644   9.725  2.4753 -1.2761 -0.4369
  182MPD1     C 2821   1.327   3.632   0.544  0.1688 -0.1322  0.3748
  182MPD1    C1 2822   1.321   3.637   0.680  0.0149  0.3479 -0.1340
  182MPD1    C2 2823   1.253   3.746   0.735  0.2095  0.3524 -0.5032
  182MPD1    C3 2824   1.201   3.847   0.656 -0.1816 -0.0011  0.2760
  182MPD1    C4 2825   1.200   3.835   0.521 -0.3801 -0.2630 -0.3110
  182MPD1    C5 2826   1.275   3.734   0.468 -0.0317 -0.3414  0.4122
  182MPD1     H 2827   1.243   3.749   0.843  2.0487  1.1478 -0.3518
  182MPD1    H1 2828   1.152   3.903   0.450  1.7374  1.0053 -0.5104
  182MPD1    H2 2829   1.374   3.552   0.488 -0.9288  0.0451 -0.8047
  182MPD1    H3 2830   1.279   3.716   0.361  2.6002  1.4003  0.2020
  182MPD1     N 2831   1.140   3.965   0.711  0.0372 -0.0028  0.0767
  182MPD1    H5 2832   1.091   4.023   0.644  0.9452 -1.6741 -2.0541
  182MPD1    N1 2833   1.352   3.531   0.760  0.4741 -0.0735 -0.5157
  182MPD1    H6 2834   1.414   3.468   0.708  2.0257  0.6756  0.4365
  182MPD1    H7 2835   1.404   3.568   0.839  2.3468 -1.1784 -1.2234
  183MPD1     C 2836   1.807   0.447   9.206  0.7101 -0.1042 -0.8156
  183MPD1    C1 2837   1.830   0.442   9.340  0.2995  0.2407  0.3449
  183MPD1    C2 2838   1.725   0.458   9.423 -0.0415  0.2134  1.0006
  183MPD1    C3 2839   1.613   0.523   9.374 -0.9079  0.9728 -1.3329
  183MPD1    C4 2840   1.606   0.559   9.240  0.0543 -0.3852 -0.2477
  183MPD1    C5 2841   1.696   0.502   9.155  0.6543 -0.5328 -0.6296
  183MPD1     H 2842   1.725   0.433   9.529  0.9123 -1.4959  0.5854
  183MPD1    H1 2843   1.510   0.594   9.204 -0.0250  0.6583  0.9661
  183MPD1    H2 2844   1.875   0.403   9.134  0.6411  0.5561 -1.2879
  183MPD1    H3 2845   1.689   0.510   9.048  1.5468 -0.0413 -0.6543
  183MPD1     N 2846   1.510   0.554   9.460 -0.5315 -0.3527  0.3207
  183MPD1    H5 2847   1.522   0.533   9.559  0.7278 -1.6287 -0.1129
  183MPD1    N1 2848   1.942   0.388   9.391 -0.2166 -0.2444 -0.5253
  183MPD1    H6 2849   2.027   0.407   9.340  0.1274 -0.2846  0.0329
  183MPD1    H7 2850   1.962   0.415   9.487 -1.0133  0.1269 -0.4589
  184MPD1     C 2851   4.698   2.935  10.042  0.2770 -1.0167 -0.2316
  184MPD1    C1 2852   4.715   2.885   9.917  0.5240 -0.3102  0.2588
  184MPD1    C2 2853   0.076   2.934   9.834  0.0682 -0.0334 -0.1020
  184MPD1    C3 2854   0.162   3.033   9.888 -0.2447 -0.5693  0.3952
  184MPD1    C4 2855   0.146   3.073  10.016  0.6499 -0.8200  0.0889
  184MPD1    C5 2856   0.041   3.032  10.086 -0.0774 -0.4640  1.0459
  184MPD1     H 2857   0.100   2.891   9.737 -0.0017 -0.9620  0.2943
  184MPD1    H1 2858   0.216   3.144  10.058  0.6448  0.3338 -1.8782
  184MPD1    H2 2859   4.616   2.901  10.104 -0.0535  0.0040 -0.1154
  184MPD1    H3 2860   0.034   3.072  10.186  1.3890  1.2518  0.4568
  184MPD1     N 2861   0.266   3.093   9.814  0.4108  0.3548 -0.8279
  184MPD1    H5 2862   0.317   3.161   9.870 -0.3942  1.0335 -0.9084
  184MPD1    N1 2863   4.655   2.764   9.885  0.3417 -0.4289 -0.0320
  184MPD1    H6 2864   4.565   2.769   9.932  0.6579 -0.9211  0.6443
  184MPD1    H7 2865   4.640   2.759   9.785 -0.5765 -0.8346  0.1284
  185MPD1     C 2866   0.653   2.983   8.889 -0.5753 -0.4629 -0.4037
  185MPD1    C1 2867   0.719   3.093   8.944  0.1274 -0.5955 -0.8970
  185MPD1    C2 2868   0.689   3.122   9.072 -1.0976 -0.6856  0.2026
  185MPD1    C3 2869   0.585   3.068   9.144  0.6685 -0.0928 -0.2039
  185MPD1    C4 2870   0.524   2.958   9.091 -0.3965  0.1936  0.1106
  185MPD1    C5 2871   0.553   2.922   8.963 -0.2000  0.0304  0.0954
  185MPD1     H 2872   0.749   3.195   9.125 -0.1460 -0.1028 -1.6746
  185MPD1    H1 2873   0.448   2.899   9.140 -0.1916  0.5558  0.8693
  185MPD1    H2 2874   0.669   2.945   8.789  1.3432 -0.6464 -0.0270
  185MPD1    H3 2875   0.495   2.845   8.913 -1.1537  0.9951 -0.3024
  185MPD1     N 2876   0.529   3.115   9.265 -0.2807  0.3931  0.0991
  185MPD1    H5 2877   0.452   3.068   9.311  0.7126 -1.0605  0.2663
  185MPD1    N1 2878   0.838   3.147   8.889  0.2156 -0.0651 -0.7652
  185MPD1    H6 2879   0.849   3.134   8.789  0.9430 -0.8566 -0.5793
  185MPD1    H7 2880   0.855   3.247   8.902  1.1762 -0.6255  2.2808
  186MPD1     C 2881   3.841   2.438  15.610 -0.0739  0.1214  0.8917
  186MPD1    C1 2882   3.807   2.572  15.620  0.2047  0.4233 -0.4232
  186MPD1    C2 2883   3.859   2.648  15.725 -0.5949  0.3134  0.2619
  186MPD1    C3 2884   3.945   2.588  15.814 -0.1854 -0.0018 -0.5511
  186MPD1    C4 2885   3.984   2.458  15.795 -0.0872  0.1893 -0.7250
  186MPD1    C5 2886   3.929   2.381  15.694  0.1003 -0.3931  0.0268
  186MPD1     H 2887   3.826   2.751  15.733  0.8476  0.7030  1.3897
  186MPD1    H1 2888   4.058   2.413  15.860  0.7889  1.2472 -0.9845
  186MPD1    H2 2889   3.801   2.382  15.525 -0.3438  1.8479 -0.1215
  186MPD1    H3 2890   3.950   2.276  15.676  0.4985 -0.0541 -1.5570
  186MPD1     N 2891   3.992   2.660  15.926 -0.7168 -0.0809  0.5653
  186MPD1    H5 2892   4.057   2.617  15.992  1.0229  0.8313 -0.5603
  186MPD1    N1 2893   3.757   2.636  15.503  0.6393  0.4312 -0.3738
  186MPD1    H6 2894   3.709   2.720  15.535  1.8973  1.4795 -1.2172
  186MPD1    H7 2895   3.697   2.580  15.443 -1.0450  0.5881  1.1907
  187MPD1     C 2896   3.637   3.811  17.534  0.1973 -0.4218 -0.3821
  187MPD1    C1 2897   3.502   3.799  17.523  0.1057  0.4153  0.0680
  187MPD1    C2 2898   3.429   3.909  17.486  0.2646  0.3132  0.1763
  187MPD1    C3 2899   3.486   4.040  17.469 -0.0396 -0.1759 -0.1428
  187MPD1    C4 2900   3.622   4.040  17.480  0.5611  0.6345  0.2312
  187MPD1    C5 2901   3.694   3.932  17.511 -0.7222  0.5598  0.2399
  187MPD1     H 2902   3.323   3.885  17.485 -0.2019  2.2732  0.9729
  187MPD1    H1 2903   3.675   4.133  17.463  2.0048 -0.1216  0.6408
  187MPD1    H2 2904   3.699   3.723  17.543  0.2709 -0.4927 -1.4982
  187MPD1    H3 2905   3.800   3.951  17.516 -0.1966 -2.4835  0.7204
  187MPD1     N 2906   3.413   4.151  17.426  0.2207 -0.4525  0.0706
  187MPD1    H5 2907   3.461   4.240  17.414  3.0293 -2.0418 -0.4425
  187MPD1    N1 2908   3.442   3.675  17.526  0.1574  0.1816 -0.0323
  187MPD1    H6 2909   3.340   3.674  17.529  0.2304  0.7386  3.0116
  187MPD1    H7 2910   3.479   3.613  17.598  1.4115 -1.5184 -2.1298
  188MPD1     C 2911   2.717   0.048  10.067  0.0046  0.0542  0.0405
  188MPD1    C1 2912   2.593   0.021  10.014 -0.8296  0.3045 -0.1493
  188MPD1    C2 2913   2.555   4.626   9.997 -0.2004 -0.0861  0.2045
  188MPD1    C3 2914   2.638   4.529  10.039  0.4821 -0.0862  0.1355
  188MPD1    C4 2915   2.760   4.555  10.086 -0.1751 -0.7045 -0.0044
  188MPD1    C5 2916   2.799   4.686  10.099 -0.0778  0.7439  0.0190
  188MPD1     H 2917   2.469   4.606   9.934 -0.2653  1.5721 -0.2371
  188MPD1    H1 2918   2.821   4.479  10.134 -1.0382 -1.3823  0.0061
  188MPD1    H2 2919   2.763   0.145  10.075 -1.8029  0.7641  1.8303
  188MPD1    H3 2920   2.901   4.713  10.120  0.9359 -1.4230 -2.0849
  188MPD1     N 2921   2.612   4.391  10.018 -0.4655 -0.0324  0.2462
  188MPD1    H5 2922   2.687   4.329  10.047 -0.4530 -0.4570 -0.7060
  188MPD1    N1 2923   2.510   0.119   9.967 -0.4483  0.3196  0.5986
  188MPD1    H6 2924   2.500   0.188  10.042  1.4994  0.6830  0.5324
  188MPD1    H7 2925   2.415   0.085   9.953  0.4337 -1.9739  0.2438
  189MPD1     C 2926   0.182   0.572   0.585 -0.3042  0.4286 -0.7960
  189MPD1    C1 2927   0.063   0.509   0.553  1.1998  0.3511 -0.6280
  189MPD1    C2 2928   4.697   0.583   0.508  0.2436  0.1836  0.1201
  189MPD1    C3 2929   4.709   0.718   0.491 -0.0743 -0.4807  0.3619
  189MPD1    C4 2930   0.088   0.786   0.519 -0.2188  0.2408  0.0474
  189MPD1    C5 2931   0.193   0.714   0.563 -0.0374  0.1933 -0.0747
  189MPD1     H 2932   4.603   0.533   0.489  1.1677 -1.2620 -0.6212
  189MPD1    H1 2933   0.097   0.893   0.508 -1.9211  0.2810 -0.9151
  189MPD1    H2 2934   0.265   0.519   0.631 -0.2742  0.9498 -0.2438
  189MPD1    H3 2935   0.290   0.759   0.580 -0.2831  0.0857  1.6823
  189MPD1     N 2936   4.598   0.792   0.455  0.2072 -0.4665  0.1636
  189MPD1    H5 2937   4.516   0.738   0.430 -0.8272  1.2204 -0.1157
  189MPD1    N1 2938   0.051   0.372   0.578 -0.1855 -0.1674 -0.0855
  189MPD1    H6 2939   0.137   0.320   0.594 -2.2996 -3.1946  1.3997
  189MPD1    H7 2940   4.710   0.321   0.540 -0.8890  0.4623  0.5189
  190MPD1     C 2941   3.430   3.933  15.060 -0.7406 -0.0038 -0.5835
  190MPD1    C1 2942   3.539   4.002  15.021 -0.8522  0.6292  0.3229
  190MPD1    C2 2943   3.636   4.013  15.113  0.6760 -0.4538 -0.1809
  190MPD1    C3 2944   3.645   3.940  15.227 -0.2810  0.3202  0.3305
  190MPD1    C4 2945   3.538   3.869  15.266  0.4192  0.8961  0.2518
  190MPD1    C5 2946   3.433   3.867  15.184 -0.7160  0.0603 -0.2767
  190MPD1     H 2947   3.714   4.084  15.088 -1.1240  1.1868 -1.1342
  190MPD1    H1 2948   3.516   3.819  15.359  0.1099  1.2396  0.3606
  190MPD1    H2 2949   3.338   3.926  15.003 -0.1399  0.8196 -1.6417
  190MPD1    H3 2950   3.344   3.813  15.216 -0.8422  0.7851  0.6043
  190MPD1     N 2951   3.754   3.959  15.316 -0.4170 -0.4957 -0.1377
  190MPD1    H5 2952   3.832   4.012  15.277 -0.8423  0.7721  0.7691
  190MPD1    N1 2953   3.536   4.098  14.916 -0.0052 -0.2451  0.0575
  190MPD1    H6 2954   3.487   4.063  14.833  0.7660 -1.0751 -0.0496
  190MPD1    H7 2955   3.623   4.139  14.885 -1.1683  0.6157 -2.0645
  191MPD1     C 2956   2.884   1.533  12.696  0.0702 -0.1806  0.1212
  191MPD1    C1 2957   2.978   1.483  12.607 -0.0389  0.2115  0.3388
  191MPD1    C2 2958   2.936   1.416  12.491  0.4560 -0.6495  0.5456
  191MPD1    C3 2959   2.803   1.411  12.458  0.2960 -0.7707  0.1304
  191MPD1    C4 2960   2.714   1.472  12.543  0.1486 -0.2571 -0.1426
  191MPD1    C5 2961   2.753   1.527  12.659 -0.2372  0.0389 -0.4170
  191MPD1     H 2962   3.013   1.363  12.436 -0.2290 -0.3663 -0.6876
  191MPD1    H1 2963   2.608   1.464  12.522  0.2418 -1.1154 -0.2610
  191MPD1    H2 2964   2.904   1.583  12.790 -0.2217  0.2451 -0.0449
  191MPD1    H3 2965   2.675   1.577  12.715  1.4480  0.4572  1.5781
  191MPD1     N 2966   2.766   1.332  12.349  0.4997  0.2216  0.2659
  191MPD1    H5 2967   2.838   1.276  12.304  0.1250 -0.2804  0.3020
  191MPD1    N1 2968   3.110   1.468  12.651 -0.5703 -0.2061  0.1340
  191MPD1    H6 2969   3.135   1.546  12.711  0.2166  0.0043 -0.4722
  191MPD1    H7 2970   3.171   1.474  12.569 -3.0527  0.4636 -1.6735
  192MPD1     C 2971   2.396   1.388  11.432  0.6321  0.7779 -0.6882
  192MPD1    C1 2972   2.367   1.453  11.552 -0.2231 -0.3177 -0.6195
  192MPD1    C2 2973   2.378   1.385  11.674 -0.3705 -0.1996 -0.2227
  192MPD1    C3 2974   2.413   1.253  11.671 -0.5549  0.1036 -0.0652
  192MPD1    C4 2975   2.436   1.190  11.550  0.2932 -0.3478  0.3053
  192MPD1    C5 2976   2.433   1.255  11.431  0.0981 -0.1252 -0.0340
  192MPD1     H 2977   2.363   1.435  11.768 -2.4433 -0.0322 -0.6529
  192MPD1    H1 2978   2.459   1.085  11.539  3.8405  0.2874  1.5697
  192MPD1    H2 2979   2.391   1.439  11.337  2.4786  2.4123  0.1046
  192MPD1    H3 2980   2.454   1.208  11.336  0.7570  0.9371 -0.4106
  192MPD1     N 2981   2.431   1.181  11.787  0.0050  0.6255 -0.1433
  192MPD1    H5 2982   2.477   1.092  11.769 -1.1079 -0.0277  0.2615
  192MPD1    N1 2983   2.366   1.593  11.551 -0.0028  0.3320 -0.1181
  192MPD1    H6 2984   2.328   1.634  11.466 -0.6530 -0.7284 -0.3297
  192MPD1    H7 2985   2.315   1.630  11.631 -2.4706 -2.6573 -0.3292
  193MPD1     C 2986   2.528   0.966  15.985 -0.3915 -0.2152  0.7753
  193MPD1    C1 2987   2.525   1.102  15.987  0.1675  0.2230 -0.2577
  193MPD1    C2 2988   2.563   1.167  16.103 -0.4592  0.3241  0.0197
  193MPD1    C3 2989   2.647   1.109  16.192  0.4444 -0.3928  0.0601
  193MPD1    C4 2990   2.661   0.974  16.180  0.6215  0.7617 -0.5022
  193MPD1    C5 2991   2.595   0.903  16.082 -0.5262  0.3777 -0.0380
  193MPD1     H 2992   2.538   1.272  16.116 -3.5044 -0.4043 -0.1179
  193MPD1    H1 2993   2.716   0.916  16.252 -0.7110  0.4711  0.2800
  193MPD1    H2 2994   2.475   0.911  15.908  0.5318 -2.2087  1.5692
  193MPD1    H3 2995   2.597   0.795  16.089 -0.3622  0.2277 -2.6392
  193MPD1     N 2996   2.718   1.181  16.299 -0.1103  0.6284  0.3702
  193MPD1    H5 2997   2.765   1.125  16.370  0.2730 -0.1779 -0.5097
  193MPD1    N1 2998   2.447   1.159  15.884  0.6074  0.4629  0.0278
  193MPD1    H6 2999   2.449   1.107  15.797 -1.1466  0.0006  0.2522
  193MPD1    H7 3000   2.474   1.254  15.861 -0.8893  0.6884 -0.8211
  194MPD1     C 3001   0.340   3.519  16.720  0.9865 -0.0216  0.5692
  194MPD1    C1 3002   0.378   3.547  16.847  0.1791  0.8641 -0.1480
  194MPD1    C2 3003   0.475   3.461  16.897 -0.5158 -0.1661 -0.3427
  194MPD1    C3 3004   0.502   3.339  16.836  0.2153 -0.5514  0.2158
  194MPD1    C4 3005   0.449   3.309  16.718 -0.2075  0.1030 -0.7846
  194MPD1    C5 3006   0.370   3.400  16.663 -0.0497 -0.3522  0.4588
  194MPD1     H 3007   0.515   3.497  16.991 -0.9264  1.5446 -0.8143
  194MPD1    H1 3008   0.465   3.216  16.665 -0.7664  0.2502 -1.2124
  194MPD1    H2 3009   0.283   3.591  16.662  0.2730 -0.9994  0.0596
  194MPD1    H3 3010   0.330   3.384  16.563  0.2297  1.2646  0.0868
  194MPD1     N 3011   0.586   3.241  16.896 -0.0488  0.3970  0.7429
  194MPD1    H5 3012   0.563   3.148  16.864 -1.4814  0.3421  1.9156
  194MPD1    N1 3013   0.362   3.674  16.900 -0.7712 -0.3188  0.0566
  194MPD1    H6 3014   0.368   3.695  16.999  0.7426  0.7307 -0.2553
  194MPD1    H7 3015   0.280   3.722  16.864 -1.0533 -1.2650 -0.5533
  195MPD1     C 3016   2.594   0.362   0.008 -0.3948  0.4468  0.2927
  195MPD1    C1 3017   2.489   0.282   0.050 -0.8862 -0.0812 -0.5442
  195MPD1    C2 3018   2.519   0.155   0.068 -0.3569  0.6180 -0.1023
  195MPD1    C3 3019   2.638   0.104   0.028  0.1434  0.0609  0.0251
  195MPD1    C4 3020   2.737   0.180  17.725  0.2563 -0.7133 -0.3984
  195MPD1    C5 3021   2.722   0.316  17.727  0.1117 -0.5147 -0.7526
  195MPD1     H 3022   2.448   0.087   0.114  1.9074 -2.0110 -0.4252
  195MPD1    H1 3023   2.831   0.135  17.695  1.2455 -0.0745  1.6745
  195MPD1    H2 3024   2.599   0.470   0.018 -0.2023  0.4797 -0.1756
  195MPD1    H3 3025   2.799   0.378  17.683  0.4780  0.3439  1.1097
  195MPD1     N 3026   2.675   4.707   0.033 -0.3232 -0.1863 -0.6953
  195MPD1    H5 3027   2.751   4.675  17.725  0.4157  0.9638 -0.3593
  195MPD1    N1 3028   2.366   0.324   0.115 -0.0056 -0.5616 -0.1227
  195MPD1    H6 3029   2.335   0.414   0.079 -1.8814 -2.4023 -3.1534
  195MPD1    H7 3030   2.303   0.249   0.084  0.1179 -0.9930  0.6714
  196MPD1     C 3031   1.561   4.594   0.217 -0.7547 -0.2167  0.4004
  196MPD1    C1 3032   1.585   4.467   0.184 -0.5447 -0.0044 -0.1015
  196MPD1    C2 3033   1.641   4.384   0.278  0.5575 -0.4515  0.2553
  196MPD1    C3 3034   1.667   4.421   0.409  0.6702 -0.0703 -0.3991
  196MPD1    C4 3035   1.628   4.553   0.443  0.1430 -0.1907  0.3227
  196MPD1    C5 3036   1.568   4.633   0.350 -0.0323 -0.5226 -0.3677
  196MPD1     H 3037   1.683   4.291   0.241  0.1766 -1.1479  1.5592
  196MPD1    H1 3038   1.658   4.592   0.539  1.9803 -1.8552  0.4029
  196MPD1    H2 3039   1.527   4.674   0.152  0.9833  0.7934  0.7424
  196MPD1    H3 3040   1.546   4.735   0.378  0.3588 -0.2786 -0.9327
  196MPD1     N 3041   1.727   4.342   0.510  0.8872  0.0234 -0.4264
  196MPD1    H5 3042   1.734   4.388   0.601 -1.0992 -0.7292  0.1003
  196MPD1    N1 3043   1.578   4.431   0.048 -0.2551 -0.2837  0.1785
  196MPD1    H6 3044   1.568   4.329   0.043  1.4495 -0.5178  1.7223
  196MPD1    H7 3045   1.501   4.480   0.003 -0.2741 -0.0201  0.4974
  197MPD1     C 3046   1.393   1.263  17.583  0.6632 -0.7352  0.1855
  197MPD1    C1 3047   1.499   1.340  17.611  0.1401  0.2577  0.0810
  197MPD1    C2 3048   1.556   1.410  17.500  1.2959  0.2765  0.1777
  197MPD1    C3 3049   1.494   1.415  17.373 -0.3905 -0.4919  0.0804
  197MPD1    C4 3050   1.389   1.327  17.350 -0.0932 -0.2230  0.5345
  197MPD1    C5 3051   1.341   1.257  17.456  0.6170  0.5163 -0.6672
  197MPD1     H 3052   1.647   1.467  17.516  2.2241 -0.6722 -1.7521
  197MPD1    H1 3053   1.341   1.318  17.253 -0.2140  2.2226  0.3599
  197MPD1    H2 3054   1.349   1.196  17.657  0.8696  0.1979  1.1637
  197MPD1    H3 3055   1.258   1.188  17.444 -0.9256  2.4976 -1.3501
  197MPD1     N 3056   1.556   1.485  17.271 -0.5924  0.1962  0.0268
  197MPD1    H5 3057   1.516   1.468  17.179 -0.2690  2.5027 -0.5207
  197MPD1    N1 3058   1.566   1.332  17.736  0.3205 -1.0746 -0.2400
  197MPD1    H6 3059   1.506   1.326   0.066  0.7777 -0.0593  0.1764
  197MPD1    H7 3060   1.635   1.405   0.001 -0.5835  0.0762 -1.5958
  198MPD1     C 3061   3.761   1.149  15.454 -1.0980  0.7771  0.4916
  198MPD1    C1 3062   3.791   1.034  15.384  0.1453  1.0774  0.5165
  198MPD1    C2 3063   3.734   0.917  15.435 -0.3568 -0.0055  0.4855
  198MPD1    C3 3064   3.666   0.914  15.557 -0.3137 -0.0672 -0.8650
  198MPD1    C4 3065   3.639   1.030  15.623 -0.1876 -0.5051  0.1965
  198MPD1    C5 3066   3.688   1.147  15.572 -0.2839  0.3168 -0.6662
  198MPD1     H 3067   3.752   0.821  15.387 -0.7295  0.6553 -0.9777
  198MPD1    H1 3068   3.596   1.031  15.722 -2.3841 -0.3371 -0.7565
  198MPD1    H2 3069   3.786   1.246  15.412 -0.6910  0.2084 -0.5789
  198MPD1    H3 3070   3.672   1.243  15.620 -1.4084  0.8627 -2.1010
  198MPD1     N 3071   3.619   0.787  15.603  0.5593  0.2733 -0.1109
  198MPD1    H5 3072   3.644   0.714  15.537  0.4254 -0.6922  0.9022
  198MPD1    N1 3073   3.865   1.042  15.262 -0.1828  0.3304 -0.0513
  198MPD1    H6 3074   3.917   1.129  15.257  1.9649 -1.1136 -2.3493
  198MPD1    H7 3075   3.930   0.964  15.253 -0.2664  0.4340 -1.5397
  199MPD1     C 3076   0.225   0.808   9.800  0.2217  0.0637 -0.4803
  199MPD1    C1 3077   0.301   0.899   9.726 -0.0082  0.4209  0.0129
  199MPD1    C2 3078   0.231   0.991   9.649  0.2575 -0.1076  0.2816
  199MPD1    C3 3079   0.095   1.017   9.651 -0.2343 -0.5654 -0.0860
  199MPD1    C4 3080   0.023   0.924   9.724 -0.2498  0.3450 -0.2888
  199MPD1    C5 3081   0.089   0.828   9.795 -0.0880 -0.0040  0.6920
  199MPD1     H 3082   0.297   1.064   9.603 -0.6194 -0.7481 -2.0049
  199MPD1    H1 3083   4.653   0.931   9.722 -0.2529  0.3291 -0.1680
  199MPD1    H2 3084   0.276   0.733   9.860 -0.6477 -0.6517 -0.6320
  199MPD1    H3 3085   0.028   0.754   9.845 -0.1422 -1.3123 -1.2907
  199MPD1     N 3086   0.028   1.129   9.592  0.1047  0.0040  0.2073
  199MPD1    H5 3087   4.667   1.140   9.614  0.1079  0.4596 -0.0209
  199MPD1    N1 3088   0.434   0.881   9.713  0.6576  0.6051 -0.0633
  199MPD1    H6 3089   0.488   0.968   9.707  0.9569  0.5606  2.1535
  199MPD1    H7 3090   0.481   0.838   9.792  1.7349 -0.3064 -1.2062
  200MPD1     C 3091   4.180   1.062  14.979 -0.3651 -0.4691 -0.5805
  200MPD1    C1 3092   4.221   1.074  14.846 -0.0149  0.1555 -0.6866
  200MPD1    C2 3093   4.355   1.080  14.816  0.0192  0.7083  0.9302
  200MPD1    C3 3094   4.447   1.075  14.915 -0.2716  0.6397 -0.2073
  200MPD1    C4 3095   4.404   1.067  15.048  0.1047 -1.0169 -0.4424
  200MPD1    C5 3096   4.272   1.050  15.078 -0.0269  0.0080  0.1960
  200MPD1     H 3097   4.400   1.090  14.718 -0.1585 -3.6629  0.4033
  200MPD1    H1 3098   4.468   1.056  15.134  1.5137  0.8271 -1.2446
  200MPD1    H2 3099   4.076   1.055  15.007  0.0223 -1.6114  0.5826
  200MPD1    H3 3100   4.238   1.023  15.177  1.2161 -1.8332  0.1318
  200MPD1     N 3101   4.587   1.081  14.880 -0.0172  0.5529 -0.1600
  200MPD1    H5 3102   4.608   1.089  14.781 -2.0265 -0.6085 -0.6776
  200MPD1    N1 3103   4.126   1.102  14.744 -0.5725  0.1120 -0.6823
  200MPD1    H6 3104   4.039   1.052  14.761 -0.6035  0.1867 -0.6221
  200MPD1    H7 3105   4.157   1.063  14.655  0.2940  0.0230 -0.3363
  201MPD1     C 3106   2.573   0.631  12.559 -0.0978 -0.1904  0.4083
  201MPD1    C1 3107   2.492   0.530  12.526 -0.2645  0.2202  0.1260
  201MPD1    C2 3108   2.533   0.410  12.574  0.4004 -0.2566  0.1818
  201MPD1    C3 3109   2.658   0.393  12.632  0.0298 -0.3589 -0.3625
  201MPD1    C4 3110   2.745   0.498  12.638  0.2489  0.1905 -0.1757
  201MPD1    C5 3111   2.706   0.618  12.593  0.1171 -0.3333  0.6031
  201MPD1     H 3112   2.480   0.317  12.560  0.0008  0.3056 -2.0779
  201MPD1    H1 3113   2.849   0.491  12.668  1.0610 -0.4689 -3.1212
  201MPD1    H2 3114   2.533   0.730  12.544  1.6018  0.7162  1.8488
  201MPD1    H3 3115   2.768   0.706  12.605  0.1401 -0.4010  0.9901
  201MPD1     N 3116   2.700   0.267  12.671 -0.1998  0.1249  0.0499
  201MPD1    H5 3117   2.646   0.185  12.644  2.3974 -1.7812  0.5554
  201MPD1    N1 3118   2.356   0.555  12.492  0.0062  0.3343  0.0480
  201MPD1    H6 3119   2.339   0.638  12.435 -0.8617  1.3437  1.7652
  201MPD1    H7 3120   2.313   0.476  12.444  1.5979 -0.4989  0.0089
  202MPD1     C 3121   1.478   3.991   9.386  0.2004 -0.8538  0.5580
  202MPD1    C1 3122   1.471   4.123   9.370 -0.5645 -0.2965 -0.6692
  202MPD1    C2 3123   1.537   4.205   9.457 -0.2216  0.2299 -0.7590
  202MPD1    C3 3124   1.589   4.147   9.574  0.2861  0.1635 -0.5026
  202MPD1    C4 3125   1.598   4.011   9.591  0.1259  0.3386 -0.6126
  202MPD1    C5 3126   1.546   3.936   9.488 -0.5641 -0.5040  0.1684
  202MPD1     H 3127   1.559   4.308   9.430  1.9917 -0.5881 -2.1109
  202MPD1    H1 3128   1.672   3.970   9.659  0.5160  2.2362  0.1011
  202MPD1    H2 3129   1.442   3.924   9.309 -2.4623  0.1378  0.9457
  202MPD1    H3 3130   1.564   3.830   9.485 -0.5926 -0.4932 -0.4372
  202MPD1     N 3131   1.656   4.225   9.668 -0.1755 -0.1150  0.3929
  202MPD1    H5 3132   1.693   4.173   9.747 -1.9258 -2.8994 -0.6218
  202MPD1    N1 3133   1.449   4.164   9.237 -0.2374 -0.0220  0.8007
  202MPD1    H6 3134   1.393   4.105   9.175 -0.8183 -0.5137  1.7901
  202MPD1    H7 3135   1.416   4.260   9.231 -0.4104 -0.1428 -0.2055
  203MPD1     C 3136   0.805   0.627  12.595 -0.4734  0.2594 -0.3910
  203MPD1    C1 3137   0.775   0.587  12.728 -0.0485  0.1575  0.2396
  203MPD1    C2 3138   0.866   0.499  12.787  0.1347 -0.5742  0.0708
  203MPD1    C3 3139   0.969   0.436  12.710 -0.0643 -0.1771  0.4760
  203MPD1    C4 3140   0.978   0.455  12.579  0.7020 -0.2431 -0.1300
  203MPD1    C5 3141   0.903   0.559  12.529 -0.1787 -0.0247 -0.5956
  203MPD1     H 3142   0.863   0.479  12.894 -0.7060 -1.5817 -0.1365
  203MPD1    H1 3143   1.035   0.391  12.512 -2.7699 -3.3002 -0.1532
  203MPD1    H2 3144   0.750   0.714  12.562  1.1127  0.9043 -1.3445
  203MPD1    H3 3145   0.929   0.589  12.429  1.3343  2.4168  0.5349
  203MPD1     N 3146   1.056   0.342  12.771 -0.5020  0.2816  0.0478
  203MPD1    H5 3147   1.120   0.300  12.704 -0.9261 -1.3617  0.6956
  203MPD1    N1 3148   0.696   0.668  12.817 -0.3188  0.1202  0.0684
  203MPD1    H6 3149   0.656   0.614  12.894 -0.3770 -1.4625 -1.0744
  203MPD1    H7 3150   0.618   0.710  12.767 -1.1589 -1.2963  0.1973
  204MPD1     C 3151   4.613   1.999  17.574  0.3436  0.1463  0.4507
  204MPD1    C1 3152   4.713   1.997  17.482  0.1736 -0.1565  0.4729
  204MPD1    C2 3153   0.051   1.881  17.474  0.8461 -0.3060  0.2394
  204MPD1    C3 3154   0.025   1.773  17.547  0.2511  0.0677  0.0606
  204MPD1    C4 3155   4.652   1.771  17.625 -0.1618 -0.4885  0.6055
  204MPD1    C5 3156   4.585   1.887  17.645 -0.2355 -0.1602 -0.3844
  204MPD1     H 3157   0.136   1.889  17.407 -0.5286 -1.5299 -1.6626
  204MPD1    H1 3158   4.630   1.683  17.685  3.4299 -0.9197  1.2920
  204MPD1    H2 3159   4.548   2.085  17.583 -1.4673 -1.0797 -0.8251
  204MPD1    H3 3160   4.511   1.894  17.724 -0.2309 -0.5939 -0.3382
  204MPD1     N 3161   0.122   1.668  17.532  0.5093  0.1895 -1.0038
  204MPD1    H5 3162   0.187   1.674  17.454  0.2211 -3.8132 -1.5766
  204MPD1    N1 3163   0.005   2.118  17.424  0.8087  0.2015 -0.0310
  204MPD1    H6 3164   0.052   2.112  17.333 -0.9640 -2.0831 -0.8082
  204MPD1    H7 3165   4.659   2.175  17.421  0.4409 -0.3188  0.4775
  205MPD1     C 3166   1.001   0.226   0.280  0.5729  0.2596  0.4538
  205MPD1    C1 3167   0.912   0.122   0.296 -0.1934  0.9922 -0.1775
  205MPD1    C2 3168   0.781   0.141   0.259  0.2666  0.3682  0.5460
  205MPD1    C3 3169   0.752   0.253   0.178  0.2357  0.0089  0.2726
  205MPD1    C4 3170   0.845   0.356   0.168  0.8510 -0.3535  0.1170
  205MPD1    C5 3171   0.970   0.346   0.224  0.1736  0.3580 -0.7715
  205MPD1     H 3172   0.708   0.063   0.278  0.6136  0.1601  1.0309
  205MPD1    H1 3173   0.821   0.455   0.129 -2.5494 -1.5005 -0.7153
  205MPD1    H2 3174   1.102   0.208   0.318  0.6872  0.6833  0.3491
  205MPD1    H3 3175   1.050   0.419   0.213  1.0833 -0.1541  2.5615
  205MPD1     N 3176   0.631   0.273   0.107  0.2783  0.1215  0.5387
  205MPD1    H5 3177   0.618   0.366   0.071  1.2238  0.2619  0.5626
  205MPD1    N1 3178   0.950   0.011   0.371 -0.4693  0.0156 -0.4981
  205MPD1    H6 3179   1.051   4.735   0.378 -0.3770  1.5683  1.3611
  205MPD1    H7 3180   0.914   4.662   0.334  0.5675 -0.7478  0.3015
  206MPD1     C 3181   1.223   3.282  16.943 -0.0836  0.9518 -0.0500
  206MPD1    C1 3182   1.219   3.170  16.872  0.3606 -0.5008  0.2934
  206MPD1    C2 3183   1.110   3.148  16.784 -0.1399 -1.2840  0.1774
  206MPD1    C3 3184   1.004   3.242  16.788 -0.8464  0.0817 -0.2533
  206MPD1    C4 3185   1.005   3.354  16.873 -0.1230  0.7523 -0.1844
  206MPD1    C5 3186   1.119   3.371  16.951  0.0446 -0.2410  0.4658
  206MPD1     H 3187   1.098   3.063  16.718 -0.8632  0.7579 -2.3592
  206MPD1    H1 3188   0.923   3.424  16.882 -0.0777  0.7870 -0.0425
  206MPD1    H2 3189   1.315   3.316  16.990 -0.0094  2.1281 -1.0315
  206MPD1    H3 3190   1.127   3.458  17.015  0.6422 -3.0160  4.1423
  206MPD1     N 3191   0.892   3.228  16.704 -0.2465  0.4753 -0.1049
  206MPD1    H5 3192   0.832   3.311  16.699 -2.1566 -0.8167  1.5859
  206MPD1    N1 3193   1.336   3.087  16.878  0.6736 -0.1673  0.5440
  206MPD1    H6 3194   1.361   3.072  16.975  0.6101 -0.2103  0.5544
  206MPD1    H7 3195   1.314   2.994  16.840 -1.0003  0.4552 -0.0379
  207MPD1     C 3196   2.527   1.649   9.546  0.3611 -0.3916  0.7660
  207MPD1    C1 3197   2.543   1.526   9.495 -1.0841  0.8504  0.3834
  207MPD1    C2 3198   2.595   1.427   9.574  0.3667  0.0308  0.5518
  207MPD1    C3 3199   2.650   1.457   9.700 -0.3062 -0.6025  0.3111
  207MPD1    C4 3200   2.629   1.583   9.741  0.4160 -0.7388 -0.5368
  207MPD1    C5 3201   2.573   1.687   9.667 -0.2088 -0.5720 -0.0824
  207MPD1     H 3202   2.609   1.328   9.532 -1.3131 -0.4382  1.0937
  207MPD1    H1 3203   2.683   1.614   9.830 -0.6444 -0.6316  0.0765
  207MPD1    H2 3204   2.482   1.725   9.483  0.5707 -2.0409 -1.3732
  207MPD1    H3 3205   2.580   1.791   9.696 -1.5124 -0.1265 -1.3996
  207MPD1     N 3206   2.746   1.382   9.774 -0.0817  0.1083  0.5416
  207MPD1    H5 3207   2.785   1.437   9.849  0.2525 -0.3531  0.7096
  207MPD1    N1 3208   2.478   1.502   9.372 -0.2620  0.7610 -0.0837
  207MPD1    H6 3209   2.482   1.574   9.300  1.4882  1.0599  0.3222
  207MPD1    H7 3210   2.524   1.419   9.336 -1.3685 -0.4591  1.3307
  208MPD1     C 3211   0.319   3.239   0.197 -0.2011 -0.2673  0.0961
  208MPD1    C1 3212   0.411   3.329   0.248 -0.8357 -0.5078  0.5947
  208MPD1    C2 3213   0.385   3.462   0.218 -0.4239 -0.6717  0.0843
  208MPD1    C3 3214   0.271   3.510   0.157 -0.5766  0.1653  0.2085
  208MPD1    C4 3215   0.175   3.423   0.130 -0.0787  0.5388 -0.0226
  208MPD1    C5 3216   0.197   3.284   0.151  0.2183 -0.0283  0.5523
  208MPD1     H 3217   0.460   3.533   0.249 -1.0706  0.2816 -0.4950
  208MPD1    H1 3218   0.091   3.451   0.068  0.8974 -1.2455 -2.1483
  208MPD1    H2 3219   0.343   3.133   0.189  0.7876 -0.0688  0.3648
  208MPD1    H3 3220   0.124   3.210   0.122 -0.5573  1.3223 -0.9528
  208MPD1     N 3221   0.254   3.649   0.140  0.2384 -0.5557 -0.0937
  208MPD1    H5 3222   0.326   3.709   0.179  0.9803 -0.3484 -1.7905
  208MPD1    N1 3223   0.534   3.277   0.282 -0.2760 -0.0381  0.3605
  208MPD1    H6 3224   0.587   3.345   0.336 -0.0048 -0.1620  0.2497
  208MPD1    H7 3225   0.533   3.187   0.330  0.7529  0.3761  1.1842
  209MPD1     C 3226   2.935   4.294   9.836  0.0401  0.0463  0.3355
  209MPD1    C1 3227   2.942   4.421   9.791 -0.0965  0.3539  0.2480
  209MPD1    C2 3228   3.012   4.520   9.858  0.8463 -0.3154 -0.1874
  209MPD1    C3 3229   3.075   4.489   9.975  0.7526 -0.2497  0.7144
  209MPD1    C4 3230   3.067   4.363  10.026  0.4323 -0.6773  1.1337
  209MPD1    C5 3231   2.988   4.271   9.959  0.2189  0.1370  0.3258
  209MPD1     H 3232   3.026   4.618   9.815 -1.1625  1.1921  2.5367
  209MPD1    H1 3233   3.121   4.341  10.117  0.2898 -2.3316  0.8100
  209MPD1    H2 3234   2.893   4.204   9.791  2.4374 -0.2561 -1.2802
  209MPD1    H3 3235   2.989   4.167   9.989 -0.7746 -0.4226 -1.6329
  209MPD1     N 3236   3.135   4.604  10.040 -0.1208 -0.1790 -0.1146
  209MPD1    H5 3237   3.148   4.689   9.987 -0.4462  0.3396  0.6388
  209MPD1    N1 3238   2.892   4.437   9.663 -0.8972  0.0532  0.2219
  209MPD1    H6 3239   2.808   4.383   9.645  0.5403 -0.9316 -3.3653
  209MPD1    H7 3240   2.872   4.534   9.638 -0.9093 -0.5109 -1.9093
  210MPD1     C 3241   3.466   0.422  10.938 -0.6509  0.1097 -0.4443
  210MPD1    C1 3242   3.406   0.301  10.928 -0.5261 -0.2831 -0.0286
  210MPD1    C2 3243   3.392   0.246  10.802 -0.8947 -0.0618 -0.2586
  210MPD1    C3 3244   3.409   0.324  10.686 -0.3983  0.4540 -0.3283
  210MPD1    C4 3245   3.467   0.448  10.699  0.1315 -0.3207  0.2454
  210MPD1    C5 3246   3.496   0.493  10.824  0.5142 -0.0532  0.2424
  210MPD1     H 3247   3.355   0.144  10.797 -1.2274  0.0281  0.3004
  210MPD1    H1 3248   3.482   0.511  10.612  1.1014 -0.0398  0.6159
  210MPD1    H2 3249   3.489   0.465  11.034 -0.6950 -1.4774  0.2701
  210MPD1    H3 3250   3.531   0.592  10.848 -1.5945  0.5748  0.7707
  210MPD1     N 3251   3.394   0.273  10.558 -0.3027 -0.0293  0.9200
  210MPD1    H5 3252   3.415   0.337  10.482 -1.2611 -0.9444 -0.1309
  210MPD1    N1 3253   3.391   0.228  11.046 -0.3889  0.7264  0.3765
  210MPD1    H6 3254   3.378   0.295  11.121  1.5327  1.3258  0.1850
  210MPD1    H7 3255   3.308   0.169  11.041  0.5187 -0.5017 -0.2240
  211MPD1     C 3256   1.303   0.725  17.402 -0.3372  1.0811  0.4500
  211MPD1    C1 3257   1.263   0.825  17.312 -0.5316 -0.0318  0.5775
  211MPD1    C2 3258   1.177   0.787  17.217  0.5294  0.5933 -0.4788
  211MPD1    C3 3259   1.106   0.670  17.223  0.1079 -0.0538 -0.0443
  211MPD1    C4 3260   1.140   0.572  17.313 -0.0671 -0.2723  0.7181
  211MPD1    C5 3261   1.239   0.603  17.402 -0.1717  0.6115 -0.6688
  211MPD1     H 3262   1.124   0.854  17.150 -1.8530 -2.5124 -1.7254
  211MPD1    H1 3263   1.073   0.492  17.343 -0.1135 -0.8915 -1.0276
  211MPD1    H2 3264   1.382   0.747  17.473  0.7123  1.0473 -0.7141
  211MPD1    H3 3265   1.264   0.539  17.486  0.2750 -1.2221 -2.1882
  211MPD1     N 3266   0.985   0.655  17.146  0.3451  0.2550 -0.0372
  211MPD1    H5 3267   0.961   0.734  17.086 -2.5218 -0.4802  0.1293
  211MPD1    N1 3268   1.339   0.948  17.308 -0.2382  0.1671  0.1926
  211MPD1    H6 3269   1.274   1.024  17.292  0.4505  1.0060  1.3625
  211MPD1    H7 3270   1.387   0.969  17.395 -1.8291  2.0207  0.6292
  212MPD1     C 3271   0.234   3.566  16.228  0.1495  0.0299  0.3341
  212MPD1    C1 3272   0.217   3.645  16.340  0.1350  0.0396 -0.1441
  212MPD1    C2 3273   0.144   3.586  16.438  0.2023  0.2106 -0.1373
  212MPD1    C3 3274   0.105   3.456  16.435  0.0772 -0.6235  0.4543
  212MPD1    C4 3275   0.131   3.378  16.330  0.0787  0.5693  0.4032
  212MPD1    C5 3276   0.200   3.437  16.224  0.9206 -1.0281  0.2580
  212MPD1     H 3277   0.109   3.652  16.516  2.2585  2.9427 -1.5104
  212MPD1    H1 3278   0.089   3.279  16.317  0.3960  0.4545  0.2584
  212MPD1    H2 3279   0.288   3.603  16.142 -2.6137  0.8356 -1.0399
  212MPD1    H3 3280   0.227   3.381  16.136 -2.0601 -0.0774 -1.2703
  212MPD1     N 3281   0.042   3.380  16.530 -0.0153 -0.3858  0.5456
  212MPD1    H5 3282   0.043   3.279  16.521 -2.4370 -0.2395 -1.3702
  212MPD1    N1 3283   0.241   3.783  16.341 -0.1926  0.5568  0.4317
  212MPD1    H6 3284   0.241   3.828  16.433  1.6715  1.0600  0.1908
  212MPD1    H7 3285   0.338   3.801  16.314  0.8462 -1.7842  2.6769
  213MPD1     C 3286   3.053   4.342  15.877  0.4014  0.0969  0.5373
  213MPD1    C1 3287   3.094   4.222  15.823 -0.1053  0.1729  0.6329
  213MPD1    C2 3288   3.034   4.188  15.698  0.8539  0.3966 -0.4931
  213MPD1    C3 3289   2.980   4.279  15.616 -0.1968 -0.3722 -0.0583
  213MPD1    C4 3290   2.959   4.409  15.662 -0.0815 -0.3157  0.1701
  213MPD1    C5 3291   2.999   4.435  15.793  0.0743  0.7699 -0.4217
  213MPD1     H 3292   3.039   4.087  15.659 -2.6384 -0.0895  0.3631
  213MPD1    H1 3293   2.907   4.488  15.610  0.3799  0.2731  0.6065
  213MPD1    H2 3294   3.077   4.359  15.981 -1.2444  1.1382  0.7405
  213MPD1    H3 3295   2.981   4.531  15.840  2.6232  0.4338  1.2563
  213MPD1     N 3296   2.949   4.239  15.485 -0.8568 -0.2221 -0.5566
  213MPD1    H5 3297   2.965   4.144  15.453 -0.4645 -0.3676  0.0683
  213MPD1    N1 3298   3.137   4.122  15.911 -0.0641  0.4799 -0.4129
  213MPD1    H6 3299   3.204   4.065  15.860  1.5109  1.3342  0.7064
  213MPD1    H7 3300   3.191   4.161  15.988  1.4937 -3.1941  0.3532
  214MPD1     C 3301   2.366   3.642  15.530 -0.5044  0.2185  0.5881
  214MPD1    C1 3302   2.419   3.618  15.401  0.2142  0.5025 -0.2165
  214MPD1    C2 3303   2.506   3.714  15.349  0.2976  0.3816 -0.0269
  214MPD1    C3 3304   2.513   3.845  15.401  0.3981  0.1601  0.4494
  214MPD1    C4 3305   2.435   3.877  15.508 -0.0319 -0.1956  0.1876
  214MPD1    C5 3306   2.370   3.771  15.576  0.5356  0.0929 -0.4364
  214MPD1     H 3307   2.562   3.680  15.262  0.8388  0.6849  0.2013
  214MPD1    H1 3308   2.427   3.980  15.541 -0.1052 -0.3498  0.6559
  214MPD1    H2 3309   2.306   3.564  15.575 -1.0865  0.7115  0.6697
  214MPD1    H3 3310   2.318   3.801  15.666 -1.8232 -0.1112 -1.7318
  214MPD1     N 3311   2.598   3.943  15.340  0.1591 -0.5227 -0.1983
  214MPD1    H5 3312   2.607   4.033  15.387  0.7859 -0.4170 -0.5329
  214MPD1    N1 3313   2.419   3.485  15.348  0.0553  0.2209  0.6294
  214MPD1    H6 3314   2.325   3.450  15.358  0.1822 -0.5479 -0.8268
  214MPD1    H7 3315   2.423   3.489  15.246 -0.4979  1.5801  0.6606
  215MPD1     C 3316   2.685   0.213  10.340 -0.3373  0.2258  0.5507
  215MPD1    C1 3317   2.722   0.348  10.319 -0.3328  0.6883  0.3145
  215MPD1    C2 3318   2.810   0.402  10.399 -0.0847  0.5691 -0.0135
  215MPD1    C3 3319   2.871   0.336  10.507 -0.1307 -0.1122 -0.0403
  215MPD1    C4 3320   2.846   0.200  10.519  1.3196  0.7145 -0.0774
  215MPD1    C5 3321   2.758   0.142  10.433  0.2266  0.2789  0.3907
  215MPD1     H 3322   2.841   0.506  10.387  2.5028 -0.1049  0.7432
  215MPD1    H1 3323   2.893   0.136  10.592  0.3580  0.4197  0.2818
  215MPD1    H2 3324   2.611   0.155  10.286 -1.1100  1.2523  0.5113
  215MPD1    H3 3325   2.739   0.036  10.444  0.2136  0.3424  0.9914
  215MPD1     N 3326   2.969   0.414  10.578 -0.3221 -0.5001 -0.5695
  215MPD1    H5 3327   2.988   0.509  10.547 -3.1888  0.6851  1.2453
  215MPD1    N1 3328   2.639   0.427  10.227 -0.2915 -0.0777 -0.3162
  215MPD1    H6 3329   2.605   0.370  10.150 -2.1576  2.1255 -1.1193
  215MPD1    H7 3330   2.674   0.518  10.198 -0.3065  0.3250  0.9329
  216MPD1     C 3331   4.682   3.357  17.500 -0.5386  0.3224 -0.1448
  216MPD1    C1 3332   4.608   3.275  17.417  0.0302  0.4397 -0.0129
  216MPD1    C2 3333   4.593   3.148  17.467 -0.3115  0.6070  0.3391
  216MPD1    C3 3334   4.689   3.092  17.549 -0.1363 -0.2002  0.1818
  216MPD1    C4 3335   0.037   3.174  17.616 -0.2693 -0.2047  0.2823
  216MPD1    C5 3336   0.025   3.306  17.593  0.5705 -0.4005 -0.1258
  216MPD1     H 3337   4.518   3.084  17.422  0.1718  0.6804 -0.5513
  216MPD1    H1 3338   0.117   3.131  17.676 -0.0600 -0.2933 -0.0604
  216MPD1    H2 3339   4.681   3.462  17.474 -1.3498  0.6381  1.1582
  216MPD1    H3 3340   0.092   3.373  17.645  0.5455  0.2377 -0.9190
  216MPD1     N 3341   4.686   2.951  17.566  0.9554 -0.0179 -0.1951
  216MPD1    H5 3342   4.610   2.903  17.518  0.0073 -0.0272  1.3293
  216MPD1    N1 3343   4.514   3.327  17.323  0.3239  0.0242 -0.6254
  216MPD1    H6 3344   4.508   3.272  17.238  1.1146 -1.1020  0.0599
  216MPD1    H7 3345   4.541   3.421  17.293 -0.2254  0.5610  0.5172
  217MPD1     C 3346   1.013   0.632   8.397  0.7152 -0.0333 -0.0203
  217MPD1    C1 3347   1.116   0.581   8.474 -0.0911  0.4710 -0.5987
  217MPD1    C2 3348   1.085   0.522   8.594 -0.0064  0.4205  0.1274
  217MPD1    C3 3349   0.960   0.520   8.647 -0.5187 -0.1527 -0.4424
  217MPD1    C4 3350   0.866   0.593   8.581 -0.1644 -0.4223  0.0971
  217MPD1    C5 3351   0.891   0.648   8.458  0.5690 -0.4289 -0.9730
  217MPD1     H 3352   1.162   0.470   8.650  1.8705  1.3159 -1.6076
  217MPD1    H1 3353   0.765   0.588   8.620  1.2267  0.9676  3.8580
  217MPD1    H2 3354   1.021   0.675   8.298 -1.5060 -0.4465 -0.3924
  217MPD1    H3 3355   0.809   0.682   8.396  0.6783  3.2311  0.8776
  217MPD1     N 3356   0.918   0.457   8.762  0.1445 -0.9682  0.4121
  217MPD1    H5 3357   0.833   0.485   8.809 -0.0642 -0.9581  0.0272
  217MPD1    N1 3358   1.241   0.559   8.412  0.0307 -0.1698  1.2590
  217MPD1    H6 3359   1.255   0.632   8.342  0.6271 -1.4296  0.0680
  217MPD1    H7 3360   1.317   0.564   8.480  0.8107 -0.8584  0.4369
  218MPD1     C 3361   2.835   1.125  12.640 -0.4070 -0.0828  0.1569
  218MPD1    C1 3362   2.963   1.094  12.613  0.0338 -0.5365 -0.6542
  218MPD1    C2 3363   2.985   0.981  12.541 -0.4112 -0.0564 -0.0559
  218MPD1    C3 3364   2.886   0.923  12.466 -0.5593 -0.0201 -0.6221
  218MPD1    C4 3365   2.756   0.966  12.487  0.0657 -0.3080  0.2370
  218MPD1    C5 3366   2.732   1.074  12.574 -0.2265  0.0649  0.0557
  218MPD1     H 3367   3.083   0.938  12.524 -0.3696 -0.6370  1.6781
  218MPD1    H1 3368   2.670   0.925  12.437 -0.3160 -0.1662  0.7795
  218MPD1    H2 3369   2.811   1.204  12.711 -0.4721 -0.4698  0.5666
  218MPD1    H3 3370   2.629   1.096  12.600 -0.0329 -1.2267  1.9372
  218MPD1     N 3371   2.915   0.815  12.371 -0.0179  0.7591  0.0909
  218MPD1    H5 3372   3.004   0.767  12.380 -1.1530 -0.9087  2.2057
  218MPD1    N1 3373   3.070   1.144  12.688  0.3797 -0.5674 -0.1301
  218MPD1    H6 3374   3.046   1.240  12.712  1.0779 -0.6873  1.0280
  218MPD1    H7 3375   3.158   1.138  12.637 -0.7089  1.8583 -2.2905
  219MPD1     C 3376   2.784   0.231  11.468  0.0566 -0.7914  0.1705
  219MPD1    C1 3377   2.861   0.340  11.495  0.1154  0.4202 -0.7590
  219MPD1    C2 3378   2.879   0.381  11.626 -0.1039  0.9440 -0.0404
  219MPD1    C3 3379   2.822   0.318  11.732  0.1592 -0.2923  0.2284
  219MPD1    C4 3380   2.748   0.207  11.713  0.5698 -0.3511 -0.0136
  219MPD1    C5 3381   2.735   0.162  11.573  0.1847 -0.4796  0.6168
  219MPD1     H 3382   2.944   0.465  11.650  0.3949  0.4541  0.3275
  219MPD1    H1 3383   2.713   0.142  11.793  1.6691  0.4608  1.1289
  219MPD1    H2 3384   2.775   0.194  11.366 -0.3725  0.9384 -0.4258
  219MPD1    H3 3385   2.687   0.065  11.564 -0.3675 -0.1058 -0.3652
  219MPD1     N 3386   2.830   0.360  11.869  0.0361 -0.0360 -0.0772
  219MPD1    H5 3387   2.783   0.298  11.935  0.5462 -1.2701 -0.8615
  219MPD1    N1 3388   2.928   0.405  11.388 -0.2703 -0.1466 -0.0410
  219MPD1    H6 3389   3.002   0.472  11.409 -0.2620 -0.5094  1.1078
  219MPD1    H7 3390   2.936   0.361  11.297  0.4074 -0.6389  0.2543
  220MPD1     C 3391   2.106   1.609   9.835 -0.7698  0.2312 -0.2567
  220MPD1    C1 3392   2.212   1.639   9.922  0.5827  0.1242 -0.0058
  220MPD1    C2 3393   2.308   1.541   9.950  0.1451 -0.3595  1.1019
  220MPD1    C3 3394   2.283   1.418   9.893  0.3196 -0.5743 -0.0294
  220MPD1    C4 3395   2.176   1.392   9.812  0.3652  0.0372  0.4019
  220MPD1    C5 3396   2.087   1.486   9.785 -0.2648 -0.1411  0.1590
  220MPD1     H 3397   2.399   1.564  10.004  1.7660 -1.8654 -0.9597
  220MPD1    H1 3398   2.163   1.296   9.765  0.2795  0.4152 -0.3410
  220MPD1    H2 3399   2.030   1.678   9.798  0.1221  1.4504  0.1737
  220MPD1    H3 3400   2.005   1.465   9.717 -0.9522 -1.0278  1.2501
  220MPD1     N 3401   2.378   1.322   9.919 -0.0667 -0.1104  0.2699
  220MPD1    H5 3402   2.453   1.366   9.973 -1.1041  2.1288 -0.1283
  220MPD1    N1 3403   2.237   1.772   9.961 -0.0306  0.2927  0.2112
  220MPD1    H6 3404   2.305   1.774  10.037  1.2711  1.9155 -1.0115
  220MPD1    H7 3405   2.150   1.812   9.994 -0.5575  1.5151 -2.7435
  221MPD1     C 3406   1.490   3.824  16.922  0.2057  0.7233 -0.2288
  221MPD1    C1 3407   1.482   3.732  16.816  0.3589 -0.5385  0.2955
  221MPD1    C2 3408   1.476   3.779  16.690  0.3208  0.1573 -0.2340
  221MPD1    C3 3409   1.472   3.914  16.665 -0.7422  0.7096 -0.5906
  221MPD1    C4 3410   1.484   4.007  16.765  0.3832 -1.0797 -0.3821
  221MPD1    C5 3411   1.496   3.959  16.894 -0.0594  0.1960 -0.4581
  221MPD1     H 3412   1.484   3.704  16.612 -1.2589  1.6968 -1.8686
  221MPD1    H1 3413   1.496   4.114  16.747  1.2131 -1.2834 -1.0399
  221MPD1    H2 3414   1.497   3.793  17.025 -0.7407  0.0916 -0.3440
  221MPD1    H3 3415   1.508   4.030  16.974 -2.2458  1.1249 -0.9459
  221MPD1     N 3416   1.472   3.972  16.537 -0.1893  0.9229  0.5383
  221MPD1    H5 3417   1.478   4.074  16.533 -2.3062  0.9787 -1.2241
  221MPD1    N1 3418   1.459   3.599  16.838  0.3877  0.8171  0.5097
  221MPD1    H6 3419   1.469   3.548  16.750 -1.1486  0.2898  0.6360
  221MPD1    H7 3420   1.508   3.552  16.913  1.0146  0.6225 -0.0156
  222MPD1     C 3421   4.405   3.859  17.350 -0.3715  0.9254 -0.7154
  222MPD1    C1 3422   4.333   3.745  17.366  0.9172  0.3160 -0.0097
  222MPD1    C2 3423   4.357   3.662  17.477  0.2493  0.1987  0.6329
  222MPD1    C3 3424   4.466   3.686  17.557  0.1071 -0.0008  0.1241
  222MPD1    C4 3425   4.542   3.798  17.528 -0.0470  0.3797 -0.5314
  222MPD1    C5 3426   4.521   3.885  17.422 -0.1464  0.0816  0.3100
  222MPD1     H 3427   4.281   3.585  17.492  0.6980 -0.8568 -2.4307
  222MPD1    H1 3428   4.620   3.819  17.601 -1.4614  1.5756  0.6443
  222MPD1    H2 3429   4.380   3.931  17.274  0.1692  0.3379 -1.4523
  222MPD1    H3 3430   4.586   3.970  17.405  1.9483 -1.3791  0.9388
  222MPD1     N 3431   4.494   3.618  17.675  0.0694  0.1974  0.2841
  222MPD1    H5 3432   4.576   3.652  17.724  0.1113 -0.9815  1.0400
  222MPD1    N1 3433   4.223   3.722  17.278  0.3362  0.1005 -0.1472
  222MPD1    H6 3434   4.246   3.749  17.183  0.4494 -1.6198 -0.6116
  222MPD1    H7 3435   4.195   3.624  17.276 -1.6744  0.7043 -0.9929
  223MPD1     C 3436   4.457   2.649   0.119  0.8557 -0.2826 -0.3503
  223MPD1    C1 3437   4.365   2.737   0.059 -0.0609  0.1254  0.3627
  223MPD1    C2 3438   4.387   2.870   0.069  0.1602  0.5679 -0.0723
  223MPD1    C3 3439   4.497   2.921   0.139  0.4814  0.3893 -0.0184
  223MPD1    C4 3440   4.592   2.834   0.190  0.1493  0.3515  0.3881
  223MPD1    C5 3441   4.573   2.697   0.173 -0.0037 -0.7674  0.4067
  223MPD1     H 3442   4.318   2.936   0.017  1.1533  0.8887 -0.9826
  223MPD1    H1 3443   4.668   2.867   0.260  1.3101  0.4599 -0.9318
  223MPD1    H2 3444   4.429   2.545   0.127  0.4773 -0.1580 -0.0473
  223MPD1    H3 3445   4.639   2.629   0.226  0.0532 -0.9814  0.0664
  223MPD1     N 3446   4.502   3.060   0.153  0.3925 -0.3921 -0.4246
  223MPD1    H5 3447   4.418   3.106   0.121  0.7537  1.0936  0.7479
  223MPD1    N1 3448   4.235   2.694   0.022  0.2111 -0.0097 -0.9260
  223MPD1    H6 3449   4.238   2.605  17.724 -0.3184 -0.7936  0.4660
  223MPD1    H7 3450   4.189   2.765  17.718 -0.9641 -0.3194 -0.3407
  224MPD1     C 3451   0.932   0.705   9.120  0.4435 -0.7530  0.3194
  224MPD1    C1 3452   0.809   0.727   9.175 -0.1950  0.1075  0.1362
  224MPD1    C2 3453   0.763   0.645   9.278 -0.5669  0.2837  0.1286
  224MPD1    C3 3454   0.848   0.561   9.345 -0.5054 -0.1747  0.1611
  224MPD1    C4 3455   0.977   0.553   9.302 -0.6055  0.3872  0.0367
  224MPD1    C5 3456   1.019   0.616   9.189  0.3767 -0.5877 -0.3772
  224MPD1     H 3457   0.659   0.652   9.307 -0.8808  1.1106 -1.2006
  224MPD1    H1 3458   1.052   0.508   9.365 -1.1840  1.8566  1.7817
  224MPD1    H2 3459   0.967   0.756   9.032 -0.2569 -0.5094  0.1807
  224MPD1    H3 3460   1.123   0.605   9.160  0.4819 -0.9815  0.1657
  224MPD1     N 3461   0.818   0.497   9.469  0.0991  0.2562  0.3984
  224MPD1    H5 3462   0.903   0.475   9.521  1.0370 -1.8049 -2.0789
  224MPD1    N1 3463   0.731   0.821   9.107 -0.0103  0.0345 -0.2611
  224MPD1    H6 3464   0.664   0.862   9.171  0.3207  0.9038 -0.4603
  224MPD1    H7 3465   0.794   0.895   9.076  1.4574 -1.7174 -1.4812
  225MPD1     C 3466   2.893   1.165  13.025 -0.6214  0.7380  0.6012
  225MPD1    C1 3467   2.893   1.292  12.969  0.6182 -0.5207 -0.6885
  225MPD1    C2 3468   2.763   1.346  12.958  0.9652  0.1218  0.5139
  225MPD1    C3 3469   2.648   1.271  12.999 -0.0590  0.3666  0.4023
  225MPD1    C4 3470   2.668   1.148  13.056 -0.4613  0.1080  0.6356
  225MPD1    C5 3471   2.790   1.095  13.062 -0.1590  0.7331  0.0480
  225MPD1     H 3472   2.744   1.443  12.914 -1.8336  0.1789  1.8558
  225MPD1    H1 3473   2.577   1.097  13.086 -1.8896  2.0449 -0.4143
  225MPD1    H2 3474   2.986   1.109  13.029 -1.9884 -1.7778 -3.2953
  225MPD1    H3 3475   2.798   0.995  13.104  1.1200  0.9405  0.3182
  225MPD1     N 3476   2.515   1.317  12.992 -0.8827 -0.5369  0.3766
  225MPD1    H5 3477   2.437   1.257  13.019 -0.9402 -0.7160 -0.1853
  225MPD1    N1 3478   3.012   1.361  12.955 -1.0820 -0.3037 -0.1761
  225MPD1    H6 3479   3.089   1.297  12.937  1.4584  1.6421  3.5887
  225MPD1    H7 3480   3.013   1.423  12.875 -0.4733 -0.4382 -0.2749
  226MPD1     C 3481   4.390   1.294   9.234  0.0421  0.1734  0.8274
  226MPD1    C1 3482   4.524   1.326   9.207  0.1743  0.8067  0.4548
  226MPD1    C2 3483   4.616   1.226   9.211  0.2165 -0.5271 -0.4026
  226MPD1    C3 3484   4.592   1.104   9.258 -0.9171 -0.4685 -0.4352
  226MPD1    C4 3485   4.462   1.079   9.301  0.0453 -0.7728 -0.3774
  226MPD1    C5 3486   4.366   1.177   9.298 -0.2911  0.0939  0.0083
  226MPD1     H 3487   4.714   1.248   9.171 -0.0277  0.3810 -0.4884
  226MPD1    H1 3488   4.437   0.984   9.347  1.7905 -0.2298  1.7004
  226MPD1    H2 3489   4.312   1.368   9.218  0.9455  0.9567 -0.0175
  226MPD1    H3 3490   4.269   1.161   9.344 -0.0806 -1.6330 -0.1719
  226MPD1     N 3491   4.695   1.010   9.256  0.0794  0.5896 -0.0305
  226MPD1    H5 3492   0.043   1.034   9.209 -0.9019  0.8326 -1.7312
  226MPD1    N1 3493   4.551   1.446   9.146 -0.2920 -0.5618 -0.3091
  226MPD1    H6 3494   4.650   1.470   9.155 -0.1903 -0.6701 -1.1637
  226MPD1    H7 3495   4.492   1.521   9.182  1.0881  0.2771  0.2194
  227MPD1     C 3496   0.384   0.072   9.611 -0.2604  0.3592  0.5517
  227MPD1    C1 3497   0.469   0.133   9.517 -0.3423 -0.1448  0.2292
  227MPD1    C2 3498   0.446   0.269   9.493 -0.2398 -0.2783 -0.2546
  227MPD1    C3 3499   0.330   0.334   9.545 -0.2185 -0.5053  0.5033
  227MPD1    C4 3500   0.240   0.269   9.622  0.1872 -0.1601  0.4764
  227MPD1    C5 3501   0.270   0.140   9.651  0.3497  0.1197  0.3394
  227MPD1     H 3502   0.518   0.321   9.430 -0.4684  0.8653  0.4134
  227MPD1    H1 3503   0.144   0.304   9.657 -0.6204 -1.7873 -0.0908
  227MPD1    H2 3504   0.410   4.708   9.634 -1.0720  0.6627  2.7801
  227MPD1    H3 3505   0.202   0.082   9.713  0.7402  0.4863  1.1167
  227MPD1     N 3506   0.316   0.469   9.511 -0.4897  0.1037  0.1524
  227MPD1    H5 3507   0.399   0.523   9.487 -0.7442  0.8541  0.9639
  227MPD1    N1 3508   0.588   0.078   9.478  0.0023 -1.1724  0.1689
  227MPD1    H6 3509   0.566   4.718   9.465  2.1201 -1.8286  1.6079
  227MPD1    H7 3510   0.603   0.118   9.386  0.6981  1.3785  1.3890
  228MPD1     C 3511   3.902   2.661  12.603 -0.0745 -0.3809  0.1270
  228MPD1    C1 3512   3.975   2.769  12.565 -0.8928  0.5043  0.0600
  228MPD1    C2 3513   3.978   2.891  12.636 -0.4620 -0.2870 -0.1816
  228MPD1    C3 3514   3.899   2.904  12.747  0.0893 -0.0229 -0.6458
  228MPD1    C4 3515   3.819   2.793  12.782  0.0102  0.2290  0.6097
  228MPD1    C5 3516   3.825   2.679  12.714 -0.5358  0.2643  0.3139
  228MPD1     H 3517   4.050   2.964  12.600 -1.5497  0.7117 -0.3292
  228MPD1    H1 3518   3.753   2.794  12.868 -0.5199 -1.1268  0.2199
  228MPD1    H2 3519   3.903   2.567  12.547  2.0487  1.0357 -2.2388
  228MPD1    H3 3520   3.750   2.606  12.743 -0.5672  0.1711  0.0016
  228MPD1     N 3521   3.909   3.029  12.819 -0.0610 -1.3834  0.6401
  228MPD1    H5 3522   3.958   3.101  12.766 -0.8889 -0.4261  1.1838
  228MPD1    N1 3523   4.089   2.742  12.486 -0.4276 -0.5495 -0.0277
  228MPD1    H6 3524   4.069   2.678  12.409 -1.7991 -0.6878  0.4422
  228MPD1    H7 3525   4.133   2.829  12.456  0.8038 -0.8247  0.9767
  229MPD1     C 3526   3.493   2.500  15.071  0.4847 -0.3476  0.4016
  229MPD1    C1 3527   3.599   2.544  15.142  0.1425  0.7056  0.1013
  229MPD1    C2 3528   3.718   2.472  15.136 -0.4334  0.4384 -0.2365
  229MPD1    C3 3529   3.709   2.341  15.098 -1.1062  0.1617 -0.0651
  229MPD1    C4 3530   3.601   2.298  15.031  0.4134 -0.1481 -0.0300
  229MPD1    C5 3531   3.492   2.380  15.008  0.2872  0.4971 -0.8236
  229MPD1     H 3532   3.813   2.512  15.172 -0.0518 -0.8640  0.1815
  229MPD1    H1 3533   3.596   2.210  14.968  0.7232 -0.8745  0.9742
  229MPD1    H2 3534   3.414   2.573  15.060 -1.3061 -2.3168  0.3573
  229MPD1    H3 3535   3.403   2.348  14.954 -0.0158 -0.9627  0.5348
  229MPD1     N 3536   3.824   2.261  15.110 -0.1873 -0.1638 -0.5591
  229MPD1    H5 3537   3.905   2.310  15.145  0.7848 -3.1942  1.4210
  229MPD1    N1 3538   3.607   2.679  15.177  0.1728 -0.1147  0.4229
  229MPD1    H6 3539   3.528   2.735  15.209 -1.1003 -0.6604 -1.7587
  229MPD1    H7 3540   3.686   2.701  15.237  0.7640  1.1734 -0.8097
  230MPD1     C 3541   4.347   2.092  15.884  0.0281 -0.2606 -0.3275
  230MPD1    C1 3542   4.377   1.968  15.823  0.1019 -0.3924 -0.5783
  230MPD1    C2 3543   4.338   1.964  15.688  0.2344  0.0964 -0.3148
  230MPD1    C3 3544   4.275   2.062  15.620 -0.4447  0.8456 -0.3317
  230MPD1    C4 3545   4.235   2.169  15.694  0.8440 -0.4403  0.8699
  230MPD1    C5 3546   4.280   2.188  15.820  0.0739 -0.6420 -0.6316
  230MPD1     H 3547   4.371   1.879  15.630 -0.0006 -1.1336  1.3553
  230MPD1    H1 3548   4.180   2.250  15.646  1.5922  0.7010  1.9329
  230MPD1    H2 3549   4.371   2.117  15.986  0.6026 -1.8456 -0.0775
  230MPD1    H3 3550   4.251   2.286  15.857  0.4133 -1.4331  1.6924
  230MPD1     N 3551   4.239   2.042  15.483  0.4576  0.4359 -0.5291
  230MPD1    H5 3552   4.247   1.948  15.446  1.2426  0.3194 -0.0784
  230MPD1    N1 3553   4.452   1.870  15.890  0.5581 -0.0707  0.2526
  230MPD1    H6 3554   4.471   1.785  15.838 -0.9571  1.0881 -2.2104
  230MPD1    H7 3555   4.536   1.911  15.929 -0.1618 -0.1086  1.8253
  231MPD1     C 3556   2.353   3.964  15.105  0.1391 -0.2075  0.3932
  231MPD1    C1 3557   2.379   3.956  14.970  0.3368 -0.2076 -0.1926
  231MPD1    C2 3558   2.425   4.075  14.906  0.4388 -0.1774  0.2030
  231MPD1    C3 3559   2.415   4.202  14.968 -0.4296 -0.1521 -0.3500
  231MPD1    C4 3560   2.377   4.201  15.100 -0.3029 -0.4496 -0.6332
  231MPD1    C5 3561   2.340   4.089  15.160  0.3625  0.9447  0.6183
  231MPD1     H 3562   2.448   4.079  14.800  0.6173  1.5593  0.3070
  231MPD1    H1 3563   2.359   4.289  15.161 -2.2594 -1.3628  0.1031
  231MPD1    H2 3564   2.335   3.881  15.171  2.6286 -1.9694 -1.1342
  231MPD1    H3 3565   2.305   4.105  15.261  1.0984 -1.2359  1.2197
  231MPD1     N 3566   2.445   4.322  14.891 -0.0241  0.3455  0.5457
  231MPD1    H5 3567   2.469   4.306  14.793 -2.0056  1.8627 -0.1856
  231MPD1    N1 3568   2.369   3.836  14.900  0.5866 -0.2461  0.2337
  231MPD1    H6 3569   2.375   3.865  14.802 -1.7269  0.1368  0.1925
  231MPD1    H7 3570   2.296   3.773  14.930  1.0092  0.2570  2.2843
  232MPD1     C 3571   4.016   2.026   0.206 -0.2020 -0.7675  0.1471
  232MPD1    C1 3572   3.942   2.144   0.223 -0.0773  0.2225 -0.5653
  232MPD1    C2 3573   3.805   2.136   0.196  0.2605 -0.5206  0.1025
  232MPD1    C3 3574   3.738   2.022   0.154 -0.0466  0.5125  0.0798
  232MPD1    C4 3575   3.813   1.906   0.148 -0.2162  0.1389 -0.4664
  232MPD1    C5 3576   3.949   1.908   0.169  0.3138 -0.4002 -0.3808
  232MPD1     H 3577   3.745   2.226   0.191  0.4365 -0.2586  2.6775
  232MPD1    H1 3578   3.765   1.809   0.133  0.2717 -0.1281 -0.2929
  232MPD1    H2 3579   4.123   2.027   0.226 -0.0191 -1.7274 -0.7175
  232MPD1    H3 3580   4.003   1.814   0.164 -1.5264 -1.3179 -2.9292
  232MPD1     N 3581   3.603   2.031   0.106  0.4109  0.2849  0.4084
  232MPD1    H5 3582   3.571   2.128   0.107  4.0776  1.5244  0.1999
  232MPD1    N1 3583   4.004   2.272   0.249 -0.4244  0.4536 -0.3463
  232MPD1    H6 3584   4.082   2.254   0.311 -1.7884 -2.8965  0.4348
  232MPD1    H7 3585   3.936   2.335   0.291  0.9449  1.9107 -0.3346
  233MPD1     C 3586   1.446   0.927   1.817 -0.5813 -0.3137  0.1695
  233MPD1    C1 3587   1.419   0.896   1.688  0.0418 -0.2313 -0.0667
  233MPD1    C2 3588   1.401   0.762   1.654 -0.4213  0.0270  0.1010
  233MPD1    C3 3589   1.386   0.664   1.754  0.3313  0.1515 -0.3041
  233MPD1    C4 3590   1.405   0.709   1.886 -1.3377  0.0048  0.7676
  233MPD1    C5 3591   1.443   0.836   1.918  0.1241 -0.0373 -0.2852
  233MPD1     H 3592   1.385   0.741   1.549  2.2659  1.1152 -0.5424
  233MPD1    H1 3593   1.427   0.629   1.957 -0.6270 -0.3697  0.1245
  233MPD1    H2 3594   1.450   1.031   1.848  1.1399  0.6696 -3.3038
  233MPD1    H3 3595   1.470   0.874   2.016 -0.6398  2.7991 -1.1937
  233MPD1     N 3596   1.356   0.530   1.727 -1.0648  0.1096 -0.0635
  233MPD1    H5 3597   1.346   0.473   1.810 -2.3490  0.5331  0.0728
  233MPD1    N1 3598   1.443   0.995   1.588 -0.4326 -0.0978  0.5480
  233MPD1    H6 3599   1.372   0.978   1.517  1.5091 -4.9876 -0.2720
  233MPD1    H7 3600   1.440   1.088   1.629  0.2972  0.2335 -0.1464
  234MPD1     C 3601   1.184   3.578   9.538 -0.5373 -0.7051 -0.2320
  234MPD1    C1 3602   1.151   3.676   9.443 -0.0741 -0.4594 -0.4470
  234MPD1    C2 3603   1.175   3.809   9.471  0.6689  0.2833  0.1046
  234MPD1    C3 3604   1.217   3.848   9.592 -0.3055 -0.4962  0.1375
  234MPD1    C4 3605   1.232   3.751   9.694 -0.4433  0.2414 -0.3761
  234MPD1    C5 3606   1.216   3.616   9.666  0.8429 -0.2081  0.1269
  234MPD1     H 3607   1.148   3.883   9.396  0.3848  0.4883  0.4088
  234MPD1    H1 3608   1.248   3.771   9.799  0.2632 -0.8232 -0.2786
  234MPD1    H2 3609   1.175   3.471   9.521 -1.9885 -0.2065 -2.4872
  234MPD1    H3 3610   1.225   3.538   9.741  2.7862  2.8584  3.0841
  234MPD1     N 3611   1.222   3.989   9.613  0.3694 -0.4995  0.5591
  234MPD1    H5 3612   1.196   4.045   9.533  0.4881 -2.9610 -1.1975
  234MPD1    N1 3613   1.116   3.633   9.318 -0.6244  0.8804  0.3526
  234MPD1    H6 3614   1.060   3.698   9.262  0.5291  1.5459 -0.0375
  234MPD1    H7 3615   1.066   3.546   9.332  1.4881 -0.7510 -2.2101
  235MPD1     C 3616   3.116   1.567  10.608  0.6238 -0.1473  0.1274
  235MPD1    C1 3617   3.168   1.690  10.631 -0.3812  0.8568  0.0531
  235MPD1    C2 3618   3.210   1.768  10.526 -0.5463  0.5139  0.5967
  235MPD1    C3 3619   3.164   1.728  10.402 -0.1049 -0.4652 -0.7219
  235MPD1    C4 3620   3.102   1.606  10.381 -0.0471  0.9196 -0.5192
  235MPD1    C5 3621   3.092   1.523  10.485 -0.3077 -0.3379 -0.1143
  235MPD1     H 3622   3.265   1.861  10.533  1.0282 -0.4835  1.4770
  235MPD1    H1 3623   3.050   1.567  10.294  1.2250  0.3040 -0.9923
  235MPD1    H2 3624   3.085   1.499  10.686 -3.6022  0.6637 -0.8115
  235MPD1    H3 3625   3.036   1.431  10.472  0.8668 -1.2962  1.5742
  235MPD1     N 3626   3.187   1.817  10.297 -0.0674 -0.1601  0.0336
  235MPD1    H5 3627   3.237   1.901  10.326  0.8580 -0.0992 -1.7736
  235MPD1    N1 3628   3.221   1.720  10.757  0.1348  0.5816  0.1714
  235MPD1    H6 3629   3.230   1.821  10.773 -1.2069  0.5458  1.1993
  235MPD1    H7 3630   3.153   1.692  10.827 -0.9639 -0.0831 -1.1715
  236MPD1     C 3631   1.954   2.880  10.207 -0.2468  0.4097  0.6175
  236MPD1    C1 3632   2.026   2.970  10.279 -0.0910  0.7731 -0.5885
  236MPD1    C2 3633   2.158   2.945  10.294 -0.3285  0.3240 -0.5729
  236MPD1    C3 3634   2.224   2.839  10.234  0.0787  0.4358 -0.0086
  236MPD1    C4 3635   2.144   2.741  10.180  0.2504  0.2418  0.4430
  236MPD1    C5 3636   2.011   2.768  10.165 -0.5507  1.0615  0.5103
  236MPD1     H 3637   2.214   3.003  10.366  0.0614  0.0846 -0.6826
  236MPD1    H1 3638   2.181   2.651  10.133 -0.0856  1.6009 -2.4004
  236MPD1    H2 3639   1.845   2.877  10.199 -0.3192 -0.9070  2.1130
  236MPD1    H3 3640   1.941   2.697  10.123 -0.4893  1.2033  0.1696
  236MPD1     N 3641   2.353   2.800  10.263  0.6296  0.3701  0.0815
  236MPD1    H5 3642   2.379   2.708  10.228 -0.8997 -0.4692  1.1707
  236MPD1    N1 3643   1.959   3.077  10.344  0.0958  0.6439 -0.3825
  236MPD1    H6 3644   1.875   3.100  10.291 -0.0863 -0.1050 -0.4124
  236MPD1    H7 3645   2.021   3.158  10.349 -1.0120  1.3882  1.6221
  237MPD1     C 3646   2.754   1.019  15.142  0.0732 -0.0986 -0.7674
  237MPD1    C1 3647   2.645   1.102  15.126 -0.4943 -0.3771 -0.1544
  237MPD1    C2 3648   2.519   1.057  15.134 -0.2956  0.6013  0.0865
  237MPD1    C3 3649   2.498   0.932  15.192  0.7545 -0.0269 -0.5950
  237MPD1    C4 3650   2.607   0.847  15.200 -0.6269  0.3075 -0.4755
  237MPD1    C5 3651   2.733   0.888  15.173  0.1675 -0.9659 -0.3539
  237MPD1     H 3652   2.438   1.125  15.111 -1.4218 -0.7098  0.1602
  237MPD1    H1 3653   2.588   0.744  15.228 -0.1672 -0.1471 -1.8425
  237MPD1    H2 3654   2.854   1.056  15.123 -0.0494  0.9344  0.6397
  237MPD1    H3 3655   2.810   0.812  15.177  0.5009 -0.6541 -0.8216
  237MPD1     N 3656   2.375   0.875  15.224 -0.3935 -0.3767 -0.2391
  237MPD1    H5 3657   2.370   0.777  15.251  2.4672 -0.0173  1.5477
  237MPD1    N1 3658   2.668   1.233  15.084 -0.3932  0.4090  0.0312
  237MPD1    H6 3659   2.585   1.288  15.106 -0.7690  0.1947 -0.8466
  237MPD1    H7 3660   2.750   1.276  15.126  0.6979 -0.7521 -0.8852
  238MPD1     C 3661   3.406   0.305  15.230 -0.2576  0.0718  0.3613
  238MPD1    C1 3662   3.300   0.227  15.277  0.6679  0.1437  0.0530
  238MPD1    C2 3663   3.276   0.105  15.206 -0.6067  0.0060  0.5381
  238MPD1    C3 3664   3.346   0.074  15.090  0.0998 -0.0200 -0.4773
  238MPD1    C4 3665   3.446   0.163  15.051  0.4692 -0.6471 -0.6139
  238MPD1    C5 3666   3.479   0.269  15.122  0.2716  0.6620  0.3766
  238MPD1     H 3667   3.219   0.026  15.254 -0.7655 -0.1225  0.1357
  238MPD1    H1 3668   3.496   0.138  14.958  2.9753  0.8494  0.3285
  238MPD1    H2 3669   3.449   0.389  15.282  0.7572 -1.8087  2.5590
  238MPD1    H3 3670   3.560   0.331  15.085  0.3897  1.1748  1.4951
  238MPD1     N 3671   3.320   4.700  15.008  0.0505  1.2815 -0.9433
  238MPD1    H5 3672   3.380   4.680  14.929 -0.3070 -2.4100 -0.3039
  238MPD1    N1 3673   3.252   0.232  15.407 -0.5543  0.6420 -0.2652
  238MPD1    H6 3674   3.173   0.172  15.428 -1.2335  2.3613  2.1253
  238MPD1    H7 3675   3.243   0.324  15.450 -0.9135  0.6599 -0.3798
  239MPD1     C 3676   4.301   4.567  14.647  0.1472 -0.0424 -0.1860
  239MPD1    C1 3677   4.295   4.686  14.719 -0.0958  0.1641 -0.3059
  239MPD1    C2 3678   4.258   0.061  14.647 -0.2561  0.5490 -0.0499
  239MPD1    C3 3679   4.228   0.054  14.513 -0.0078  0.7485  0.2279
  239MPD1    C4 3680   4.228   4.673  14.445 -0.4280  0.5625  0.5075
  239MPD1    C5 3681   4.252   4.564  14.519 -0.0811  0.0354  0.1658
  239MPD1     H 3682   4.255   0.162  14.687 -1.2465  0.5486 -0.1185
  239MPD1    H1 3683   4.201   4.683  14.341 -0.3060 -1.1023  0.3222
  239MPD1    H2 3684   4.333   4.472  14.688 -1.3614 -0.1576  0.7323
  239MPD1    H3 3685   4.247   4.468  14.469 -0.4302 -0.9058  2.0117
  239MPD1     N 3686   4.189   0.164  14.430 -0.0000  0.9702  0.7821
  239MPD1    H5 3687   4.187   0.147  14.330 -0.1696 -1.0949  1.1292
  239MPD1    N1 3688   4.336   4.693  14.852  0.0352  0.5064 -0.4570
  239MPD1    H6 3689   4.339   4.600  14.893 -0.4677  0.7164  0.0595
  239MPD1    H7 3690   4.267   0.009  14.904 -0.2662  0.3728 -0.7256
  240MPD1     C 3691   3.535   0.226  12.951  0.0761  0.1715  0.1108
  240MPD1    C1 3692   3.473   0.274  13.066 -1.0171 -0.2380 -0.3864
  240MPD1    C2 3693   3.512   0.225  13.186 -0.5234  0.3063 -0.5631
  240MPD1    C3 3694   3.605   0.122  13.191 -0.4829 -0.2929  0.2984
  240MPD1    C4 3695   3.670   0.082  13.079 -0.1500  0.4903 -0.6841
  240MPD1    C5 3696   3.645   0.139  12.961  1.0834 -0.3904 -0.1848
  240MPD1     H 3697   3.467   0.239  13.284  0.1771 -1.3148  0.0120
  240MPD1    H1 3698   3.747   0.007  13.091 -2.8497 -2.0164  0.8520
  240MPD1    H2 3699   3.505   0.248  12.849 -2.2661  1.9213  1.1789
  240MPD1    H3 3700   3.695   0.114  12.868  0.2298  0.1306 -0.7811
  240MPD1     N 3701   3.614   0.067  13.316  0.2897 -0.1627  0.0241
  240MPD1    H5 3702   3.556   0.094  13.394  0.4261  0.5386 -0.1184
  240MPD1    N1 3703   3.350   0.340  13.058  0.1039  0.1398  0.4004
  240MPD1    H6 3704   3.328   0.404  13.134 -2.2679 -1.0269  0.7005
  240MPD1    H7 3705   3.360   0.398  12.975  0.5220  0.6010  0.7759
  241MPD1     C 3706   3.840   3.898  13.609 -0.2066 -0.3101 -0.0181
  241MPD1    C1 3707   3.879   3.979  13.713  0.0839 -0.3567  0.2115
  241MPD1    C2 3708   3.860   4.113  13.701  0.1842 -0.1171  0.0733
  241MPD1    C3 3709   3.790   4.170  13.601 -0.2413  1.2104 -0.6342
  241MPD1    C4 3710   3.735   4.085  13.504  0.3417 -0.1395  0.0254
  241MPD1    C5 3711   3.770   3.950  13.510 -0.5799 -0.2480  0.4016
  241MPD1     H 3712   3.900   4.174  13.782 -1.1972  1.6658 -0.5616
  241MPD1    H1 3713   3.684   4.119  13.414 -1.3511 -2.0434  0.2550
  241MPD1    H2 3714   3.866   3.793  13.613  0.0527 -0.2310  0.4111
  241MPD1    H3 3715   3.742   3.881  13.430 -0.1887  1.3690 -1.1313
  241MPD1     N 3716   3.767   4.312  13.593  1.0888 -0.3508 -0.1530
  241MPD1    H5 3717   3.705   4.349  13.522  2.1729  2.2042  0.2019
  241MPD1    N1 3718   3.963   3.918  13.811  0.6499 -0.0911 -0.5197
  241MPD1    H6 3719   3.960   3.963  13.902  2.5316 -0.7471 -0.1354
  241MPD1    H7 3720   3.949   3.820  13.832 -1.5685 -0.0466 -1.8386
  242MPD1     C 3721   3.553   3.435  16.016 -0.2764 -0.0065  1.1235
  242MPD1    C1 3722   3.659   3.358  16.052  0.4911 -0.2883  0.3115
  242MPD1    C2 3723   3.738   3.309  15.951 -0.1815 -0.4350 -0.0486
  242MPD1    C3 3724   3.713   3.344  15.820  0.2273  0.5664 -0.0270
  242MPD1    C4 3725   3.611   3.432  15.790  0.3807 -0.7405 -1.0297
  242MPD1    C5 3726   3.531   3.475  15.891 -0.3130  0.3379 -0.2914
  242MPD1     H 3727   3.818   3.237  15.972 -0.3409 -0.9345 -1.1840
  242MPD1    H1 3728   3.599   3.462  15.687 -1.5095  1.3042 -0.2135
  242MPD1    H2 3729   3.491   3.485  16.089 -0.8535  2.8607 -1.3127
  242MPD1    H3 3730   3.446   3.538  15.867 -1.3701 -0.8127  0.4228
  242MPD1     N 3731   3.782   3.308  15.705  0.5106  0.0712 -0.5218
  242MPD1    H5 3732   3.751   3.337  15.613  0.2165  1.9318  0.1600
  242MPD1    N1 3733   3.680   3.317  16.183  0.2170 -0.3892 -0.5904
  242MPD1    H6 3734   3.635   3.378  16.251 -1.0002 -0.4579 -1.3253
  242MPD1    H7 3735   3.776   3.313  16.215 -0.7548  1.8065  2.6063
  243MPD1     C 3736   3.788   1.684  17.629  0.0640  0.4339  0.1793
  243MPD1    C1 3737   3.843   1.579  17.703  0.2711  0.0763  0.6371
  243MPD1    C2 3738   3.976   1.564  17.679  0.1677 -0.0211 -0.3091
  243MPD1    C3 3739   4.053   1.658  17.620  0.4292 -0.3305  0.3257
  243MPD1    C4 3740   3.999   1.774  17.575 -0.7757  0.2527 -0.2269
  243MPD1    C5 3741   3.864   1.791  17.584  0.0907  0.2577 -0.0577
  243MPD1     H 3742   4.024   1.471  17.707  0.5131  0.3736  0.4186
  243MPD1    H1 3743   4.059   1.844  17.517 -0.5158  0.7932  0.6973
  243MPD1    H2 3744   3.681   1.701  17.630 -0.2379 -1.3567 -0.6888
  243MPD1    H3 3745   3.815   1.870  17.528  0.4964 -0.5862 -1.5864
  243MPD1     N 3746   4.182   1.615  17.573  0.8931  0.5665  0.0324
  243MPD1    H5 3747   4.213   1.522  17.601 -0.0390  0.1106 -0.4636
  243MPD1    N1 3748   3.765   1.472  17.743  0.2512  0.3724 -0.4940
  243MPD1    H6 3749   3.814   1.421   0.065 -0.5115 -0.6166 -0.6697
  243MPD1    H7 3750   3.675   1.510   0.020 -0.5243  0.3617 -2.9599
  244MPD1     C 3751   4.718   0.833  17.421  0.1487  0.3523 -1.0930
  244MPD1    C1 3752   0.014   0.907  17.309 -0.0703  0.1574 -0.7446
  244MPD1    C2 3753   4.720   1.040  17.315 -0.7612  0.7585  0.1603
  244MPD1    C3 3754   4.672   1.095  17.433 -1.2932 -1.0752 -0.7843
  244MPD1    C4 3755   4.657   1.021  17.547  0.1686 -0.2322  0.2156
  244MPD1    C5 3756   4.675   0.882  17.536  0.4251  0.0479 -0.1880
  244MPD1     H 3757   4.712   1.092  17.220  0.5297  4.7746  2.2465
  244MPD1    H1 3758   4.647   1.065  17.646 -1.0657  0.0883 -0.0568
  244MPD1    H2 3759   4.735   0.726  17.415  2.4975  0.7526 -1.5764
  244MPD1    H3 3760   4.661   0.816  17.620  1.4563  2.5674  1.9494
  244MPD1     N 3761   4.638   1.234  17.425 -0.8941 -0.6784 -0.1932
  244MPD1    H5 3762   4.647   1.272  17.331 -0.9198  1.8611  0.8274
  244MPD1    N1 3763   0.034   0.838  17.190 -0.6619  0.1381  0.1823
  244MPD1    H6 3764   0.079   0.896  17.119  1.1966 -0.8859  0.5341
  244MPD1    H7 3765   0.081   0.748  17.194 -3.4738 -1.2530  2.2822
  245MPD1     C 3766   2.614   1.864  13.573 -0.1267 -0.1600 -0.1447
  245MPD1    C1 3767   2.516   1.880  13.669  0.5793  0.6390 -0.0044
  245MPD1    C2 3768   2.450   2.004  13.674 -0.3187 -0.6868 -1.0011
  245MPD1    C3 3769   2.460   2.104  13.581  0.1549 -0.1544 -0.0118
  245MPD1    C4 3770   2.553   2.076  13.481 -0.5148 -0.3407  0.1784
  245MPD1    C5 3771   2.629   1.960  13.477 -0.0845 -0.8170 -0.1383
  245MPD1     H 3772   2.380   2.020  13.755  0.5623  1.7844 -0.7408
  245MPD1    H1 3773   2.561   2.145  13.398  1.9160 -0.8663 -0.0482
  245MPD1    H2 3774   2.667   1.770  13.562 -0.7443 -0.2836 -2.0695
  245MPD1    H3 3775   2.701   1.939  13.399 -1.3614 -0.7858 -1.3318
  245MPD1     N 3776   2.400   2.232  13.595 -0.7222  0.2052  0.0623
  245MPD1    H5 3777   2.363   2.255  13.687  0.2407  0.6782  0.3402
  245MPD1    N1 3778   2.521   1.796  13.776 -0.0723 -0.1130 -0.4284
  245MPD1    H6 3779   2.431   1.775  13.819  0.9411 -1.3970  1.0608
  245MPD1    H7 3780   2.566   1.708  13.754  1.3345  0.1202  1.4710
  246MPD1     C 3781   2.031   0.090   9.959 -0.7684  0.1805 -0.4462
  246MPD1    C1 3782   2.134   0.019  10.018 -0.5044  0.2994  0.3804
  246MPD1    C2 3783   2.175   4.642   9.959  0.0466 -0.2363 -0.4662
  246MPD1    C3 3784   2.123   4.597   9.836  0.4834  0.0027 -0.6458
  246MPD1    C4 3785   2.028   4.676   9.775  0.1643  0.2443 -0.0016
  246MPD1    C5 3786   1.996   0.062   9.829  0.3639  0.7786 -0.0170
  246MPD1     H 3787   2.256   4.587  10.004  1.5202 -0.1170 -2.9662
  246MPD1    H1 3788   1.984   4.654   9.678 -0.7919  2.5116 -0.0698
  246MPD1    H2 3789   1.980   0.171  10.010  1.9720  1.6916 -0.1180
  246MPD1    H3 3790   1.929   0.132   9.780  2.4223  3.5021  1.0640
  246MPD1     N 3791   2.180   4.482   9.780 -0.4816  0.3003 -0.0417
  246MPD1    H5 3792   2.263   4.442   9.823 -1.3277  0.2531  1.5679
  246MPD1    N1 3793   2.177   0.057  10.148  0.4973 -0.4310  0.2514
  246MPD1    H6 3794   2.153   0.154  10.165 -0.2889 -0.2661 -1.7542
  246MPD1    H7 3795   2.279   0.052  10.153  0.5043  0.4955  1.0054
  247MPD1     C 3796   1.306   2.856  15.495  0.3474  0.3110  0.5745
  247MPD1    C1 3797   1.362   2.805  15.383  0.0826  0.4555  0.5361
  247MPD1    C2 3798   1.333   2.673  15.357  0.4441  0.2164 -0.3230
  247MPD1    C3 3799   1.276   2.589  15.446 -0.0857 -0.2430 -0.2519
  247MPD1    C4 3800   1.250   2.643  15.574  0.9573  0.0310 -0.2905
  247MPD1    C5 3801   1.255   2.777  15.596 -0.0514  0.0406 -0.0936
  247MPD1     H 3802   1.360   2.636  15.258 -1.4447  0.3903 -0.9071
  247MPD1    H1 3803   1.213   2.576  15.650  1.9542 -1.4956 -1.1506
  247MPD1    H2 3804   1.311   2.963  15.509  1.5343  0.4445 -0.8520
  247MPD1    H3 3805   1.229   2.829  15.688 -0.6626 -0.1250 -0.1744
  247MPD1     N 3806   1.243   2.453  15.425  0.3962  0.4910  0.1753
  247MPD1    H5 3807   1.196   2.407  15.502 -1.8749 -0.6267 -1.8770
  247MPD1    N1 3808   1.406   2.898  15.286  0.1641  0.3284  0.9868
  247MPD1    H6 3809   1.481   2.865  15.226 -1.2622 -0.2936 -0.4405
  247MPD1    H7 3810   1.443   2.982  15.329 -0.0209  0.3502  1.1019
  248MPD1     C 3811   2.300   1.611  17.695 -0.0411 -0.4692  0.2821
  248MPD1    C1 3812   2.318   1.509   0.037  0.2047  0.3147  0.5512
  248MPD1    C2 3813   2.299   1.543   0.172  0.3855 -0.1787 -0.8946
  248MPD1    C3 3814   2.281   1.677   0.215 -0.0581 -0.1327 -0.4165
  248MPD1    C4 3815   2.285   1.773   0.118  0.0394 -0.6077 -0.0758
  248MPD1    C5 3816   2.291   1.738  17.734  0.8497  0.2203 -0.4159
  248MPD1     H 3817   2.314   1.468   0.249  2.4528 -0.7287 -1.8533
  248MPD1    H1 3818   2.281   1.878   0.145  0.1747 -0.6787  0.2119
  248MPD1    H2 3819   2.306   1.583  17.591 -1.0249  5.5046 -1.3610
  248MPD1    H3 3820   2.285   1.807  17.651  1.0212  2.0979  1.1259
  248MPD1     N 3821   2.266   1.699   0.355 -0.2389 -0.1389 -0.0516
  248MPD1    H5 3822   2.275   1.613   0.408 -1.6287  0.9064  1.8722
  248MPD1    N1 3823   2.328   1.375  17.745  0.2183 -0.2483 -0.2637
  248MPD1    H6 3824   2.371   1.361  17.654 -2.5697 -2.4261 -1.2407
  248MPD1    H7 3825   2.379   1.315   0.059 -0.5019 -0.3096  0.2387
  249MPD1     C 3826   3.545   0.417  10.094  0.7013  0.6329  0.2415
  249MPD1    C1 3827   3.636   0.506  10.146 -0.6196 -0.0528  0.1812
  249MPD1    C2 3828   3.609   0.639  10.121  0.2793  0.6077  0.0762
  249MPD1    C3 3829   3.507   0.690  10.058  0.1281  0.0824  0.2022
  249MPD1    C4 3830   3.414   0.600  10.009 -0.2454 -0.6167 -0.3908
  249MPD1    C5 3831   3.440   0.469  10.029  0.2083 -0.3190  0.0456
  249MPD1     H 3832   3.672   0.720  10.158  1.3016 -1.3622  2.6961
  249MPD1    H1 3833   3.327   0.631   9.951 -0.9243  1.3111  1.6320
  249MPD1    H2 3834   3.548   0.310  10.106 -1.3978  0.5826  0.3414
  249MPD1    H3 3835   3.368   0.395   9.995 -2.7544  2.2764  0.6139
  249MPD1     N 3836   3.508   0.828  10.043 -0.1737  0.5977 -0.2197
  249MPD1    H5 3837   3.580   0.885  10.086  0.6656 -0.7454  0.1748
  249MPD1    N1 3838   3.757   0.469  10.214 -0.5894  0.2094 -0.2798
  249MPD1    H6 3839   3.750   0.373  10.248  1.5148  0.5361  1.0363
  249MPD1    H7 3840   3.789   0.524  10.293 -1.3036 -3.4788  2.5933
  250MPD2     C 3841   0.687   0.506  13.208 -0.5533  0.0894  0.0489
  250MPD2    C1 3842   0.565   0.549  13.172 -0.1332  0.1090  0.0458
  250MPD2    C2 3843   0.489   0.481  13.077 -0.3778  0.1587  0.1386
  250MPD2    C3 3844   0.539   0.372  13.007  0.2833 -0.2447 -0.2195
  250MPD2    C4 3845   0.660   0.324  13.045  0.2899  0.7027 -0.3785
  250MPD2    C5 3846   0.727   0.389  13.148  0.2485 -0.8636 -0.6321
  250MPD2     H 3847   0.386   0.513  13.066 -1.3234 -2.9958 -0.1517
  250MPD2    H1 3848   0.703   0.234  13.001 -0.3364 -0.3775  1.1941
  250MPD2    H2 3849   0.756   0.571  13.262  1.3893 -0.0227 -2.3104
  250MPD2    H3 3850   0.822   0.346  13.179  0.2373 -0.3133  0.1650
  250MPD2     N 3851   0.469   0.302  12.910 -0.4848  0.1741 -0.3950
  250MPD2    H5 3852   0.519   0.227  12.862  1.1117  0.6287  0.5638
  250MPD2    N1 3853   0.527   0.674  13.226 -0.3612 -0.0328 -0.4724
  250MPD2    H7 3854   0.593   0.712  13.293  0.2542  1.2305 -1.7939
  251TMC3    C1 3855   0.423   0.876  13.227 -0.0958 -0.5704 -0.0296
  251TMC3    C2 3856   0.319   0.935  13.286  0.0193 -0.8377 -0.2398
  251TMC3    C3 3857   0.337   1.059  13.339  0.1381  0.3047  0.3296
  251TMC3    C4 3858   0.552   0.931  13.237 -0.5188  0.4062 -0.7343
  251TMC3    C5 3859   0.568   1.050  13.300  0.3289 -0.3496 -0.3434
  251TMC3    C6 3860   0.461   1.120  13.352 -0.4060  0.2153 -0.2290
  251TMC3     C 3861   0.411   0.739  13.198 -0.0886  0.2909 -0.4227
  251TMC3     O 3862   0.313   0.718  13.132 -0.1258 -0.3707 -0.3273
  251TMC3     H 3863   0.227   0.880  13.302  0.5223 -0.9488  2.3128
  251TMC3    H1 3864   0.639   0.875  13.206 -2.3115 -2.3221 -0.8697
  251TMC3    H2 3865   0.463   1.222  13.389 -1.3274  0.1814 -0.0829
  251TMC3    C7 3866   0.704   1.106  13.315 -0.2202  0.9951  0.6018
  251TMC3    C8 3867   0.222   1.125  13.399 -0.0384 -0.0549  0.0607
  251TMC3    O1 3868   0.711   1.215  13.378  0.0153 -0.1678 -0.1873
  251TMC3    O2 3869   0.244   1.209  13.484 -0.0196  0.4963 -0.0818
  252TMC3    C1 3870   0.810   2.145   9.179 -0.4489  0.4944 -0.0941
  252TMC3    C2 3871   0.880   2.257   9.191  0.4588 -0.3893  0.2824
  252TMC3    C3 3872   0.834   2.365   9.266 -0.4583  0.4591  0.1571
  252TMC3    C4 3873   0.694   2.131   9.252 -0.3632  0.6907 -0.2348
  252TMC3    C5 3874   0.660   2.237   9.331 -0.2807 -0.8818 -0.3585
  252TMC3    C6 3875   0.726   2.355   9.343 -0.5157  0.7494  0.1288
  252TMC3     C 3876   0.850   2.047   9.082 -0.1910 -0.7107 -0.4420
  252TMC3     O 3877   0.966   2.058   9.040  0.2218  0.0965  0.1070
  252TMC3     H 3878   0.956   2.279   9.116 -1.4006  0.9891 -1.1910
  252TMC3    H1 3879   0.631   2.043   9.241  0.0139  0.0093  2.9585
  252TMC3    H2 3880   0.695   2.436   9.408  1.9173 -0.0139  2.2423
  252TMC3    C7 3881   0.535   2.237   9.400  0.5577 -1.0945 -0.0920
  252TMC3    C8 3882   0.925   2.477   9.283  0.2527  0.1580 -0.3562
  252TMC3    O1 3883   0.501   2.349   9.439  0.2739 -0.4745 -0.4312
  252TMC3    O2 3884   1.011   2.493   9.196  0.1102 -0.3299 -0.0619
  253MPD2     C 3885   1.991   1.129  15.393 -0.4388  0.2744 -0.0075
  253MPD2    C1 3886   1.858   1.108  15.360 -0.1124  0.4500  0.2794
  253MPD2    C2 3887   1.773   1.033  15.437 -0.7064  0.8458 -0.0156
  253MPD2    C3 3888   1.818   0.989  15.557 -0.1207 -0.2974  0.6871
  253MPD2    C4 3889   1.950   1.004  15.584  0.2448  0.0570  0.4858
  253MPD2    C5 3890   2.033   1.078  15.510  1.0901 -0.2900 -0.0740
  253MPD2     H 3891   1.668   1.023  15.411  0.0499  1.0676 -3.0747
  253MPD2    H1 3892   1.989   0.956  15.674 -0.7142 -0.4051  0.6516
  253MPD2    H2 3893   2.064   1.191  15.341  1.2628  0.6564  2.8737
  253MPD2    H3 3894   2.134   1.098  15.545  0.6934  1.7207 -0.0899
  253MPD2     N 3895   1.733   0.935  15.661 -0.1578 -0.4027  0.0641
  253MPD2    H5 3896   1.782   0.916  15.748  2.1581  0.6733 -1.0142
  253MPD2    N1 3897   1.793   1.165  15.245  0.5982 -0.5968 -0.3379
  253MPD2    H7 3898   1.699   1.130  15.228  0.7672 -2.2726  2.2092
  254TMC3    C1 3899   1.534   0.869  15.782  0.3627 -0.0017 -1.3804
  254TMC3    C2 3900   1.401   0.895  15.803  0.0539  0.6766 -0.2986
  254TMC3    C3 3901   1.348   0.867  15.923 -0.4895  0.2557  0.4522
  254TMC3    C4 3902   1.609   0.799  15.867 -0.3525  0.3448  0.6522
  254TMC3    C5 3903   1.546   0.742  15.976  1.2207 -0.1029 -0.2487
  254TMC3    C6 3904   1.416   0.778  16.004  0.3647  0.1543 -0.1053
  254TMC3     C 3905   1.596   0.913  15.656 -0.2018  0.2386  0.0650
  254TMC3     O 3906   1.520   0.930  15.565 -0.4822 -0.8491  0.0438
  254TMC3     H 3907   1.356   0.971  15.740  1.3874  0.2810 -1.7267
  254TMC3    H1 3908   1.712   0.776  15.843 -1.2263 -2.6608 -0.2271
  254TMC3    H2 3909   1.365   0.761  16.098  1.4764  0.3337  0.5331
  254TMC3    C7 3910   1.620   0.713  16.095  0.2923 -0.4461 -0.2970
  254TMC3    C8 3911   1.211   0.907  15.967  0.8355  0.3548 -0.3318
  254TMC3    O1 3912   1.557   0.636  16.173  0.7166  0.6705 -0.7508
  254TMC3    O2 3913   1.171   0.853  16.069 -0.0290  0.4173 -0.2911
  255MPD2     C 3914   3.980   3.351   9.518 -0.0152 -0.4153  0.5194
  255MPD2    C1 3915   4.116   3.357   9.535  0.2379  0.4799  0.2239
  255MPD2    C2 3916   4.188   3.240   9.567  0.7511  0.2491  0.3691
  255MPD2    C3 3917   4.129   3.115   9.577 -0.3092 -0.5204 -0.1483
  255MPD2    C4 3918   3.994   3.113   9.564  0.7446 -0.2589 -0.0600
  255MPD2    C5 3919   3.917   3.225   9.531  0.3744 -0.2133  0.1328
  255MPD2     H 3920   4.295   3.247   9.581  0.6013 -2.0455  2.4751
  255MPD2    H1 3921   3.940   3.026   9.598  1.6195 -0.5770  0.5204
  255MPD2    H2 3922   3.924   3.442   9.496  0.6963  0.0464  0.6195
  255MPD2    H3 3923   3.808   3.225   9.533  0.3147  3.6064 -1.4610
  255MPD2     N 3924   4.194   2.996   9.617 -1.0391 -0.4388 -0.3999
  255MPD2    H5 3925   4.133   2.916   9.608  1.2857 -2.0597 -1.7692
  255MPD2    N1 3926   4.178   3.487   9.525  1.0012 -0.3912 -0.3599
  255MPD2    H7 3927   4.117   3.562   9.495  0.8259 -0.4734 -0.2106
  256TMC3    C1 3928   4.304   3.666   9.596  0.3051 -0.3235  0.7604
  256TMC3    C2 3929   4.420   3.729   9.582 -0.0872 -0.3462  0.2808
  256TMC3    C3 3930   4.424   3.862   9.610 -1.0039  0.0220  0.9869
  256TMC3    C4 3931   4.195   3.724   9.652  0.3995 -0.3889 -0.0942
  256TMC3    C5 3932   4.202   3.857   9.685  0.4386  0.4456  0.2366
  256TMC3    C6 3933   4.316   3.928   9.666  0.3696  0.0950 -0.4645
  256TMC3     C 3934   4.302   3.523   9.567 -0.1894  0.2081  0.5310
  256TMC3     O 3935   4.401   3.462   9.614  0.0589  0.6123 -0.8205
  256TMC3     H 3936   4.500   3.676   9.531  2.4429  3.5427  0.1823
  256TMC3    H1 3937   4.101   3.671   9.655 -0.8307  1.7064 -2.1211
  256TMC3    H2 3938   4.320   4.029   9.704 -0.0447  1.0230 -2.9231
  256TMC3    C7 3939   4.076   3.924   9.672  0.5143  0.2393 -0.3395
  256TMC3    C8 3940   4.554   3.923   9.618 -0.3452 -0.2524 -0.0325
  256TMC3    O1 3941   3.989   3.863   9.614  0.3168 -0.2061 -0.2583
  256TMC3    O2 3942   4.655   3.853   9.632  0.2508 -0.5935 -0.0974
  257MPD2     C 3943   3.465   0.724  12.953 -0.0894  0.0306  0.4669
  257MPD2    C1 3944   3.587   0.716  12.894  0.4024  0.0797 -0.2465
  257MPD2    C2 3945   3.685   0.639  12.949  0.1493  0.3563  0.7257
  257MPD2    C3 3946   3.671   0.575  13.067  0.4576 -0.3483 -0.7825
  257MPD2    C4 3947   3.551   0.586  13.136 -0.3936 -0.3583 -0.1091
  257MPD2    C5 3948   3.448   0.658  13.073 -0.9515 -0.2678 -0.0901
  257MPD2     H 3949   3.779   0.648  12.896 -0.5955  3.0406 -0.1307
  257MPD2    H1 3950   3.532   0.537  13.230 -0.6953 -0.4905 -0.2389
  257MPD2    H2 3951   3.382   0.779  12.911  0.3299 -0.6413 -1.2495
  257MPD2    H3 3952   3.353   0.677  13.123 -0.5719 -2.6307  1.4838
  257MPD2     N 3953   3.772   0.494  13.118  0.2359  0.4058 -0.0306
  257MPD2    H5 3954   3.848   0.474  13.054  0.1655 -1.3255  0.4290
  257MPD2    N1 3955   3.593   0.780  12.765 -0.4453  0.2298 -0.0447
  257MPD2    H7 3956   3.507   0.826  12.737 -1.6064 -0.7227  1.9624
  258TMC3    C1 3957   3.867   0.338  13.271 -0.1755  0.3811 -0.2970
  258TMC3    C2 3958   3.929   0.273  13.165 -0.6248  0.0368  0.2647
  258TMC3    C3 3959   4.042   0.193  13.187 -0.4653  0.1251  1.2002
  258TMC3    C4 3960   3.896   0.305  13.400 -0.7209 -0.3529 -0.6080
  258TMC3    C5 3961   3.999   0.213  13.423 -0.0286  1.1877 -0.1995
  258TMC3    C6 3962   4.073   0.161  13.319  1.1985  0.3509 -0.2432
  258TMC3     C 3963   3.774   0.438  13.249 -0.9700 -0.3202  0.1989
  258TMC3     O 3964   3.699   0.468  13.345  0.2362  0.6467 -0.0623
  258TMC3     H 3965   3.893   0.298  13.066 -1.0117  2.3500  0.9915
  258TMC3    H1 3966   3.859   0.365  13.482  4.1332  2.3355 -0.3576
  258TMC3    H2 3967   4.152   0.089  13.339  1.6047  1.4119  1.9862
  258TMC3    C7 3968   3.996   0.128  13.537 -0.7452 -0.8795  1.1148
  258TMC3    C8 3969   4.148   0.210  13.089 -0.1971  0.5138  0.2254
  258TMC3    O1 3970   3.890   0.125  13.598  0.5947  0.0356 -0.3701
  258TMC3    O2 3971   4.134   0.287  12.998  0.1034 -0.3770 -0.5130
  259MPD2     C 3972   2.949   2.683   0.686 -0.7533  0.6907 -0.3696
  259MPD2    C1 3973   2.901   2.557   0.663  0.0940  0.2590 -0.8497
  259MPD2    C2 3974   2.814   2.541   0.559 -0.1776 -0.2085  0.2811
  259MPD2    C3 3975   2.775   2.646   0.475  0.3920 -0.2645  0.3372
  259MPD2    C4 3976   2.812   2.772   0.503  0.1642  0.8170  0.3562
  259MPD2    C5 3977   2.899   2.789   0.608  0.6957 -0.2095  0.9194
  259MPD2     H 3978   2.770   2.443   0.543  0.5579 -0.6767  1.0617
  259MPD2    H1 3979   2.779   2.851   0.437  0.1766 -0.0506 -0.6815
  259MPD2    H2 3980   3.008   2.696   0.776  1.8697 -0.3809 -1.9628
  259MPD2    H3 3981   2.940   2.884   0.639 -2.9114  1.3349  0.9330
  259MPD2     N 3982   2.702   2.620   0.351 -0.3140  0.3922 -0.3435
  259MPD2    H5 3983   2.696   2.522   0.323 -1.6881  0.0009  1.2897
  259MPD2    N1 3984   2.928   2.460   0.765 -0.0007 -0.2580 -0.0178
  259MPD2    H7 3985   2.994   2.492   0.835 -1.1008  1.1824  0.3505
  260TMC3    C1 3986   2.592   2.635   0.150 -0.0737  0.6561  0.3765
  260TMC3    C2 3987   2.590   2.712   0.037  0.6179  0.7176 -0.4931
  260TMC3    C3 3988   2.563   2.651  17.666  0.3773  0.1821 -0.1894
  260TMC3    C4 3989   2.548   2.506   0.156 -0.2790 -0.2082  0.6121
  260TMC3    C5 3990   2.515   2.451   0.037 -0.7975  0.2757 -0.5494
  260TMC3    C6 3991   2.525   2.523  17.662 -0.4885 -0.0273  0.2623
  260TMC3     C 3992   2.645   2.707   0.264 -0.5888  0.0447 -0.3068
  260TMC3     O 3993   2.608   2.822   0.272 -0.2614  0.5953 -0.3799
  260TMC3     H 3994   2.624   2.815   0.044  1.7608  0.2619  0.5599
  260TMC3    H1 3995   2.540   2.447   0.247  0.1285  1.0696  1.4758
  260TMC3    H2 3996   2.505   2.467  17.572  1.0329 -1.7863  1.0167
  260TMC3    C7 3997   2.536   2.310   0.010  0.1299 -0.1257  0.7307
  260TMC3    C8 3998   2.661   2.674  17.565  0.4709 -1.0362  1.0062
  260TMC3    O1 3999   2.568   2.280  17.648  0.9154  0.4181  0.4340
  260TMC3    O2 4000   2.707   2.788  17.563  0.1673  0.5219 -0.6872
  261MPD2     C 4001   4.558   0.379  12.350  0.0293  0.2385 -0.2177
  261MPD2    C1 4002   4.694   0.386  12.358  0.8383  0.2865  0.0540
  261MPD2    C2 4003   0.011   0.491  12.287 -0.3019 -0.0768 -0.0622
  261MPD2    C3 4004   4.678   0.580  12.205 -0.0984  0.3901 -0.4170
  261MPD2    C4 4005   4.543   0.564  12.195  0.1413 -0.3235 -0.2553
  261MPD2    C5 4006   4.485   0.455  12.258 -0.0117 -0.6228  0.0371
  261MPD2     H 4007   0.115   0.515  12.303  0.2107 -1.7294 -0.9840
  261MPD2    H1 4008   4.487   0.620  12.121  2.1656 -0.6401 -2.0063
  261MPD2    H2 4009   4.503   0.302  12.401  1.2169 -1.0976 -0.9621
  261MPD2    H3 4010   4.381   0.432  12.236 -0.2197  0.9419 -0.5494
  261MPD2     N 4011   0.004   0.684  12.146 -0.5099 -0.0914 -0.4801
  261MPD2    H5 4012   0.103   0.685  12.127 -0.1003  1.1767  1.7353
  261MPD2    N1 4013   0.033   0.328  12.462 -0.9429 -0.0616 -0.2285
  261MPD2    H7 4014   0.131   0.353  12.466 -0.6913 -0.8306 -1.4856
  262TMC3    C1 4015   0.021   0.886  12.023  0.3000  0.1516 -0.1659
  262TMC3    C2 4016   4.686   0.988  11.959  0.7186 -1.0829 -0.4729
  262TMC3    C3 4017   0.003   1.044  11.847 -0.1870  0.3486 -0.4756
  262TMC3    C4 4018   0.137   0.851  11.964  1.0248  0.1056  0.1754
  262TMC3    C5 4019   0.187   0.912  11.850 -0.4043  0.4422  1.6709
  262TMC3    C6 4020   0.124   1.016  11.792 -0.0267  0.4096  0.3895
  262TMC3     C 4021   4.670   0.798  12.095 -0.1731 -0.3447  0.3526
  262TMC3     O 4022   4.554   0.827  12.122  0.1252 -0.0851  0.1753
  262TMC3     H 4023   4.586   1.013  11.993  1.0696  0.5217 -0.6064
  262TMC3    H1 4024   0.200   0.786  12.025  0.0079 -0.0424  1.0604
  262TMC3    H2 4025   0.147   1.058  11.694 -1.9880 -0.0166 -0.2659
  262TMC3    C7 4026   0.316   0.870  11.803 -0.0062  0.4417  0.0935
  262TMC3    C8 4027   4.653   1.135  11.771 -0.1771 -0.0743  0.5462
  262TMC3    O1 4028   0.359   0.758  11.831 -0.1524  0.5497 -0.0758
  262TMC3    O2 4029   4.712   1.202  11.694 -0.4346 -0.1146  0.0612
  263MPD2     C 4030   1.117   0.248  11.911  0.3266  0.0029 -0.4245
  263MPD2    C1 4031   1.220   0.195  11.837  0.0841 -0.0571 -0.5074
  263MPD2    C2 4032   1.233   0.228  11.702  0.1565  0.9517 -0.1123
  263MPD2    C3 4033   1.130   0.298  11.643 -0.6166 -0.6318 -0.1790
  263MPD2    C4 4034   1.022   0.345  11.715  0.3376  0.4761 -0.2396
  263MPD2    C5 4035   1.018   0.321  11.852 -0.1291 -0.6236  1.2643
  263MPD2     H 4036   1.311   0.192  11.637  0.0702  2.3379 -0.9729
  263MPD2    H1 4037   0.931   0.391  11.679  0.1814  0.1394 -0.2713
  263MPD2    H2 4038   1.098   0.230  12.016  1.8429 -1.5081 -0.4050
  263MPD2    H3 4039   0.939   0.366  11.911  0.4553  0.2907  1.3629
  263MPD2     N 4040   1.133   0.328  11.500  0.6669  0.2277 -0.2357
  263MPD2    H5 4041   1.216   0.307  11.445  0.8576 -0.4562  0.3154
  263MPD2    N1 4042   1.313   0.116  11.898 -0.0284 -0.0106 -0.6017
  263MPD2    H7 4043   1.290   0.093  11.994 -0.1895  0.2679 -0.5729
  264TMC3    C1 4044   1.072   0.384  11.285  0.3736 -0.3961  0.4761
  264TMC3    C2 4045   0.974   0.438  11.201 -0.0740 -0.6297 -0.7159
  264TMC3    C3 4046   1.010   0.466  11.070  0.2160  0.4717 -0.1210
  264TMC3    C4 4047   1.195   0.353  11.236  0.4093  0.5752 -0.1172
  264TMC3    C5 4048   1.223   0.387  11.105  0.7444 -0.5645 -0.5118
  264TMC3    C6 4049   1.133   0.449  11.020  0.4405  0.1849 -0.4580
  264TMC3     C 4050   1.031   0.369  11.426 -0.5399 -0.0326 -0.2261
  264TMC3     O 4051   0.909   0.377  11.453  0.6159 -0.4198  0.4058
  264TMC3     H 4052   0.872   0.447  11.237  0.6878  1.0467  0.9987
  264TMC3    H1 4053   1.260   0.285  11.290 -1.2739 -0.1020  1.0417
  264TMC3    H2 4054   1.171   0.488  10.926 -2.7072  1.9940 -0.9575
  264TMC3    C7 4055   1.360   0.409  11.074  0.4865 -0.0625 -0.2530
  264TMC3    C8 4056   0.944   0.579  11.007  0.0692  0.3029 -0.4232
  264TMC3    O1 4057   1.383   0.416  10.953  0.2073 -0.2949  0.0392
  264TMC3    O2 4058   0.985   0.604  10.895  0.2251 -0.0168  0.3967
  265MPD2     C 4059   2.709   0.476  15.459  0.8385  0.2976 -0.9818
  265MPD2    C1 4060   2.804   0.572  15.422 -0.2653 -0.3197 -0.2480
  265MPD2    C2 4061   2.886   0.540  15.315 -0.1392 -0.8240  0.1596
  265MPD2    C3 4062   2.883   0.413  15.255 -0.0148 -0.0626  1.1081
  265MPD2    C4 4063   2.804   0.318  15.311  0.1468 -0.4076  0.1970
  265MPD2    C5 4064   2.716   0.343  15.416  0.0025 -0.3520 -0.0474
  265MPD2     H 4065   2.958   0.616  15.286 -3.2649  1.4890 -1.6078
  265MPD2    H1 4066   2.818   0.217  15.275  0.4527 -0.4637  0.4739
  265MPD2    H2 4067   2.634   0.500  15.533  2.8660 -1.1495  1.5688
  265MPD2    H3 4068   2.656   0.267  15.463 -0.7227  0.7601  0.8244
  265MPD2     N 4069   2.963   0.378  15.144 -0.0368  0.0246 -0.2284
  265MPD2    H5 4070   2.954   0.282  15.111 -0.4352 -0.2538  0.6772
  265MPD2    N1 4071   2.805   0.699  15.476 -0.3460  0.3634  0.3143
  265MPD2    H7 4072   2.861   0.773  15.434 -0.3693 -1.2464 -2.5688
  266TMC3    C1 4073   2.749   0.876  15.613  0.4924 -0.9187 -0.8389
  266TMC3    C2 4074   2.782   0.901  15.743  0.2563 -0.2486  0.2905
  266TMC3    C3 4075   2.777   1.040  15.778 -0.2437 -1.0157  0.0297
  266TMC3    C4 4076   2.696   0.966  15.533 -0.3903  0.0664  0.1333
  266TMC3    C5 4077   2.681   1.094  15.575 -0.0177 -0.0694  0.2069
  266TMC3    C6 4078   2.720   1.135  15.703 -0.1382  0.3960  0.0742
  266TMC3     C 4079   2.738   0.739  15.586  0.7015 -0.0061 -0.7980
  266TMC3     O 4080   2.711   0.660  15.677 -0.6181 -0.3282  0.3886
  266TMC3     H 4081   2.823   0.824  15.807 -3.5084 -0.0476  2.9472
  266TMC3    H1 4082   2.662   0.945  15.432  0.7911  0.5596 -0.3701
  266TMC3    H2 4083   2.704   1.238  15.734  1.3077  1.5375 -3.0638
  266TMC3    C7 4084   2.585   1.174  15.509  0.2711 -0.8038  0.4256
  266TMC3    C8 4085   2.860   1.075  15.890 -0.2471  0.8319 -0.3733
  266TMC3    O1 4086   2.489   1.119  15.458  0.2882  0.3572  0.1916
  266TMC3    O2 4087   2.936   0.989  15.928  0.2054  0.2478  0.2787
  267MPD2     C 4088   0.515   2.212   0.286  0.2005 -0.2155  0.5333
  267MPD2    C1 4089   0.564   2.328   0.228 -0.4641 -0.1757 -0.0920
  267MPD2    C2 4090   0.483   2.414   0.162  0.6157  0.1239 -0.5880
  267MPD2    C3 4091   0.345   2.379   0.152 -0.4672  0.2112  0.6299
  267MPD2    C4 4092   0.301   2.267   0.215 -0.0981 -0.9341  0.6862
  267MPD2    C5 4093   0.385   2.184   0.286 -0.5942  0.0696 -0.0948
  267MPD2     H 4094   0.515   2.508   0.119  0.4558  0.0069 -0.9648
  267MPD2    H1 4095   0.199   2.232   0.220 -1.0284  1.6905 -0.0972
  267MPD2    H2 4096   0.577   2.158   0.356 -0.1544  0.0461  1.0563
  267MPD2    H3 4097   0.356   2.100   0.348  1.2768 -0.2613  0.3368
  267MPD2     N 4098   0.256   2.462   0.079  0.1135  0.3127  0.1651
  267MPD2    H5 4099   0.301   2.544   0.039  0.1125  0.3261  0.1916
  267MPD2    N1 4100   0.700   2.350   0.235 -0.1383  0.2672 -0.0351
  267MPD2    H7 4101   0.739   2.302   0.315  1.9801 -0.0084 -1.2269
  268TMC3    C1 4102   0.908   2.462   0.198 -0.0996  0.4593 -0.3506
  268TMC3    C2 4103   0.980   2.560   0.134  0.4569 -0.6710 -0.2989
  268TMC3    C3 4104   1.115   2.582   0.166  0.2823 -0.8255  0.2535
  268TMC3    C4 4105   0.969   2.405   0.311 -0.6396  0.2533 -0.2560
  268TMC3    C5 4106   1.098   2.438   0.342  0.1721 -0.4016 -0.0100
  268TMC3    C6 4107   1.173   2.526   0.273 -0.0483 -0.1549 -0.6199
  268TMC3     C 4108   0.773   2.442   0.154  0.0054  0.0829  1.0324
  268TMC3     O 4109   0.738   2.518   0.065  0.3116  0.3784 -0.2850
  268TMC3     H 4110   0.926   2.625   0.065  1.2510 -1.1183 -1.3368
  268TMC3    H1 4111   0.927   2.320   0.363  1.5779 -0.3699  0.4663
  268TMC3    H2 4112   1.277   2.553   0.289 -0.2745  0.4471 -0.1709
  268TMC3    C7 4113   1.148   2.384   0.462  0.2543 -0.1182 -0.5320
  268TMC3    C8 4114   1.203   2.672   0.084  0.2722  0.8063  0.6480
  268TMC3    O1 4115   1.084   2.296   0.510  0.0590 -0.4301  0.3175
  268TMC3    O2 4116   1.297   2.722   0.147  0.2601 -0.1013 -0.2430
  269MPD2     C 4117   0.890   1.175  15.461  0.1173  0.0501  0.0498
  269MPD2    C1 4118   0.764   1.208  15.505  0.7168  0.5050 -0.2661
  269MPD2    C2 4119   0.724   1.338  15.477  0.3970 -0.7872  0.0245
  269MPD2    C3 4120   0.802   1.429  15.413  0.5638 -0.6510  0.1491
  269MPD2    C4 4121   0.927   1.395  15.370 -0.0030 -0.7297  0.1021
  269MPD2    C5 4122   0.972   1.270  15.401  0.1294 -0.4473 -0.1757
  269MPD2     H 4123   0.622   1.365  15.503  1.3981  3.7198 -0.6376
  269MPD2    H1 4124   1.002   1.457  15.323  0.3868 -1.2527  0.0287
  269MPD2    H2 4125   0.932   1.076  15.475 -1.8476 -1.0580 -1.8347
  269MPD2    H3 4126   1.069   1.232  15.373  0.5034 -1.1524  2.0738
  269MPD2     N 4127   0.760   1.566  15.415  0.3253  0.7805 -0.6814
  269MPD2    H5 4128   0.676   1.585  15.469  0.7973  0.4554  0.1708
  269MPD2    N1 4129   0.688   1.110  15.560  0.4476 -0.5010  0.6481
  269MPD2    H7 4130   0.725   1.015  15.559 -1.2880 -1.1491 -1.2764
  270TMC3    C1 4131   0.500   0.986  15.644 -0.0246 -0.8314  0.0775
  270TMC3    C2 4132   0.369   0.963  15.619  0.0543  0.3641 -0.4759
  270TMC3    C3 4133   0.314   0.849  15.668  0.4049  0.0542  0.0219
  270TMC3    C4 4134   0.579   0.908  15.725 -0.2025 -0.0395  0.3912
  270TMC3    C5 4135   0.513   0.796  15.777 -0.2640  0.1719  0.6863
  270TMC3    C6 4136   0.383   0.765  15.747 -0.0299  0.4474  0.5423
  270TMC3     C 4137   0.553   1.121  15.599 -1.0021  0.6132  0.8840
  270TMC3     O 4138   0.464   1.201  15.584 -0.0931 -0.2294 -0.0442
  270TMC3     H 4139   0.326   1.015  15.534 -0.9500  0.3686  0.0383
  270TMC3    H1 4140   0.667   0.951  15.771 -0.0082 -1.4593  1.3074
  270TMC3    H2 4141   0.342   0.667  15.771 -1.4282  0.4400 -1.8428
  270TMC3    C7 4142   0.599   0.695  15.840  0.0769 -0.7136  0.5926
  270TMC3    C8 4143   0.231   0.776  15.577  0.3027  0.1454 -0.6818
  270TMC3    O1 4144   0.715   0.714  15.805  0.4923  0.7601  0.1280
  270TMC3    O2 4145   0.109   0.776  15.593  0.2841 -0.3357 -0.0865
  271MPD2     C 4146   4.485   0.730  13.851  0.5523  0.1525  0.0531
  271MPD2    C1 4147   4.456   0.755  13.980 -0.3175 -0.2294  0.1781
  271MPD2    C2 4148   4.341   0.821  14.015  0.0392  0.7163 -0.0470
  271MPD2    C3 4149   4.250   0.850  13.909  0.7473 -0.2789 -0.5243
  271MPD2    C4 4150   4.279   0.824  13.778 -0.0842 -0.2696 -0.0800
  271MPD2    C5 4151   4.396   0.760  13.749 -0.3857 -0.5728  0.9214
  271MPD2     H 4152   4.313   0.843  14.117  0.1006  0.4180  0.0324
  271MPD2    H1 4153   4.211   0.850  13.697 -1.1562 -0.8378  0.6387
  271MPD2    H2 4154   4.575   0.682  13.815 -0.2108  0.2329 -1.9650
  271MPD2    H3 4155   4.415   0.732  13.646 -3.2136  0.4248  0.1361
  271MPD2     N 4156   4.129   0.910  13.931  0.2034  0.5789  1.3105
  271MPD2    H5 4157   4.077   0.940  13.849 -0.7962  0.8293  2.0484
  271MPD2    N1 4158   4.549   0.720  14.086 -0.6690 -0.7233 -1.1191
  271MPD2    H7 4159   4.523   0.738  14.182 -0.4117  1.3557 -1.4550
  272TMC3    C1 4160   4.725   0.635  14.203  0.2237  0.3773 -0.0584
  272TMC3    C2 4161   0.074   0.531  14.204  0.2711  0.1572  0.3321
  272TMC3    C3 4162   0.133   0.498  14.323 -0.3238 -0.3368  0.3603
  272TMC3    C4 4163   4.691   0.705  14.315  0.4815 -0.2344 -0.2430
  272TMC3    C5 4164   0.013   0.675  14.430 -0.3854 -0.4897 -0.7044
  272TMC3    C6 4165   0.110   0.576  14.437  0.5521 -0.0495  0.4554
  272TMC3     C 4166   4.663   0.650  14.074 -0.3826  0.2643  0.0038
  272TMC3     O 4167   4.727   0.607  13.982 -0.1496 -1.0779 -0.6175
  272TMC3     H 4168   0.097   0.468  14.119 -1.4593 -1.1921  0.8596
  272TMC3    H1 4169   4.623   0.790  14.318 -0.9229 -1.3466 -0.3897
  272TMC3    H2 4170   0.172   0.552  14.523 -0.6541  1.2787  1.6802
  272TMC3    C7 4171   4.693   0.714  14.559  0.0769 -0.5078  0.0503
  272TMC3    C8 4172   0.265   0.444  14.313  0.2849 -0.6076  0.0150
  272TMC3    O1 4173   4.580   0.757  14.565  0.1755  0.0033 -0.6252
  272TMC3    O2 4174   0.307   0.425  14.204 -0.0716 -0.4148 -0.2518
  273MPD2     C 4175   0.814   3.686  11.729 -0.2523  0.1726  0.3779
  273MPD2    C1 4176   0.942   3.719  11.754 -0.0747  0.7242  0.1661
  273MPD2    C2 4177   1.019   3.780  11.663  0.1333 -0.3504  0.6132
  273MPD2    C3 4178   0.966   3.793  11.536 -0.0135 -0.2081 -0.2416
  273MPD2    C4 4179   0.838   3.753  11.505  0.4277 -0.1603 -0.3733
  273MPD2    C5 4180   0.761   3.697  11.602  0.1253  0.4679 -0.2819
  273MPD2     H 4181   1.119   3.815  11.687 -0.2960  1.6968 -0.5534
  273MPD2    H1 4182   0.786   3.779  11.414 -1.0272 -1.0298  0.1997
  273MPD2    H2 4183   0.745   3.645  11.801  0.6464  0.6855  1.5310
  273MPD2    H3 4184   0.658   3.672  11.580  0.2755  1.6696 -2.3554
  273MPD2     N 4185   1.049   3.836  11.433 -0.1557  0.0520  0.1394
  273MPD2    H5 4186   1.009   3.819  11.342 -0.4696  1.0158  0.0980
  273MPD2    N1 4187   0.981   3.691  11.889 -0.1218  0.1954  0.0298
  273MPD2    H7 4188   0.906   3.670  11.955 -0.9075  0.1737 -0.8619
  274TMC3    C1 4189   1.230   3.926  11.319  0.0051 -0.2996 -0.4248
  274TMC3    C2 4190   1.169   3.894  11.200 -0.0698  0.2349  0.5111
  274TMC3    C3 4191   1.249   3.917  11.092  0.6491  0.5649 -0.2294
  274TMC3    C4 4192   1.351   3.989  11.334 -0.5970  0.8489 -0.1873
  274TMC3    C5 4193   1.424   4.007  11.217  0.4480 -0.8349  0.3642
  274TMC3    C6 4194   1.383   3.961  11.098 -0.6405  0.4490  0.4189
  274TMC3     C 4195   1.170   3.900  11.448  0.7201  0.1295 -0.0511
  274TMC3     O 4196   1.228   3.936  11.551  0.3080 -0.0025  0.6685
  274TMC3     H 4197   1.072   3.848  11.190 -0.1425  0.6435 -0.6405
  274TMC3    H1 4198   1.398   3.995  11.432 -3.2787 -0.5859  1.1697
  274TMC3    H2 4199   1.428   4.006  11.010 -0.0616  1.0428  1.0206
  274TMC3    C7 4200   1.548   4.079  11.237 -0.9122  0.4412  0.1973
  274TMC3    C8 4201   1.177   3.928  10.966 -0.0947 -0.4657  1.1735
  274TMC3    O1 4202   1.631   4.070  11.149  0.0993 -0.8828  0.1657
  274TMC3    O2 4203   1.057   3.950  10.977 -0.1931  0.5947 -0.1095
  275MPD2     C 4204   1.459   1.819  14.530 -0.0397 -0.4045 -0.0879
  275MPD2    C1 4205   1.349   1.897  14.519  0.1940 -0.0966 -0.5549
  275MPD2    C2 4206   1.224   1.837  14.508 -0.2474  0.2858 -0.3516
  275MPD2    C3 4207   1.210   1.695  14.508  0.2443 -0.7648  0.0083
  275MPD2    C4 4208   1.328   1.621  14.517  0.1522 -0.0169 -0.3650
  275MPD2    C5 4209   1.450   1.684  14.530 -0.0510  0.5434 -0.5573
  275MPD2     H 4210   1.143   1.909  14.499  0.1663  0.4964 -2.4029
  275MPD2    H1 4211   1.332   1.513  14.525  2.0744  0.1541  0.8521
  275MPD2    H2 4212   1.563   1.850  14.542  0.5610 -2.1746 -0.6810
  275MPD2    H3 4213   1.533   1.615  14.526 -2.4527 -2.3276 -1.2358
  275MPD2     N 4214   1.092   1.622  14.502 -0.0746 -0.2253 -1.1958
  275MPD2    H5 4215   1.104   1.521  14.497 -0.8783 -0.3549 -0.5828
  275MPD2    N1 4216   1.359   2.038  14.519  0.0809  0.0142  0.0600
  275MPD2    H7 4217   1.271   2.089  14.527  0.7000  1.0933 -0.0156
  276TMC3    C1 4218   1.444   2.248  14.567  0.1017  0.6502 -0.0199
  276TMC3    C2 4219   1.338   2.248  14.657  0.5069  0.5888 -0.5370
  276TMC3    C3 4220   1.356   2.253  14.791  0.1579  0.0690  0.7635
  276TMC3    C4 4221   1.565   2.301  14.610  0.0888 -0.1067  0.0184
  276TMC3    C5 4222   1.586   2.300  14.750 -0.2129  0.0567  0.7769
  276TMC3    C6 4223   1.487   2.273  14.838  0.4043  1.1059  0.3548
  276TMC3     C 4224   1.467   2.121  14.505 -0.4868  0.7538 -0.6459
  276TMC3     O 4225   1.582   2.098  14.470  0.1131 -0.0795 -0.1019
  276TMC3     H 4226   1.243   2.217  14.616  1.1905 -1.6751 -0.4144
  276TMC3    H1 4227   1.647   2.309  14.538  2.5510  0.8485  2.9399
  276TMC3    H2 4228   1.505   2.275  14.945 -2.2153  0.2054  0.8112
  276TMC3    C7 4229   1.708   2.235  14.791 -0.0026 -0.4287 -0.2586
  276TMC3    C8 4230   1.273   2.160  14.861 -0.1517 -0.1841  0.2549
  276TMC3    O1 4231   1.729   2.243  14.911 -0.3501 -0.1126  0.2554
  276TMC3    O2 4232   1.156   2.160  14.836  0.6007 -0.2384 -0.0606
  277MPD2     C 4233   3.208   1.093  13.230  0.8671  0.5619 -0.0545
  277MPD2    C1 4234   3.118   1.149  13.321  0.8254  0.1779  0.6398
  277MPD2    C2 4235   3.081   1.067  13.431 -0.2196 -0.2251  0.0568
  277MPD2    C3 4236   3.126   0.937  13.443  0.5808 -0.1317 -0.1971
  277MPD2    C4 4237   3.220   0.890  13.357 -0.8329 -0.1992  0.3297
  277MPD2    C5 4238   3.258   0.969  13.254  0.0819 -0.0845 -0.3975
  277MPD2     H 4239   3.018   1.110  13.508 -0.8545 -0.8527 -0.1146
  277MPD2    H1 4240   3.260   0.790  13.370 -1.1866 -0.5025 -0.8909
  277MPD2    H2 4241   3.225   1.136  13.132  0.9433 -0.5481 -0.5282
  277MPD2    H3 4242   3.326   0.917  13.188 -2.0175 -1.2517 -1.6613
  277MPD2     N 4243   3.062   0.854  13.541  0.3523  0.3753  0.4611
  277MPD2    H5 4244   2.985   0.902  13.586 -1.1830 -0.5453 -1.1920
  277MPD2    N1 4245   3.065   1.277  13.294 -0.2441  0.6308  0.2129
  277MPD2    H7 4246   3.089   1.325  13.208 -1.2671  0.8667  0.0494
  278TMC3    C1 4247   3.002   0.657  13.662 -0.1220  0.3998  0.1755
  278TMC3    C2 4248   2.953   0.537  13.626  0.9468 -0.4782  0.3145
  278TMC3    C3 4249   2.850   0.486  13.708  0.3480  0.5854  0.4710
  278TMC3    C4 4250   2.945   0.738  13.756 -0.4386 -0.6334 -0.4581
  278TMC3    C5 4251   2.855   0.678  13.840 -0.2117 -0.1764  0.9171
  278TMC3    C6 4252   2.798   0.559  13.819 -0.2351 -0.1658 -0.7741
  278TMC3     C 4253   3.088   0.719  13.566  0.5798  0.4339  0.3184
  278TMC3     O 4254   3.171   0.645  13.514 -0.9660  0.6026 -0.1848
  278TMC3     H 4255   3.019   0.485  13.557  3.8677  1.8125  1.3713
  278TMC3    H1 4256   2.977   0.840  13.775  0.0039 -0.9224  0.3431
  278TMC3    H2 4257   2.716   0.514  13.875  1.5461 -3.6509 -0.9300
  278TMC3    C7 4258   2.777   0.761  13.927  0.3827  0.1271 -0.2642
  278TMC3    C8 4259   2.832   0.343  13.707  0.3365  0.1834 -1.2136
  278TMC3    O1 4260   2.840   0.860  13.966  0.2667 -1.3485  0.0591
  278TMC3    O2 4261   2.795   0.283  13.809 -0.0552 -0.3397 -0.0050
  279MPD2     C 4262   1.811   0.464   0.616  0.7771 -0.1915 -0.2292
  279MPD2    C1 4263   1.882   0.579   0.619 -0.8386 -0.1767 -0.0927
  279MPD2    C2 4264   1.958   0.614   0.506 -0.7008 -0.1769 -0.2659
  279MPD2    C3 4265   1.966   0.527   0.402  0.4998  1.0609  0.0812
  279MPD2    C4 4266   1.897   0.412   0.407 -0.5390  0.3326 -0.7005
  279MPD2    C5 4267   1.818   0.378   0.512  0.0531 -0.3060 -0.9598
  279MPD2     H 4268   2.020   0.703   0.507 -0.3110 -0.4521  0.9423
  279MPD2    H1 4269   1.886   0.351   0.318  2.2752 -2.7888  1.1016
  279MPD2    H2 4270   1.741   0.446   0.697  0.8671 -0.5944 -0.2377
  279MPD2    H3 4271   1.759   0.288   0.505 -0.0566 -0.3822  1.2548
  279MPD2     N 4272   2.031   0.554   0.277  0.4744 -0.3131  0.1108
  279MPD2    H5 4273   2.022   0.482   0.207  0.6045  0.7341 -0.9827
  279MPD2    N1 4274   1.860   0.670   0.731  0.2369  0.5180  0.0417
  279MPD2    H7 4275   1.808   0.627   0.806 -0.3157 -0.2556 -0.7724
  280TMC3    C1 4276   1.821   0.882   0.825  0.0130 -0.3372  0.5879
  280TMC3    C2 4277   1.687   0.865   0.794 -0.0702  0.1636  0.5019
  280TMC3    C3 4278   1.608   0.970   0.753  0.2972 -0.0286  0.0521
  280TMC3    C4 4279   1.868   1.010   0.838  0.1403 -0.5265  0.2896
  280TMC3    C5 4280   1.782   1.112   0.796  0.1687  0.2676 -0.2101
  280TMC3    C6 4281   1.651   1.097   0.762 -0.9322 -0.2974  0.2172
  280TMC3     C 4282   1.907   0.795   0.738  0.4750 -0.2634 -0.0393
  280TMC3     O 4283   1.979   0.860   0.658  0.2117 -0.0140  0.0954
  280TMC3     H 4284   1.635   0.770   0.807  1.6603 -0.5615  2.1607
  280TMC3    H1 4285   1.967   1.033   0.875  1.0593 -0.7791 -2.0579
  280TMC3    H2 4286   1.586   1.184   0.754 -1.5548 -0.5857  2.1884
  280TMC3    C7 4287   1.842   1.233   0.746 -0.3297 -0.3937 -0.3025
  280TMC3    C8 4288   1.564   0.967   0.616 -0.2188  0.7248 -0.0937
  280TMC3    O1 4289   1.957   1.250   0.785  0.3910 -0.2173 -0.1846
  280TMC3    O2 4290   1.551   1.075   0.556  0.1611  0.1909  0.2797
  281TMC3    C1 4291   0.936   1.577  13.457  0.2946 -0.0316  0.6045
  281TMC3    C2 4292   1.052   1.505  13.480 -0.0342  0.0457 -0.2714
  281TMC3    C3 4293   1.051   1.416  13.582  0.1661  0.1427  0.4289
  281TMC3    C4 4294   0.823   1.572  13.541  1.0588 -0.3007 -0.9953
  281TMC3    C5 4295   0.833   1.480  13.650  0.1284 -0.0275 -0.0187
  281TMC3    C6 4296   0.948   1.406  13.672  0.6199  0.7147  0.0331
  281TMC3     C 4297   0.890   1.587  13.317 -0.0521 -0.6351 -0.4577
  281TMC3     O 4298   0.971   1.607  13.228 -0.0543  0.6046 -0.1304
  281TMC3     H 4299   1.133   1.517  13.408  0.6294  1.6850  0.7574
  281TMC3    H1 4300   0.739   1.638  13.524  0.0663 -1.5243 -0.8499
  281TMC3    H2 4301   0.948   1.351  13.766  1.0661  1.2892  0.3762
  281TMC3    C7 4302   0.705   1.409  13.680  0.1326  0.0266  0.3646
  281TMC3    C8 4303   1.103   1.284  13.550  0.3947 -0.4044 -0.1808
  281TMC3    O1 4304   0.605   1.469  13.637  0.4252 -0.3895  0.2761
  281TMC3    O2 4305   1.056   1.202  13.620 -0.2225  0.6494 -0.6529
  282MPD2     C 4306   3.057   2.381  15.127 -0.6904  1.0055  0.0039
  282MPD2    C1 4307   2.953   2.469  15.144 -0.4294  0.2478 -0.3654
  282MPD2    C2 4308   2.924   2.556  15.044  0.0496  0.3799 -0.0325
  282MPD2    C3 4309   2.995   2.539  14.924 -0.5354  0.7169  0.0515
  282MPD2    C4 4310   3.093   2.439  14.907 -0.3039 -0.8332 -0.1661
  282MPD2    C5 4311   3.121   2.355  15.009  0.4263 -0.4174  0.0092
  282MPD2     H 4312   2.840   2.624  15.048  0.3124  0.5603  2.1094
  282MPD2    H1 4313   3.145   2.431  14.812  1.2814  0.1314  0.6229
  282MPD2    H2 4314   3.076   2.304  15.202  2.2627  0.5615 -1.2149
  282MPD2    H3 4315   3.199   2.282  14.991 -0.2679 -0.4164 -3.0111
  282MPD2     N 4316   2.953   2.623  14.818  0.0718  0.2707  0.4043
  282MPD2    H5 4317   2.898   2.703  14.846  0.1248 -0.2316  1.9541
  282MPD2    N1 4318   2.870   2.480  15.260 -0.1794  0.2656 -0.5888
  282MPD2    H7 4319   2.810   2.561  15.273 -1.0070 -0.8297  2.3782
  283TMC3    C1 4320   2.735   2.395  15.445  0.2545 -0.3935  0.1720
  283TMC3    C2 4321   2.702   2.521  15.487  0.0373  0.4966  0.0219
  283TMC3    C3 4322   2.574   2.528  15.542 -0.3036  0.3804  0.2065
  283TMC3    C4 4323   2.664   2.281  15.487  0.2163  0.1325  0.3386
  283TMC3    C5 4324   2.560   2.303  15.569  0.1156  0.6433 -0.5429
  283TMC3    C6 4325   2.497   2.426  15.586  0.7158  0.2498 -0.1946
  283TMC3     C 4326   2.844   2.373  15.347 -0.6477  0.2440  0.3654
  283TMC3     O 4327   2.877   2.257  15.337  0.3699 -0.7923  0.5478
  283TMC3     H 4328   2.758   2.610  15.459  1.5747  0.0876  1.7439
  283TMC3    H1 4329   2.695   2.184  15.450 -2.0553 -0.5950  0.3654
  283TMC3    H2 4330   2.406   2.448  15.640 -0.6863  0.2339 -2.5622
  283TMC3    C7 4331   2.498   2.202  15.653  0.2765  0.3393  0.4662
  283TMC3    C8 4332   2.521   2.662  15.567 -0.1533  0.0466  0.6812
  283TMC3    O1 4333   2.434   2.237  15.754  0.1666 -0.5468 -0.3814
  283TMC3    O2 4334   2.483   2.680  15.682  0.0933 -0.2665  0.0767
  284MPD2     C 4335   0.961   1.512  11.838 -0.3246  0.3492  0.2569
  284MPD2    C1 4336   1.040   1.459  11.739 -0.4707 -0.4726 -0.1757
  284MPD2    C2 4337   1.036   1.328  11.706 -0.5144 -0.6972  0.1635
  284MPD2    C3 4338   0.939   1.252  11.760 -0.0556  0.3443  0.4975
  284MPD2    C4 4339   0.867   1.305  11.862 -0.3383 -0.2145 -0.0818
  284MPD2    C5 4340   0.878   1.431  11.896  1.1373 -0.0410 -0.0395
  284MPD2     H 4341   1.097   1.296  11.623 -0.8217 -0.1148 -0.2943
  284MPD2    H1 4342   0.790   1.243  11.906 -0.2789  0.1693  0.5569
  284MPD2    H2 4343   0.968   1.618  11.862 -0.1267 -0.0055  1.7633
  284MPD2    H3 4344   0.804   1.466  11.966  0.4989 -0.2598 -0.6081
  284MPD2     N 4345   0.930   1.115  11.727 -0.3194  0.0758  0.2639
  284MPD2    H5 4346   0.869   1.060  11.786  0.5852 -1.1240  0.0843
  284MPD2    N1 4347   1.127   1.539  11.657 -0.2180 -0.1604  0.2261
  284MPD2    H7 4348   1.167   1.500  11.572 -2.0873 -0.3079 -0.5895
  285TMC3    C1 4349   1.220   1.736  11.572  0.1857  0.5397 -0.2328
  285TMC3    C2 4350   1.213   1.685  11.447  0.0540  0.0301  1.7114
  285TMC3    C3 4351   1.292   1.756  11.349 -0.3760 -0.1998  0.3746
  285TMC3    C4 4352   1.293   1.842  11.607  0.2878 -0.3850  0.4087
  285TMC3    C5 4353   1.372   1.904  11.512  0.3377 -0.2924  0.8871
  285TMC3    C6 4354   1.380   1.854  11.381 -0.1720 -0.0256  0.6172
  285TMC3     C 4355   1.154   1.668  11.680 -0.6653  0.4215 -0.5685
  285TMC3     O 4356   1.146   1.728  11.786  0.1785  0.0878  0.3176
  285TMC3     H 4357   1.132   1.619  11.418  0.2761  1.0853 -1.3034
  285TMC3    H1 4358   1.306   1.875  11.710 -0.1354 -0.4732  0.4916
  285TMC3    H2 4359   1.433   1.910  11.305 -1.2820  0.7144  0.3915
  285TMC3    C7 4360   1.470   1.995  11.557  0.2048 -0.0449 -0.4581
  285TMC3    C8 4361   1.321   1.674  11.232  0.2874  0.0848  0.9559
  285TMC3    O1 4362   1.540   1.965  11.651  0.0779  0.8924 -0.3211
  285TMC3    O2 4363   1.245   1.580  11.225  0.3545 -1.1476 -0.1816
  286MPD2     C 4364   0.913   0.661   0.569  0.0825  0.6664  0.3905
  286MPD2    C1 4365   0.977   0.686   0.689 -0.8974  0.5324 -0.6427
  286MPD2    C2 4366   1.039   0.588   0.763  0.3898  0.1509  0.1879
  286MPD2    C3 4367   1.049   0.456   0.704  0.5777 -0.1419 -0.4201
  286MPD2    C4 4368   0.995   0.433   0.578 -0.5857  0.2180  0.2267
  286MPD2    C5 4369   0.921   0.534   0.515  0.2097  0.3082 -0.1370
  286MPD2     H 4370   1.096   0.616   0.851  0.9532 -0.8696  0.1490
  286MPD2    H1 4371   1.019   0.343   0.523  1.2408  1.1988 -0.5643
  286MPD2    H2 4372   0.856   0.734   0.514  1.0825 -0.3080 -1.9702
  286MPD2    H3 4373   0.892   0.530   0.410 -0.0648 -3.9465  0.0977
  286MPD2     N 4374   1.117   0.351   0.766  0.4397 -0.0687  0.9152
  286MPD2    H5 4375   1.159   0.277   0.712 -0.2727  0.8427 -0.8854
  286MPD2    N1 4376   0.988   0.814   0.748  0.8809 -0.0996 -0.0741
  286MPD2    H7 4377   1.036   0.824   0.837  0.1666  1.3477  0.1579
  287TMC3    C1 4378   1.222   0.246   0.936  0.9596  0.2662  0.3425
  287TMC3    C2 4379   1.230   0.129   0.858  0.4265  0.1100 -0.9619
  287TMC3    C3 4380   1.315   0.034   0.910 -0.5279  0.1840 -0.1688
  287TMC3    C4 4381   1.290   0.266   1.054 -0.1484 -0.5262 -0.2346
  287TMC3    C5 4382   1.369   0.160   1.096  0.4333 -0.2742  0.0813
  287TMC3    C6 4383   1.395   0.053   1.024 -0.6139 -0.1871  0.8282
  287TMC3     C 4384   1.150   0.359   0.902 -0.0599 -0.0673 -0.2417
  287TMC3     O 4385   1.108   0.433   0.992  0.9149  0.3810 -0.0797
  287TMC3     H 4386   1.152   0.116   0.785 -1.0264  0.0393  0.5980
  287TMC3    H1 4387   1.276   0.348   1.123 -0.3714 -0.3943 -0.4365
  287TMC3    H2 4388   1.452   4.712   1.070 -2.6021 -1.7758  0.5479
  287TMC3    C7 4389   1.450   0.170   1.214  0.0093 -0.0406 -0.1200
  287TMC3    C8 4390   1.331   4.654   0.830  0.0910  0.4655  0.0833
  287TMC3    O1 4391   1.483   0.286   1.244 -0.0799 -0.2000  0.0391
  287TMC3    O2 4392   1.431   4.589   0.853  0.0600 -0.7190 -0.1191
  288TMC3    C1 4393   3.451   0.443  14.287  0.5017  0.3635 -0.0832
  288TMC3    C2 4394   3.334   0.428  14.361 -0.4914  0.0543  0.4038
  288TMC3    C3 4395   3.229   0.510  14.329 -0.5257  0.1601 -0.9925
  288TMC3    C4 4396   3.465   0.532  14.186  0.3057  0.1446 -0.4683
  288TMC3    C5 4397   3.356   0.614  14.168 -0.9331  0.2615  0.2878
  288TMC3    C6 4398   3.237   0.601  14.230 -0.2343 -0.8226 -0.3089
  288TMC3     C 4399   3.554   0.350  14.324  0.2187 -0.1494  0.1971
  288TMC3     O 4400   3.532   0.293  14.433  0.0567  0.1076  0.3518
  288TMC3     H 4401   3.328   0.367  14.450  2.4684 -2.0067 -0.8462
  288TMC3    H1 4402   3.561   0.560  14.144  0.3920 -1.5045 -1.3814
  288TMC3    H2 4403   3.148   0.658  14.206  0.5093 -0.2647 -1.7492
  288TMC3    C7 4404   3.357   0.688  14.035  0.0963  0.7329  0.0420
  288TMC3    C8 4405   3.129   0.547  14.425  0.4997 -0.4715 -0.4374
  288TMC3    O1 4406   3.439   0.665  13.947 -0.2443  0.3780  0.1935
  288TMC3    O2 4407   3.083   0.661  14.423  0.2845 -0.1108  0.1158
  289MPD2     C 4408   3.338   0.306  13.861 -0.1747 -0.1111  0.3425
  289MPD2    C1 4409   3.337   0.170  13.865 -0.4101 -1.3572 -0.2674
  289MPD2    C2 4410   3.229   0.111  13.930 -0.5849 -0.3019  0.0098
  289MPD2    C3 4411   3.123   0.186  13.975 -0.3058 -1.1156 -0.4837
  289MPD2    C4 4412   3.126   0.325  13.970  0.4759 -0.1867  0.8955
  289MPD2    C5 4413   3.238   0.382  13.914  0.1276 -0.2350 -0.2358
  289MPD2     H 4414   3.218   0.003  13.940  1.7883 -0.7953 -2.6600
  289MPD2    H1 4415   3.051   0.389  14.017 -0.0735 -0.3755  0.2813
  289MPD2    H2 4416   3.425   0.350  13.816 -0.5315  1.8781  1.5902
  289MPD2    H3 4417   3.246   0.489  13.898  2.5650 -0.0133  2.4507
  289MPD2     N 4418   2.999   0.125  14.007 -0.0227 -0.8235  0.3886
  289MPD2    H5 4419   2.935   0.201  14.031  1.5860  0.6745 -0.0601
  289MPD2    N1 4420   3.437   0.097  13.794 -0.3562  0.0759  0.6263
  289MPD2    H7 4421   3.517   0.147  13.756 -1.1951  2.0175  1.4067
  290TMC3    C1 4422   2.827   4.706  14.014 -0.1023 -0.3355  0.5442
  290TMC3    C2 4423   2.747   0.074  14.029  0.5073 -0.2152  1.0335
  290TMC3    C3 4424   2.627   0.060  13.969 -0.7261 -0.9808 -0.7562
  290TMC3    C4 4425   2.781   4.580  13.975  0.3242 -0.0285 -0.0255
  290TMC3    C5 4426   2.653   4.569  13.921 -0.8032 -0.2175  0.5826
  290TMC3    C6 4427   2.580   4.687  13.904  0.1494 -0.0140 -0.0994
  290TMC3     C 4428   2.968   4.729  13.992  0.0608 -0.9078  0.0747
  290TMC3     O 4429   3.033   4.626  13.964 -0.0874  0.1491  0.1560
  290TMC3     H 4430   2.770   0.176  14.059 -0.5814  0.6979 -1.2694
  290TMC3    H1 4431   2.844   4.492  13.984  0.2016  0.0347  1.4128
  290TMC3    H2 4432   2.479   4.677  13.866  0.1877  2.0687 -0.7158
  290TMC3    C7 4433   2.609   4.450  13.842 -0.2708  0.7422  0.3875
  290TMC3    C8 4434   2.550   0.190  13.941 -0.4832  0.1683  0.3596
  290TMC3    O1 4435   2.509   4.462  13.772  0.6934 -0.7095 -0.3434
  290TMC3    O2 4436   2.453   0.176  13.874  0.0004  0.3414 -0.5925
  291MPD2     C 4437   2.176   3.952   0.323  0.2273  0.1413  0.2505
  291MPD2    C1 4438   2.300   3.891   0.333 -0.2858 -0.1426  0.3884
  291MPD2    C2 4439   2.409   3.974   0.313  0.0129 -0.3307  0.1238
  291MPD2    C3 4440   2.393   4.110   0.296  0.0486 -0.1193 -0.4619
  291MPD2    C4 4441   2.270   4.166   0.296  0.2698 -0.2750 -0.0525
  291MPD2    C5 4442   2.161   4.086   0.314  0.2211 -0.0713  0.2938
  291MPD2     H 4443   2.509   3.932   0.318  0.3640  0.2183 -2.5398
  291MPD2    H1 4444   2.260   4.271   0.272  0.9774  0.5021  3.0996
  291MPD2    H2 4445   2.082   3.899   0.338  1.1295 -1.9893 -1.6279
  291MPD2    H3 4446   2.067   4.141   0.314 -1.1531 -2.4221 -1.4745
  291MPD2     N 4447   2.494   4.193   0.250 -0.7821  0.4708  0.3816
  291MPD2    H5 4448   2.466   4.287   0.226  0.7624  1.1605  1.3327
  291MPD2    N1 4449   2.298   3.750   0.347  0.0506  0.0679 -0.5336
  291MPD2    H7 4450   2.206   3.708   0.362 -0.6632  0.8681 -2.7046
  292TMC3    C1 4451   2.373   3.526   0.362 -0.3308 -0.2771 -0.0913
  292TMC3    C2 4452   2.478   3.441   0.405 -0.3790  0.4389  0.1751
  292TMC3    C3 4453   2.498   3.326   0.335  0.5915  0.4622 -0.1152
  292TMC3    C4 4454   2.289   3.480   0.259 -0.2603 -1.0334  0.1671
  292TMC3    C5 4455   2.315   3.359   0.202 -0.2613  0.6814 -0.4294
  292TMC3    C6 4456   2.422   3.276   0.237 -0.3912 -0.0980 -0.3835
  292TMC3     C 4457   2.410   3.666   0.351  0.0480 -0.3033  0.1982
  292TMC3     O 4458   2.530   3.700   0.358 -0.1222 -0.0189  0.5883
  292TMC3     H 4459   2.550   3.487   0.472 -0.5189  0.7910  0.0842
  292TMC3    H1 4460   2.213   3.547   0.220 -0.4994 -1.7410 -0.5785
  292TMC3    H2 4461   2.452   3.187   0.183  2.2907 -0.7824  2.2405
  292TMC3    C7 4462   2.237   3.314   0.093  0.5498  0.7182  0.5028
  292TMC3    C8 4463   2.627   3.258   0.348 -0.5684 -0.2109  0.0933
  292TMC3    O1 4464   2.281   3.219   0.033  0.0829  0.6574 -0.4583
  292TMC3    O2 4465   2.686   3.220   0.248  0.3364 -0.7579 -0.0886
  293MPD2     C 4466   4.198   0.656  12.430 -0.6411  0.3296 -0.0972
  293MPD2    C1 4467   4.068   0.642  12.472  0.4199  0.5170  0.3482
  293MPD2    C2 4468   4.039   0.643  12.607 -0.3069 -0.6254 -0.1075
  293MPD2    C3 4469   4.135   0.690  12.697  0.0736  0.4369 -0.0689
  293MPD2    C4 4470   4.264   0.696  12.651  0.0200 -0.3526 -0.2092
  293MPD2    C5 4471   4.295   0.677  12.520  0.1669 -0.1134 -0.3522
  293MPD2     H 4472   3.937   0.616  12.632 -1.3627  1.4120 -2.2324
  293MPD2    H1 4473   4.354   0.719  12.708  0.6990 -0.4453 -1.2425
  293MPD2    H2 4474   4.223   0.644  12.325 -0.7017 -0.9409  0.0299
  293MPD2    H3 4475   4.397   0.655  12.491 -0.3831  0.4437 -2.7212
  293MPD2     N 4476   4.091   0.711  12.831  0.2161  0.3586  0.8648
  293MPD2    H5 4477   4.001   0.674  12.860  0.5914 -1.4588 -0.3283
  293MPD2    N1 4478   3.965   0.612  12.379 -0.6709  0.5021 -0.4515
  293MPD2    H7 4479   3.878   0.580  12.422 -0.8241  0.0022 -1.1205
  294TMC3    C1 4480   3.841   0.589  12.169  0.1510 -0.4824 -0.0117
  294TMC3    C2 4481   3.775   0.480  12.206 -0.3877 -0.4336  0.2232
  294TMC3    C3 4482   3.665   0.447  12.132  0.1862 -0.4105 -0.8278
  294TMC3    C4 4483   3.810   0.665  12.065 -0.2969  0.4653 -1.4508
  294TMC3    C5 4484   3.712   0.622  11.988 -0.4485  0.5644  0.5353
  294TMC3    C6 4485   3.632   0.517  12.025  0.6919 -0.6003 -0.3450
  294TMC3     C 4486   3.968   0.631  12.243 -0.3238  0.1323  0.8467
  294TMC3     O 4487   4.047   0.692  12.178 -0.0425  0.4779 -0.0973
  294TMC3     H 4488   3.823   0.412  12.276 -0.1034 -0.8859 -0.4079
  294TMC3    H1 4489   3.878   0.744  12.036  2.3307  0.0828  3.6158
  294TMC3    H2 4490   3.561   0.481  11.951 -0.8516  1.2717  0.2273
  294TMC3    C7 4491   3.706   0.669  11.854 -0.0286  0.4091  0.4176
  294TMC3    C8 4492   3.626   0.310  12.132  0.0202 -0.2692 -0.1403
  294TMC3    O1 4493   3.592   0.671  11.810 -0.0091  0.2006 -0.7628
  294TMC3    O2 4494   3.708   0.222  12.158  0.2988 -0.6859 -0.9770
  295MPD2     C 4495   0.700   4.248   1.097  0.1636 -0.2064 -0.7580
  295MPD2    C1 4496   0.664   4.140   1.024  0.0946  0.4101  0.4394
  295MPD2    C2 4497   0.741   4.028   1.026 -0.0484 -0.6357 -0.3417
  295MPD2    C3 4498   0.857   4.029   1.100 -0.5263 -0.2690  0.4633
  295MPD2    C4 4499   0.897   4.137   1.172  0.4940  0.4408  0.0447
  295MPD2    C5 4500   0.814   4.248   1.176  0.5584  0.5131  0.6345
  295MPD2     H 4501   0.708   3.937   0.976 -1.0033 -0.4320 -0.0873
  295MPD2    H1 4502   0.995   4.137   1.219  0.3942 -1.8612  0.2203
  295MPD2    H2 4503   0.641   4.338   1.096  1.5113  0.6868 -0.0518
  295MPD2    H3 4504   0.841   4.334   1.236  1.3950 -0.4420  1.6151
  295MPD2     N 4505   0.934   3.911   1.116 -0.0272  0.2993  0.0919
  295MPD2    H5 4506   1.009   3.924   1.183  0.2152 -2.6971  0.4002
  295MPD2    N1 4507   0.554   4.140   0.934 -0.8414 -0.0569  0.1261
  295MPD2    H7 4508   0.551   4.059   0.873  0.6242  0.0321 -0.0592
  296TMC3    C1 4509   1.016   3.700   1.081 -0.0425  0.3385  0.7881
  296TMC3    C2 4510   1.068   3.700   1.209  0.4989 -0.0256  0.3651
  296TMC3    C3 4511   1.143   3.592   1.248 -0.4213 -0.0032 -0.3772
  296TMC3    C4 4512   1.032   3.595   0.995  0.1957  0.5958 -1.0040
  296TMC3    C5 4513   1.101   3.488   1.046 -0.0090 -0.1380 -0.1333
  296TMC3    C6 4514   1.164   3.481   1.174 -0.2938  0.4161  0.1008
  296TMC3     C 4515   0.918   3.795   1.047  0.7537 -0.0160  0.4135
  296TMC3     O 4516   0.841   3.766   0.956 -0.2430 -0.3287 -0.6721
  296TMC3     H 4517   1.024   3.762   1.286 -0.2650 -0.2659  0.1279
  296TMC3    H1 4518   0.981   3.583   0.900 -2.2302  0.6011  0.3238
  296TMC3    H2 4519   1.196   3.388   1.221 -1.0972  0.4376  0.6761
  296TMC3    C7 4520   1.065   3.352   1.000 -0.0478  0.5737 -0.1782
  296TMC3    C8 4521   1.218   3.587   1.373 -0.3956  0.2529 -0.3175
  296TMC3    O1 4522   1.149   3.264   1.018  0.5070 -0.6374  0.2656
  296TMC3    O2 4523   1.253   3.479   1.416 -0.3827  0.1452  0.3916
  297MPD2     C 4524   2.010   1.188  16.603  0.1726 -0.3870  0.3332
  297MPD2    C1 4525   1.916   1.216  16.508  0.8067 -0.4945 -0.1772
  297MPD2    C2 4526   1.949   1.289  16.392 -0.5538 -0.9010  0.1685
  297MPD2    C3 4527   2.078   1.330  16.375  1.1570  0.3783 -0.0165
  297MPD2    C4 4528   2.161   1.329  16.489 -0.3207  0.4553  0.2802
  297MPD2    C5 4529   2.125   1.254  16.595  0.3395  0.6939  0.7049
  297MPD2     H 4530   1.866   1.306  16.324  1.3772 -2.8841 -2.6440
  297MPD2    H1 4531   2.259   1.376  16.501 -0.1814  0.4503 -0.8149
  297MPD2    H2 4532   1.997   1.121  16.687 -1.4202 -3.1424 -2.0969
  297MPD2    H3 4533   2.196   1.240  16.676  0.6278 -0.1969  0.2962
  297MPD2     N 4534   2.122   1.401  16.256 -0.4149 -0.2224  0.3846
  297MPD2    H5 4535   2.047   1.439  16.199 -1.1500 -0.9196  0.8826
  297MPD2    N1 4536   1.783   1.182  16.522  0.7000 -0.2054 -0.1075
  297MPD2    H7 4537   1.717   1.202  16.447  0.6389 -1.4245 -0.3803
  298TMC3    C1 4538   1.599   1.086  16.614 -1.0069 -0.0294 -0.0911
  298TMC3    C2 4539   1.567   1.039  16.488  0.5681 -0.2387  0.0638
  298TMC3    C3 4540   1.432   1.024  16.458  0.1368  0.7757  0.0250
  298TMC3    C4 4541   1.500   1.126  16.697  0.1311 -0.4327  0.0036
  298TMC3    C5 4542   1.363   1.125  16.661  0.5510  0.0466  0.0334
  298TMC3    C6 4543   1.331   1.054  16.546  0.5045  0.5277  0.4753
  298TMC3     C 4544   1.732   1.128  16.634 -1.1403  0.4446  0.5001
  298TMC3     O 4545   1.769   1.117  16.748  0.2516 -0.0419 -0.2119
  298TMC3     H 4546   1.647   0.995  16.430 -1.6315 -1.4445 -2.1002
  298TMC3    H1 4547   1.542   1.191  16.774 -1.1014 -0.6783  0.8956
  298TMC3    H2 4548   1.227   1.033  16.524  0.8250  1.6128 -2.0822
  298TMC3    C7 4549   1.287   1.250  16.670 -0.4642  0.3858  0.5765
  298TMC3    C8 4550   1.395   1.069  16.319  0.2402  0.6833  0.1483
  298TMC3    O1 4551   1.310   1.327  16.764  0.4501  0.3253  0.4002
  298TMC3    O2 4552   1.283   1.116  16.316  0.4905 -0.5322 -0.1818
  299MPD2     C 4553   2.160   0.975  10.672  1.0053 -0.7202  0.1689
  299MPD2    C1 4554   2.255   0.985  10.570 -0.1110  0.3494 -0.2030
  299MPD2    C2 4555   2.216   0.950  10.435  0.4862 -0.0588  0.0743
  299MPD2    C3 4556   2.084   0.926  10.406 -0.6424 -0.1725 -0.2624
  299MPD2    C4 4557   1.999   0.885  10.509 -0.7965 -0.8517 -0.0790
  299MPD2    C5 4558   2.035   0.924  10.638  0.4370  0.1864 -0.4499
  299MPD2     H 4559   2.283   0.961  10.351  1.9806 -2.3640  0.9526
  299MPD2    H1 4560   1.898   0.855  10.489 -0.2407 -2.5355 -0.3261
  299MPD2    H2 4561   2.198   0.994  10.772 -0.7694 -2.8846  1.2314
  299MPD2    H3 4562   1.963   0.922  10.720 -0.3589 -1.5100 -1.1895
  299MPD2     N 4563   2.041   0.903  10.270 -0.4773 -0.2662 -0.0066
  299MPD2    H5 4564   1.953   0.857  10.249 -0.6196  0.4607 -1.0354
  299MPD2    N1 4565   2.382   1.024  10.603  0.4410  0.2882  0.0029
  299MPD2    H7 4566   2.405   1.042  10.700  1.1096 -0.4784 -0.0124
  300TMC3    C1 4567   2.021   0.887  10.043 -0.2569  0.6315  0.5733
  300TMC3    C2 4568   1.976   0.990   9.962  0.1190  0.2707 -0.2986
  300TMC3    C3 4569   1.845   0.989   9.927 -0.2764  0.6050 -0.4791
  300TMC3    C4 4570   1.934   0.785  10.072  0.0877  0.2710 -0.7524
  300TMC3    C5 4571   1.804   0.777  10.023  0.9304 -0.3322 -0.4783
  300TMC3    C6 4572   1.760   0.888   9.952  0.1657 -0.6930  1.0527
  300TMC3     C 4573   2.107   0.926  10.152  0.2554  0.3639 -0.0974
  300TMC3     O 4574   2.183   1.017  10.144  0.0378 -0.2598 -0.0505
  300TMC3     H 4575   2.036   1.072   9.924  2.0099 -0.7788  0.4109
  300TMC3    H1 4576   1.963   0.719  10.153  2.1913  2.1308  0.0076
  300TMC3    H2 4577   1.663   0.896   9.904  0.8649 -1.0750 -0.4373
  300TMC3    C7 4578   1.711   0.710  10.110 -0.3890 -0.2543 -0.4969
  300TMC3    C8 4579   1.778   1.124   9.916  0.6172  0.1653  0.0888
  300TMC3    O1 4580   1.755   0.624  10.180  0.3130  0.5019  0.2343
  300TMC3    O2 4581   1.686   1.128   9.841 -0.0699  0.3032 -0.3001
  301MPD2     C 4582   0.155   2.160   0.591 -0.4306 -0.2501 -0.6418
  301MPD2    C1 4583   0.021   2.145   0.600  0.7292  0.3935 -0.3552
  301MPD2    C2 4584   4.703   2.029   0.648  0.9714  0.5078  0.1242
  301MPD2    C3 4585   0.041   1.924   0.678  0.5401  0.0940  0.1371
  301MPD2    C4 4586   0.179   1.943   0.677  0.2688  0.3627 -0.3410
  301MPD2    C5 4587   0.235   2.062   0.637 -0.0932 -0.4091  0.3950
  301MPD2     H 4588   4.596   2.026   0.660  0.8973  0.4571 -0.5408
  301MPD2    H1 4589   0.243   1.871   0.727 -0.6741  1.0033  1.7747
  301MPD2    H2 4590   0.206   2.243   0.543  2.2056 -1.3949  0.1475
  301MPD2    H3 4591   0.342   2.076   0.642 -0.3453  2.3502 -1.8831
  301MPD2     N 4592   4.725   1.795   0.705 -0.1831  0.3402  0.5957
  301MPD2    H5 4593   0.046   1.719   0.733 -0.1084 -0.5372 -1.9454
  301MPD2    N1 4594   4.666   2.237   0.549 -0.2180 -0.1343 -0.2500
  301MPD2    H7 4595   4.566   2.221   0.562  0.2098 -2.9441 -0.3370
  302TMC3    C1 4596   4.570   1.621   0.694 -0.4606  0.2833 -0.3405
  302TMC3    C2 4597   4.597   1.569   0.817 -0.8067 -0.4248 -0.3375
  302TMC3    C3 4598   4.553   1.442   0.855  0.1133 -0.2993 -0.8403
  302TMC3    C4 4599   4.480   1.558   0.610 -0.2515 -0.2179 -0.5945
  302TMC3    C5 4600   4.437   1.433   0.659 -0.4761 -0.0758  0.1876
  302TMC3    C6 4601   4.475   1.368   0.776 -0.1675 -0.0373  0.1289
  302TMC3     C 4602   4.598   1.759   0.657  0.1283 -0.0211  0.7261
  302TMC3     O 4603   4.513   1.812   0.587  0.3099  0.7167  0.9219
  302TMC3     H 4604   4.654   1.625   0.890 -1.1587  1.7006 -1.6981
  302TMC3    H1 4605   4.453   1.611   0.519  0.6390 -0.1278 -0.8080
  302TMC3    H2 4606   4.458   1.263   0.798 -0.4374  0.7230  3.4620
  302TMC3    C7 4607   4.326   1.382   0.582  0.6735 -0.0009 -0.6613
  302TMC3    C8 4608   4.626   1.383   0.964  0.4087 -0.1942 -0.3071
  302TMC3    O1 4609   4.305   1.260   0.573 -0.8497  0.4008 -0.3739
  302TMC3    O2 4610   4.734   1.429   0.999 -0.0499 -0.3635  0.2142
  303MPD2     C 4611   4.478   0.924  10.468 -0.2030  0.0205  0.6261
  303MPD2    C1 4612   4.407   0.811  10.436 -0.5580  0.7630  0.5294
  303MPD2    C2 4613   4.298   0.828  10.356  0.2885  0.1099 -0.1370
  303MPD2    C3 4614   4.272   0.948  10.288  0.1126 -0.7687  0.5706
  303MPD2    C4 4615   4.360   1.057  10.310 -0.6666 -0.4081  0.1678
  303MPD2    C5 4616   4.457   1.045  10.405  0.4875 -0.0005  0.1221
  303MPD2     H 4617   4.238   0.738  10.345  2.4173 -1.1707 -1.3139
  303MPD2    H1 4618   4.352   1.148  10.252 -0.5140  0.2196  1.1427
  303MPD2    H2 4619   4.550   0.924  10.548  1.1241  1.8925 -0.5805
  303MPD2    H3 4620   4.509   1.136  10.432 -0.5433  0.3206  1.0314
  303MPD2     N 4621   4.173   0.961  10.189 -0.0148 -0.3387  0.4422
  303MPD2    H5 4622   4.190   1.034  10.122 -0.1558 -0.7441 -0.0359
  303MPD2    N1 4623   4.445   0.692  10.496 -0.3614  0.4783 -0.0367
  303MPD2    H7 4624   4.529   0.694  10.553  0.7884 -0.8074 -1.6638
  304TMC3    C1 4625   4.468   0.462  10.557  0.6970  0.2367 -1.1221
  304TMC3    C2 4626   4.456   0.435  10.692 -0.0867  0.1919  0.0499
  304TMC3    C3 4627   4.506   0.322  10.741 -0.3338  0.0733  0.3561
  304TMC3    C4 4628   4.550   0.386  10.480  0.6913 -0.4282  0.3803
  304TMC3    C5 4629   4.616   0.276  10.530  0.0432  0.4739 -0.5856
  304TMC3    C6 4630   4.583   0.241  10.659  0.3779  0.6970 -0.2062
  304TMC3     C 4631   4.384   0.569  10.490 -0.2760 -0.6456  0.2454
  304TMC3     O 4632   4.298   0.533  10.412  0.1337  0.2361 -0.5178
  304TMC3     H 4633   4.378   0.491  10.743  1.0402  0.4517  1.4905
  304TMC3    H1 4634   4.561   0.425  10.379  0.5355  0.2214  0.6111
  304TMC3    H2 4635   4.603   0.142  10.700  0.0812 -0.1417 -2.1019
  304TMC3    C7 4636   4.598   0.162  10.433 -0.3015  0.0288  0.1355
  304TMC3    C8 4637   4.392   0.254  10.788 -0.4481  0.3433  0.1909
  304TMC3    O1 4638   4.546   0.188  10.326  0.6065  0.0997 -0.0215
  304TMC3    O2 4639   4.363   0.260  10.907 -0.0044  0.2676 -0.6964
  305MPD2     C 4640   3.430   2.942  14.147  0.9211 -0.8509 -0.0228
  305MPD2    C1 4641   3.312   2.890  14.199 -0.2591 -0.4690 -1.1234
  305MPD2    C2 4642   3.212   2.849  14.108 -0.2020  0.0148  0.2369
  305MPD2    C3 4643   3.238   2.855  13.967  0.3207  0.1537 -0.2630
  305MPD2    C4 4644   3.355   2.911  13.925 -0.1620  0.3103  0.5468
  305MPD2    C5 4645   3.447   2.948  14.012  0.2902  0.1221  0.3956
  305MPD2     H 4646   3.133   2.795  14.160  0.6160 -0.5466  0.8939
  305MPD2    H1 4647   3.377   2.918  13.819  0.6752 -0.1105  0.7000
  305MPD2    H2 4648   3.509   2.985  14.208 -1.8918  4.7844 -0.3721
  305MPD2    H3 4649   3.540   2.989  13.975 -1.8979  2.0526 -2.9369
  305MPD2     N 4650   3.151   2.804  13.864 -0.2750  0.7721 -0.0903
  305MPD2    H5 4651   3.185   2.823  13.771 -1.9833  2.2583 -0.4211
  305MPD2    N1 4652   3.321   2.859  14.335  0.4705 -0.3094  0.5319
  305MPD2    H7 4653   3.410   2.875  14.381 -0.4909 -0.7142  2.5508
  306TMC3    C1 4654   3.275   2.772  14.541 -0.8084  0.1289  0.3146
  306TMC3    C2 4655   3.370   2.674  14.521 -0.2677 -0.0997 -0.1516
  306TMC3    C3 4656   3.437   2.636  14.634  0.7548  0.1564 -0.2759
  306TMC3    C4 4657   3.235   2.819  14.663 -0.5893 -0.2944 -0.5719
  306TMC3    C5 4658   3.300   2.772  14.775 -0.4147  0.2060 -0.7717
  306TMC3    C6 4659   3.403   2.684  14.757 -0.5659 -0.5719 -0.3381
  306TMC3     C 4660   3.218   2.831  14.426 -0.1141 -0.2653  0.4953
  306TMC3     O 4661   3.095   2.822  14.417  0.2909  0.2130  0.5356
  306TMC3     H 4662   3.396   2.635  14.423  2.2140 -3.5355  1.8665
  306TMC3    H1 4663   3.160   2.897  14.665  0.9878  1.2550 -1.5990
  306TMC3    H2 4664   3.427   2.622  14.843 -1.2841 -2.1045 -1.2271
  306TMC3    C7 4665   3.258   2.825  14.901 -0.3240 -0.0033 -0.0270
  306TMC3    C8 4666   3.510   2.516  14.622 -0.0620  0.2945  0.4148
  306TMC3    O1 4667   3.143   2.869  14.909 -0.1020 -0.3147 -0.3275
  306TMC3    O2 4668   3.458   2.437  14.543 -0.2970  0.1032  0.1256
  307MPD2     C 4669   0.573   0.614   0.355 -0.2720 -0.3150 -0.3101
  307MPD2    C1 4670   0.582   0.757   0.349  0.0166  0.6660  0.0117
  307MPD2    C2 4671   0.571   0.839   0.462  0.1606 -0.0725  0.5257
  307MPD2    C3 4672   0.554   0.780   0.583 -0.1512  0.1218 -0.2664
  307MPD2    C4 4673   0.553   0.643   0.596 -0.0712 -0.3831 -0.4077
  307MPD2    C5 4674   0.564   0.562   0.486  0.3962  0.1580 -0.2061
  307MPD2     H 4675   0.577   0.947   0.455 -1.0145 -0.1614 -1.9939
  307MPD2    H1 4676   0.528   0.595   0.690 -0.6567 -2.2671 -1.5418
  307MPD2    H2 4677   0.571   0.547   0.269 -0.1927  1.1976 -1.4890
  307MPD2    H3 4678   0.544   0.457   0.506 -1.1495  0.5494  0.2579
  307MPD2     N 4679   0.541   0.868   0.697  0.3511 -0.2780 -0.2904
  307MPD2    H5 4680   0.563   0.964   0.676  1.1445  0.0096  1.8597
  307MPD2    N1 4681   0.605   0.825   0.230  0.2186  0.3633 -0.0318
  307MPD2    H7 4682   0.626   0.924   0.237  1.7954  0.2372 -3.0723
  308TMC3    C1 4683   0.204   0.948   0.885  0.9794 -0.0812 -0.1258
  308TMC3    C2 4684   0.205   1.075   0.830  0.3931 -0.0117  0.4808
  308TMC3    C3 4685   0.330   1.139   0.822  0.1397  0.4767 -0.1808
  308TMC3    C4 4686   0.310   0.877   0.921 -0.3505 -0.3434 -0.2239
  308TMC3    C5 4687   0.431   0.926   0.895 -0.4459  0.1683 -0.2941
  308TMC3    C6 4688   0.441   1.060   0.853 -0.0426  0.1242  1.0601
  308TMC3     C 4689   0.078   0.876   0.899 -0.4427 -0.0068  0.2340
  308TMC3     O 4690   0.081   0.773   0.960  0.0093 -0.0946 -0.2451
  308TMC3     H 4691   0.115   1.135   0.830  1.0145  0.9258 -0.4488
  308TMC3    H1 4692   0.306   0.771   0.942  2.5797 -0.8315 -2.2309
  308TMC3    H2 4693   0.540   1.102   0.839  0.0763 -0.0863  1.2712
  308TMC3    C7 4694   0.512   0.830   0.827  0.5610  0.0892 -0.0492
  308TMC3    C8 4695   0.331   1.281   0.798 -0.0413  0.2568  0.0275
  308TMC3    O1 4696   0.512   0.716   0.876  0.3288 -0.1404  0.0125
  308TMC3    O2 4697   0.229   1.324   0.750  0.5624  0.0806  0.0208
  309MPD2     C 4698   4.356   1.227  17.225  0.3337 -0.2602 -0.1416
  309MPD2    C1 4699   4.336   1.351  17.169 -0.3186  0.5530  0.5906
  309MPD2    C2 4700   4.218   1.419  17.206 -0.3220 -0.2899  0.2843
  309MPD2    C3 4701   4.138   1.367  17.309  0.4450 -0.2723  0.0865
  309MPD2    C4 4702   4.164   1.242  17.353 -0.3161 -0.1156  0.4377
  309MPD2    C5 4703   4.273   1.171  17.317  0.0069 -0.4005  0.7553
  309MPD2     H 4704   4.192   1.498  17.137 -3.0709 -0.8803  0.6584
  309MPD2    H1 4705   4.097   1.192  17.422 -2.6071  1.0052 -0.9791
  309MPD2    H2 4706   4.439   1.164  17.197  0.8609  0.3963 -0.0473
  309MPD2    H3 4707   4.292   1.072  17.357 -0.1983 -1.2694 -1.2805
  309MPD2     N 4708   4.013   1.413  17.355  0.1151  0.2866  0.0982
  309MPD2    H5 4709   3.968   1.354  17.425 -0.8052 -0.5970 -1.2346
  309MPD2    N1 4710   4.427   1.395  17.072  0.3302  0.3426 -0.5975
  309MPD2    H7 4711   4.400   1.472  17.012  1.5566  0.0744 -1.4886
  310TMC3    C1 4712   4.632   1.420  16.962 -0.7538 -0.2129 -0.3529
  310TMC3    C2 4713   4.572   1.486  16.857 -0.1565  0.5174  0.1289
  310TMC3    C3 4714   4.660   1.516  16.751 -0.8017 -0.0131  0.1635
  310TMC3    C4 4715   0.032   1.409  16.976  0.2789  0.4062  0.1872
  310TMC3    C5 4716   0.116   1.425  16.868  0.0470 -0.0763 -0.8284
  310TMC3    C6 4717   0.060   1.478  16.752  0.5785  0.7103  0.5089
  310TMC3     C 4718   4.560   1.351  17.064  0.3996  0.6050 -0.5296
  310TMC3     O 4719   4.619   1.293  17.153 -0.1045  1.1221 -0.1511
  310TMC3     H 4720   4.468   1.516  16.854 -0.0553  1.0167  1.3477
  310TMC3    H1 4721   0.071   1.360  17.065 -0.0706 -0.3466 -0.0732
  310TMC3    H2 4722   0.127   1.499  16.669 -0.0447 -1.5440 -0.5726
  310TMC3    C7 4723   0.227   1.333  16.863 -0.0945  0.0728  0.0564
  310TMC3    C8 4724   4.592   1.582  16.638  0.2639 -0.3322  1.0093
  310TMC3    O1 4725   0.228   1.252  16.956 -0.1131  0.0656  0.9184
  310TMC3    O2 4726   4.473   1.585  16.627  0.2596  0.0203 -0.3312
  311MPD2     C 4727   1.741   2.360  12.779 -0.1470  0.3833 -1.1208
  311MPD2    C1 4728   1.736   2.492  12.825  0.6906 -0.1967  0.6371
  311MPD2    C2 4729   1.629   2.522  12.912  1.6111 -0.2677 -0.4202
  311MPD2    C3 4730   1.539   2.423  12.950  0.9027 -0.7232  0.6058
  311MPD2    C4 4731   1.539   2.296  12.888 -0.1810 -0.7443  0.5238
  311MPD2    C5 4732   1.638   2.270  12.798 -0.9963  0.4356  0.5988
  311MPD2     H 4733   1.625   2.625  12.945 -0.0606 -1.1616  2.1936
  311MPD2    H1 4734   1.471   2.220  12.925  0.0514 -0.6992  1.0538
  311MPD2    H2 4735   1.820   2.322  12.715 -0.0633  1.4260 -1.6530
  311MPD2    H3 4736   1.646   2.168  12.760  0.1068  0.8456 -0.2633
  311MPD2     N 4737   1.432   2.464  13.034 -0.0668 -0.0278 -0.2523
  311MPD2    H5 4738   1.436   2.556  13.077 -1.6697 -0.1541  0.1861
  311MPD2    N1 4739   1.828   2.588  12.785  0.4239  0.2743 -0.7886
  311MPD2    H7 4740   1.820   2.686  12.810 -2.7534  0.2482 -1.7683
  312TMC3    C1 4741   1.214   2.463  13.134  0.0651  0.5216  0.3630
  312TMC3    C2 4742   1.088   2.425  13.101 -0.3939 -0.1878  0.4555
  312TMC3    C3 4743   1.016   2.350  13.190 -0.6948  0.4260  0.1999
  312TMC3    C4 4744   1.265   2.448  13.257  0.4760 -0.1803 -0.4007
  312TMC3    C5 4745   1.185   2.384  13.351 -1.1548 -0.8634 -0.8221
  312TMC3    C6 4746   1.066   2.332  13.315  0.7752  0.2166  0.3538
  312TMC3     C 4747   1.311   2.396  13.053 -1.2964 -0.2781 -0.4371
  312TMC3     O 4748   1.265   2.291  13.007 -0.1905  0.2350  0.2439
  312TMC3     H 4749   1.050   2.451  13.004  1.3817 -1.2667 -0.5337
  312TMC3    H1 4750   1.373   2.454  13.269  0.5866 -0.0695 -1.4388
  312TMC3    H2 4751   1.011   2.282  13.394 -1.1229  2.2969  0.3656
  312TMC3    C7 4752   1.233   2.331  13.475 -0.4086 -0.3978  0.8863
  312TMC3    C8 4753   0.936   2.238  13.138  0.7867  0.0910 -0.1659
  312TMC3    O1 4754   1.212   2.216  13.496  0.1485  0.0030  0.2092
  312TMC3    O2 4755   0.849   2.193  13.216 -0.6472 -0.1937 -0.3325
  313MPD2     C 4756   1.472   1.470  10.291  0.3025 -0.4762 -0.3685
  313MPD2    C1 4757   1.332   1.476  10.285  0.5388 -0.8402  0.0140
  313MPD2    C2 4758   1.274   1.382  10.198  0.2145 -0.4398 -0.4244
  313MPD2    C3 4759   1.338   1.285  10.121  0.0952 -0.4437 -1.3307
  313MPD2    C4 4760   1.478   1.298  10.128 -0.3480  0.0481  0.4841
  313MPD2    C5 4761   1.546   1.375  10.216  0.9200  0.1893  0.4352
  313MPD2     H 4762   1.166   1.373  10.197  0.2006 -0.3371  0.3437
  313MPD2    H1 4763   1.532   1.226  10.067 -1.3264 -0.5109  0.2873
  313MPD2    H2 4764   1.531   1.529  10.359 -0.0685 -0.4704 -0.0531
  313MPD2    H3 4765   1.654   1.364  10.209  0.7548 -1.6841  0.7284
  313MPD2     N 4766   1.261   1.185  10.053 -0.3879  0.1000 -0.2843
  313MPD2    H5 4767   1.160   1.188  10.058 -0.4516  0.4747 -1.7350
  313MPD2    N1 4768   1.244   1.552  10.361 -0.2032 -0.0474 -0.0841
  313MPD2    H7 4769   1.145   1.534  10.349 -0.6271  2.3070 -0.0674
  314TMC3    C1 4770   1.179   1.721  10.518  0.1885 -0.0694  0.2822
  314TMC3    C2 4771   1.224   1.790  10.629  0.4477 -0.4090 -0.2101
  314TMC3    C3 4772   1.165   1.916  10.660  0.4198  0.3353 -0.0004
  314TMC3    C4 4773   1.076   1.769  10.442  0.6485  0.5315 -0.7773
  314TMC3    C5 4774   1.028   1.890  10.472  0.0208  0.4483  0.1581
  314TMC3    C6 4775   1.071   1.963  10.578 -0.4702  0.1405  0.4866
  314TMC3     C 4776   1.282   1.642  10.455  0.3558  0.2030 -0.7601
  314TMC3     O 4777   1.392   1.671  10.499 -0.0578 -0.8884 -0.6739
  314TMC3     H 4778   1.310   1.754  10.685  0.1059 -1.9475 -0.6696
  314TMC3    H1 4779   1.053   1.737  10.341  1.4462 -1.6455 -0.2668
  314TMC3    H2 4780   1.035   2.063  10.597 -0.4386  0.1352  0.5735
  314TMC3    C7 4781   0.924   1.956  10.384 -0.1235 -0.3732 -0.7123
  314TMC3    C8 4782   1.258   2.015  10.714  0.2262  0.0200 -0.1803
  314TMC3    O1 4783   0.863   1.885  10.307 -0.3430 -0.0619 -0.7465
  314TMC3    O2 4784   1.214   2.113  10.764 -0.1375 -0.0692 -0.0194
  315MPD2     C 4785   0.981   1.122   0.018 -0.2333 -0.0571  0.2455
  315MPD2    C1 4786   1.076   1.112   0.119 -1.0510 -0.5486  0.2953
  315MPD2    C2 4787   1.160   1.220   0.141  0.1681  0.5492 -0.2147
  315MPD2    C3 4788   1.131   1.334   0.072 -0.4735 -1.2731  0.3273
  315MPD2    C4 4789   1.027   1.341  17.728 -0.0982 -0.7989  0.4945
  315MPD2    C5 4790   0.954   1.231  17.698  0.2071  1.2071  0.1033
  315MPD2     H 4791   1.240   1.222   0.214  0.0690  2.4244 -0.1405
  315MPD2    H1 4792   1.018   1.422  17.658 -0.5371 -1.4437 -0.1964
  315MPD2    H2 4793   0.911   1.041  17.749  1.2813 -0.7529 -2.2361
  315MPD2    H3 4794   0.883   1.230  17.616 -0.5648 -2.4089  0.8536
  315MPD2     N 4795   1.213   1.447   0.093  0.3302 -0.1754 -0.4165
  315MPD2    H5 4796   1.289   1.432   0.158  0.3771 -1.8780 -0.8578
  315MPD2    N1 4797   1.102   0.992   0.181  0.1000  0.0063 -0.3616
  315MPD2    H7 4798   1.170   0.994   0.257 -0.6324  1.7956  0.2324
  316TMC3    C1 4799   1.305   1.669   0.062  0.3668  0.3758  0.3977
  316TMC3    C2 4800   1.396   1.651   0.165  0.7288 -0.4672 -0.3623
  316TMC3    C3 4801   1.494   1.749   0.178  0.1252 -0.1183 -0.5093
  316TMC3    C4 4802   1.322   1.774  17.718 -0.0972 -0.3380 -0.7909
  316TMC3    C5 4803   1.431   1.857  17.724 -0.6293 -0.0096  0.4147
  316TMC3    C6 4804   1.511   1.849   0.087  0.6827  0.4322 -0.3767
  316TMC3     C 4805   1.205   1.571   0.028  0.3180 -0.5655 -0.4721
  316TMC3     O 4806   1.117   1.622  17.705  0.4967 -0.5437  0.4919
  316TMC3     H 4807   1.373   1.576   0.240  0.0158  1.8958  1.7888
  316TMC3    H1 4808   1.244   1.788  17.645  0.4561 -0.9046 -1.4892
  316TMC3    H2 4809   1.590   1.921   0.103 -0.5351  1.9633 -1.2040
  316TMC3    C7 4810   1.421   1.984  17.659  0.4942 -0.3870 -0.4627
  316TMC3    C8 4811   1.578   1.755   0.298 -0.0767 -0.8704 -0.0480
  316TMC3    O1 4812   1.461   2.083  17.720  0.1860 -0.3274  0.0386
  316TMC3    O2 4813   1.632   1.860   0.326  0.1940  0.8471  0.5393
  317MPD2     C 4814   3.265   4.282  13.046  0.0686  0.3315  0.8556
  317MPD2    C1 4815   3.326   4.165  12.998  0.1121 -0.3894 -0.3475
  317MPD2    C2 4816   3.374   4.069  13.086 -0.5100  0.2269  0.1201
  317MPD2    C3 4817   3.347   4.081  13.228  0.3777 -0.9038 -0.0875
  317MPD2    C4 4818   3.292   4.191  13.279 -1.2496 -0.2318 -0.7957
  317MPD2    C5 4819   3.249   4.288  13.183 -0.1979  0.4693  0.0062
  317MPD2     H 4820   3.421   3.981  13.042  0.9355  0.6196  0.8942
  317MPD2    H1 4821   3.252   4.205  13.379 -0.4533 -0.6187 -0.4263
  317MPD2    H2 4822   3.228   4.363  12.984 -1.4838 -0.1243  1.1960
  317MPD2    H3 4823   3.198   4.375  13.221  0.6955  0.8562  0.3084
  317MPD2     N 4824   3.399   3.977  13.313  0.2109  0.4235 -0.0830
  317MPD2    H5 4825   3.442   3.900  13.263  0.5756  0.8031 -0.3489
  317MPD2    N1 4826   3.348   4.137  12.856 -0.0516  0.2817 -0.3491
  317MPD2    H7 4827   3.405   4.056  12.833 -1.2804 -0.7203  0.1433
  318TMC3    C1 4828   3.426   3.848  13.515  0.0247  0.4486 -0.1734
  318TMC3    C2 4829   3.371   3.743  13.447 -0.3606 -0.2638  0.4395
  318TMC3    C3 4830   3.374   3.622  13.509  0.1625  0.3009  0.1087
  318TMC3    C4 4831   3.460   3.843  13.644  0.3322 -0.3998  0.2706
  318TMC3    C5 4832   3.447   3.717  13.701 -0.1191  0.2252  0.0080
  318TMC3    C6 4833   3.422   3.605  13.634 -0.4626  0.1948  0.2388
  318TMC3     C 4834   3.384   3.972  13.450 -0.7482 -0.8337  0.3391
  318TMC3     O 4835   3.345   4.057  13.527  0.1802 -0.4155 -0.2362
  318TMC3     H 4836   3.319   3.761  13.354  2.4801 -1.7033 -1.4139
  318TMC3    H1 4837   3.498   3.931  13.695  2.2126 -0.9354 -0.1975
  318TMC3    H2 4838   3.432   3.509  13.682 -0.9823 -0.7851 -1.6393
  318TMC3    C7 4839   3.537   3.709  13.808  0.2022 -0.3755  0.7771
  318TMC3    C8 4840   3.317   3.504  13.446 -0.1773  0.7042 -0.2529
  318TMC3    O1 4841   3.520   3.776  13.905  0.2869  0.2992 -0.4332
  318TMC3    O2 4842   3.353   3.396  13.497  0.5380 -0.0166  0.6617
  319MPD2     C 4843   3.930   0.751  16.783  0.2724  0.0284 -0.3298
  319MPD2    C1 4844   3.894   0.620  16.814  0.6298  0.2820 -0.2803
  319MPD2    C2 4845   3.814   0.543  16.728 -0.3782  0.8563  0.2876
  319MPD2    C3 4846   3.788   0.591  16.603 -0.0495  0.1706  0.2842
  319MPD2    C4 4847   3.845   0.708  16.571  0.2213  0.0668 -0.1134
  319MPD2    C5 4848   3.910   0.786  16.656 -0.1485  0.3816  0.0340
  319MPD2     H 4849   3.775   0.444  16.750  1.3784 -0.0372 -0.5340
  319MPD2    H1 4850   3.844   0.734  16.466  1.6003 -0.0939 -0.1697
  319MPD2    H2 4851   3.986   0.819  16.846  0.0251  1.4539 -1.6522
  319MPD2    H3 4852   3.962   0.872  16.616  0.4508  0.6982  1.4908
  319MPD2     N 4853   3.695   0.539  16.507 -0.4034 -0.8560  0.3034
  319MPD2    H5 4854   3.680   0.594  16.423  0.4359  1.3548  1.6221
  319MPD2    N1 4855   3.926   0.592  16.945  0.6363  0.3133  0.0538
  319MPD2    H7 4856   3.976   0.664  16.996 -0.3153  1.1900 -0.2632
  320TMC3    C1 4857   3.526   0.385  16.429  0.1774  0.5847  0.3165
  320TMC3    C2 4858   3.470   0.480  16.348 -0.1407 -0.1037 -0.2925
  320TMC3    C3 4859   3.392   0.439  16.243  0.2046 -0.2483 -0.1772
  320TMC3    C4 4860   3.497   0.249  16.409 -0.3988  0.3674 -0.2262
  320TMC3    C5 4861   3.412   0.215  16.306  0.1097  0.2174  0.1719
  320TMC3    C6 4862   3.357   0.308  16.221 -0.1602 -0.1158 -0.4445
  320TMC3     C 4863   3.625   0.420  16.525 -0.1617 -0.7005  0.5605
  320TMC3     O 4864   3.638   0.335  16.616  0.0039 -0.3240 -0.6601
  320TMC3     H 4865   3.493   0.586  16.355 -0.1990 -0.1040 -0.1027
  320TMC3    H1 4866   3.503   0.187  16.497  0.6673  0.7798 -0.0084
  320TMC3    H2 4867   3.273   0.276  16.160  0.1902  0.3582 -1.1706
  320TMC3    C7 4868   3.421   0.077  16.252  0.1830 -0.3686  0.6007
  320TMC3    C8 4869   3.355   0.534  16.145  0.1568 -0.3064  0.3638
  320TMC3    O1 4870   3.346   0.045  16.156 -0.4823 -0.3728 -0.3125
  320TMC3    O2 4871   3.388   0.649  16.177 -0.0370  0.0397 -0.0094
  321TMC3    C1 4872   3.909   0.495  17.161 -0.5036  0.3110 -0.0487
  321TMC3    C2 4873   3.898   0.392  17.248  0.4524 -0.1661  0.1098
  321TMC3    C3 4874   3.854   0.409  17.374 -0.5460 -0.2486  0.5728
  321TMC3    C4 4875   3.891   0.627  17.207  0.6253 -0.3352  0.4149
  321TMC3    C5 4876   3.868   0.647  17.340  0.7590  0.1362  0.6615
  321TMC3    C6 4877   3.842   0.536  17.421 -0.0505  0.3601 -0.7469
  321TMC3     C 4878   3.900   0.476  17.015  0.7985 -0.5009  0.7181
  321TMC3     O 4879   3.867   0.367  16.968 -0.1345 -0.1273  0.2978
  321TMC3     H 4880   3.920   0.293  17.209  0.0036 -0.1224 -0.2538
  321TMC3    H1 4881   3.915   0.711  17.143 -0.4347  0.6351  1.3014
  321TMC3    H2 4882   3.807   0.552  17.523 -0.7981 -0.1074 -0.9307
  321TMC3    C7 4883   3.944   0.750  17.404 -0.8973 -0.7183 -0.6279
  321TMC3    C8 4884   3.936   0.351  17.471 -0.3868  0.1549 -0.1621
  321TMC3    O1 4885   3.966   0.856  17.346  0.1000  0.1301  0.5477
  321TMC3    O2 4886   3.997   0.431  17.535 -0.3453 -0.2745 -0.1583
  322MPD2     C 4887   2.782   2.391  13.779  0.1530  0.3096  0.2285
  322MPD2    C1 4888   2.823   2.325  13.888 -0.0812 -0.4300  0.5339
  322MPD2    C2 4889   2.864   2.194  13.871  0.2025 -0.1159  0.1769
  322MPD2    C3 4890   2.869   2.131  13.748 -0.6361 -0.4144  0.4526
  322MPD2    C4 4891   2.817   2.201  13.647  0.2852 -0.4305 -0.1068
  322MPD2    C5 4892   2.773   2.329  13.661  0.1506  0.4561  0.1258
  322MPD2     H 4893   2.898   2.133  13.954  2.3970  0.1808 -0.5117
  322MPD2    H1 4894   2.821   2.157  13.549 -2.6961 -1.4667  0.2280
  322MPD2    H2 4895   2.742   2.490  13.796 -1.6102 -0.8629  2.8363
  322MPD2    H3 4896   2.721   2.376  13.578  0.3547  0.3572 -0.0575
  322MPD2     N 4897   2.915   1.997  13.736 -0.4851  0.2386  0.2321
  322MPD2    H5 4898   2.936   1.944  13.820 -0.7550  1.8449  1.3116
  322MPD2    N1 4899   2.831   2.392  14.016  0.3050  0.0609  0.2140
  322MPD2    H7 4900   2.831   2.494  14.012 -1.0787  0.0432 -0.1771
  323TMC3    C1 4901   2.916   2.401  14.237  0.1974 -0.3323  0.9266
  323TMC3    C2 4902   3.008   2.483  14.184  0.2190 -0.0995 -0.5375
  323TMC3    C3 4903   3.131   2.480  14.236 -0.4830  0.5197 -0.0998
  323TMC3    C4 4904   2.941   2.331  14.350  0.5754  0.2312 -0.0482
  323TMC3    C5 4905   3.071   2.329  14.406 -0.0550  0.5604  0.8390
  323TMC3    C6 4906   3.169   2.404  14.344 -0.2620 -0.2425  0.6020
  323TMC3     C 4907   2.846   2.324  14.135 -0.6738 -0.5213 -0.2993
  323TMC3     O 4908   2.783   2.218  14.158 -0.1884 -0.5991 -0.1579
  323TMC3     H 4909   2.980   2.547  14.102  2.0860 -1.3781 -2.1856
  323TMC3    H1 4910   2.868   2.261  14.389 -0.2081 -0.6065 -3.0697
  323TMC3    H2 4911   3.269   2.413  14.384  0.9134  0.3190 -2.5022
  323TMC3    C7 4912   3.101   2.218  14.488  0.5489 -0.4230  0.0725
  323TMC3    C8 4913   3.237   2.485  14.136 -0.4167 -1.0679 -0.6206
  323TMC3    O1 4914   3.018   2.130  14.495 -0.4782  0.1942 -0.0750
  323TMC3    O2 4915   3.352   2.478  14.177  0.4734  0.2896  0.2735
  324MPD2     C 4916   0.027   2.487  14.443  0.2848  0.5194  0.1636
  324MPD2    C1 4917   0.048   2.605  14.365  0.4797 -0.0247 -0.4038
  324MPD2    C2 4918   4.685   2.649  14.282  0.2562 -0.4392 -0.2815
  324MPD2    C3 4919   4.564   2.584  14.281  0.4535 -0.6226 -0.1661
  324MPD2    C4 4920   4.538   2.476  14.365 -0.7658  0.2483 -0.5171
  324MPD2    C5 4921   4.639   2.428  14.443 -0.0211 -0.0726  0.1242
  324MPD2     H 4922   4.717   2.736  14.226 -2.0956  0.8361  0.3567
  324MPD2    H1 4923   4.442   2.426  14.376 -1.5253  1.3999 -1.8999
  324MPD2    H2 4924   0.102   2.435  14.501 -0.0323  0.3816  0.4473
  324MPD2    H3 4925   4.631   2.335  14.498 -2.4698  0.5955  0.9135
  324MPD2     N 4926   4.455   2.648  14.211 -0.8153  0.1643 -0.6970
  324MPD2    H5 4927   4.360   2.631  14.240 -0.1182 -1.5286  0.5948
  324MPD2    N1 4928   0.158   2.690  14.387 -0.4956 -0.3138  0.1471
  324MPD2    H7 4929   0.164   2.780  14.342 -0.6510 -0.5478 -0.3436
  325TMC3    C1 4930   4.345   2.817  14.114 -0.3401  0.4384  0.0107
  325TMC3    C2 4931   4.289   2.835  13.992  0.8241 -0.0251 -0.0722
  325TMC3    C3 4932   4.159   2.892  13.989  0.2350 -0.4151 -0.3835
  325TMC3    C4 4933   4.279   2.859  14.227  0.8965 -0.3165 -1.0763
  325TMC3    C5 4934   4.163   2.927  14.219  0.2127  0.1734  0.8822
  325TMC3    C6 4935   4.094   2.942  14.100  0.1406 -0.5588  0.6787
  325TMC3     C 4936   4.475   2.754  14.131  0.1166  0.0618 -0.4981
  325TMC3     O 4937   4.560   2.789  14.049 -1.0335  0.0956 -0.1091
  325TMC3     H 4938   4.346   2.789  13.911  0.3104 -1.8144  0.5694
  325TMC3    H1 4939   4.333   2.851  14.320 -0.3333 -2.5777 -0.5601
  325TMC3    H2 4940   3.993   2.981  14.098  0.2746 -0.2231  0.4084
  325TMC3    C7 4941   4.099   2.965  14.341  0.0308  0.6020  0.6965
  325TMC3    C8 4942   4.086   2.891  13.862  0.9729 -0.2502 -0.0794
  325TMC3    O1 4943   3.977   2.981  14.344  0.6214 -0.7319 -0.3430
  325TMC3    O2 4944   4.150   2.877  13.757 -0.8881 -0.1761 -0.1705
  326MPD2     C 4945   0.995   0.014  11.081  0.9146 -0.7768 -0.4677
  326MPD2    C1 4946   1.068   4.671  10.998 -0.1587 -0.4037  0.0586
  326MPD2    C2 4947   1.180   4.617  11.048 -0.5779  0.0478  0.2458
  326MPD2    C3 4948   1.223   4.645  11.180  0.0736  0.7898 -0.4024
  326MPD2    C4 4949   1.153   4.734  11.256 -0.0629  0.4995  0.7595
  326MPD2    C5 4950   1.042   0.049  11.200 -0.8708  0.2650  0.3033
  326MPD2     H 4951   1.232   4.548  10.982 -0.7452 -0.6674  0.8628
  326MPD2    H1 4952   1.182   0.024  11.356  1.4050 -1.4860  0.9100
  326MPD2    H2 4953   0.902   0.052  11.039  0.7788  0.1134  0.6329
  326MPD2    H3 4954   0.971   0.108  11.257  0.2160  0.1853  1.7304
  326MPD2     N 4955   1.346   4.603  11.220 -0.3084 -0.2273 -0.2324
  326MPD2    H5 4956   1.360   4.619  11.319  0.6670 -1.5384 -0.1522
  326MPD2    N1 4957   1.036   4.634  10.866 -0.3178  0.2434  0.1622
  326MPD2    H7 4958   1.088   4.562  10.817  1.9541  1.8745  0.1399
  327TMC3    C1 4959   0.933   4.642  10.653  0.2735 -0.6056 -0.4908
  327TMC3    C2 4960   0.856   4.714  10.562 -0.1849  0.3878  0.4374
  327TMC3    C3 4961   0.836   4.652  10.442  0.6485  1.3829 -0.5311
  327TMC3    C4 4962   0.981   4.512  10.633  0.6164  0.2312 -0.1414
  327TMC3    C5 4963   0.945   4.452  10.513  0.6405  0.2839 -0.2010
  327TMC3    C6 4964   0.888   4.526  10.415  0.1569 -0.3085  0.2932
  327TMC3     C 4965   0.945   4.706  10.786 -0.7729  0.3445 -0.4111
  327TMC3     O 4966   0.896   0.081  10.803 -0.6979  0.4092 -0.4881
  327TMC3     H 4967   0.804   0.066  10.591  0.3230  0.3791  1.3628
  327TMC3    H1 4968   1.040   4.456  10.705  1.4384 -0.1193 -1.0847
  327TMC3    H2 4969   0.844   4.470  10.333 -1.2661  1.1388  0.0772
  327TMC3    C7 4970   0.977   4.311  10.481 -0.3232  0.5781  0.2584
  327TMC3    C8 4971   0.771   0.003  10.343 -1.0733  0.0708 -0.0355
  327TMC3    O1 4972   0.983   4.279  10.362 -0.2815 -0.7675 -0.6661
  327TMC3    O2 4973   0.723   0.111  10.376  0.1067 -0.6185  0.0151
  328MPD2     C 4974   3.547   4.074  17.131 -0.1101  0.1978 -0.1019
  328MPD2    C1 4975   3.445   3.996  17.084  0.6951  0.5479 -0.5152
  328MPD2    C2 4976   3.356   4.039  16.988  0.2820  0.0160  0.6136
  328MPD2    C3 4977   3.366   4.169  16.939  0.1096 -0.1221  0.2021
  328MPD2    C4 4978   3.464   4.251  16.998  0.5019  0.0634  0.0203
  328MPD2    C5 4979   3.556   4.205  17.095  0.1941  0.5067 -0.6777
  328MPD2     H 4980   3.272   3.980  16.950  0.6731  0.1251 -0.4138
  328MPD2    H1 4981   3.473   4.359  16.986 -2.4344  0.5324  2.0683
  328MPD2    H2 4982   3.620   4.047  17.207 -0.3144  0.9383  0.3545
  328MPD2    H3 4983   3.633   4.270  17.134 -0.9115  0.9335  0.8050
  328MPD2     N 4984   3.271   4.217  16.839  0.3309 -0.2361  0.1067
  328MPD2    H5 4985   3.281   4.316  16.821  0.1301 -0.7391 -2.7981
  328MPD2    N1 4986   3.425   3.863  17.137 -0.0464 -0.7567  0.3275
  328MPD2    H7 4987   3.464   3.845  17.229 -0.9434  0.1932  0.8910
  329TMC3    C1 4988   3.327   3.650  17.175 -0.4022 -0.7783  0.5836
  329TMC3    C2 4989   3.229   3.677  17.263  0.1991 -0.1345 -0.3796
  329TMC3    C3 4990   3.123   3.585  17.277  0.7668  0.7536  0.2870
  329TMC3    C4 4991   3.314   3.535  17.103 -0.4920  0.1767 -0.1712
  329TMC3    C5 4992   3.203   3.446  17.110 -0.1398 -0.9013 -0.3081
  329TMC3    C6 4993   3.108   3.468  17.209  0.2828 -0.4071 -0.6871
  329TMC3     C 4994   3.340   3.771  17.089  0.0930 -0.4278 -0.3424
  329TMC3     O 4995   3.268   3.758  16.993 -0.2286 -0.3597 -0.5958
  329TMC3     H 4996   3.223   3.775  17.309  0.1921 -0.9000  1.2496
  329TMC3    H1 4997   3.379   3.535  17.016 -0.5396  0.6603 -0.2062
  329TMC3    H2 4998   3.016   3.413  17.229  1.7569 -2.6914 -0.1936
  329TMC3    C7 4999   3.152   3.404  16.985  0.2766  1.0870 -0.2011
  329TMC3    C8 5000   2.999   3.650  17.266  0.6402 -0.4081 -0.5868
  329TMC3    O1 5001   3.233   3.379  16.897 -0.0849 -0.0253 -0.1783
  329TMC3    O2 5002   2.934   3.636  17.161 -0.2309 -0.2346  0.5742
  330TMC3    C1 5003   0.956   3.630   9.889  0.0038  0.2959 -0.2891
  330TMC3    C2 5004   0.892   3.531   9.813  0.1301 -0.4184  0.6025
  330TMC3    C3 5005   0.909   3.399   9.839 -0.2350 -1.1651 -0.4656
  330TMC3    C4 5006   1.043   3.591   9.987 -0.3526 -0.9186 -0.0621
  330TMC3    C5 5007   1.065   3.453  10.008  0.1091  1.1740 -0.6734
  330TMC3    C6 5008   0.998   3.355   9.934 -0.0878  0.8097  0.1290
  330TMC3     C 5009   0.936   3.777   9.870 -0.2960  0.9723  0.0213
  330TMC3     O 5010   0.995   3.849   9.947  0.0336 -0.1166 -0.0001
  330TMC3     H 5011   0.833   3.564   9.728  0.6477 -0.3255  0.2781
  330TMC3    H1 5012   1.102   3.662  10.043  0.1086 -0.9851 -0.4571
  330TMC3    H2 5013   1.017   3.249   9.945 -2.6224  0.2934 -0.4700
  330TMC3    C7 5014   1.130   3.414  10.129  0.3440  0.2356 -0.1139
  330TMC3    C8 5015   0.859   3.312   9.739  0.0797  0.2510 -0.0139
  330TMC3    O1 5016   1.198   3.500  10.183 -0.5597  0.5801 -0.0141
  330TMC3    O2 5017   0.845   3.361   9.628 -0.4411 -0.1541  0.3571
  331MPD2     C 5018   4.569   2.597  12.005  0.1363 -0.5042 -0.0317
  331MPD2    C1 5019   4.468   2.554  11.929  0.1495  0.7990 -0.9590
  331MPD2    C2 5020   4.452   2.416  11.926  0.2260 -0.8006 -0.4035
  331MPD2    C3 5021   4.539   2.328  11.974 -0.4029 -0.1260  0.6377
  331MPD2    C4 5022   4.634   2.370  12.053  0.3067 -0.4933 -0.5548
  331MPD2    C5 5023   4.641   2.502  12.079  0.2094 -0.3621 -1.0282
  331MPD2     H 5024   4.363   2.377  11.877 -1.1938  1.8094  0.0648
  331MPD2    H1 5025   4.695   2.298  12.106 -0.1681  0.4709  1.3309
  331MPD2    H2 5026   4.604   2.698  12.022  1.4835 -0.9800  0.0434
  331MPD2    H3 5027   4.721   2.538  12.143 -0.1899 -0.3637 -0.5312
  331MPD2     N 5028   4.511   2.191  11.944  0.2612  0.1550 -0.2515
  331MPD2    H5 5029   4.426   2.174  11.891  0.1169 -2.1284  0.6948
  331MPD2    N1 5030   4.382   2.650  11.873 -0.6947 -0.4972 -0.6552
  331MPD2    H7 5031   4.392   2.745  11.908 -2.6574 -0.2073 -0.8900
  332TMC3    C1 5032   4.491   1.968  11.975  0.4771  0.3463 -1.0015
  332TMC3    C2 5033   4.388   1.971  11.885  0.1068  0.4172 -0.1003
  332TMC3    C3 5034   4.298   1.871  11.902  0.5461  0.3590 -0.4418
  332TMC3    C4 5035   4.519   1.869  12.060  0.4287 -0.4242 -0.2543
  332TMC3    C5 5036   4.431   1.763  12.062 -0.9515  0.4265 -0.3071
  332TMC3    C6 5037   4.321   1.758  11.980  0.1769  0.3287 -0.4878
  332TMC3     C 5038   4.578   2.081  11.979  0.0644  0.4322 -0.8642
  332TMC3     O 5039   4.679   2.064  12.042  0.6727 -0.0512  0.4459
  332TMC3     H 5040   4.362   2.058  11.824  1.4787  0.7863 -0.1514
  332TMC3    H1 5041   4.621   1.862  12.098  0.1510 -0.4361  0.4864
  332TMC3    H2 5042   4.256   1.672  11.968 -0.3317  0.6825 -0.2592
  332TMC3    C7 5043   4.435   1.666  12.166 -0.3961  0.3018  0.5109
  332TMC3    C8 5044   4.194   1.878  11.801  0.4657  0.3724  0.4828
  332TMC3    O1 5045   4.346   1.584  12.150  0.1317  0.2014  0.1467
  332TMC3    O2 5046   4.209   1.942  11.699 -0.1596  0.3682  0.2591
  333MPD2     C 5047   4.030   1.865  10.695  0.2110 -0.4551  0.2226
  333MPD2    C1 5048   4.145   1.802  10.734  0.0728  0.0466 -0.1144
  333MPD2    C2 5049   4.137   1.722  10.850 -0.2250  0.5622 -0.3059
  333MPD2    C3 5050   4.023   1.694  10.922 -0.3792  0.0183  0.4669
  333MPD2    C4 5051   3.910   1.759  10.870  0.2252  0.6994  0.1710
  333MPD2    C5 5052   3.914   1.844  10.763 -0.1678  0.1502  0.0486
  333MPD2     H 5053   4.226   1.673  10.887 -0.1239  1.5333  0.7273
  333MPD2    H1 5054   3.812   1.741  10.912  0.4929  1.0044  0.9226
  333MPD2    H2 5055   4.033   1.939  10.616 -1.4552  0.3366  0.9045
  333MPD2    H3 5056   3.825   1.902  10.741  0.2984  0.0897 -2.0686
  333MPD2     N 5057   4.027   1.608  11.039  0.3032 -0.1066  0.5457
  333MPD2    H5 5058   4.118   1.573  11.068  1.3931  1.3770 -1.1220
  333MPD2    N1 5059   4.258   1.839  10.666 -0.1222 -0.0826  0.1111
  333MPD2    H7 5060   4.243   1.912  10.597  0.6434 -1.7275 -1.8110
  334TMC3    C1 5061   4.486   1.856  10.599  0.7291 -0.0688  0.5026
  334TMC3    C2 5062   4.606   1.789  10.575 -0.2071 -0.2115  0.4800
  334TMC3    C3 5063   4.700   1.843  10.497  0.6876  0.7105  0.2925
  334TMC3    C4 5064   4.470   1.984  10.553  0.1316 -0.2122  0.0416
  334TMC3    C5 5065   4.580   2.042  10.478 -0.3113 -0.3423  0.3020
  334TMC3    C6 5066   4.694   1.972  10.452  0.3694  0.0290 -0.4135
  334TMC3     C 5067   4.385   1.796  10.687 -0.4060  0.5171  0.7470
  334TMC3     O 5068   4.413   1.692  10.747  0.0317 -0.4711 -0.6217
  334TMC3     H 5069   4.633   1.713  10.647  3.1418  0.9977  0.4932
  334TMC3    H1 5070   4.385   2.045  10.579 -0.5423 -0.4612 -1.6051
  334TMC3    H2 5071   0.034   2.015  10.391 -1.0584  2.3607 -0.6081
  334TMC3    C7 5072   4.581   2.183  10.446 -0.6048 -0.3137  0.2280
  334TMC3    C8 5073   0.096   1.800  10.537  0.3461  0.9256 -0.0386
  334TMC3    O1 5074   4.688   2.234  10.447 -0.6859 -0.3604 -1.0464
  334TMC3    O2 5075   0.126   1.684  10.539 -0.2764  0.2609  0.6633
  335TMC3    C1 5076   4.066   4.177  17.378  0.0661  0.1134  0.8333
  335TMC3    C2 5077   3.981   4.112  17.289  0.4601 -0.0194  0.2137
  335TMC3    C3 5078   4.030   4.094  17.163 -0.3266 -0.6227  0.4112
  335TMC3    C4 5079   4.189   4.231  17.341 -0.2625 -0.3270  0.3165
  335TMC3    C5 5080   4.226   4.206  17.206  0.0407 -0.1235 -0.0071
  335TMC3    C6 5081   4.150   4.140  17.112  0.4815  0.3013 -0.1882
  335TMC3     C 5082   4.012   4.199  17.513  0.5246  0.1709 -0.1541
  335TMC3     O 5083   3.894   4.177  17.533 -0.1513  0.0528 -0.2577
  335TMC3     H 5084   3.883   4.079  17.323 -0.1809  1.1494 -0.5234
  335TMC3    H1 5085   4.259   4.276  17.410 -0.0437  0.2659 -0.2911
  335TMC3    H2 5086   4.174   4.118  17.009 -3.1949  1.6691 -1.3606
  335TMC3    C7 5087   4.368   4.209  17.173 -0.0860  0.2571 -0.3059
  335TMC3    C8 5088   3.931   4.029  17.060 -0.0049 -0.7377  0.1369
  335TMC3    O1 5089   4.411   4.123  17.095 -0.4393  0.0967  0.9919
  335TMC3    O2 5090   3.935   4.072  16.945  0.3629  0.1043  0.1587
  336MPD2     C 5091   3.794   1.748  16.114  0.9548 -0.1926  0.0150
  336MPD2    C1 5092   3.754   1.684  15.998  0.5041  0.3231 -0.1034
  336MPD2    C2 5093   3.759   1.546  15.990  0.7331  0.5971 -0.7432
  336MPD2    C3 5094   3.798   1.480  16.107  0.3953  0.1514  0.3811
  336MPD2    C4 5095   3.829   1.541  16.224  0.1574 -0.1920  0.3373
  336MPD2    C5 5096   3.831   1.679  16.223  0.4494  0.6039 -0.2497
  336MPD2     H 5097   3.729   1.494  15.901  2.2382 -1.1592 -0.2382
  336MPD2    H1 5098   3.863   1.487  16.311 -1.0627 -0.9276  0.3518
  336MPD2    H2 5099   3.803   1.856  16.119  1.4588 -0.2632  0.5564
  336MPD2    H3 5100   3.853   1.733  16.315  1.1542  0.1827 -0.1730
  336MPD2     N 5101   3.797   1.338  16.098  0.1089  0.6408  0.4213
  336MPD2    H5 5102   3.824   1.293  16.185 -1.0292 -1.3580 -0.2595
  336MPD2    N1 5103   3.708   1.744  15.876  0.4438 -0.3030 -0.0146
  336MPD2    H7 5104   3.702   1.678  15.798 -0.9460 -1.0277  0.6982
  337TMC3    C1 5105   3.591   1.906  15.751 -0.2138  0.1385  0.4135
  337TMC3    C2 5106   3.523   1.816  15.671  1.0360  1.0502  0.2581
  337TMC3    C3 5107   3.467   1.871  15.555  0.8186  0.3560 -0.3998
  337TMC3    C4 5108   3.580   2.044  15.732  0.5579 -0.0676  0.1226
  337TMC3    C5 5109   3.521   2.094  15.623  0.4031  0.0212 -0.7633
  337TMC3    C6 5110   3.464   2.011  15.533 -0.1215  0.7970 -0.8416
  337TMC3     C 5111   3.653   1.872  15.872 -0.5287  0.2857  0.0398
  337TMC3     O 5112   3.657   1.959  15.958  0.6130 -0.8392  0.6291
  337TMC3     H 5113   3.529   1.708  15.680  0.5099  0.8783 -1.4272
  337TMC3    H1 5114   3.636   2.107  15.800 -0.2739  2.5751 -1.6192
  337TMC3    H2 5115   3.423   2.044  15.438  2.5588  0.5197 -2.1146
  337TMC3    C7 5116   3.490   2.238  15.621 -0.0347  0.9450 -0.7983
  337TMC3    C8 5117   3.364   1.797  15.494  0.0815  0.5028  0.9542
  337TMC3    O1 5118   3.546   2.300  15.711 -0.4563  0.1411  1.0033
  337TMC3    O2 5119   3.371   1.677  15.523 -0.1847  0.7871 -0.2785
  338MPD2     C 5120   3.696   1.456   0.901 -0.3884  0.1630 -0.2530
  338MPD2    C1 5121   3.661   1.419   0.771  0.2834  0.2992 -0.6676
  338MPD2    C2 5122   3.536   1.433   0.730  0.3189  0.2596 -0.1988
  338MPD2    C3 5123   3.437   1.456   0.825 -0.3509 -1.0958  0.0586
  338MPD2    C4 5124   3.467   1.490   0.952 -0.7627 -0.4219 -0.3208
  338MPD2    C5 5125   3.603   1.499   0.993  0.1888  0.5513  0.7616
  338MPD2     H 5126   3.512   1.422   0.625  1.4285  2.4527 -0.6826
  338MPD2    H1 5127   3.392   1.523   1.024  0.7505  0.6587  0.7458
  338MPD2    H2 5128   3.799   1.451   0.935 -0.0438  2.1861 -0.9721
  338MPD2    H3 5129   3.620   1.544   1.090  2.3533 -0.1741  0.7293
  338MPD2     N 5130   3.302   1.455   0.785  0.5044  0.3551 -0.2676
  338MPD2    H5 5131   3.281   1.471   0.687 -0.7577 -0.7157 -0.1707
  338MPD2    N1 5132   3.758   1.364   0.680 -0.0461  0.2857  1.0335
  338MPD2    H7 5133   3.729   1.334   0.587 -0.6971 -0.1571  1.3778
  339TMC3    C1 5134   3.082   1.369   0.796 -0.6717  0.2328 -0.0319
  339TMC3    C2 5135   3.030   1.244   0.800 -0.0015  0.1415 -0.4056
  339TMC3    C3 5136   2.914   1.218   0.731 -0.2534 -0.5191 -0.2749
  339TMC3    C4 5137   3.036   1.469   0.715 -0.0296  0.5786 -0.0416
  339TMC3    C5 5138   2.922   1.440   0.645  1.1629 -0.5672 -0.6139
  339TMC3    C6 5139   2.869   1.314   0.647  0.4438 -0.4943  0.4385
  339TMC3     C 5140   3.209   1.390   0.863 -0.1226 -0.0101  0.2187
  339TMC3     O 5141   3.220   1.357   0.977 -0.1601 -0.1772 -0.2321
  339TMC3     H 5142   3.072   1.173   0.871 -2.7239  1.9487  3.0256
  339TMC3    H1 5143   3.088   1.564   0.709  1.6683 -0.3408 -0.0047
  339TMC3    H2 5144   2.770   1.297   0.607  0.7176  0.1565 -0.5237
  339TMC3    C7 5145   2.886   1.526   0.538  0.8640  0.5576 -0.0005
  339TMC3    C8 5146   2.833   1.098   0.734 -0.3089 -0.2431  0.2254
  339TMC3    O1 5147   2.948   1.632   0.537 -0.1796 -0.0879  0.0844
  339TMC3    O2 5148   2.729   1.080   0.670  0.2597  0.7792  0.2485
  340MPD2     C 5149   3.739   4.318   9.702 -0.3501  0.3520  0.5729
  340MPD2    C1 5150   3.717   4.188   9.670 -0.3874  0.0661  0.0447
  340MPD2    C2 5151   3.827   4.104   9.663 -0.3332 -0.8115 -0.8413
  340MPD2    C3 5152   3.948   4.139   9.717  0.7226 -0.0613  0.2971
  340MPD2    C4 5153   3.959   4.266   9.777 -0.0507  0.8278 -0.4857
  340MPD2    C5 5154   3.856   4.358   9.767  0.1534  0.5817  0.4502
  340MPD2     H 5155   3.822   4.005   9.621  0.8675 -0.5195 -1.6759
  340MPD2    H1 5156   4.050   4.296   9.828 -1.5057  2.2009  1.3233
  340MPD2    H2 5157   3.663   4.388   9.670 -0.3750  0.2738  0.4614
  340MPD2    H3 5158   3.873   4.458   9.804  0.0957  1.0656 -0.8277
  340MPD2     N 5159   4.064   4.055   9.725 -0.2417 -0.1166  0.1557
  340MPD2    H5 5160   4.145   4.093   9.773 -0.1141  1.2108 -1.1268
  340MPD2    N1 5161   3.592   4.146   9.621 -0.4372  0.1246 -0.4154
  340MPD2    H7 5162   3.539   4.223   9.580 -1.3905  0.0311  0.6631
  341TMC3    C1 5163   3.452   4.005   9.495 -0.1717  0.2474  0.2020
  341TMC3    C2 5164   3.408   3.875   9.489 -0.2634 -0.4782 -0.6513
  341TMC3    C3 5165   3.398   3.804   9.374  0.2435 -0.0964  0.3839
  341TMC3    C4 5166   3.503   4.053   9.376  0.4135 -0.3458 -0.1570
  341TMC3    C5 5167   3.481   3.981   9.265 -0.4114  0.0527 -0.5477
  341TMC3    C6 5168   3.426   3.862   9.261 -0.0293  0.2288  0.2641
  341TMC3     C 5169   3.548   4.015   9.597 -0.5688  0.2404 -0.4164
  341TMC3     O 5170   3.579   3.913   9.655  0.0057 -0.2455 -0.0446
  341TMC3     H 5171   3.376   3.828   9.581  1.7759  1.6262  1.1249
  341TMC3    H1 5172   3.577   4.133   9.375 -0.7903  0.7716  0.6746
  341TMC3    H2 5173   3.428   3.807   9.167 -0.6188 -0.1082  0.4424
  341TMC3    C7 5174   3.609   3.978   9.196 -0.1952 -0.1649 -0.8717
  341TMC3    C8 5175   3.394   3.650   9.378 -0.0523  0.1163 -0.0942
  341TMC3    O1 5176   3.709   4.002   9.268 -0.1175 -0.1392  0.2007
  341TMC3    O2 5177   3.358   3.588   9.278  0.2430  0.2135 -0.7909
  342MPD2     C 5178   1.927   2.376  17.379 -0.5962  0.1613 -0.0346
  342MPD2    C1 5179   1.974   2.390  17.256  0.4219  0.1363  0.9990
  342MPD2    C2 5180   1.995   2.512  17.202  0.2514  0.6663 -0.2713
  342MPD2    C3 5181   1.955   2.623  17.271  0.1727 -0.1921 -0.1906
  342MPD2    C4 5182   1.902   2.617  17.399  0.4158  0.0005 -0.1611
  342MPD2    C5 5183   1.894   2.489  17.451  0.0012 -0.5448 -0.3045
  342MPD2     H 5184   2.019   2.506  17.096 -0.5713  0.4620 -0.4480
  342MPD2    H1 5185   1.874   2.699  17.464 -1.0640  0.8851 -1.9295
  342MPD2    H2 5186   1.898   2.290  17.438  1.7054  0.3933  1.4330
  342MPD2    H3 5187   1.862   2.475  17.553  1.6733  1.7340  0.5251
  342MPD2     N 5188   1.956   2.755  17.223  0.2396 -0.0084 -0.2188
  342MPD2    H5 5189   1.930   2.834  17.281 -1.9770 -0.6544 -0.3267
  342MPD2    N1 5190   1.999   2.281  17.174 -0.1424 -0.4938  0.2156
  342MPD2    H7 5191   2.043   2.295  17.084 -0.2866 -1.1318  0.0431
  343TMC3    C1 5192   2.055   2.052  17.140  0.0509 -0.4335 -0.6028
  343TMC3    C2 5193   2.140   2.080  17.041  0.5676  0.0486 -0.3552
  343TMC3    C3 5194   2.213   1.985  16.971 -0.2163 -0.4662  0.4491
  343TMC3    C4 5195   2.034   1.920  17.168  0.2646 -0.3808  0.2132
  343TMC3    C5 5196   2.098   1.826  17.096  0.6609 -0.6130  0.0606
  343TMC3    C6 5197   2.188   1.853  16.991 -0.4446 -0.1499 -0.2179
  343TMC3     C 5198   1.978   2.150  17.210  0.1117 -0.3036  0.3344
  343TMC3     O 5199   1.916   2.110  17.308 -0.4074  0.2183  0.1142
  343TMC3     H 5200   2.164   2.184  17.025 -2.1784  0.7360 -0.0497
  343TMC3    H1 5201   1.952   1.894  17.234  0.6084 -0.1640  0.7269
  343TMC3    H2 5202   2.259   1.782  16.948 -2.5786 -1.5891 -1.3601
  343TMC3    C7 5203   2.078   1.681  17.144  0.0099 -0.0444 -0.2684
  343TMC3    C8 5204   2.334   2.029  16.904  0.1550 -0.3734 -0.1199
  343TMC3    O1 5205   2.062   1.595  17.063  0.0034  0.5849 -0.1187
  343TMC3    O2 5206   2.366   2.145  16.938 -0.1934  0.4529  0.0738
  344MPD2     C 5207   2.726   1.650  10.859  0.0024 -0.7121  0.6511
  344MPD2    C1 5208   2.743   1.629  10.720  0.0752 -0.4797 -0.7021
  344MPD2    C2 5209   2.793   1.728  10.644  0.3410 -0.0699  0.4042
  344MPD2    C3 5210   2.812   1.861  10.688 -0.7442  0.4531  0.0529
  344MPD2    C4 5211   2.800   1.881  10.826  0.3982  0.5855 -0.3816
  344MPD2    C5 5212   2.759   1.775  10.913 -0.7871  0.3834  0.4529
  344MPD2     H 5213   2.808   1.712  10.538  0.5301  1.0434  0.2615
  344MPD2    H1 5214   2.817   1.977  10.873  0.8296  1.2695 -1.9403
  344MPD2    H2 5215   2.672   1.578  10.920 -2.7762 -0.0863 -1.0648
  344MPD2    H3 5216   2.758   1.785  11.021  3.7885  2.3977  0.2779
  344MPD2     N 5217   2.852   1.965  10.603  0.1075 -0.2006 -0.7327
  344MPD2    H5 5218   2.886   2.047  10.653 -1.1319 -0.1063 -0.0371
  344MPD2    N1 5219   2.733   1.506  10.658 -0.6160 -0.0178 -0.3262
  344MPD2    H7 5220   2.765   1.499  10.562  1.4479 -1.9795  0.4967
  345TMC3    C1 5221   2.900   2.084  10.407 -0.0801 -0.0017  0.2953
  345TMC3    C2 5222   3.027   2.117  10.448  0.3110 -0.0614 -0.1454
  345TMC3    C3 5223   3.094   2.214  10.379 -0.2492 -0.7288 -0.5553
  345TMC3    C4 5224   2.846   2.150  10.298 -0.3593 -0.0944 -0.2028
  345TMC3    C5 5225   2.917   2.242  10.225 -0.3217  0.4348 -0.8557
  345TMC3    C6 5226   3.042   2.278  10.267 -0.1593  0.2934  0.1526
  345TMC3     C 5227   2.838   1.970  10.465 -0.1919 -0.7429 -0.4537
  345TMC3     O 5228   2.776   1.898  10.385 -0.3875 -0.2452  0.6286
  345TMC3     H 5229   3.074   2.070  10.534  0.4738  3.4192  1.6511
  345TMC3    H1 5230   2.746   2.116  10.273 -0.3356 -0.0529 -0.3504
  345TMC3    H2 5231   3.105   2.348  10.213  0.4785 -0.1623  0.2991
  345TMC3    C7 5232   2.848   2.336  10.146  0.2066  0.3148  0.1740
  345TMC3    C8 5233   3.240   2.197  10.382 -0.1155 -0.3542 -0.7607
  345TMC3    O1 5234   2.917   2.437  10.124  0.1496  0.3287  0.2253
  345TMC3    O2 5235   3.292   2.084  10.376 -0.5676  0.1474  0.2627
  346MPD2     C 5236   2.999   3.157  14.456  0.5915  0.6025 -0.2415
  346MPD2    C1 5237   3.130   3.163  14.408 -0.2618  0.0207 -0.2982
  346MPD2    C2 5238   3.237   3.166  14.493 -0.5827 -0.1221 -0.1331
  346MPD2    C3 5239   3.208   3.149  14.630 -0.5636  0.4449 -0.3956
  346MPD2    C4 5240   3.076   3.138  14.682  0.2878  0.1160  0.2341
  346MPD2    C5 5241   2.972   3.146  14.592  0.3003 -0.2364 -0.2162
  346MPD2     H 5242   3.336   3.188  14.455 -1.8825  3.1450 -1.6950
  346MPD2    H1 5243   3.050   3.123  14.787  2.8394 -2.7167  0.4459
  346MPD2    H2 5244   2.911   3.166  14.394  1.6490 -0.0918 -1.8367
  346MPD2    H3 5245   2.871   3.156  14.629 -0.2629 -2.6555 -1.1057
  346MPD2     N 5246   3.322   3.169  14.713 -0.0194  0.1359 -0.4212
  346MPD2    H5 5247   3.409   3.174  14.660  0.5649 -1.6062  0.3833
  346MPD2    N1 5248   3.161   3.192  14.275  0.6768  0.5918  0.1783
  346MPD2    H7 5249   3.256   3.213  14.249  0.3266  0.9422 -0.8353
  347TMC3    C1 5250   3.460   3.183  14.895  0.3743  0.2705 -0.1868
  347TMC3    C2 5251   3.562   3.134  14.815  0.7058  0.4036 -0.0283
  347TMC3    C3 5252   3.684   3.186  14.843 -0.3846  0.3303  0.7056
  347TMC3    C4 5253   3.482   3.259  15.006 -0.4934  0.2552 -0.1834
  347TMC3    C5 5254   3.606   3.308  15.029  0.7604  0.1290 -0.6938
  347TMC3    C6 5255   3.715   3.280  14.946  0.3483  1.0179  0.6782
  347TMC3     C 5256   3.326   3.183  14.846 -0.0409 -0.1691 -0.1561
  347TMC3     O 5257   3.244   3.201  14.931  0.1283 -0.1591 -0.0823
  347TMC3     H 5258   3.548   3.070  14.729 -0.1299 -1.2416  1.3384
  347TMC3    H1 5259   3.399   3.279  15.073 -1.0356  1.5430 -1.2431
  347TMC3    H2 5260   3.806   3.339  14.941  1.2838 -0.6992 -2.2119
  347TMC3    C7 5261   3.633   3.372  15.156  0.4906 -0.2296 -0.2064
  347TMC3    C8 5262   3.789   3.127  14.757 -0.1457  0.1639 -0.7682
  347TMC3    O1 5263   3.540   3.413  15.221 -0.3902  0.3500  0.2002
  347TMC3    O2 5264   3.754   3.064  14.657  0.2992  0.8887 -0.3141
  348MPD2     C 5265   1.350   3.178  12.320  0.5330 -0.4557 -0.3860
  348MPD2    C1 5266   1.430   3.182  12.208  0.1126  0.5252 -0.3598
  348MPD2    C2 5267   1.386   3.217  12.077 -0.4890  0.4467 -0.5895
  348MPD2    C3 5268   1.250   3.237  12.059  0.0237  0.4788  0.1583
  348MPD2    C4 5269   1.166   3.223  12.167  0.4994 -0.4950 -0.7441
  348MPD2    C5 5270   1.217   3.206  12.296 -0.2339 -0.2089 -0.4613
  348MPD2     H 5271   1.459   3.242  12.001  0.5441  1.2761  0.6916
  348MPD2    H1 5272   1.059   3.233  12.159  0.1407 -2.5107  1.4316
  348MPD2    H2 5273   1.378   3.162  12.424 -0.9920 -0.3135  0.0587
  348MPD2    H3 5274   1.145   3.191  12.375 -0.1878 -0.9933 -0.5705
  348MPD2     N 5275   1.207   3.282  11.930 -0.1282  0.1799  0.1042
  348MPD2    H5 5276   1.282   3.298  11.864 -1.5456  3.9864 -0.6170
  348MPD2    N1 5277   1.570   3.162  12.211 -0.0816  0.1637 -0.4642
  348MPD2    H7 5278   1.612   3.163  12.119  0.3167 -1.7836 -0.3165
  349TMC3    C1 5279   1.757   3.038  12.268  0.0518  0.0546  0.3630
  349TMC3    C2 5280   1.771   2.912  12.322  0.4034  0.3227  0.5672
  349TMC3    C3 5281   1.776   2.810  12.234 -0.7272 -0.3556  0.2326
  349TMC3    C4 5282   1.773   3.069  12.135 -0.0197 -0.1903  0.0377
  349TMC3    C5 5283   1.775   2.963  12.052 -0.1106  0.8204 -0.0992
  349TMC3    C6 5284   1.776   2.838  12.103 -0.5943 -0.9736  0.0416
  349TMC3     C 5285   1.640   3.107  12.320 -0.4165 -0.1890  0.1855
  349TMC3     O 5286   1.600   3.066  12.430  0.2819  0.0231  0.3005
  349TMC3     H 5287   1.761   2.902  12.429  1.4207 -0.3666  0.6043
  349TMC3    H1 5288   1.787   3.168  12.094 -1.4977  0.3611  0.8776
  349TMC3    H2 5289   1.752   2.755  12.037  1.3256 -0.2990 -1.4928
  349TMC3    C7 5290   1.694   2.972  11.930 -0.0884  0.3151  0.1050
  349TMC3    C8 5291   1.840   2.691  12.281  0.0936  0.2199  0.1974
  349TMC3    O1 5292   1.625   2.878  11.894 -0.1411  0.1120 -0.1891
  349TMC3    O2 5293   1.851   2.682  12.400  0.2765 -0.2061 -0.8925
  350MPD2     C 5294   0.449   1.275   9.678 -0.8364 -0.3837 -0.8115
  350MPD2    C1 5295   0.435   1.214   9.799 -0.6148 -0.6802 -0.4081
  350MPD2    C2 5296   0.542   1.138   9.846 -0.6341 -0.2604  0.1595
  350MPD2    C3 5297   0.660   1.134   9.779  0.1761 -0.0490  1.2664
  350MPD2    C4 5298   0.672   1.197   9.663 -0.0822 -0.4526 -0.1007
  350MPD2    C5 5299   0.567   1.270   9.614  0.0577 -0.4550  0.8681
  350MPD2     H 5300   0.530   1.094   9.944  1.8461  0.8211  0.9677
  350MPD2    H1 5301   0.760   1.185   9.600 -1.0095 -0.9240 -1.3139
  350MPD2    H2 5302   0.369   1.334   9.634 -0.5126 -0.5664 -1.6264
  350MPD2    H3 5303   0.566   1.336   9.528  0.5776 -1.7268 -0.0990
  350MPD2     N 5304   0.769   1.074   9.844 -1.2690  0.2491  0.3022
  350MPD2    H5 5305   0.749   1.024   9.930  0.3891  1.0285  1.1425
  350MPD2    N1 5306   0.312   1.211   9.876  0.1578 -0.6794  0.0867
  350MPD2    H7 5307   0.311   1.146   9.953  0.4776  1.7507  2.1275
  351TMC3    C1 5308   0.119   1.245   9.982  0.0150  0.0836 -0.2610
  351TMC3    C2 5309   0.197   1.195  10.085  0.4420 -0.3792  0.0495
  351TMC3    C3 5310   0.164   1.078  10.153  0.2223  0.9676  0.5285
  351TMC3    C4 5311   4.736   1.182   9.963  0.0282 -0.6327 -0.2723
  351TMC3    C5 5312   4.703   1.077  10.042 -0.3832  0.1501 -0.0208
  351TMC3    C6 5313   0.045   1.024  10.139  0.2256  0.6377  0.3290
  351TMC3     C 5314   0.188   1.270   9.861 -0.3948  0.4726 -0.1026
  351TMC3     O 5315   0.148   1.346   9.775  0.1718  0.1427 -0.1331
  351TMC3     H 5316   0.292   1.244  10.105 -1.3203  3.1506 -0.2737
  351TMC3    H1 5317   4.685   1.202   9.870 -0.5564  3.2877  0.8809
  351TMC3    H2 5318   0.025   0.934  10.195  1.5290  0.0034 -0.2081
  351TMC3    C7 5319   4.584   1.009  10.007  0.1480  0.0225  0.7318
  351TMC3    C8 5320   0.279   0.996  10.178 -0.1244 -0.6816  0.2563
  351TMC3    O1 5321   4.509   1.061   9.925 -0.3562  0.6866 -0.0627
  351TMC3    O2 5322   0.383   1.024  10.120 -0.8905  0.9320 -0.3642
  352MPD2     C 5323   0.035   3.222   0.624 -0.3196  0.1602  0.2041
  352MPD2    C1 5324   4.648   3.201   0.665  0.3062  0.2763  0.3249
  352MPD2    C2 5325   4.594   3.073   0.633 -0.5315  0.3489 -0.0592
  352MPD2    C3 5326   4.676   2.979   0.574  0.8500 -0.1508  0.0159
  352MPD2    C4 5327   0.059   3.017   0.519  0.0778  0.4623 -0.0220
  352MPD2    C5 5328   0.115   3.137   0.549  0.0360 -0.0793 -0.2404
  352MPD2     H 5329   4.497   3.052   0.675  0.3050  0.0898  1.7226
  352MPD2    H1 5330   0.110   2.948   0.452 -2.7963 -1.1156 -0.5474
  352MPD2    H2 5331   0.083   3.318   0.642  1.5265 -0.5117 -1.0794
  352MPD2    H3 5332   0.210   3.162   0.504 -0.6972 -1.9735 -2.8179
  352MPD2     N 5333   4.641   2.843   0.543  0.1351  0.0337 -0.6650
  352MPD2    H5 5334   4.710   2.779   0.505 -0.4317 -1.0157  0.0672
  352MPD2    N1 5335   4.586   3.306   0.742 -0.1626 -0.2834 -0.2430
  352MPD2    H7 5336   4.645   3.389   0.742  0.4127 -0.6894 -1.4003
  353TMC3    C1 5337   4.500   2.652   0.530  0.0158  0.5527 -0.4375
  353TMC3    C2 5338   4.614   2.569   0.512 -0.8271 -0.3396  0.0047
  353TMC3    C3 5339   4.588   2.440   0.464  0.2844  0.3089 -0.3598
  353TMC3    C4 5340   4.373   2.603   0.518 -0.1751  0.3894 -0.2623
  353TMC3    C5 5341   4.359   2.462   0.495  0.3956  0.0535  0.9548
  353TMC3    C6 5342   4.459   2.382   0.463 -0.3825 -0.2961  0.1393
  353TMC3     C 5343   4.513   2.793   0.563  0.2376 -0.4065  0.4952
  353TMC3     O 5344   4.406   2.846   0.592 -0.0743  0.2444  0.1282
  353TMC3     H 5345   4.712   2.612   0.525 -0.4071 -1.1071 -0.6200
  353TMC3    H1 5346   4.284   2.661   0.537 -0.6106  0.2381 -1.7998
  353TMC3    H2 5347   4.443   2.278   0.434  0.9331 -0.2070 -0.9354
  353TMC3    C7 5348   4.237   2.395   0.526  0.1141  0.4743 -0.0582
  353TMC3    C8 5349   4.700   2.359   0.492 -0.2963  0.1427  0.7466
  353TMC3    O1 5350   4.237   2.274   0.512  0.1451  0.3048 -0.3328
  353TMC3    O2 5351   0.069   2.413   0.468  0.5527 -0.4389  0.0313
  354TMC3    C1 5352   1.128   3.917  13.639  0.8130  0.2709 -0.0646
  354TMC3    C2 5353   1.072   4.036  13.597  0.2250  0.5192  0.7643
  354TMC3    C3 5354   1.121   4.089  13.486  0.3413 -0.3367  0.1897
  354TMC3    C4 5355   1.208   3.836  13.558 -1.2937  0.1047 -0.0417
  354TMC3    C5 5356   1.254   3.888  13.445  0.3466 -0.6056 -0.2876
  354TMC3    C6 5357   1.214   4.017  13.405 -0.4593 -0.0259  0.6477
  354TMC3     C 5358   1.083   3.852  13.761  0.5167 -0.2676 -0.5405
  354TMC3     O 5359   1.086   3.731  13.762  0.1923 -0.2676  0.1529
  354TMC3     H 5360   0.992   4.086  13.650 -2.2831  0.0408 -2.5966
  354TMC3    H1 5361   1.268   3.758  13.603  0.1438 -0.1935 -2.4893
  354TMC3    H2 5362   1.243   4.042  13.303 -0.7248 -0.0025  0.5782
  354TMC3    C7 5363   1.397   3.860  13.422  0.2375 -0.2792 -0.8141
  354TMC3    C8 5364   1.093   4.228  13.433 -0.4853  0.8871 -0.0131
  354TMC3    O1 5365   1.443   3.757  13.464  0.1519  0.5161 -0.3159
  354TMC3    O2 5366   1.137   4.255  13.320 -0.1208  0.0542 -0.4689
  355MPD2     C 5367   1.890   0.089  12.124  0.2894 -0.7468 -0.2473
  355MPD2    C1 5368   1.829   0.202  12.171  0.2114  0.5698  0.3379
  355MPD2    C2 5369   1.790   0.212  12.308  0.1866  0.6732  0.0204
  355MPD2    C3 5370   1.813   0.112  12.399  0.0528 -0.0546 -1.0774
  355MPD2    C4 5371   1.872   4.733  12.345  0.4827 -0.7982 -0.4240
  355MPD2    C5 5372   1.909   4.724  12.213 -0.5250 -0.0278  0.4788
  355MPD2     H 5373   1.729   0.296  12.339 -0.3340  0.7168 -1.1146
  355MPD2    H1 5374   1.885   4.638  12.396  0.9422 -1.2915 -1.4560
  355MPD2    H2 5375   1.922   0.076  12.022  0.1744 -3.3877  0.0475
  355MPD2    H3 5376   1.950   4.627  12.189 -1.6107 -0.2530 -0.4803
  355MPD2     N 5377   1.779   0.110  12.540 -0.5472  0.8973 -0.3830
  355MPD2    H5 5378   1.754   0.017  12.573  2.2850  0.0089 -0.8044
  355MPD2    N1 5379   1.818   0.311  12.079 -0.3091 -0.1048  0.2776
  355MPD2    H7 5380   1.845   0.294  11.982  0.0845  0.3088  0.3141
  356TMC3    C1 5381   1.802   0.349  12.576 -0.1495  0.3328  0.7789
  356TMC3    C2 5382   1.927   0.361  12.518  0.4161  0.0494  0.5001
  356TMC3    C3 5383   1.969   0.483  12.481  0.2964 -0.4268 -0.0040
  356TMC3    C4 5384   1.727   0.461  12.610 -0.2343 -0.1761  0.7071
  356TMC3    C5 5385   1.783   0.586  12.573 -0.0460 -0.7733  0.1996
  356TMC3    C6 5386   1.906   0.600  12.515  0.2221 -0.0964  0.2937
  356TMC3     C 5387   1.747   0.217  12.619  0.1299  0.0634  0.4159
  356TMC3     O 5388   1.693   0.217  12.735  0.6505 -0.1380  0.0420
  356TMC3     H 5389   1.993   0.277  12.498  0.1271  0.7039 -3.1976
  356TMC3    H1 5390   1.637   0.450  12.669 -0.4437  0.4827  0.5063
  356TMC3    H2 5391   1.951   0.691  12.476  0.2513  0.0546  0.6701
  356TMC3    C7 5392   1.722   0.702  12.630 -0.5660 -0.3608  0.4740
  356TMC3    C8 5393   2.068   0.485  12.376 -0.2400 -0.0698 -0.0809
  356TMC3    O1 5394   1.615   0.695  12.682 -0.6646  0.1771 -0.0638
  356TMC3    O2 5395   2.159   0.404  12.381  0.8619  0.2578  0.1028
  357MPD2     C 5396   0.853   0.039   0.973 -0.0121 -0.4676 -0.5824
  357MPD2    C1 5397   0.953   4.700   1.012  0.0845 -0.7129  0.2235
  357MPD2    C2 5398   1.021   4.730   1.135 -0.3489 -0.3278 -0.3837
  357MPD2    C3 5399   1.000   0.111   1.198  0.5621 -0.0937 -0.7249
  357MPD2    C4 5400   0.897   0.191   1.141 -0.5448 -0.4066 -0.0526
  357MPD2    C5 5401   0.831   0.157   1.030  0.8901  0.4506  0.1971
  357MPD2     H 5402   1.094   4.664   1.179  0.2636  0.2916 -0.4701
  357MPD2    H1 5403   0.893   0.294   1.174  2.4852 -0.7755  1.4929
  357MPD2    H2 5404   0.792   0.018   0.886 -1.4990  0.5352  0.2256
  357MPD2    H3 5405   0.759   0.229   0.994  0.9692 -0.4014 -1.6842
  357MPD2     N 5406   1.074   0.155   1.309  0.8482  0.6422  0.5697
  357MPD2    H5 5407   1.049   0.249   1.336  0.2149  0.4898  0.4978
  357MPD2    N1 5408   0.960   4.574   0.941  0.7226 -0.0072 -0.3476
  357MPD2    H7 5409   0.916   4.568   0.850 -0.0648 -0.2027  0.0443
  358TMC3    C1 5410   1.003   4.346   0.898  0.0341 -0.1194  0.3972
  358TMC3    C2 5411   0.892   4.335   0.818  0.4270 -0.0341 -0.6513
  358TMC3    C3 5412   0.866   4.210   0.757 -0.0760 -0.1656  0.3495
  358TMC3    C4 5413   1.087   4.234   0.909 -0.1859  0.1970  0.7632
  358TMC3    C5 5414   1.052   4.119   0.841  0.1439  0.7928 -0.5254
  358TMC3    C6 5415   0.949   4.110   0.744  0.6238  0.3149  0.0436
  358TMC3     C 5416   1.031   4.466   0.983 -0.3313 -0.1569  0.1618
  358TMC3     O 5417   1.112   4.450   1.075 -0.2739 -0.1277  0.2146
  358TMC3     H 5418   0.814   4.410   0.828  0.1446 -0.4109 -0.0263
  358TMC3    H1 5419   1.182   4.236   0.961 -0.7530  2.0658  1.7271
  358TMC3    H2 5420   0.907   4.014   0.715 -0.8515  1.2534 -0.8535
  358TMC3    C7 5421   1.143   4.007   0.839  0.3650 -0.6769 -0.0959
  358TMC3    C8 5422   0.760   4.213   0.661 -0.2532  0.2492  0.1655
  358TMC3    O1 5423   1.216   3.977   0.934 -0.6711  0.1829  0.2899
  358TMC3    O2 5424   0.709   4.106   0.629  0.0899  0.3316 -0.3675
  359MPD2     C 5425   0.749   3.436  12.536 -0.3492 -0.1994  0.0554
  359MPD2    C1 5426   0.842   3.377  12.463 -0.3196  0.7583  0.2936
  359MPD2    C2 5427   0.866   3.242  12.493 -0.1007 -0.7646 -0.0608
  359MPD2    C3 5428   0.786   3.169  12.579 -0.6163  0.2193 -0.0504
  359MPD2    C4 5429   0.686   3.237  12.645 -0.0625  0.9723  0.6503
  359MPD2    C5 5430   0.677   3.370  12.636  0.0536 -0.0657 -0.2397
  359MPD2     H 5431   0.952   3.192  12.450  0.2836 -0.7881  0.7419
  359MPD2    H1 5432   0.625   3.187  12.720 -0.8682 -1.4618 -1.6469
  359MPD2    H2 5433   0.717   3.538  12.523 -0.3744 -0.3859 -1.3760
  359MPD2    H3 5434   0.613   3.428  12.701 -0.4638  0.2492 -1.0326
  359MPD2     N 5435   0.804   3.027  12.595 -0.8299  0.2706 -0.1826
  359MPD2    H5 5436   0.748   2.978  12.664  0.1828 -0.3835  0.1714
  359MPD2    N1 5437   0.926   3.449  12.377 -0.2466 -0.9046 -0.1639
  359MPD2    H7 5438   1.013   3.402  12.353  1.4204  1.3809  1.4401
  360TMC3    C1 5439   1.025   3.613  12.269  0.3652 -0.9249 -0.4070
  360TMC3    C2 5440   1.133   3.539  12.305  0.2248  0.3424 -0.3507
  360TMC3    C3 5441   1.247   3.549  12.229 -0.1066 -1.0446  0.6493
  360TMC3    C4 5442   1.012   3.682  12.150 -0.0024 -0.7164  0.3453
  360TMC3    C5 5443   1.125   3.684  12.073 -0.0016 -0.0794 -0.7173
  360TMC3    C6 5444   1.236   3.613  12.113  0.1657  0.0705  0.7418
  360TMC3     C 5445   0.915   3.582  12.350  0.3380  0.3022 -0.0782
  360TMC3     O 5446   0.832   3.674  12.362 -0.2876  0.2867  0.5173
  360TMC3     H 5447   1.141   3.512  12.410  0.5359  2.0923  0.0773
  360TMC3    H1 5448   0.919   3.732  12.126  0.9377  0.4068 -0.9994
  360TMC3    H2 5449   1.319   3.621  12.044 -1.2128  0.1827 -0.8945
  360TMC3    C7 5450   1.113   3.709  11.926 -0.3291 -0.3820 -0.2521
  360TMC3    C8 5451   1.372   3.524  12.312 -0.0192 -0.3520 -0.0151
  360TMC3    O1 5452   1.212   3.696  11.849 -0.4366 -0.8647 -0.3575
  360TMC3    O2 5453   1.351   3.491  12.428  0.1809  0.0054  0.2249
  361MPD2     C 5454   3.346   2.876  16.304  0.0658  0.5282  0.4632
  361MPD2    C1 5455   3.261   2.884  16.415 -0.3239 -0.4635  0.4545
  361MPD2    C2 5456   3.290   2.818  16.531  0.5430  0.7316  0.0576
  361MPD2    C3 5457   3.405   2.745  16.535  0.4749  0.7554 -0.0979
  361MPD2    C4 5458   3.490   2.741  16.424  0.0016  0.8075  0.2946
  361MPD2    C5 5459   3.467   2.810  16.309  0.3563  0.1279  0.4763
  361MPD2     H 5460   3.218   2.817  16.612  1.2187  2.3908  0.6771
  361MPD2    H1 5461   3.580   2.680  16.420 -1.8391 -1.9252 -0.1149
  361MPD2    H2 5462   3.306   2.925  16.215  2.7557 -1.3020 -1.7564
  361MPD2    H3 5463   3.548   2.812  16.237  0.9278  0.5655  1.1270
  361MPD2     N 5464   3.452   2.680  16.649  0.0725 -0.7369 -0.2679
  361MPD2    H5 5465   3.531   2.620  16.629  1.4872  1.3923 -0.9913
  361MPD2    N1 5466   3.141   2.952  16.390  0.0535  0.0423 -0.7927
  361MPD2    H7 5467   3.121   2.985  16.296 -2.8488  0.0171 -0.1941
  362TMC3    C1 5468   2.947   3.072  16.420 -0.1159  0.3080 -0.2829
  362TMC3    C2 5469   2.835   3.086  16.508 -0.2788  0.4686 -0.0603
  362TMC3    C3 5470   2.736   3.171  16.467  0.3231  0.1424 -0.3776
  362TMC3    C4 5471   2.962   3.146  16.306 -0.3097 -0.8762  0.4395
  362TMC3    C5 5472   2.861   3.231  16.270  0.0363  0.0059  0.4767
  362TMC3    C6 5473   2.748   3.248  16.351 -0.2492  0.0983 -0.1987
  362TMC3     C 5474   3.050   2.999  16.478  0.1407 -0.0311 -0.1219
  362TMC3     O 5475   3.055   3.002  16.600  0.1504 -0.0158  0.0046
  362TMC3     H 5476   2.834   3.033  16.602  3.0767  0.9388  0.2574
  362TMC3    H1 5477   3.044   3.126  16.238 -0.4611  0.7385 -0.2115
  362TMC3    H2 5478   2.689   3.338  16.342 -1.2226 -0.4513  0.6477
  362TMC3    C7 5479   2.863   3.310  16.149  0.5518  0.0682  0.1834
  362TMC3    C8 5480   2.601   3.160  16.518  0.3662  0.0147 -0.0726
  362TMC3    O1 5481   2.755   3.350  16.111 -0.2531  0.4208  0.5245
  362TMC3    O2 5482   2.533   3.261  16.492 -0.1706  0.1464 -0.5085
  363TMC3    C1 5483   1.298   0.615   9.536  0.9253 -0.1216 -0.2079
  363TMC3    C2 5484   1.329   0.573   9.667  0.4960  0.4894  0.3570
  363TMC3    C3 5485   1.238   0.603   9.768 -0.0063  0.1794 -0.0548
  363TMC3    C4 5486   1.197   0.702   9.522 -0.2544 -0.0222  0.4865
  363TMC3    C5 5487   1.108   0.731   9.624 -0.2147 -0.4729  0.2096
  363TMC3    C6 5488   1.119   0.664   9.744  0.5811 -1.2930  0.0461
  363TMC3     C 5489   1.384   0.599   9.424  0.0118  0.4077  0.0128
  363TMC3     O 5490   1.332   0.620   9.317  0.1455 -0.0692 -0.5512
  363TMC3     H 5491   1.429   0.536   9.685 -0.0332 -0.6342  1.0453
  363TMC3    H1 5492   1.170   0.742   9.425  0.2329 -0.7724  0.0449
  363TMC3    H2 5493   1.044   0.683   9.820  0.7289 -0.1127 -0.1056
  363TMC3    C7 5494   0.985   0.790   9.610  0.0060  0.0876  0.1985
  363TMC3    C8 5495   1.258   0.531   9.894 -0.6291 -0.4670 -0.0413
  363TMC3    O1 5496   0.892   0.760   9.682  0.1490 -0.3567  0.4380
  363TMC3    O2 5497   1.211   0.580   9.991  0.9329 -0.1380  0.0543
  364MPD2     C 5498   0.608   0.100   9.862 -0.1408 -0.3037  0.2602
  364MPD2    C1 5499   0.574   0.160   9.979 -0.6092  0.4738 -0.1095
  364MPD2    C2 5500   0.634   0.109  10.095 -0.2597 -0.5674  0.0027
  364MPD2    C3 5501   0.729   0.008  10.095 -0.2653 -0.2650  0.4184
  364MPD2    C4 5502   0.767   4.702   9.970  0.0820  0.2188 -0.1883
  364MPD2    C5 5503   0.701   0.004   9.856  0.7491 -0.5318 -0.3226
  364MPD2     H 5504   0.602   0.152  10.190 -2.3308 -2.6681  0.2646
  364MPD2    H1 5505   0.854   4.639   9.960  1.1992  1.6319  0.4661
  364MPD2    H2 5506   0.571   0.137   9.767  0.2565 -0.5603  0.0055
  364MPD2    H3 5507   0.743   4.714   9.760  2.4278 -2.0382  0.8560
  364MPD2     N 5508   0.779   4.690  10.218 -0.0483  0.1538  0.5989
  364MPD2    H5 5509   0.839   4.609  10.213  1.9523  1.6970 -0.4900
  364MPD2    N1 5510   0.473   0.256   9.980  0.6296 -0.0815 -0.0385
  364MPD2    H7 5511   0.432   0.282   9.890  3.3094 -3.0493 -2.1019
  365TMC3    C1 5512   0.293   0.375  10.071  0.6263  0.3160 -0.4108
  365TMC3    C2 5513   0.216   0.358   9.959 -0.1002  0.2679 -0.4451
  365TMC3    C3 5514   0.095   0.429   9.956  0.0046  0.0243  0.9154
  365TMC3    C4 5515   0.253   0.453  10.177  0.1890  0.2183 -0.1086
  365TMC3    C5 5516   0.137   0.524  10.163  0.5315  0.6724  0.4680
  365TMC3    C6 5517   0.055   0.516  10.053 -0.3693 -0.6712  0.0738
  365TMC3     C 5518   0.421   0.317  10.090  0.1439 -0.3598  0.0924
  365TMC3     O 5519   0.456   0.324  10.206 -0.2071  0.2425 -0.0834
  365TMC3     H 5520   0.235   0.289   9.878  0.2623  3.9533 -3.4784
  365TMC3    H1 5521   0.320   0.475  10.259  0.0162  0.0230  0.0833
  365TMC3    H2 5522   4.699   0.569  10.048  1.3231  2.4220  0.3389
  365TMC3    C7 5523   0.091   0.606  10.280 -1.1878 -0.1019  0.2095
  365TMC3    C8 5524   4.720   0.376   9.884  0.0598  0.6302  0.7526
  365TMC3    O1 5525   0.042   0.716  10.257  0.3177  0.1056  0.2879
  365TMC3    O2 5526   4.639   0.464   9.850 -0.4886  1.0014 -0.0155
  366MPD2     C 5527   3.347   0.955  15.342 -0.3011  0.1125 -0.3166
  366MPD2    C1 5528   3.431   1.007  15.248 -0.3706  0.0378 -1.9454
  366MPD2    C2 5529   3.517   0.914  15.187 -0.4686  0.3528 -0.3877
  366MPD2    C3 5530   3.509   0.777  15.204  0.0164  0.1055  0.1040
  366MPD2    C4 5531   3.413   0.728  15.294  0.0824 -0.4059 -0.0856
  366MPD2    C5 5532   3.343   0.819  15.366 -0.5505  0.0143  0.5232
  366MPD2     H 5533   3.593   0.947  15.117  0.8433 -0.5924  0.5766
  366MPD2    H1 5534   3.401   0.626  15.329  1.8311 -0.7358 -0.4691
  366MPD2    H2 5535   3.292   1.019  15.411 -0.7448 -0.4398 -0.1631
  366MPD2    H3 5536   3.278   0.789  15.447 -0.7130  0.3068  0.5008
  366MPD2     N 5537   3.609   0.705  15.133 -0.1358 -0.3588  0.0941
  366MPD2    H5 5538   3.666   0.760  15.069  1.2866  1.6187  3.0642
  366MPD2    N1 5539   3.448   1.143  15.217  0.1696  0.0422 -0.3031
  366MPD2    H7 5540   3.532   1.169  15.166  1.7974  0.1673  2.4273
  367TMC3    C1 5541   3.406   1.374  15.212 -0.2601  0.1138 -0.5727
  367TMC3    C2 5542   3.540   1.413  15.246 -0.8736 -0.5879  0.0620
  367TMC3    C3 5543   3.579   1.539  15.225 -0.2444  0.2278  0.1122
  367TMC3    C4 5544   3.311   1.459  15.159 -0.0403  0.6692 -0.2028
  367TMC3    C5 5545   3.367   1.582  15.118 -0.1219  0.0524 -0.8772
  367TMC3    C6 5546   3.497   1.621  15.146 -0.0111 -0.9406 -0.4080
  367TMC3     C 5547   3.364   1.244  15.257  0.3039 -0.1333  0.0200
  367TMC3     O 5548   3.259   1.234  15.311  0.2190 -0.1109 -0.3064
  367TMC3     H 5549   3.601   1.340  15.299 -2.3435  0.2907  3.0136
  367TMC3    H1 5550   3.211   1.420  15.148  0.3933 -0.2343 -1.0715
  367TMC3    H2 5551   3.533   1.708  15.093 -1.5718 -0.3731 -0.5396
  367TMC3    C7 5552   3.298   1.662  15.019 -0.3158 -0.3180  0.5872
  367TMC3    C8 5553   3.700   1.581  15.290  0.0413  0.3107 -0.1104
  367TMC3    O1 5554   3.335   1.776  14.997 -0.2590  0.0155  0.5940
  367TMC3    O2 5555   3.753   1.497  15.361 -0.3096 -0.1253  0.1027
  368MPD2     C 5556   4.162   1.885  12.358  0.4438  0.3534  0.1792
  368MPD2    C1 5557   4.208   1.980  12.272  0.2018  0.1570  0.5086
  368MPD2    C2 5558   4.334   2.026  12.292  0.2201  0.3116  0.3166
  368MPD2    C3 5559   4.419   1.977  12.386 -0.4310 -0.6354 -0.6603
  368MPD2    C4 5560   4.370   1.878  12.471 -0.1263 -0.0550 -0.7163
  368MPD2    C5 5561   4.242   1.835  12.459  0.4495 -1.0347  0.1683
  368MPD2     H 5562   4.376   2.097  12.221  1.8293 -0.1782  0.7865
  368MPD2    H1 5563   4.429   1.822  12.543  2.7307  2.0776 -1.4056
  368MPD2    H2 5564   4.057   1.857  12.353  0.9181 -1.5217  0.8311
  368MPD2    H3 5565   4.193   1.766  12.527 -0.4378  0.0795  0.6707
  368MPD2     N 5566   4.549   2.028  12.383  0.8040 -0.2181  0.3496
  368MPD2    H5 5567   4.566   2.095  12.309  1.3213 -1.2877 -0.5036
  368MPD2    N1 5568   4.109   2.043  12.181 -0.5447  0.2145  0.0185
  368MPD2    H7 5569   4.013   2.011  12.182 -0.4449 -0.0918 -0.1452
  369TMC3    C1 5570   4.020   2.234  12.080 -0.2074  0.1179 -0.0982
  369TMC3    C2 5571   4.060   2.356  12.047  0.3729 -0.8157 -0.2126
  369TMC3    C3 5572   4.011   2.468  12.108  0.8457  0.4005  0.3140
  369TMC3    C4 5573   3.924   2.215  12.171  0.3827  0.0035 -0.7019
  369TMC3    C5 5574   3.873   2.332  12.235 -0.4502 -0.2677 -0.7779
  369TMC3    C6 5575   3.925   2.455  12.213  0.1677 -0.5116  0.0268
  369TMC3     C 5576   4.131   2.144  12.091  0.3858 -0.4314 -0.1612
  369TMC3     O 5577   4.241   2.183  12.055 -0.5387 -0.1662 -0.2436
  369TMC3     H 5578   4.142   2.378  11.980  0.4077 -0.0254  0.0929
  369TMC3    H1 5579   3.881   2.117  12.191 -1.6112  0.9760 -0.1637
  369TMC3    H2 5580   3.896   2.537  12.278 -0.0399  0.0077 -0.7137
  369TMC3    C7 5581   3.856   2.306  12.377  0.2998  0.2103 -0.2724
  369TMC3    C8 5582   4.104   2.559  12.150 -0.6222 -0.2611  0.2470
  369TMC3    O1 5583   3.937   2.360  12.450  0.0743 -0.0976 -0.2358
  369TMC3    O2 5584   4.088   2.683  12.152 -0.4067  0.2904  0.1772
  370TMC3    C1 5585   4.197   3.699  16.071  0.1163 -0.1393 -0.4086
  370TMC3    C2 5586   4.098   3.641  16.150  0.3685 -0.3581  0.5844
  370TMC3    C3 5587   4.066   3.510  16.124  0.1056  0.2417 -0.0117
  370TMC3    C4 5588   4.253   3.645  15.959  0.1784 -0.2936 -0.2068
  370TMC3    C5 5589   4.198   3.521  15.926 -0.1497  0.1760  0.8227
  370TMC3    C6 5590   4.112   3.446  16.011 -0.4242  0.5701  0.1455
  370TMC3     C 5591   4.279   3.789  16.148  0.3819  0.4404  0.1788
  370TMC3     O 5592   4.267   3.784  16.271 -0.4360  0.4187 -0.2943
  370TMC3     H 5593   4.075   3.691  16.243 -0.6068 -2.0188  1.2377
  370TMC3    H1 5594   4.348   3.678  15.919  0.0200  0.6613  0.1879
  370TMC3    H2 5595   4.068   3.348  15.994  2.2650 -0.5341 -0.4334
  370TMC3    C7 5596   4.248   3.460  15.801  0.6992  0.0243  0.1262
  370TMC3    C8 5597   3.989   3.437  16.222 -0.0636 -0.8205  0.7734
  370TMC3    O1 5598   4.283   3.539  15.713  0.8210 -0.6560 -0.0224
  370TMC3    O2 5599   4.000   3.317  16.229  0.1913  0.0525  0.5672
  371TMC3    C1 5600   0.733   1.792  15.347 -0.1782  0.6926 -0.3390
  371TMC3    C2 5601   0.623   1.784  15.420  0.3900  0.3238 -0.1665
  371TMC3    C3 5602   0.582   1.902  15.478  0.4184 -0.7311 -0.2950
  371TMC3    C4 5603   0.807   1.910  15.326  0.4933  0.2636  0.0104
  371TMC3    C5 5604   0.756   2.029  15.383  0.7205 -0.1416  0.8932
  371TMC3    C6 5605   0.644   2.022  15.459 -0.0018 -1.0752  0.5190
  371TMC3     C 5606   0.813   1.667  15.340  0.5002  0.1351 -0.4712
  371TMC3     O 5607   0.900   1.657  15.251  0.3755 -0.1593 -0.1511
  371TMC3     H 5608   0.560   1.698  15.439 -0.2701  0.7322 -0.4726
  371TMC3    H1 5609   0.898   1.919  15.268  1.1767  2.4059  1.4112
  371TMC3    H2 5610   0.618   2.114  15.511  2.4002 -0.2416  0.1964
  371TMC3    C7 5611   0.817   2.161  15.368  0.3853 -0.5001 -0.3591
  371TMC3    C8 5612   0.488   1.901  15.583 -0.1861 -0.4897 -0.2214
  371TMC3    O1 5613   0.834   2.225  15.471 -0.5664  0.5264 -0.4472
  371TMC3    O2 5614   0.468   1.798  15.643  1.1154 -0.1937 -0.2979
  372MPD2     C 5615   4.515   2.901  13.238  0.0344 -0.2478 -0.0583
  372MPD2    C1 5616   4.610   2.929  13.333 -0.0422 -0.5242 -0.6811
  372MPD2    C2 5617   4.603   2.857  13.451 -0.1481 -0.1153 -0.2101
  372MPD2    C3 5618   4.519   2.745  13.463 -0.6437  0.1238  0.1533
  372MPD2    C4 5619   4.429   2.721  13.364 -0.0421 -0.5674  0.5875
  372MPD2    C5 5620   4.429   2.797  13.249  0.3773 -0.0607 -0.2287
  372MPD2     H 5621   4.664   2.881  13.538 -1.3171 -1.9575  1.1184
  372MPD2    H1 5622   4.372   2.630  13.353 -0.1706 -0.5285  0.9585
  372MPD2    H2 5623   4.514   2.952  13.142  0.9307  0.1762  0.1638
  372MPD2    H3 5624   4.353   2.774  13.175 -0.0030 -0.7070  0.3579
  372MPD2     N 5625   4.519   2.683  13.589 -0.2683 -0.3413 -0.4909
  372MPD2    H5 5626   4.596   2.720  13.645 -0.1977  1.6645 -1.8941
  372MPD2    N1 5627   4.701   3.036  13.320 -0.0018 -0.8992  0.2243
  372MPD2    H7 5628   0.028   3.050  13.397  1.1078 -2.2617 -0.4537
  373TMC3    C1 5629   4.484   2.508  13.744 -0.3750 -0.2859  0.5148
  373TMC3    C2 5630   4.596   2.557  13.807 -0.3401  0.6919 -0.0462
  373TMC3    C3 5631   4.678   2.464  13.867  0.0300 -0.7988 -0.6351
  373TMC3    C4 5632   4.470   2.369  13.731  0.0100  0.4519  0.2120
  373TMC3    C5 5633   4.561   2.278  13.785  0.1968 -0.1155  0.0439
  373TMC3    C6 5634   4.669   2.329  13.852  0.3681  0.1477  0.0937
  373TMC3     C 5635   4.434   2.588  13.627 -0.0010 -0.1267  0.2001
  373TMC3     O 5636   4.335   2.545  13.567  0.0337 -0.3609  0.4418
  373TMC3     H 5637   4.605   2.662  13.831  1.3970  0.1850  1.5802
  373TMC3    H1 5638   4.396   2.329  13.663 -1.4138 -0.6842  2.4191
  373TMC3    H2 5639   0.005   2.255  13.881  0.7621  0.3577 -0.3822
  373TMC3    C7 5640   4.566   2.141  13.745 -0.4609 -0.6175 -0.0693
  373TMC3    C8 5641   0.064   2.515  13.917  0.0194  0.3090 -0.1474
  373TMC3    O1 5642   4.535   2.113  13.629 -0.3955 -0.8185 -0.2355
  373TMC3    O2 5643   0.103   2.626  13.881 -0.4899  0.1789 -0.6939
  374TMC3    C1 5644   0.395   3.171   9.632  0.2905 -0.6638 -0.0153
  374TMC3    C2 5645   0.428   3.286   9.708 -0.2399  0.2177 -0.5961
  374TMC3    C3 5646   0.516   3.371   9.647 -0.4341  0.0303  1.0180
  374TMC3    C4 5647   0.446   3.156   9.506  0.7264 -0.3683  0.4132
  374TMC3    C5 5648   0.511   3.258   9.450 -0.7931 -0.7134  0.0712
  374TMC3    C6 5649   0.553   3.365   9.517  0.1320  0.3083  1.0074
  374TMC3     C 5650   0.298   3.076   9.680 -0.9275 -0.1478  0.1185
  374TMC3     O 5651   0.245   3.012   9.594  0.0259  0.3471 -0.3676
  374TMC3     H 5652   0.378   3.314   9.800  1.5311  2.7438 -0.4045
  374TMC3    H1 5653   0.437   3.057   9.463  1.4724 -0.3064  0.1128
  374TMC3    H2 5654   0.615   3.442   9.475  1.7600 -1.8718 -0.5696
  374TMC3    C7 5655   0.583   3.229   9.328  1.1095  1.1802  0.2931
  374TMC3    C8 5656   0.548   3.494   9.722  0.3136 -0.0397  0.0671
  374TMC3    O1 5657   0.691   3.289   9.316 -0.3146 -0.4357 -0.0142
  374TMC3    O2 5658   0.570   3.591   9.653  0.2796 -0.2176 -0.1359
  375MPD2     C 5659   0.991   3.983  16.986  0.6257  0.8245  0.1343
  375MPD2    C1 5660   0.912   3.988  16.873  0.2573 -0.5440 -1.1820
  375MPD2    C2 5661   0.953   3.907  16.767  0.2375  0.4166  0.2471
  375MPD2    C3 5662   1.063   3.830  16.778 -0.1716  0.2765  0.3505
  375MPD2    C4 5663   1.143   3.837  16.886 -0.2715 -0.1564 -0.3937
  375MPD2    C5 5664   1.112   3.917  16.990 -0.8105  0.0258  0.5968
  375MPD2     H 5665   0.886   3.884  16.685  1.0591 -0.1118 -0.2832
  375MPD2    H1 5666   1.232   3.777  16.905 -1.1395 -1.0744  0.7344
  375MPD2    H2 5667   0.973   4.037  17.078  0.6820  1.6910 -0.3605
  375MPD2    H3 5668   1.179   3.915  17.075  1.3903  3.3725 -1.0333
  375MPD2     N 5669   1.099   3.731  16.688 -0.4247 -0.2275  0.6557
  375MPD2    H5 5670   1.180   3.677  16.718 -0.5124 -1.1386 -0.7078
  375MPD2    N1 5671   0.786   4.055  16.871  0.1508  0.1777  0.1853
  375MPD2    H7 5672   0.732   4.048  16.786 -0.5745  1.1762  0.5576
  376TMC3    C1 5673   1.095   3.567  16.521  0.2152 -0.3947  0.3666
  376TMC3    C2 5674   1.212   3.519  16.567  1.0051 -0.2390 -1.0462
  376TMC3    C3 5675   1.251   3.391  16.529  0.1018  0.2468 -0.0104
  376TMC3    C4 5676   1.019   3.499  16.428 -0.1761  0.7608 -0.1886
  376TMC3    C5 5677   1.062   3.376  16.394 -0.1789 -1.1691 -0.3401
  376TMC3    C6 5678   1.178   3.321  16.440 -0.6678 -0.0535 -0.3242
  376TMC3     C 5679   1.037   3.691  16.575 -0.1720  0.2764 -0.3327
  376TMC3     O 5680   0.939   3.734  16.521 -0.7664  0.2080  0.4319
  376TMC3     H 5681   1.273   3.570  16.641 -1.8016  2.2841 -0.4462
  376TMC3    H1 5682   0.927   3.546  16.396  0.4919  3.1309  1.3760
  376TMC3    H2 5683   1.212   3.224  16.405 -1.4418  0.2826 -2.0299
  376TMC3    C7 5684   1.005   3.318  16.278 -0.2161 -0.7034  0.3743
  376TMC3    C8 5685   1.386   3.352  16.557  0.2624  0.1930 -0.5924
  376TMC3    O1 5686   0.972   3.201  16.283  0.6416  0.1509  0.7794
  376TMC3    O2 5687   1.461   3.441  16.600  0.4217 -0.0734  0.3232
  377MPD2     C 5688   3.776   2.881  12.313  0.8826 -0.0186 -0.0109
  377MPD2    C1 5689   3.816   3.008  12.358 -0.2515  0.3444 -0.1967
  377MPD2    C2 5690   3.744   3.073  12.455 -0.1052 -0.0177 -0.0152
  377MPD2    C3 5691   3.633   3.016  12.509  0.1607  0.1753 -0.3483
  377MPD2    C4 5692   3.601   2.891  12.468  1.1439  0.0354  0.1966
  377MPD2    C5 5693   3.671   2.823  12.377 -0.0301 -0.6575 -0.4129
  377MPD2     H 5694   3.776   3.176  12.465  1.9351 -0.5284 -1.4076
  377MPD2    H1 5695   3.524   2.836  12.520 -1.2666  0.8004 -2.5286
  377MPD2    H2 5696   3.821   2.831  12.228  2.4447  1.1232  0.1532
  377MPD2    H3 5697   3.644   2.723  12.344  0.9927 -0.4417 -1.9246
  377MPD2     N 5698   3.562   3.076  12.618  1.0417 -0.1367  0.4004
  377MPD2    H5 5699   3.482   3.025  12.654  0.0483  1.0284 -0.1477
  377MPD2    N1 5700   3.921   3.067  12.281  0.6007 -0.2912  0.3559
  377MPD2    H7 5701   3.954   3.012  12.202  2.7859 -0.6772  1.5273
  378TMC3    C1 5702   4.172   3.403  12.104  0.2847 -0.7601 -0.3291
  378TMC3    C2 5703   4.095   3.355  12.205 -0.3307 -0.0533 -0.2369
  378TMC3    C3 5704   4.083   3.217  12.222  0.3141 -0.4233 -0.1170
  378TMC3    C4 5705   4.252   3.321  12.032  0.4989 -0.1077 -0.2572
  378TMC3    C5 5706   4.235   3.182  12.050 -0.3375  0.2490  0.3633
  378TMC3    C6 5707   4.150   3.123  12.143 -0.0465 -1.0082 -0.7180
  378TMC3     C 5708   4.129   3.533  12.051 -0.6273 -0.1541  0.1723
  378TMC3     O 5709   4.052   3.603  12.123 -0.5031  0.2086  0.8612
  378TMC3     H 5710   4.030   3.419  12.263 -0.2645 -1.8669  1.8663
  378TMC3    H1 5711   4.339   3.361  11.980  1.5047 -1.5263  0.3188
  378TMC3    H2 5712   4.152   3.017  12.164 -0.3689 -0.0068  4.2145
  378TMC3    C7 5713   4.336   3.094  11.994 -0.1969  0.2403  0.0089
  378TMC3    C8 5714   3.985   3.178  12.315 -0.2543  0.3930  0.5085
  378TMC3    O1 5715   4.346   2.989  12.051 -0.2464 -0.0065 -0.4531
  378TMC3    O2 5716   3.962   3.258  12.409  0.0845 -0.0424  0.2608
  379MPD2     C 5717   4.600   1.836  16.194 -0.4321 -0.8676 -0.5060
  379MPD2    C1 5718   4.500   1.751  16.239  0.4983 -1.1729  0.0854
  379MPD2    C2 5719   4.528   1.686  16.359 -0.0783 -0.8133 -0.1435
  379MPD2    C3 5720   4.656   1.698  16.432  0.3004 -0.0018  0.2337
  379MPD2    C4 5721   0.012   1.776  16.373  0.3930  0.6940 -0.0046
  379MPD2    C5 5722   4.720   1.852  16.264 -0.9502 -0.3971  0.3978
  379MPD2     H 5723   4.463   1.608  16.396 -1.1824  0.1330 -0.1167
  379MPD2    H1 5724   0.105   1.789  16.427 -0.1923 -0.8251  1.3973
  379MPD2    H2 5725   4.593   1.890  16.101  0.3881 -0.8435 -0.5536
  379MPD2    H3 5726   0.061   1.915  16.225 -1.9565 -0.2214 -1.3587
  379MPD2     N 5727   4.686   1.633  16.552 -0.1729 -0.0008 -0.7071
  379MPD2    H5 5728   0.044   1.627  16.584 -0.9007  2.3003  1.9032
  379MPD2    N1 5729   4.384   1.730  16.165  0.0144 -0.8156 -0.7219
  379MPD2    H7 5730   4.377   1.772  16.073  2.6120  2.1552  0.4138
  380TMC3    C1 5731   4.184   1.627  16.102  0.3303 -1.0146 -0.1377
  380TMC3    C2 5732   4.145   1.495  16.096  0.0216  0.1680  0.2960
  380TMC3    C3 5733   4.083   1.455  15.983  0.2419  0.1778  0.7680
  380TMC3    C4 5734   4.156   1.714  16.004 -0.2535 -0.2183 -0.3497
  380TMC3    C5 5735   4.091   1.666  15.896  0.7680 -0.0080  0.4310
  380TMC3    C6 5736   4.050   1.539  15.885  0.0803 -0.0480  0.0023
  380TMC3     C 5737   4.287   1.645  16.199 -0.0901  0.0672 -0.4332
  380TMC3     O 5738   4.266   1.568  16.291  0.1929  0.5569 -0.4558
  380TMC3     H 5739   4.177   1.420  16.167  3.8271  1.0637 -0.4666
  380TMC3    H1 5740   4.189   1.817  16.013  0.4730 -0.5986  1.2688
  380TMC3    H2 5741   4.010   1.511  15.788 -0.3913  0.0430  0.1726
  380TMC3    C7 5742   4.039   1.772  15.807 -0.1885 -0.3853 -0.3070
  380TMC3    C8 5743   4.154   1.336  15.932 -0.5146 -0.6114 -0.1654
  380TMC3    O1 5744   4.020   1.879  15.862 -0.6429 -0.2335 -0.0747
  380TMC3    O2 5745   4.260   1.306  15.992  0.1439 -0.8760  0.2341
  381TMC3    C1 5746   4.019   2.844  16.078  0.2611 -0.1455  0.3178
  381TMC3    C2 5747   4.054   2.978  16.079 -0.7383  0.0269 -0.9450
  381TMC3    C3 5748   4.110   3.032  16.192 -0.1613  0.1299 -0.3628
  381TMC3    C4 5749   4.042   2.762  16.185 -0.2902 -0.8808  0.1981
  381TMC3    C5 5750   4.093   2.819  16.299 -0.3075  0.1894  0.3184
  381TMC3    C6 5751   4.130   2.950  16.301 -0.0749  0.3904  0.0667
  381TMC3     C 5752   3.959   2.789  15.951  0.6333  0.8319  0.8416
  381TMC3     O 5753   3.894   2.874  15.896  0.6448  0.4794  0.6468
  381TMC3     H 5754   4.052   3.031  15.985  1.6627  0.9565 -0.4514
  381TMC3    H1 5755   3.997   2.663  16.191 -0.4990 -0.8527 -0.9365
  381TMC3    H2 5756   4.163   2.992  16.395  0.6788  0.7384 -0.3524
  381TMC3    C7 5757   4.069   2.749  16.428  0.2802  0.5092 -0.5479
  381TMC3    C8 5758   4.223   3.122  16.167  0.0623  0.0876 -0.2412
  381TMC3    O1 5759   4.071   2.624  16.421 -0.6017 -0.1639  0.1153
  381TMC3    O2 5760   4.239   3.148  16.049 -0.3032  0.1403  0.6567
  382MPD2     C 5761   3.519   0.320  17.066 -1.0023 -0.6851  0.0747
  382MPD2    C1 5762   3.412   0.339  17.156  0.1143  0.1117  0.0226
  382MPD2    C2 5763   3.345   0.227  17.198  0.1803  0.5952  0.7095
  382MPD2    C3 5764   3.374   0.098  17.166  0.6705  0.0267  0.4769
  382MPD2    C4 5765   3.483   0.078  17.088 -0.3923 -0.4170  0.4447
  382MPD2    C5 5766   3.550   0.187  17.033 -0.6791 -0.4588  0.3018
  382MPD2     H 5767   3.261   0.233  17.266 -0.8888  0.6547 -0.6153
  382MPD2    H1 5768   3.517   4.720  17.052 -0.0412  0.5373 -1.7332
  382MPD2    H2 5769   3.573   0.397  17.012  1.9260 -1.7679  1.4534
  382MPD2    H3 5770   3.634   0.174  16.966 -1.6077 -0.8025 -0.7815
  382MPD2     N 5771   3.311   4.729  17.233 -0.4072  0.4253 -0.0004
  382MPD2    H5 5772   3.218   0.006  17.270 -1.7459 -0.3541 -3.0847
  382MPD2    N1 5773   3.346   0.464  17.190 -0.5579 -0.1347  0.1138
  382MPD2    H7 5774   3.259   0.458  17.241  0.2378 -0.4884  1.4544
  383TMC3    C1 5775   3.261   4.506  17.270 -0.2923  0.1087  0.2868
  383TMC3    C2 5776   3.140   4.499  17.196  0.1330  0.5453 -0.4630
  383TMC3    C3 5777   3.081   4.381  17.191 -0.4085 -0.0692 -0.1258
  383TMC3    C4 5778   3.310   4.395  17.332 -0.0201 -0.2532  0.0900
  383TMC3    C5 5779   3.238   4.272  17.333  0.3044  0.2662  0.0458
  383TMC3    C6 5780   3.119   4.267  17.259  0.0482  0.0978 -0.3811
  383TMC3     C 5781   3.359   4.601  17.240 -0.2768 -0.3250  0.5615
  383TMC3     O 5782   3.470   4.556  17.210 -0.3937 -0.2359  0.2508
  383TMC3     H 5783   3.088   4.579  17.144 -0.1742 -0.9654 -2.4878
  383TMC3    H1 5784   3.407   4.402  17.379  0.3086 -3.2675 -0.1340
  383TMC3    H2 5785   3.064   4.174  17.264  0.0285  0.1766  0.7354
  383TMC3    C7 5786   3.279   4.148  17.391 -0.5212 -0.5662  0.3367
  383TMC3    C8 5787   2.946   4.376  17.136 -0.1125  0.2374 -0.2428
  383TMC3    O1 5788   3.194   4.063  17.409  0.5630  0.3548 -0.2740
  383TMC3    O2 5789   2.876   4.477  17.137  0.4180  0.2900  0.1506
  384MPD2     C 5790   0.287   1.318  11.885 -0.3589  0.3465 -0.0868
  384MPD2    C1 5791   0.265   1.262  12.009 -0.3542  0.6852 -0.2284
  384MPD2    C2 5792   0.356   1.178  12.065  0.1106  0.6131  0.1078
  384MPD2    C3 5793   0.480   1.149  12.007 -0.6267  0.6212 -0.4305
  384MPD2    C4 5794   0.507   1.215  11.889 -0.2654 -0.0048  0.0260
  384MPD2    C5 5795   0.412   1.291  11.830 -0.1449  0.3589  0.3625
  384MPD2     H 5796   0.336   1.127  12.158 -0.6460  0.2068 -0.2788
  384MPD2    H1 5797   0.600   1.207  11.834 -1.9252 -0.1553 -2.7522
  384MPD2    H2 5798   0.225   1.396  11.842 -1.8624 -0.9970 -0.3587
  384MPD2    H3 5799   0.439   1.341  11.737 -1.1374  0.0047 -0.1160
  384MPD2     N 5800   0.551   1.038  12.056  0.0003 -0.0461 -0.1001
  384MPD2    H5 5801   0.534   0.996  12.146 -1.9591  1.5939  0.3015
  384MPD2    N1 5802   0.147   1.287  12.085  0.0492  0.2321 -0.0096
  384MPD2    H7 5803   0.139   1.224  12.164 -2.8747  1.2010  0.4702
  385TMC3    C1 5804   0.666   0.849  12.060 -0.4963 -0.6778  0.1235
  385TMC3    C2 5805   0.630   0.739  11.985 -0.6555  0.5735 -0.1517
  385TMC3    C3 5806   0.560   0.637  12.044  0.4153 -0.2822 -0.0075
  385TMC3    C4 5807   0.641   0.851  12.196  0.4720 -0.1881 -0.6931
  385TMC3    C5 5808   0.568   0.754  12.253 -0.3934 -0.3312  0.2109
  385TMC3    C6 5809   0.524   0.643  12.178 -0.2213  0.6353  0.5201
  385TMC3     C 5810   0.658   0.974  11.991  0.0494 -0.1489 -0.5382
  385TMC3     O 5811   0.715   0.991  11.885  0.0886 -0.4086  0.4496
  385TMC3     H 5812   0.657   0.738  11.880  0.0279  1.8415  0.0112
  385TMC3    H1 5813   0.678   0.930  12.259 -1.4521  0.2035 -0.0626
  385TMC3    H2 5814   0.461   0.564  12.218  0.1076 -0.6177 -1.4204
  385TMC3    C7 5815   0.457   0.813  12.332  0.1612 -0.9006 -0.0864
  385TMC3    C8 5816   0.578   0.503  11.998 -0.0570 -0.1428 -0.0638
  385TMC3    O1 5817   0.437   0.929  12.295  0.2598 -0.3075 -0.2297
  385TMC3    O2 5818   0.589   0.406  12.074  0.1403 -0.0920  0.3911
  386TMC3    C1 5819   0.584   2.970  11.617 -0.0794  0.0337  0.0992
  386TMC3    C2 5820   0.560   2.913  11.493  0.4600 -0.0879 -0.0123
  386TMC3    C3 5821   0.437   2.936  11.441 -0.3926 -0.0089 -0.8726
  386TMC3    C4 5822   0.485   3.033  11.691  0.0633  0.5861  0.3680
  386TMC3    C5 5823   0.369   3.064  11.628  0.3683  0.4726 -0.2860
  386TMC3    C6 5824   0.342   3.019  11.502 -0.1560 -0.1359  0.2219
  386TMC3     C 5825   0.710   2.965  11.689  0.1048  0.1467  0.0793
  386TMC3     O 5826   0.726   3.048  11.777  0.4088 -0.0044 -0.6600
  386TMC3     H 5827   0.634   2.852  11.443 -1.0133 -1.5883 -0.3666
  386TMC3    H1 5828   0.504   3.068  11.791 -1.0927  0.1789  0.7365
  386TMC3    H2 5829   0.244   3.041  11.462  0.2919  1.2401 -0.1047
  386TMC3    C7 5830   0.266   3.126  11.708  0.0055 -0.4796  0.6183
  386TMC3    C8 5831   0.422   2.946  11.301  0.5470  0.7050 -0.4131
  386TMC3    O1 5832   0.268   3.093  11.828 -0.0733  0.5296  0.5512
  386TMC3    O2 5833   0.324   3.006  11.255  0.1033 -0.3237  0.3969
  387MPD2     C 5834   2.089   3.696   9.860 -0.1719  0.1567 -0.5644
  387MPD2    C1 5835   2.185   3.700   9.957  0.0827 -0.4403 -0.8814
  387MPD2    C2 5836   2.237   3.587  10.015  0.0512 -0.0040 -0.2768
  387MPD2    C3 5837   2.189   3.466   9.974 -1.1424  0.2222  0.3264
  387MPD2    C4 5838   2.096   3.459   9.879 -0.7162 -0.2892 -0.0991
  387MPD2    C5 5839   2.038   3.574   9.820 -0.3698  0.2490  0.1494
  387MPD2     H 5840   2.320   3.592  10.085  0.5635 -1.7080 -0.7518
  387MPD2    H1 5841   2.070   3.364   9.834 -2.5547 -0.6896  1.7665
  387MPD2    H2 5842   2.040   3.780   9.813  0.7667 -0.0933 -1.9901
  387MPD2    H3 5843   1.972   3.559   9.735  2.0192  0.8644 -1.8008
  387MPD2     N 5844   2.256   3.353  10.022  0.1446  0.3822  0.9123
  387MPD2    H5 5845   2.336   3.364  10.083 -0.5944  0.2565  1.9189
  387MPD2    N1 5846   2.256   3.821   9.984  0.0148  0.2081  0.1059
  387MPD2    H7 5847   2.333   3.804  10.048  0.1239 -1.2055 -0.4047
  388TMC3    C1 5848   2.367   4.008   9.949  0.3738 -0.4739 -1.6255
  388TMC3    C2 5849   2.372   4.146   9.957 -0.2918  0.3906 -0.6067
  388TMC3    C3 5850   2.497   4.196   9.982 -1.0360  0.0359 -0.0216
  388TMC3    C4 5851   2.478   3.931   9.931 -0.0540  0.2639 -0.2028
  388TMC3    C5 5852   2.600   3.989   9.960 -0.2284  0.1995  0.3676
  388TMC3    C6 5853   2.606   4.125   9.981  0.6151  0.4013  0.4912
  388TMC3     C 5854   2.246   3.946   9.928  0.2144 -0.7494 -0.0845
  388TMC3     O 5855   2.161   3.995   9.858 -0.2468  0.1578 -0.2306
  388TMC3     H 5856   2.275   4.195   9.945 -0.8373 -0.4541  0.3353
  388TMC3    H1 5857   2.474   3.825   9.906 -0.5421 -0.4382  2.9120
  388TMC3    H2 5858   2.703   4.173   9.985 -0.7274  3.0182  1.2646
  388TMC3    C7 5859   2.721   3.910   9.956  0.4258  0.0029 -0.2749
  388TMC3    C8 5860   2.494   4.333   9.971 -0.4949 -0.1172  0.1084
  388TMC3    O1 5861   2.808   3.947  10.034  0.0913 -1.0057  0.2765
  388TMC3    O2 5862   2.392   4.384   9.929  0.3622  0.1477  0.1558
  389MPD2     C 5863   1.996   1.936  10.960  0.3147 -0.0260 -0.0786
  389MPD2    C1 5864   2.008   1.829  10.887  0.6013 -0.3483  0.9771
  389MPD2    C2 5865   1.976   1.702  10.935 -0.0428 -0.1541 -0.4814
  389MPD2    C3 5866   1.935   1.703  11.069  0.2585 -0.0477 -0.2692
  389MPD2    C4 5867   1.948   1.815  11.149 -0.3689 -0.4538  0.0299
  389MPD2    C5 5868   1.974   1.940  11.092 -0.0035 -0.1441 -0.7983
  389MPD2     H 5869   1.966   1.612  10.876  1.8172  0.0026 -1.0441
  389MPD2    H1 5870   1.913   1.809  11.252 -0.5302 -0.1062 -0.0031
  389MPD2    H2 5871   2.017   2.030  10.910 -0.1425 -0.3630 -0.9060
  389MPD2    H3 5872   1.982   2.032  11.148  1.9078  0.3021 -1.7806
  389MPD2     N 5873   1.869   1.597  11.132 -0.5515 -0.6476  0.0750
  389MPD2    H5 5874   1.843   1.619  11.227 -4.2497 -0.1952 -1.0353
  389MPD2    N1 5875   2.055   1.839  10.751  0.1178 -0.3716 -0.2550
  389MPD2    H7 5876   2.081   1.932  10.719 -0.6799 -0.6934 -1.8353
  390TMC3    C1 5877   1.747   1.400  11.167  0.0731 -0.6077  0.1142
  390TMC3    C2 5878   1.758   1.427  11.304  0.2925  0.6801  0.0750
  390TMC3    C3 5879   1.647   1.420  11.383 -0.4776 -0.8063  0.0153
  390TMC3    C4 5880   1.627   1.368  11.115 -0.4575 -0.2533  0.3501
  390TMC3    C5 5881   1.519   1.361  11.194  0.9067 -1.0223  0.0925
  390TMC3    C6 5882   1.526   1.391  11.326  1.0595 -0.3915 -0.3060
  390TMC3     C 5883   1.836   1.471  11.080 -0.2305 -0.4588 -0.1196
  390TMC3     O 5884   1.850   1.429  10.967  0.0163 -0.3495 -0.0431
  390TMC3     H 5885   1.850   1.456  11.353 -0.1914  0.0143  1.3754
  390TMC3    H1 5886   1.602   1.364  11.010 -1.6630  0.6340  0.6033
  390TMC3    H2 5887   1.449   1.371  11.400  0.5677  1.5253 -0.3044
  390TMC3    C7 5888   1.423   1.265  11.160 -0.1522  0.0419  0.5361
  390TMC3    C8 5889   1.669   1.326  11.486  0.6128  0.2940 -0.0801
  390TMC3    O1 5890   1.315   1.274  11.221  0.0469  0.6685 -1.0188
  390TMC3    O2 5891   1.688   1.207  11.452 -0.7286 -0.0670  0.2680
  391MPD2     C 5892   0.722   3.180  11.210  0.4642  0.1267 -0.7663
  391MPD2    C1 5893   0.845   3.239  11.205  0.4340 -0.3355  0.0515
  391MPD2    C2 5894   0.903   3.261  11.085  0.7468  0.5388  0.1282
  391MPD2    C3 5895   0.841   3.229  10.963  0.3401  0.0430 -0.5637
  391MPD2    C4 5896   0.714   3.173  10.972  0.0207  0.3672  0.3973
  391MPD2    C5 5897   0.661   3.144  11.097 -0.1380 -1.2189 -0.1721
  391MPD2     H 5898   1.000   3.307  11.074  1.1192 -0.5677 -1.3266
  391MPD2    H1 5899   0.646   3.163  10.888  1.2609 -1.4593 -0.3669
  391MPD2    H2 5900   0.672   3.168  11.306  0.1312 -0.2049 -0.9835
  391MPD2    H3 5901   0.557   3.112  11.095 -0.0789 -1.5160  1.8886
  391MPD2     N 5902   0.910   3.248  10.839  0.4413 -0.4084 -0.0789
  391MPD2    H5 5903   1.004   3.286  10.846  1.4160 -2.3254 -2.6904
  391MPD2    N1 5904   0.910   3.291  11.318  0.1159  1.0381 -0.0121
  391MPD2    H7 5905   0.979   3.361  11.294 -0.5649  2.2443  1.5488
  392TMC3    C1 5906   0.918   3.296  10.620  0.0545 -0.1898 -0.4291
  392TMC3    C2 5907   0.848   3.319  10.504 -0.1391 -0.0576  0.0348
  392TMC3    C3 5908   0.875   3.434  10.430  0.2218 -0.2311 -0.1710
  392TMC3    C4 5909   1.030   3.363  10.641  0.5608 -0.2312 -0.1358
  392TMC3    C5 5910   1.069   3.468  10.554  0.0412 -0.5352  0.1287
  392TMC3    C6 5911   0.986   3.510  10.447  0.3156 -0.0754 -0.3518
  392TMC3     C 5912   0.865   3.206  10.719 -0.5133 -0.2736 -0.1930
  392TMC3     O 5913   0.769   3.137  10.693 -0.0329 -0.0474 -0.1011
  392TMC3     H 5914   0.767   3.253  10.473 -1.7341  1.1750  1.5792
  392TMC3    H1 5915   1.090   3.351  10.730 -0.6425 -1.1155  0.5663
  392TMC3    H2 5916   1.002   3.594  10.380  3.7592  1.3952  2.2989
  392TMC3    C7 5917   1.201   3.528  10.564 -0.1773  0.4116  0.5350
  392TMC3    C8 5918   0.813   3.435  10.303  0.0269  0.3416 -0.5662
  392TMC3    O1 5919   1.240   3.515  10.679  0.1671 -0.4573  0.1884
  392TMC3    O2 5920   0.774   3.327  10.262 -0.8067 -0.3973 -0.2675
  393TMC3    C1 5921   0.443   0.869  10.745  0.0551  0.2394 -0.5294
  393TMC3    C2 5922   0.365   0.815  10.853  0.4176 -0.9425 -0.3515
  393TMC3    C3 5923   0.412   0.705  10.912 -0.0369  0.4329 -0.4524
  393TMC3    C4 5924   0.566   0.813  10.712 -0.2368 -0.4798 -0.1796
  393TMC3    C5 5925   0.604   0.700  10.776  0.2481  1.0177  0.0377
  393TMC3    C6 5926   0.522   0.639  10.874 -0.0550 -0.0773  0.4311
  393TMC3     C 5927   0.397   0.981  10.670  0.4191 -0.1607 -0.6406
  393TMC3     O 5928   0.274   0.991  10.657  0.0019  0.0544  0.5956
  393TMC3     H 5929   0.273   0.860  10.887  1.9669  0.8741  1.4224
  393TMC3    H1 5930   0.606   0.840  10.615 -0.2827  0.4040  0.0427
  393TMC3    H2 5931   0.560   0.554  10.931  2.4936  2.2116  2.1351
  393TMC3    C7 5932   0.689   0.607  10.710 -0.6317 -0.5323  0.2714
  393TMC3    C8 5933   0.385   0.686  11.050 -0.3231  0.2621  0.1173
  393TMC3    O1 5934   0.667   0.487  10.728 -0.1993  0.0953  0.0803
  393TMC3    O2 5935   0.415   0.581  11.103 -0.2103  0.2120  0.2970
  394TMC3    C1 5936   2.088   1.792  10.519  0.0342  0.4987 -0.9425
  394TMC3    C2 5937   2.019   1.751  10.409 -0.0791 -0.3989  0.0441
  394TMC3    C3 5938   2.029   1.831  10.297 -0.1571 -0.0149 -0.0723
  394TMC3    C4 5939   2.167   1.903  10.514  0.7017  0.6107  0.1228
  394TMC3    C5 5940   2.167   1.989  10.408 -0.0925 -0.1894  0.5685
  394TMC3    C6 5941   2.089   1.956  10.296  0.5464  0.0587 -0.7335
  394TMC3     C 5942   2.049   1.740  10.647  0.2442  0.3016 -0.4622
  394TMC3     O 5943   2.003   1.629  10.649 -0.0508 -0.1323 -0.7828
  394TMC3     H 5944   1.943   1.673  10.410  1.2619 -1.7460 -2.3101
  394TMC3    H1 5945   2.220   1.927  10.606 -0.9419  0.7612  1.0416
  394TMC3    H2 5946   2.083   2.017  10.207  2.0166 -1.5480 -1.9496
  394TMC3    C7 5947   2.275   2.087  10.391 -0.4184  0.0698 -0.1164
  394TMC3    C8 5948   1.950   1.790  10.178  0.3644  0.0757  0.7475
  394TMC3    O1 5949   2.265   2.173  10.303  0.1311  0.2184  0.1880
  394TMC3    O2 5950   1.933   1.868  10.089 -0.1326  0.2627 -0.1438
  395TMC3    C1 5951   2.065   3.719  14.287 -0.6244  0.0456 -0.5069
  395TMC3    C2 5952   1.988   3.718  14.168 -0.5856 -0.4359 -0.3543
  395TMC3    C3 5953   2.039   3.785  14.060 -0.5276  0.2028  0.1077
  395TMC3    C4 5954   2.181   3.791  14.295  0.2394  0.0175 -0.5062
  395TMC3    C5 5955   2.216   3.864  14.187 -0.4433 -0.1354 -0.1755
  395TMC3    C6 5956   2.148   3.868  14.072 -0.0228  0.5863 -0.4689
  395TMC3     C 5957   2.007   3.677  14.415  0.4943 -0.2340  0.2648
  395TMC3     O 5958   2.038   3.727  14.524 -0.4117 -0.1880  0.4369
  395TMC3     H 5959   1.890   3.672  14.166 -0.4075 -0.9012  1.3029
  395TMC3    H1 5960   2.225   3.794  14.394 -1.4910 -0.9088  0.2847
  395TMC3    H2 5961   2.190   3.918  13.985 -0.4885 -0.5232 -1.3388
  395TMC3    C7 5962   2.287   3.986  14.225 -0.2192 -0.1244 -0.1651
  395TMC3    C8 5963   1.985   3.762  13.932  0.0169 -0.0228  0.4550
  395TMC3    O1 5964   2.339   3.986  14.336  0.0668  0.1153 -0.1154
  395TMC3    O2 5965   2.020   3.840  13.840  0.8891  0.4397  0.2260
  396MPD2     C 5966   1.681   4.534  17.189 -0.7527 -0.2776 -0.1931
  396MPD2    C1 5967   1.764   4.631  17.240  1.0959 -0.3789  0.3996
  396MPD2    C2 5968   1.759   0.019  17.183 -0.0924  1.7159 -0.5796
  396MPD2    C3 5969   1.676   0.037  17.074  0.1513  0.4238  0.1414
  396MPD2    C4 5970   1.604   4.677  17.017 -0.0210  0.0455  0.2636
  396MPD2    C5 5971   1.603   4.550  17.075  0.1159  0.5800  0.6655
  396MPD2     H 5972   1.809   0.107  17.222  0.7025  0.0797  2.0996
  396MPD2    H1 5973   1.543   4.680  16.927 -1.5995  0.4375  1.3623
  396MPD2    H2 5974   1.680   4.430  17.219  0.8675 -0.7169 -1.5933
  396MPD2    H3 5975   1.553   4.464  17.032 -0.2627  1.7144 -1.1406
  396MPD2     N 5976   1.673   0.171  17.026 -0.0598  0.4956  0.5577
  396MPD2    H5 5977   1.737   0.239  17.064 -1.7300  1.5467  1.4399
  396MPD2    N1 5978   1.848   4.614  17.351  0.3692 -0.6371 -0.1469
  396MPD2    H7 5979   1.903   4.698  17.368 -1.9139  0.7784  0.2584
  397TMC3    C1 5980   1.994   4.478  17.475  0.2081 -0.1527 -0.3142
  397TMC3    C2 5981   2.086   4.519  17.379  0.6008  0.0083 -0.3699
  397TMC3    C3 5982   2.148   4.422  17.308  0.3458 -1.1949 -0.0809
  397TMC3    C4 5983   1.996   4.351  17.521  0.3449  0.1352 -0.2402
  397TMC3    C5 5984   2.086   4.266  17.466  0.1026  0.0900  0.1503
  397TMC3    C6 5985   2.151   4.294  17.346  0.3420  0.2074 -0.0817
  397TMC3     C 5986   1.859   4.502  17.426  0.7343 -0.5281  0.2539
  397TMC3     O 5987   1.777   4.409  17.434 -0.1195 -0.9722 -0.3020
  397TMC3     H 5988   2.090   4.619  17.337  0.2959 -0.1517 -0.7679
  397TMC3    H1 5989   1.926   4.327  17.600  1.0480  0.0006  0.3463
  397TMC3    H2 5990   2.186   4.215  17.281 -1.9180 -0.8742  0.0227
  397TMC3    C7 5991   2.091   4.132  17.526  0.0187 -0.3500  0.8470
  397TMC3    C8 5992   2.143   4.460  17.165 -0.1629  0.7474 -0.3164
  397TMC3    O1 5993   2.173   4.055  17.479 -0.3330  0.3558 -0.1156
  397TMC3    O2 5994   2.186   4.572  17.133  0.0772 -0.1792 -0.2392
  398MPD2     C 5995   4.292   1.522   0.136  0.0984  0.0220 -0.1813
  398MPD2    C1 5996   4.408   1.449   0.171  0.7232 -0.5399 -0.2676
  398MPD2    C2 5997   4.524   1.519   0.206 -0.3980 -0.4982 -0.0366
  398MPD2    C3 5998   4.518   1.654   0.218  0.1835  0.1860 -0.4483
  398MPD2    C4 5999   4.406   1.724   0.198  0.7587 -0.4152 -0.1767
  398MPD2    C5 6000   4.298   1.658   0.148 -0.2273  0.2535  0.5655
  398MPD2     H 6001   4.616   1.465   0.224  1.5374  2.9287  0.4031
  398MPD2    H1 6002   4.392   1.830   0.218  1.1303 -0.0567 -1.8243
  398MPD2    H2 6003   4.198   1.475   0.110 -0.7042  3.0616 -2.7450
  398MPD2    H3 6004   4.206   1.711   0.126 -0.2652 -1.0679 -2.5019
  398MPD2     N 6005   4.649   1.713   0.236 -0.8195  0.3120  0.3429
  398MPD2    H5 6006   4.731   1.655   0.251  0.6776  1.7364 -2.3413
  398MPD2    N1 6007   4.415   1.304   0.180 -0.8307 -0.1352 -0.4353
  398MPD2    H7 6008   4.496   1.262   0.223 -1.4757 -0.3010  0.6403
  399TMC3    C1 6009   4.342   1.085   0.205 -0.0640  0.2011  0.5329
  399TMC3    C2 6010   4.454   1.071   0.285 -0.5106 -0.8582 -0.2594
  399TMC3    C3 6011   4.450   0.968   0.381 -0.4647 -0.0378 -0.6772
  399TMC3    C4 6012   4.240   0.997   0.211  0.3343  0.3186  0.7887
  399TMC3    C5 6013   4.242   0.901   0.309 -0.2127  0.0120 -0.0325
  399TMC3    C6 6014   4.349   0.878   0.391  0.2770  0.7596 -0.2530
  399TMC3     C 6015   4.316   1.214   0.138 -0.0684 -0.3972  0.2505
  399TMC3     O 6016   4.204   1.229   0.091 -0.3643 -0.6878  0.0277
  399TMC3     H 6017   4.549   1.122   0.275 -0.6614 -0.0598  2.3094
  399TMC3    H1 6018   4.162   1.014   0.138  1.4857  2.6603  0.1016
  399TMC3    H2 6019   4.353   0.802   0.469 -1.3327  1.8417  0.8998
  399TMC3    C7 6020   4.153   0.786   0.283  0.0542  0.5107 -0.1630
  399TMC3    C8 6021   4.582   0.936   0.439  0.1345  0.0297 -0.3711
  399TMC3    O1 6022   4.197   0.686   0.326  0.0340  0.5782 -0.1294
  399TMC3    O2 6023   4.659   1.034   0.447  0.0000  0.4400 -0.0680
  400TMC3    C1 6024   3.058   4.246  16.723 -0.2834 -0.3397 -0.2562
  400TMC3    C2 6025   2.969   4.182  16.645  0.0803  0.0083 -1.4048
  400TMC3    C3 6026   2.863   4.265  16.613 -0.4027 -0.4075  0.0432
  400TMC3    C4 6027   3.063   4.376  16.760  0.0540 -0.4410  0.2208
  400TMC3    C5 6028   2.958   4.450  16.721 -0.0604 -0.3618 -0.3211
  400TMC3    C6 6029   2.859   4.396  16.644 -0.1091  0.0229  0.0439
  400TMC3     C 6030   3.157   4.157  16.787  0.1132  0.3535 -0.1239
  400TMC3     O 6031   3.137   4.036  16.788  0.4876 -0.0768 -0.3172
  400TMC3     H 6032   2.983   4.077  16.623 -1.6962 -1.1264  2.9460
  400TMC3    H1 6033   3.122   4.405  16.846  2.1177 -2.1314 -0.6061
  400TMC3    H2 6034   2.771   4.450  16.612 -1.5889 -2.7447 -0.5198
  400TMC3    C7 6035   2.915   4.553  16.802 -0.3310 -0.5278  0.2830
  400TMC3    C8 6036   2.767   4.213  16.519  0.1682  0.0717  0.3424
  400TMC3    O1 6037   2.796   4.553  16.827 -0.5352  0.0668  0.2885
  400TMC3    O2 6038   2.706   4.289  16.445  0.3098 -0.0949 -0.0663
  401MPD2     C 6039   2.619   3.063   1.580  0.0830  0.7671  0.1170
  401MPD2    C1 6040   2.607   3.007   1.452 -0.1857 -0.2691 -0.4222
  401MPD2    C2 6041   2.491   2.956   1.411  0.7816 -0.4257  0.3188
  401MPD2    C3 6042   2.386   2.949   1.494  0.0508 -0.2934  0.9716
  401MPD2    C4 6043   2.388   3.016   1.615 -0.9160 -0.0171 -0.7879
  401MPD2    C5 6044   2.501   3.084   1.652  1.0563 -0.2307 -0.2272
  401MPD2     H 6045   2.484   2.901   1.318 -0.1983 -1.4370  0.9977
  401MPD2    H1 6046   2.304   3.011   1.684 -0.1188 -1.0287  0.1227
  401MPD2    H2 6047   2.713   3.102   1.618  0.5189  0.1837 -0.3739
  401MPD2    H3 6048   2.497   3.135   1.748  0.2859  1.6149 -1.2247
  401MPD2     N 6049   2.276   2.868   1.456 -0.0196  0.6552  0.6486
  401MPD2    H5 6050   2.281   2.822   1.365 -0.2930 -0.9719  1.4560
  401MPD2    N1 6051   2.719   2.987   1.366  0.0037  0.5389 -0.6700
  401MPD2    H7 6052   2.697   2.968   1.269  0.1981 -1.8783 -0.2478
  402TMC3    C1 6053   2.076   2.746   1.471 -0.8117 -0.3018 -0.1757
  402TMC3    C2 6054   2.058   2.625   1.533 -0.1430 -0.9073  0.8229
  402TMC3    C3 6055   2.020   2.514   1.462 -0.3227 -0.1367  1.0553
  402TMC3    C4 6056   2.071   2.747   1.335  1.0058  0.9078  0.3155
  402TMC3    C5 6057   2.033   2.637   1.264 -0.0665 -0.1024  0.3084
  402TMC3    C6 6058   2.015   2.517   1.325 -0.3770 -0.2173 -0.2032
  402TMC3     C 6059   2.162   2.842   1.531  0.2380 -1.0507  0.1200
  402TMC3     O 6060   2.149   2.857   1.652  0.3681 -0.2472 -0.0787
  402TMC3     H 6061   2.084   2.609   1.637  3.1131  1.1899  0.3387
  402TMC3    H1 6062   2.087   2.837   1.277  0.6708  0.8648  0.1581
  402TMC3    H2 6063   1.982   2.430   1.269 -1.9498  0.9896 -1.1642
  402TMC3    C7 6064   2.046   2.630   1.122  0.6943 -0.1962  0.4469
  402TMC3    C8 6065   2.052   2.382   1.513  0.0123 -0.1832 -0.7029
  402TMC3    O1 6066   2.081   2.731   1.066 -0.4505 -0.4449  0.7562
  402TMC3    O2 6067   2.068   2.298   1.424 -0.0011 -0.3550 -0.7630
  403MPD2     C 6068   4.559   0.794  13.180  0.3887 -0.0459 -0.4662
  403MPD2    C1 6069   4.478   0.860  13.267 -0.4466 -0.0846  0.1387
  403MPD2    C2 6070   4.527   0.881  13.395 -0.1074 -0.5186  0.2560
  403MPD2    C3 6071   4.647   0.836  13.440 -0.0595  0.1164  0.1744
  403MPD2    C4 6072   4.729   0.770  13.346 -0.1384 -0.3350  0.3176
  403MPD2    C5 6073   4.690   0.755  13.211 -0.0191 -0.5664 -0.1580
  403MPD2     H 6074   4.471   0.942  13.466  1.6078  3.4970 -1.8520
  403MPD2    H1 6075   0.086   0.730  13.377 -0.7059 -1.8287  0.1290
  403MPD2    H2 6076   4.519   0.760  13.084  0.1810 -0.4001 -0.2558
  403MPD2    H3 6077   0.017   0.699  13.146  0.7012 -1.3491  1.2200
  403MPD2     N 6078   4.690   0.868  13.574  0.6769 -0.0951 -0.2673
  403MPD2    H5 6079   4.630   0.911  13.644  1.0774  0.3537 -0.1983
  403MPD2    N1 6080   4.348   0.887  13.223  0.5221 -0.5497 -0.4718
  403MPD2    H7 6081   4.320   0.862  13.129  0.4941 -2.7214  0.1331
  404TMC3    C1 6082   4.117   0.905  13.245 -0.2595  0.0979  0.9384
  404TMC3    C2 6083   4.060   0.801  13.313  0.1776 -0.0303 -0.0278
  404TMC3    C3 6084   4.038   0.684  13.251  0.0934  0.0824  0.4800
  404TMC3    C4 6085   4.136   0.905  13.111 -0.1869 -0.0406 -0.1795
  404TMC3    C5 6086   4.105   0.784  13.050 -0.5685  0.4955  0.4379
  404TMC3    C6 6087   4.063   0.671  13.116  0.1318  0.1338 -0.5181
  404TMC3     C 6088   4.246   0.928  13.309 -0.4354  0.3181 -0.6897
  404TMC3     O 6089   4.248   0.951  13.426 -0.1850  0.2298 -0.4322
  404TMC3     H 6090   4.037   0.812  13.418 -1.0825 -1.6122 -0.1328
  404TMC3    H1 6091   4.192   0.982  13.059  0.5667  0.0696  0.7858
  404TMC3    H2 6092   4.055   0.574  13.068 -0.1117  0.2085 -0.6336
  404TMC3    C7 6093   4.175   0.760  12.928 -0.4817  0.2631 -0.3253
  404TMC3    C8 6094   4.091   0.574  13.321  0.3779 -0.0887  0.5693
  404TMC3    O1 6095   4.287   0.810  12.915 -0.2180  0.3361  0.0875
  404TMC3    O2 6096   4.156   0.494  13.259 -0.5000  0.7303  0.8763
  405MPD2     C 6097   0.064   1.693  15.167 -0.0185 -0.3009  0.3344
  405MPD2    C1 6098   0.067   1.664  15.031 -0.1024  0.1128  0.1618
  405MPD2    C2 6099   0.004   1.742  14.935  0.2155  0.2675  0.2511
  405MPD2    C3 6100   4.673   1.853  14.970  0.7003 -0.2014  0.4322
  405MPD2    C4 6101   4.666   1.885  15.106  0.3765  0.2701 -0.7121
  405MPD2    C5 6102   4.728   1.807  15.202 -0.3021 -0.8421  0.1609
  405MPD2     H 6103   4.735   1.709  14.832  0.4331  1.1855 -0.0527
  405MPD2    H1 6104   4.613   1.971  15.146  1.2606  0.9084 -0.9397
  405MPD2    H2 6105   0.114   1.640  15.247  0.2805  0.0907  0.4092
  405MPD2    H3 6106   4.721   1.840  15.305  0.7602 -1.1703  0.3347
  405MPD2     N 6107   4.606   1.921  14.869 -0.0694 -0.7583  0.0516
  405MPD2    H5 6108   4.628   1.882  14.778 -2.5286  0.1347 -0.9403
  405MPD2    N1 6109   0.121   1.533  15.001 -0.5539  0.2680 -0.0373
  405MPD2    H7 6110   0.166   1.487  15.081 -0.6164 -1.6178 -1.0936
  406TMC3    C1 6111   4.341   2.140  14.583 -0.8350  0.7768  0.6748
  406TMC3    C2 6112   4.328   2.033  14.502  0.0221  0.2963  0.5724
  406TMC3    C3 6113   4.366   1.921  14.565  0.3355  0.8361 -0.2344
  406TMC3    C4 6114   4.389   2.132  14.710  0.6124  0.1325 -0.7326
  406TMC3    C5 6115   4.429   2.016  14.766 -0.0507  0.9805  0.0151
  406TMC3    C6 6116   4.412   1.901  14.695  0.6587  0.3250  1.0944
  406TMC3     C 6117   4.270   2.265  14.545  0.3859  0.1794 -0.3413
  406TMC3     O 6118   4.287   2.364  14.622 -0.3119  0.2581  0.7904
  406TMC3     H 6119   4.310   2.033  14.395  3.0352  1.6640  0.0648
  406TMC3    H1 6120   4.385   2.223  14.769  0.4604  0.8826 -1.9011
  406TMC3    H2 6121   4.421   1.802  14.738  0.9758 -0.3112 -0.4343
  406TMC3    C7 6122   4.505   2.011  14.886 -0.5549 -0.1054 -0.2677
  406TMC3    C8 6123   4.357   1.802  14.487  0.4625  0.7097 -0.5364
  406TMC3    O1 6124   4.473   2.071  14.991  0.6462 -0.1552 -0.4296
  406TMC3    O2 6125   4.265   1.783  14.408 -0.5049 -0.5592 -0.6049
  407MPD2     C 6126   1.681   3.299  10.038  0.2312  0.5975  0.1943
  407MPD2    C1 6127   1.816   3.262  10.024  0.4767  0.2558  0.2776
  407MPD2    C2 6128   1.896   3.296  10.135  0.3721  0.6442  0.8660
  407MPD2    C3 6129   1.845   3.379  10.239 -0.3154 -0.2808  0.0230
  407MPD2    C4 6130   1.712   3.416  10.243 -0.2676 -0.3699  0.0895
  407MPD2    C5 6131   1.629   3.372  10.148 -0.1854  0.3757  0.2685
  407MPD2     H 6132   1.999   3.262  10.136  0.3013  0.4252  0.3931
  407MPD2    H1 6133   1.680   3.475  10.329 -0.0837 -1.6093  1.0119
  407MPD2    H2 6134   1.616   3.273   9.956  0.3707  1.3071 -0.1458
  407MPD2    H3 6135   1.526   3.404  10.142 -1.0195 -2.5060 -0.2547
  407MPD2     N 6136   1.923   3.429  10.344  0.4688  0.0084  0.2398
  407MPD2    H5 6137   1.876   3.494  10.406 -0.4216 -1.5401  1.1921
  407MPD2    N1 6138   1.875   3.203   9.908  0.1858  0.2572  0.0595
  407MPD2    H7 6139   1.971   3.169   9.910  0.9142  2.3617  1.0840
  408TMC3    C1 6140   1.905   3.184   9.672 -0.0264  0.0382 -0.0829
  408TMC3    C2 6141   2.011   3.098   9.697 -0.4055 -0.5953  0.6525
  408TMC3    C3 6142   2.124   3.126   9.622 -0.6215 -0.6089 -0.3789
  408TMC3    C4 6143   1.914   3.290   9.585  0.0015 -0.8015  0.2138
  408TMC3    C5 6144   2.032   3.317   9.522 -0.3832  0.1419  0.1085
  408TMC3    C6 6145   2.142   3.239   9.541 -0.2894 -0.1772  0.1439
  408TMC3     C 6146   1.816   3.207   9.782 -0.1176 -0.0301  0.5536
  408TMC3     O 6147   1.711   3.263   9.760 -0.0600 -0.0234  0.5656
  408TMC3     H 6148   2.000   3.009   9.757 -0.1200 -0.8727  0.2942
  408TMC3    H1 6149   1.831   3.359   9.595 -0.5060 -1.3148 -0.4290
  408TMC3    H2 6150   2.232   3.250   9.481 -0.4496 -1.3834 -0.3096
  408TMC3    C7 6151   2.048   3.449   9.461 -0.7342  0.1074 -0.2754
  408TMC3    C8 6152   2.217   3.012   9.599 -0.2737  0.9067  0.2850
  408TMC3    O1 6153   2.160   3.494   9.477  0.1589  0.0315 -0.5826
  408TMC3    O2 6154   2.166   2.902   9.596  0.6258  0.5119  0.0259
  409MPD2     C 6155   1.772   3.862  16.409  0.3134 -0.2227 -0.3000
  409MPD2    C1 6156   1.842   3.840  16.527  0.2028 -0.4232  1.0193
  409MPD2    C2 6157   1.918   3.944  16.574 -0.5465  0.0600 -0.2010
  409MPD2    C3 6158   1.919   4.073  16.517  1.0979 -1.6885  0.4935
  409MPD2    C4 6159   1.844   4.090  16.399  0.1224 -0.4883  1.0193
  409MPD2    C5 6160   1.784   3.981  16.341 -0.1485 -0.1458  0.2397
  409MPD2     H 6161   1.979   3.927  16.661  0.2713 -1.8941 -1.1553
  409MPD2    H1 6162   1.848   4.191  16.360 -2.6070  0.2025  2.5431
  409MPD2    H2 6163   1.717   3.786  16.356 -2.3687  1.6737 -0.2570
  409MPD2    H3 6164   1.727   3.983  16.249 -1.7131  0.1976  1.2201
  409MPD2     N 6165   1.986   4.186  16.566 -0.0467 -0.5992  0.0477
  409MPD2    H5 6166   1.976   4.277  16.521  0.7855 -1.1414 -1.2385
  409MPD2    N1 6167   1.845   3.715  16.594  0.2473 -0.0205  0.2629
  409MPD2    H7 6168   1.884   3.712  16.688 -0.3564 -1.1095  0.4772
  410TMC3    C1 6169   2.138   4.303  16.704  0.0885  0.4477 -0.0102
  410TMC3    C2 6170   2.228   4.314  16.801  0.0032  0.6657  0.9183
  410TMC3    C3 6171   2.303   4.422  16.814  0.1173 -0.2876 -0.5196
  410TMC3    C4 6172   2.126   4.404  16.612  0.3719 -0.1120  0.3712
  410TMC3    C5 6173   2.201   4.518  16.633 -0.3094 -0.5823 -0.6330
  410TMC3    C6 6174   2.287   4.531  16.739  0.6056 -0.0587 -0.0867
  410TMC3     C 6175   2.058   4.178  16.687  0.2113 -0.5332  0.3487
  410TMC3     O 6176   2.072   4.087  16.771  0.3162  0.1104  0.2538
  410TMC3     H 6177   2.246   4.228  16.865 -1.8413 -0.3973  0.0175
  410TMC3    H1 6178   2.076   4.395  16.516  3.1246  0.0034 -1.0832
  410TMC3    H2 6179   2.348   4.620  16.749 -1.3324  1.2343  0.1908
  410TMC3    C7 6180   2.222   4.595  16.513  0.6693 -0.0851  0.5137
  410TMC3    C8 6181   2.437   4.404  16.875 -0.2430 -0.5541 -0.0590
  410TMC3    O1 6182   2.198   4.540  16.403  0.7176  0.0986 -0.0935
  410TMC3    O2 6183   2.492   4.502  16.927 -0.5950 -0.5344 -0.2753
  411MPD2     C 6184   2.390   0.303  14.483 -0.0712 -0.0051  1.0566
  411MPD2    C1 6185   2.367   0.293  14.612  0.5702 -0.4390 -0.5577
  411MPD2    C2 6186   2.297   0.192  14.665  0.2471 -0.3761 -0.4640
  411MPD2    C3 6187   2.229   0.107  14.581 -0.2616 -0.2804  0.3428
  411MPD2    C4 6188   2.234   0.120  14.443 -0.0179 -0.0910  0.4002
  411MPD2    C5 6189   2.326   0.214  14.399  0.3978  0.5516  0.7738
  411MPD2     H 6190   2.295   0.183  14.773  0.1265  1.3956 -0.3180
  411MPD2    H1 6191   2.200   0.049  14.368 -0.6055  1.7892 -1.1277
  411MPD2    H2 6192   2.456   0.380  14.444 -1.9647  0.5511 -1.0642
  411MPD2    H3 6193   2.366   0.222  14.299 -0.7150 -2.1831  0.1151
  411MPD2     N 6194   2.163   4.732  14.625  0.4024 -0.1759  0.6671
  411MPD2    H5 6195   2.109   4.682  14.554  0.3451 -1.5109  1.6539
  411MPD2    N1 6196   2.433   0.398  14.688  0.0122 -0.4395 -0.4621
  411MPD2    H7 6197   2.509   0.447  14.640 -0.4067  1.0650  0.4231
  412TMC3    C1 6198   2.079   4.569  14.794  0.3831 -0.1236  0.4891
  412TMC3    C2 6199   1.978   4.527  14.707  0.1506 -0.5182  0.0605
  412TMC3    C3 6200   1.889   4.437  14.766 -0.6551 -0.3137 -0.2046
  412TMC3    C4 6201   2.090   4.522  14.919  0.0898 -0.2966 -0.6237
  412TMC3    C5 6202   2.011   4.416  14.959 -0.3219 -0.5470  1.0884
  412TMC3    C6 6203   1.910   4.367  14.887 -0.4029  0.1179  0.2851
  412TMC3     C 6204   2.160   4.687  14.759 -0.6070  0.0956 -0.3146
  412TMC3     O 6205   2.228   4.734  14.852 -0.1436  0.3771 -0.4642
  412TMC3     H 6206   1.954   4.585  14.619  1.5341 -0.1788 -0.0860
  412TMC3    H1 6207   2.157   4.565  14.992  0.6391 -0.8719 -0.7954
  412TMC3    H2 6208   1.835   4.308  14.938  0.5493  0.8724  2.5244
  412TMC3    C7 6209   2.056   4.340  15.080 -1.0455  0.0159 -0.0046
  412TMC3    C8 6210   1.798   4.367  14.673  0.9360  0.6357 -0.1159
  412TMC3    O1 6211   2.080   4.415  15.172 -0.0859 -0.0362 -0.2608
  412TMC3    O2 6212   1.764   4.407  14.562  0.5239  0.0420 -0.2910
  413MPD2     C 6213   4.265   2.834  15.835 -0.1453  0.3716  0.0214
  413MPD2    C1 6214   4.265   2.831  15.697  1.1399 -0.3164  0.0218
  413MPD2    C2 6215   4.343   2.738  15.635 -0.1967  0.1433  0.2083
  413MPD2    C3 6216   4.407   2.643  15.717  0.1956  0.2797 -0.3034
  413MPD2    C4 6217   4.392   2.631  15.854  0.3519 -0.0286  0.1788
  413MPD2    C5 6218   4.324   2.733  15.911  0.3164 -0.1269 -0.1607
  413MPD2     H 6219   4.365   2.733  15.529  1.7216 -1.7044  0.6918
  413MPD2    H1 6220   4.450   2.561  15.913 -0.4541 -1.7233 -1.0524
  413MPD2    H2 6221   4.224   2.914  15.895 -1.4145  0.9911 -1.6921
  413MPD2    H3 6222   4.317   2.733  16.019  0.5872  1.2995 -0.1442
  413MPD2     N 6223   4.477   2.539  15.649 -0.2609  0.6781  0.1085
  413MPD2    H5 6224   4.493   2.556  15.550  0.2755  2.1416  0.4439
  413MPD2    N1 6225   4.199   2.929  15.633 -0.1558  0.5843 -0.2757
  413MPD2    H7 6226   4.152   3.004  15.684 -0.6784  0.1428 -0.1137
  414TMC3    C1 6227   4.582   2.330  15.604 -0.1655 -0.0153  0.4925
  414TMC3    C2 6228   4.642   2.215  15.649 -0.1690  1.0416 -0.0971
  414TMC3    C3 6229   4.675   2.116  15.561  0.2638 -0.3421  0.4441
  414TMC3    C4 6230   4.563   2.348  15.468 -0.8056  0.5329 -0.1505
  414TMC3    C5 6231   4.595   2.243  15.385 -0.7405 -0.4456 -0.5221
  414TMC3    C6 6232   4.656   2.133  15.427  0.5149  0.2033 -0.3142
  414TMC3     C 6233   4.544   2.427  15.702 -0.3896  0.5960  0.3845
  414TMC3     O 6234   4.557   2.390  15.814  0.3545  0.3713  0.8809
  414TMC3     H 6235   4.624   2.186  15.752 -1.9375  1.1262 -0.3814
  414TMC3    H1 6236   4.529   2.442  15.427  1.6212  1.6215  0.3264
  414TMC3    H2 6237   4.674   2.052  15.358 -1.8761 -0.8330  0.2507
  414TMC3    C7 6238   4.621   2.282  15.251  0.3080 -0.5035 -0.7024
  414TMC3    C8 6239   4.690   1.979  15.606 -0.1591  0.1452 -0.0742
  414TMC3    O1 6240   4.547   2.366  15.205  0.6861 -0.1261 -0.3434
  414TMC3    O2 6241   4.658   1.897  15.523  0.4777  0.3171  0.1086
  415TMC3    C1 6242   4.017   0.879  10.033 -0.2868  0.8740 -0.2164
  415TMC3    C2 6243   4.004   0.997   9.967  0.1657 -0.0160  0.4604
  415TMC3    C3 6244   3.925   0.984   9.857 -0.0811 -0.1776 -0.5156
  415TMC3    C4 6245   3.966   0.759   9.996  0.3983 -0.4391 -0.3115
  415TMC3    C5 6246   3.877   0.752   9.882 -0.0425 -0.1310 -0.0050
  415TMC3    C6 6247   3.862   0.866   9.817 -0.0246  0.2477  0.3044
  415TMC3     C 6248   4.077   0.871  10.159  0.0520  0.1479 -0.6463
  415TMC3     O 6249   4.033   0.781  10.231  0.0362  0.2506 -0.1551
  415TMC3     H 6250   4.039   1.093  10.001 -0.9169 -0.0266  1.6078
  415TMC3    H1 6251   3.999   0.665  10.036  2.0864  1.2390  2.2505
  415TMC3    H2 6252   3.823   0.856   9.717  0.8331 -0.5524  0.0498
  415TMC3    C7 6253   3.842   0.631   9.803 -0.2913  0.2415 -0.4451
  415TMC3    C8 6254   3.928   1.088   9.759 -0.0434 -0.1761 -0.1615
  415TMC3    O1 6255   3.781   0.642   9.696 -0.1645 -0.3186 -0.1010
  415TMC3    O2 6256   3.844   1.077   9.673 -0.0182  0.2635 -0.3884
  416MPD2     C 6257   1.860   4.306  11.584 -0.0791  0.2705  0.0306
  416MPD2    C1 6258   1.730   4.324  11.621 -0.2368  0.5033 -0.0626
  416MPD2    C2 6259   1.634   4.271  11.544  0.0169  0.4624 -0.3737
  416MPD2    C3 6260   1.661   4.205  11.428  0.6693 -0.8698 -0.3418
  416MPD2    C4 6261   1.792   4.198  11.374 -0.2313  0.4279  0.1561
  416MPD2    C5 6262   1.887   4.241  11.458 -0.4697  0.3068  0.5322
  416MPD2     H 6263   1.532   4.304  11.559 -0.8081 -2.3994  0.4484
  416MPD2    H1 6264   1.822   4.143  11.286 -2.4304 -0.1689 -0.2232
  416MPD2    H2 6265   1.943   4.337  11.646  0.1248  0.4572 -0.3333
  416MPD2    H3 6266   1.990   4.227  11.428 -0.9930  1.0751 -1.6806
  416MPD2     N 6267   1.553   4.139  11.362 -0.1182  0.0120 -0.4507
  416MPD2    H5 6268   1.461   4.161  11.400 -0.1100 -0.7999  0.0311
  416MPD2    N1 6269   1.688   4.397  11.739  0.1527  0.0399 -1.0350
  416MPD2    H7 6270   1.587   4.406  11.751  0.2662  0.4263 -0.3899
  417TMC3    C1 6271   1.672   4.539  11.915  0.1281  0.5001 -0.5024
  417TMC3    C2 6272   1.671   4.535  12.053 -0.0849  0.8192 -0.4171
  417TMC3    C3 6273   1.581   4.622  12.115 -0.3392 -0.2540  1.0320
  417TMC3    C4 6274   1.578   4.616  11.844 -0.2960  0.1970  0.0315
  417TMC3    C5 6275   1.486   4.688  11.914 -0.2123 -0.5037 -0.4778
  417TMC3    C6 6276   1.491   4.694  12.047  0.6641  0.4016  0.1155
  417TMC3     C 6277   1.763   4.456  11.842  0.2047 -0.3473 -0.1705
  417TMC3     O 6278   1.883   4.442  11.852  0.6165  0.6987 -0.2667
  417TMC3     H 6279   1.746   4.474  12.100 -0.8862  2.8017  3.4093
  417TMC3    H1 6280   1.570   4.611  11.736  1.7571 -2.6100  0.0128
  417TMC3    H2 6281   1.412   0.016  12.091  1.6997  3.4585 -2.1776
  417TMC3    C7 6282   1.421   0.053  11.836  0.1513 -0.5202 -0.0265
  417TMC3    C8 6283   1.582   4.632  12.264 -0.4544 -0.2844  0.1330
  417TMC3    O1 6284   1.462   0.062  11.719  0.5086 -0.0339 -0.1149
  417TMC3    O2 6285   1.524   4.726  12.307 -0.1933 -0.0584  0.2370
  418TMC3    C1 6286   0.300   1.870   0.178  0.4116  0.2469 -0.3777
  418TMC3    C2 6287   0.167   1.916   0.167  0.3514  0.5846 -0.0716
  418TMC3    C3 6288   0.084   1.864   0.262  0.6184  0.3506 -0.5949
  418TMC3    C4 6289   0.352   1.809   0.295  0.0364  0.3565  0.2261
  418TMC3    C5 6290   0.257   1.782   0.391  0.2366 -0.3743  0.4346
  418TMC3    C6 6291   0.124   1.798   0.374 -0.0880  0.1655 -0.0693
  418TMC3     C 6292   0.368   1.839   0.053  0.0404  0.3473  0.1710
  418TMC3     O 6293   0.370   1.931  17.728  0.3816 -0.1826  0.7275
  418TMC3     H 6294   0.122   1.948   0.074 -0.0255 -1.2517 -0.5236
  418TMC3    H1 6295   0.457   1.783   0.305 -0.0476  0.6658  1.8488
  418TMC3    H2 6296   0.056   1.760   0.448 -0.7383  3.6348  1.1322
  418TMC3    C7 6297   0.294   1.694   0.509  0.6808 -0.6626 -0.3009
  418TMC3    C8 6298   4.680   1.845   0.227  0.0758 -0.3780  0.5454
  418TMC3    O1 6299   0.204   1.625   0.551 -0.1472  0.6366  0.0737
  418TMC3    O2 6300   4.610   1.943   0.222 -0.0018 -0.1323  0.3816
  419MPD2     C 6301   3.836   4.229  12.410 -0.1206  0.2958 -0.3142
  419MPD2    C1 6302   3.746   4.321  12.356 -0.9265  0.3642 -0.6569
  419MPD2    C2 6303   3.666   4.388  12.448 -0.0212 -0.2209  0.3330
  419MPD2    C3 6304   3.663   4.362  12.580  0.1450  0.5268  0.0827
  419MPD2    C4 6305   3.746   4.263  12.633 -0.2169  0.3592  0.9215
  419MPD2    C5 6306   3.834   4.201  12.543 -0.3535  0.8494 -0.3763
  419MPD2     H 6307   3.601   4.469  12.416 -1.2779 -1.0526  0.7487
  419MPD2    H1 6308   3.744   4.235  12.737  3.2047  0.6651  1.0463
  419MPD2    H2 6309   3.910   4.182  12.346 -0.4925 -0.3242 -0.2917
  419MPD2    H3 6310   3.906   4.128  12.579  0.6117  0.8694 -2.2665
  419MPD2     N 6311   3.568   4.437  12.658  0.0434  0.2346 -0.0686
  419MPD2    H5 6312   3.517   4.508  12.606 -0.7473  0.3344  0.8434
  419MPD2    N1 6313   3.735   4.344  12.215 -0.2142  0.5700 -0.1934
  419MPD2    H7 6314   3.676   4.424  12.194 -1.9979 -1.0122 -1.1897
  420TMC3    C1 6315   3.468   4.526  12.857  0.1853 -0.3001 -0.1717
  420TMC3    C2 6316   3.370   4.577  12.778 -0.0272 -0.9438 -0.4230
  420TMC3    C3 6317   3.276   4.657  12.834  0.2026 -0.7836  0.4734
  420TMC3    C4 6318   3.466   4.546  12.991 -0.0201  0.3255 -0.0153
  420TMC3    C5 6319   3.384   4.643  13.040 -0.2188 -0.3544  0.9322
  420TMC3    C6 6320   3.288   4.706  12.965  0.5234 -0.2916 -0.5044
  420TMC3     C 6321   3.572   4.441  12.793 -0.0114 -0.3325 -0.4803
  420TMC3     O 6322   3.650   4.391  12.874  0.7872  0.2120  0.0706
  420TMC3     H 6323   3.377   4.558  12.672  2.7997  1.2698 -0.6526
  420TMC3    H1 6324   3.528   4.483  13.054 -2.5211 -0.7656  1.3110
  420TMC3    H2 6325   3.211   0.033  13.006 -1.2611 -2.4220 -0.4924
  420TMC3    C7 6326   3.365   4.631  13.180 -0.0632  0.4705  0.2029
  420TMC3    C8 6327   3.183   4.724  12.747 -0.8036 -0.1630 -0.1151
  420TMC3    O1 6328   3.419   4.543  13.246 -0.1320  0.1131 -0.1294
  420TMC3    O2 6329   3.184   0.111  12.756 -0.1066  0.4355  0.1335
  421TMC3    C1 6330   0.071   0.863  13.759  0.5256 -0.2940 -0.1636
  421TMC3    C2 6331   0.037   0.989  13.803 -0.4352 -0.5915  0.1346
  421TMC3    C3 6332   0.075   1.028  13.928 -0.0378  0.2077  0.3001
  421TMC3    C4 6333   0.158   0.786  13.835 -0.2843 -0.2291 -0.0044
  421TMC3    C5 6334   0.202   0.833  13.949 -0.2021 -0.0311  0.1527
  421TMC3    C6 6335   0.156   0.950  14.007  0.0750  0.4185  0.0008
  421TMC3     C 6336   0.071   0.846  13.619 -0.0124  0.2111  0.0626
  421TMC3     O 6337   0.177   0.812  13.565 -0.2378  0.4821 -0.3523
  421TMC3     H 6338   4.718   1.061  13.745  1.0545  2.3873  2.3826
  421TMC3    H1 6339   0.178   0.687  13.796  0.9214  0.3084 -0.7819
  421TMC3    H2 6340   0.209   0.984  14.095 -2.9388 -1.0940  2.4265
  421TMC3    C7 6341   0.319   0.773  14.006 -0.4875 -0.3223 -0.2636
  421TMC3    C8 6342   0.090   1.169  13.944  0.1488  0.4964  0.5657
  421TMC3    O1 6343   0.396   0.848  14.065  0.3653  0.3111 -0.1865
  421TMC3    O2 6344   0.103   1.236  13.843 -0.7247  0.3380 -0.7619
  422TMC3    C1 6345   2.235   2.752  12.605  0.1810  0.2861  0.7692
  422TMC3    C2 6346   2.232   2.857  12.693  0.3744 -0.2753  0.8147
  422TMC3    C3 6347   2.147   2.842  12.801  0.0132 -0.6551 -0.3176
  422TMC3    C4 6348   2.132   2.653  12.605 -0.9828 -0.2247 -0.0170
  422TMC3    C5 6349   2.036   2.667  12.701 -0.7639  1.1119 -0.3327
  422TMC3    C6 6350   2.046   2.751  12.810 -0.5906  0.7483 -1.2215
  422TMC3     C 6351   2.328   2.751  12.494  0.7655  0.3368 -0.4715
  422TMC3     O 6352   2.414   2.840  12.481  0.2543  0.2499 -0.2381
  422TMC3     H 6353   2.304   2.938  12.692  0.6987 -0.6025 -1.6494
  422TMC3    H1 6354   2.117   2.579  12.528 -0.2256 -1.9882  1.5268
  422TMC3    H2 6355   1.986   2.738  12.900  1.6346 -0.5545  0.0804
  422TMC3    C7 6356   1.939   2.556  12.711 -0.4000 -0.2682  0.7097
  422TMC3    C8 6357   2.155   2.961  12.882  0.3012 -0.4217 -0.5698
  422TMC3    O1 6358   1.992   2.451  12.677  0.4375  0.2009 -0.0487
  422TMC3    O2 6359   2.272   2.995  12.910 -0.0393 -0.6385 -0.5730
  423MPD2     C 6360   4.299   3.793   0.324 -0.8443 -0.4024 -0.2075
  423MPD2    C1 6361   4.268   3.659   0.363 -0.2928  0.3289 -0.3868
  423MPD2    C2 6362   4.206   3.571   0.272  0.2080  0.4281 -0.5158
  423MPD2    C3 6363   4.168   3.616   0.150 -0.1553  0.3797 -0.2363
  423MPD2    C4 6364   4.191   3.746   0.109  0.0034 -0.5187  1.0636
  423MPD2    C5 6365   4.260   3.834   0.198 -0.0404 -0.1227 -0.0432
  423MPD2     H 6366   4.185   3.471   0.310 -2.8760  1.3275  0.1217
  423MPD2    H1 6367   4.155   3.791   0.017  2.1779  0.5511  0.7275
  423MPD2    H2 6368   4.343   3.864   0.393  0.8107  0.2437 -1.9420
  423MPD2    H3 6369   4.266   3.939   0.171  3.1058  0.2464  2.1577
  423MPD2     N 6370   4.099   3.534   0.058 -0.2717 -0.5190  0.1275
  423MPD2    H5 6371   4.084   3.580  17.720  0.6903 -0.0485  0.2164
  423MPD2    N1 6372   4.295   3.609   0.496 -0.0034 -0.0437  0.6533
  423MPD2    H7 6373   4.271   3.511   0.508  0.2675 -0.3182 -1.1322
  424TMC3    C1 6374   4.330   3.633   0.735  0.4389  0.0238 -1.2256
  424TMC3    C2 6375   4.413   3.524   0.733  0.3917  0.4034  0.0033
  424TMC3    C3 6376   4.401   3.429   0.827 -0.1771 -0.1381 -0.0231
  424TMC3    C4 6377   4.211   3.632   0.807  0.5263 -0.5273 -0.1397
  424TMC3    C5 6378   4.195   3.523   0.892 -0.6648  0.3900 -0.7155
  424TMC3    C6 6379   4.293   3.430   0.908  0.7952  0.5183  0.0073
  424TMC3     C 6380   4.321   3.694   0.605 -0.3400  0.7484 -0.6540
  424TMC3     O 6381   4.319   3.816   0.605 -0.3349 -0.0300 -0.3970
  424TMC3     H 6382   4.488   3.516   0.655 -1.1350 -0.5814 -1.3597
  424TMC3    H1 6383   4.138   3.709   0.786  0.5446 -0.3422  0.4939
  424TMC3    H2 6384   4.289   3.345   0.975 -0.5094  0.9698  0.5094
  424TMC3    C7 6385   4.100   3.529   0.996  0.3399  0.0994  0.1313
  424TMC3    C8 6386   4.453   3.302   0.787  0.2741 -0.8705  0.5280
  424TMC3    O1 6387   4.143   3.532   1.111 -0.0439 -0.1085  0.0097
  424TMC3    O2 6388   4.383   3.199   0.807 -0.2417 -0.0099 -0.0709
  425MPD2     C 6389   2.800   3.007  16.944  0.3551  0.7027 -0.0149
  425MPD2    C1 6390   2.736   2.905  17.013 -0.4377  0.3069 -0.2568
  425MPD2    C2 6391   2.606   2.922  17.048 -0.2838  0.0162  0.7901
  425MPD2    C3 6392   2.542   3.041  17.027 -0.3466 -0.7330 -0.0465
  425MPD2    C4 6393   2.606   3.141  16.955 -0.1921 -0.3360  0.4108
  425MPD2    C5 6394   2.737   3.132  16.928  0.0673 -0.3090 -0.0316
  425MPD2     H 6395   2.554   2.837  17.092  0.7965  0.1698  2.3774
  425MPD2    H1 6396   2.550   3.228  16.919 -0.8070 -1.1646 -0.6384
  425MPD2    H2 6397   2.901   2.997  16.906 -0.8371 -3.1939 -2.1291
  425MPD2    H3 6398   2.786   3.198  16.857 -0.8347 -0.2649 -0.6118
  425MPD2     N 6399   2.407   3.038  17.066  0.1441  0.0076 -1.0247
  425MPD2    H5 6400   2.369   2.949  17.099 -0.2531 -0.4138 -2.6352
  425MPD2    N1 6401   2.805   2.783  17.035  0.0034 -0.6271 -0.3792
  425MPD2    H7 6402   2.904   2.785  17.013 -0.1068  0.6192 -0.7586
  426TMC3    C1 6403   2.838   2.554  17.063 -0.4350 -0.3935 -0.0040
  426TMC3    C2 6404   2.927   2.547  16.960 -0.4176  0.0647  0.3080
  426TMC3    C3 6405   2.978   2.422  16.924 -0.1782  0.2672 -0.1003
  426TMC3    C4 6406   2.789   2.441  17.130  0.6729 -0.9391 -0.0440
  426TMC3    C5 6407   2.845   2.318  17.102 -0.0332  0.1236  0.0945
  426TMC3    C6 6408   2.936   2.314  16.997  0.0065  0.4402 -0.8707
  426TMC3     C 6409   2.755   2.671  17.094 -0.5431  0.2418 -0.7692
  426TMC3     O 6410   2.647   2.654  17.155  0.3104 -0.3892  0.0416
  426TMC3     H 6411   2.955   2.638  16.909  0.6639 -0.1159  0.5883
  426TMC3    H1 6412   2.717   2.459  17.208  0.3457  0.0251 -0.5618
  426TMC3    H2 6413   2.987   2.219  16.982  0.1896  0.4772 -0.4802
  426TMC3    C7 6414   2.791   2.191  17.154  0.2166  0.3308  0.3199
  426TMC3    C8 6415   2.993   2.384  16.786  0.0598  0.2433  0.0705
  426TMC3    O1 6416   2.847   2.086  17.125  0.0320 -0.3559 -0.2777
  426TMC3    O2 6417   3.021   2.267  16.767  0.6447 -0.0547  0.6882
  427MPD2     C 6418   1.434   0.271  14.896 -0.4411 -0.0623 -0.0892
  427MPD2    C1 6419   1.404   0.170  14.985 -0.1026  0.3664  0.1164
  427MPD2    C2 6420   1.267   0.160  15.015  0.4672  0.5028 -0.1495
  427MPD2    C3 6421   1.169   0.241  14.965  0.0040 -0.1901 -0.2307
  427MPD2    C4 6422   1.206   0.348  14.889  0.2502  0.1042 -0.3932
  427MPD2    C5 6423   1.336   0.361  14.850  0.1311  0.0871  0.0035
  427MPD2     H 6424   1.244   0.074  15.077 -1.2286 -0.3840 -1.9885
  427MPD2    H1 6425   1.125   0.412  14.854 -1.2159 -1.3397  0.3311
  427MPD2    H2 6426   1.536   0.290  14.864 -0.4631 -0.6842 -0.5318
  427MPD2    H3 6427   1.370   0.437  14.780 -0.6401 -0.7374 -1.2683
  427MPD2     N 6428   1.029   0.229  14.988 -0.1004  0.4846  0.3544
  427MPD2    H5 6429   0.964   0.274  14.924 -0.0865  0.9852  0.6913
  427MPD2    N1 6430   1.489   0.088  15.057  0.1686 -0.3213  0.5286
  427MPD2    H7 6431   1.454   0.032  15.134 -1.9256 -1.2906 -1.1453
  428TMC3    C1 6432   1.697   4.722  15.112 -0.0798 -0.4013 -0.0815
  428TMC3    C2 6433   1.632   4.605  15.144 -0.0887 -0.0030 -0.1752
  428TMC3    C3 6434   1.697   4.504  15.215  0.4342  0.5296 -0.4161
  428TMC3    C4 6435   1.821   0.008  15.158  0.8060  0.0966  0.1294
  428TMC3    C5 6436   1.879   4.654  15.247  0.1871  0.2438  0.0174
  428TMC3    C6 6437   1.819   4.532  15.273  0.0793 -0.3052 -0.8740
  428TMC3     C 6438   1.627   0.082  15.038 -0.1450 -0.0593 -0.0279
  428TMC3     O 6439   1.693   0.150  14.966 -0.2563 -0.3151 -0.3060
  428TMC3     H 6440   1.528   4.586  15.121  0.0056 -1.2263  0.3766
  428TMC3    H1 6441   1.857   0.110  15.156  1.4008 -0.1683 -1.9549
  428TMC3    H2 6442   1.876   4.449  15.314  0.2057  0.3276  0.2069
  428TMC3    C7 6443   1.971   4.694  15.348 -1.0473  0.5463 -0.3712
  428TMC3    C8 6444   1.663   4.366  15.187  0.0318  0.3301 -0.0289
  428TMC3    O1 6445   1.950   4.651  15.463 -0.0920 -0.2190  0.5464
  428TMC3    O2 6446   1.708   4.286  15.270 -1.0155  0.6817 -0.2556
  429MPD2     C 6447   2.365   4.301  17.669  0.4164 -0.1696  0.1438
  429MPD2    C1 6448   2.444   4.293  17.549 -0.1301 -0.4033 -0.0764
  429MPD2    C2 6449   2.473   4.408  17.470  0.0546 -0.6838  0.0083
  429MPD2    C3 6450   2.438   4.533  17.524 -0.5359  0.3883  0.0022
  429MPD2    C4 6451   2.363   4.541  17.640  0.1581 -0.1678 -0.4758
  429MPD2    C5 6452   2.335   4.428  17.714 -0.1341  0.0047 -0.4389
  429MPD2     H 6453   2.513   4.396  17.370 -1.8903 -1.4739 -0.6941
  429MPD2    H1 6454   2.342   4.632  17.695  1.6617 -0.3045  0.3184
  429MPD2    H2 6455   2.331   4.218  17.729  0.9882  0.6290  1.5724
  429MPD2    H3 6456   2.269   4.458   0.043  0.4301  1.7499 -0.6169
  429MPD2     N 6457   2.455   4.649  17.445  0.5641  0.4930  0.4202
  429MPD2    H5 6458   2.517   4.641  17.365  0.0048  0.0957  0.0243
  429MPD2    N1 6459   2.465   4.167  17.496  0.0759 -0.3630 -0.0202
  429MPD2    H7 6460   2.467   4.157  17.395 -0.3095  2.4365 -0.2962
  430TMC3    C1 6461   2.458   0.143  17.396 -0.3987 -0.1125 -0.2821
  430TMC3    C2 6462   2.403   0.268  17.411  0.2171 -0.0132 -0.3191
  430TMC3    C3 6463   2.486   0.371  17.410 -0.4405  0.6724  0.2160
  430TMC3    C4 6464   2.593   0.128  17.370  0.0050 -0.5944  0.5041
  430TMC3    C5 6465   2.669   0.246  17.366 -0.8128 -0.7129  0.3513
  430TMC3    C6 6466   2.620   0.367  17.395  0.2750  0.3494  0.4167
  430TMC3     C 6467   2.388   0.034  17.464  0.1160 -0.2782  0.2819
  430TMC3     O 6468   2.291   0.059  17.531  0.4503 -0.2752 -0.0170
  430TMC3     H 6469   2.300   0.268  17.445  0.2597 -1.0878 -0.1710
  430TMC3    H1 6470   2.634   0.029  17.354 -0.5405 -0.9180  1.0975
  430TMC3    H2 6471   2.691   0.449  17.401  0.0780  0.6147 -1.0382
  430TMC3    C7 6472   2.790   0.245  17.290 -0.5966 -0.1312  0.2676
  430TMC3    C8 6473   2.427   0.489  17.359  0.1734  0.6125  0.2417
  430TMC3    O1 6474   2.857   0.346  17.302  0.2217  0.5364  0.0220
  430TMC3    O2 6475   2.320   0.475  17.303 -0.6709 -0.4825  0.8156
  431MPD2     C 6476   3.292   0.153  12.176 -0.6561  0.7763 -0.4716
  431MPD2    C1 6477   3.423   0.169  12.123 -0.8384  0.7653  0.3588
  431MPD2    C2 6478   3.475   0.067  12.050  0.8913 -0.3417 -0.1632
  431MPD2    C3 6479   3.414   4.681  12.046 -0.4107  0.1640 -0.0783
  431MPD2    C4 6480   3.301   4.665  12.120  0.0556 -0.4951 -0.5879
  431MPD2    C5 6481   3.244   0.031  12.187  0.2989  0.2358 -0.0976
  431MPD2     H 6482   3.573   0.072  12.004  0.6413 -1.8604 -0.8742
  431MPD2    H1 6483   3.250   4.570  12.125 -1.1075  0.2343  1.2950
  431MPD2    H2 6484   3.246   0.228  12.239 -3.0986  0.0359 -1.4012
  431MPD2    H3 6485   3.149   0.029  12.239 -0.3395 -3.4573 -1.4472
  431MPD2     N 6486   3.469   4.571  11.975 -0.0580  0.6005  0.6108
  431MPD2    H5 6487   3.424   4.481  11.987 -0.5929  0.8915  0.8070
  431MPD2    N1 6488   3.490   0.293  12.136 -0.0706  0.6306  0.3689
  431MPD2    H7 6489   3.433   0.376  12.149 -0.8896  0.3385 -1.3698
  432TMC3    C1 6490   3.631   4.445  11.858 -0.4863  0.0495 -0.9978
  432TMC3    C2 6491   3.732   4.449  11.765  0.1842  0.2547 -0.2886
  432TMC3    C3 6492   3.844   4.377  11.782 -0.0021  0.3587 -0.4700
  432TMC3    C4 6493   3.639   4.365  11.969  0.1472  0.7754  0.5081
  432TMC3    C5 6494   3.768   4.307  11.985 -0.3719  0.4489 -0.1906
  432TMC3    C6 6495   3.865   4.307  11.893 -0.2448 -0.1147  0.2981
  432TMC3     C 6496   3.572   4.579  11.884 -0.5839 -0.2236  0.2350
  432TMC3     O 6497   3.613   4.675  11.822  0.0406 -0.6107  0.0878
  432TMC3     H 6498   3.714   4.509  11.676 -3.1870 -0.2574  0.0457
  432TMC3    H1 6499   3.556   4.362  12.039 -0.6615 -0.3111 -0.5098
  432TMC3    H2 6500   3.963   4.266  11.915  0.3349  0.8729 -0.4715
  432TMC3    C7 6501   3.813   4.283  12.118  0.0544 -0.4104  0.4367
  432TMC3    C8 6502   3.950   4.431  11.698  0.1273 -0.2817 -0.7204
  432TMC3    O1 6503   3.916   4.218  12.132  0.0092 -0.6752 -0.0114
  432TMC3    O2 6504   3.920   4.457  11.584  0.7468 -0.0380 -0.5021
  433MPD2     C 6505   2.352   3.677  11.301 -0.0932  0.5918  0.1612
  433MPD2    C1 6506   2.242   3.605  11.346  0.1546 -0.1429  0.6795
  433MPD2    C2 6507   2.222   3.591  11.481 -0.2592  0.3254 -0.5823
  433MPD2    C3 6508   2.315   3.632  11.574  0.7183  0.4446 -0.3238
  433MPD2    C4 6509   2.429   3.703  11.527 -0.1130  1.0005 -0.0846
  433MPD2    C5 6510   2.443   3.720  11.394  0.7163  0.4873  0.4202
  433MPD2     H 6511   2.134   3.544  11.523  1.6272 -0.7613  2.1907
  433MPD2    H1 6512   2.505   3.746  11.591 -0.8067  2.1256 -0.0211
  433MPD2    H2 6513   2.377   3.693  11.197 -1.0086  0.1696 -0.1267
  433MPD2    H3 6514   2.526   3.783  11.363 -0.7603  2.1105 -0.2639
  433MPD2     N 6515   2.288   3.590  11.709 -0.1601 -0.2232 -0.2081
  433MPD2    H5 6516   2.197   3.551  11.729 -1.6123  1.4717 -3.6059
  433MPD2    N1 6517   2.150   3.554  11.252 -0.0565 -0.2035  0.2786
  433MPD2    H7 6518   2.187   3.582  11.162  1.3023  1.9741  1.5022
  434TMC3    C1 6519   1.994   3.406  11.155 -0.1958 -0.0214 -0.8348
  434TMC3    C2 6520   1.892   3.315  11.166  0.0207 -0.1907 -0.0238
  434TMC3    C3 6521   1.839   3.244  11.062  0.0130  0.1280  0.1931
  434TMC3    C4 6522   2.051   3.428  11.037 -0.1800 -0.1723 -0.3927
  434TMC3    C5 6523   1.997   3.359  10.929  0.0523 -0.3600 -0.6563
  434TMC3    C6 6524   1.892   3.268  10.942  0.1432  0.0129  0.3562
  434TMC3     C 6525   2.044   3.467  11.280  0.5036  0.5949 -0.1178
  434TMC3     O 6526   2.010   3.418  11.387 -0.8082  0.1592  0.5405
  434TMC3     H 6527   1.852   3.297  11.265  0.6162  1.3476  0.5075
  434TMC3    H1 6528   2.140   3.488  11.021  0.1453 -0.6560 -0.4010
  434TMC3    H2 6529   1.848   3.211  10.861  3.1020  0.7746 -1.7792
  434TMC3    C7 6530   2.104   3.322  10.836 -0.2632 -0.2242  0.3846
  434TMC3    C8 6531   1.821   3.102  11.099 -0.3514 -0.0324  0.9554
  434TMC3    O1 6532   2.183   3.405  10.804 -0.0408  0.1236 -0.2105
  434TMC3    O2 6533   1.848   3.087  11.217  0.0398 -0.7512 -0.1357
  435MPD2     C 6534   4.502   3.731  15.287 -0.6647 -0.5623 -0.5254
  435MPD2    C1 6535   4.447   3.698  15.411  0.2831 -0.0551  0.7760
  435MPD2    C2 6536   4.517   3.625  15.496 -0.3964 -0.9153 -0.3232
  435MPD2    C3 6537   4.645   3.577  15.464  0.0090  0.2269 -0.3560
  435MPD2    C4 6538   4.691   3.593  15.333 -0.2941  0.1701 -0.3284
  435MPD2    C5 6539   4.620   3.668  15.249 -0.0022  0.5303 -0.1190
  435MPD2     H 6540   4.477   3.596  15.593 -0.2056 -1.4917 -0.4165
  435MPD2    H1 6541   0.053   3.568  15.302 -0.1310  2.1269 -1.3829
  435MPD2    H2 6542   4.462   3.805  15.218  1.7028  0.6507 -0.6413
  435MPD2    H3 6543   4.664   3.690  15.152 -0.0885  0.2180 -0.2280
  435MPD2     N 6544   4.708   3.491  15.556 -0.1868 -0.0938  1.3328
  435MPD2    H5 6545   4.665   3.489  15.648  3.4287 -0.3025  3.0188
  435MPD2    N1 6546   4.321   3.749  15.454 -0.0992  0.1961 -0.2654
  435MPD2    H7 6547   4.285   3.739  15.549 -0.6306  2.2773 -0.2570
  436TMC3    C1 6548   4.045   3.903  15.666 -0.2451  0.6953  0.0523
  436TMC3    C2 6549   4.156   3.893  15.582 -0.6413 -0.2613 -0.1741
  436TMC3    C3 6550   4.137   3.885  15.449  0.0172  0.6002 -0.2309
  436TMC3    C4 6551   3.919   3.913  15.618  0.2831 -0.3982 -0.1892
  436TMC3    C5 6552   3.908   3.906  15.482  0.1849 -0.8753  0.3319
  436TMC3    C6 6553   4.009   3.885  15.399  0.1173 -0.4105 -0.2181
  436TMC3     C 6554   4.085   3.935  15.801  0.6892 -0.2680  0.4042
  436TMC3     O 6555   4.202   3.940  15.837  0.5560 -0.5194  0.0662
  436TMC3     H 6556   4.255   3.907  15.625 -0.4707 -4.3630  0.8095
  436TMC3    H1 6557   3.831   3.930  15.679  0.2200  0.7347 -0.5979
  436TMC3    H2 6558   4.002   3.867  15.292  3.3055 -0.7968 -0.3670
  436TMC3    C7 6559   3.767   3.911  15.439 -0.2226  0.1271  0.7225
  436TMC3    C8 6560   4.245   3.826  15.368  0.6667 -0.2566  0.0463
  436TMC3    O1 6561   3.679   3.872  15.519 -0.1373 -0.3729 -0.0587
  436TMC3    O2 6562   4.237   3.833  15.247  0.2265  0.6982  0.2201
  437TMC3    C1 6563   2.619   1.209  12.211  0.1193 -0.6746  0.2660
  437TMC3    C2 6564   2.517   1.225  12.129  0.3401 -0.0047  0.4045
  437TMC3    C3 6565   2.507   1.163  12.007  0.5457 -0.1307 -0.0989
  437TMC3    C4 6566   2.719   1.117  12.179  0.6518  0.3373  0.2783
  437TMC3    C5 6567   2.713   1.058  12.058  0.2770 -0.3686  1.0369
  437TMC3    C6 6568   2.609   1.082  11.967 -0.1880  0.0333  0.1587
  437TMC3     C 6569   2.636   1.325  12.291 -0.2242 -0.1214 -0.4627
  437TMC3     O 6570   2.546   1.405  12.295  0.4203  0.2458 -0.1437
  437TMC3     H 6571   2.441   1.298  12.157 -0.8567 -1.9769  2.3328
  437TMC3    H1 6572   2.794   1.097  12.255  0.3508 -1.9853 -0.0323
  437TMC3    H2 6573   2.614   1.034  11.871  1.6575  0.4438  0.0556
  437TMC3    C7 6574   2.836   0.999  12.006  0.2258 -0.6062 -0.1218
  437TMC3    C8 6575   2.419   1.231  11.910  0.6110  0.2765 -0.5961
  437TMC3    O1 6576   2.830   0.966  11.887 -0.0613 -0.4078  0.2985
  437TMC3    O2 6577   2.343   1.320  11.951 -0.3594  0.2448 -0.3871
  438MPD2     C 6578   0.559   1.637  16.826  0.8142 -0.4539 -0.7938
  438MPD2    C1 6579   0.586   1.513  16.870 -0.7022 -1.0573  0.0633
  438MPD2    C2 6580   0.519   1.465  16.981  0.4706 -0.0028  0.0863
  438MPD2    C3 6581   0.428   1.546  17.051 -0.0154  0.4218  0.2576
  438MPD2    C4 6582   0.413   1.674  17.006 -0.1415  0.1138  0.6303
  438MPD2    C5 6583   0.471   1.716  16.895 -0.3412 -0.4246 -0.5778
  438MPD2     H 6584   0.540   1.362  17.009 -0.4726  0.3316  2.0312
  438MPD2    H1 6585   0.344   1.744  17.052 -0.1633  0.7144 -0.3103
  438MPD2    H2 6586   0.616   1.675  16.742  3.5317 -0.5037  1.0589
  438MPD2    H3 6587   0.437   1.812  16.858  1.2839  0.5834  0.5339
  438MPD2     N 6588   0.361   1.506  17.163 -0.4637 -0.2242  0.0273
  438MPD2    H5 6589   0.295   1.571  17.206 -1.1444 -0.7323 -0.2457
  438MPD2    N1 6590   0.682   1.438  16.809 -0.0669 -0.4142 -0.2741
  438MPD2    H7 6591   0.707   1.361  16.870 -0.7530  0.1185  0.6740
  439TMC3    C1 6592   0.820   1.342  16.631 -0.7015 -0.5491 -0.3693
  439TMC3    C2 6593   0.819   1.298  16.498 -0.1604  0.4057  0.3847
  439TMC3    C3 6594   0.871   1.179  16.473  0.3180 -0.6719 -0.8977
  439TMC3    C4 6595   0.889   1.275  16.722  0.1082  0.1693  0.5662
  439TMC3    C5 6596   0.933   1.150  16.697  0.0287  0.2505 -0.4573
  439TMC3    C6 6597   0.915   1.098  16.570 -0.9938 -0.3383 -0.0169
  439TMC3     C 6598   0.729   1.452  16.675 -0.1690 -0.0121 -0.2253
  439TMC3     O 6599   0.679   1.512  16.582  0.2705 -0.0917  0.4988
  439TMC3     H 6600   0.776   1.360  16.421 -0.8673 -1.2320 -0.5440
  439TMC3    H1 6601   0.907   1.316  16.821  3.5997  0.2801 -0.1040
  439TMC3    H2 6602   0.956   1.000  16.548  2.0990  0.7326  1.0349
  439TMC3    C7 6603   1.015   1.080  16.793  0.6914 -0.4904  0.0701
  439TMC3    C8 6604   0.935   1.157  16.344 -0.2612 -0.4603  0.2529
  439TMC3    O1 6605   1.084   1.143  16.868  0.0753 -0.0262  0.7908
  439TMC3    O2 6606   0.993   1.049  16.333  0.3876 -0.2385 -0.0039
  440MPD2     C 6607   4.384   1.617  14.941  0.3269 -0.1062  0.4579
  440MPD2    C1 6608   4.375   1.641  15.080 -0.3786  0.0106  0.7135
  440MPD2    C2 6609   4.450   1.562  15.159 -0.1704 -0.0015  0.3373
  440MPD2    C3 6610   4.518   1.449  15.121 -0.5939  0.3170  0.2090
  440MPD2    C4 6611   4.508   1.416  14.990  0.1354 -0.0480  0.0649
  440MPD2    C5 6612   4.442   1.499  14.902  0.4291 -0.3259 -0.4327
  440MPD2     H 6613   4.428   1.568  15.265  3.4468 -2.0017  1.2015
  440MPD2    H1 6614   4.547   1.322  14.953  0.9619  0.4261 -0.2624
  440MPD2    H2 6615   4.318   1.660  14.867  2.7765  2.0353 -0.4572
  440MPD2    H3 6616   4.420   1.466  14.801 -0.5728  1.2793 -0.7415
  440MPD2     N 6617   4.594   1.369  15.210  0.0050  0.1231  0.1369
  440MPD2    H5 6618   4.630   1.282  15.172 -0.9083 -0.5549  0.8285
  440MPD2    N1 6619   4.286   1.728  15.139  0.3179 -0.3358 -0.0007
  440MPD2    H7 6620   4.277   1.732  15.240  0.6768  0.1139  0.0151
  441TMC3    C1 6621   4.718   1.304  15.405 -0.0824 -0.1105 -0.8922
  441TMC3    C2 6622   0.081   1.355  15.481  0.4397 -0.1900 -0.5218
  441TMC3    C3 6623   0.115   1.291  15.600 -0.1691  0.4642  0.3740
  441TMC3    C4 6624   4.639   1.201  15.451 -0.3735 -0.5990  0.0697
  441TMC3    C5 6625   4.667   1.149  15.573  0.3878  0.6706 -0.1092
  441TMC3    C6 6626   0.039   1.193  15.650 -0.2223 -0.5128 -0.8756
  441TMC3     C 6627   4.641   1.409  15.337 -0.5978 -0.1739  0.0245
  441TMC3     O 6628   4.650   1.519  15.387  0.3802 -0.1698 -0.0392
  441TMC3     H 6629   0.147   1.427  15.433 -1.5306  3.0521  1.6160
  441TMC3    H1 6630   4.547   1.185  15.396 -1.1407  1.5086  0.7229
  441TMC3    H2 6631   0.044   1.181  15.758 -1.4306 -1.8863 -0.9737
  441TMC3    C7 6632   4.557   1.095  15.651  0.9286 -0.2783  0.5276
  441TMC3    C8 6633   0.158   1.381  15.706 -0.5110 -0.0443  0.0210
  441TMC3    O1 6634   4.561   1.106  15.772  0.5745 -0.0115  0.8671
  441TMC3    O2 6635   0.195   1.339  15.815 -0.2193  0.1538  0.2289
  442MPD2     C 6636   2.489   2.191  16.505 -0.1596  0.4463  0.4844
  442MPD2    C1 6637   2.364   2.195  16.454  0.2897 -0.0602  0.6694
  442MPD2    C2 6638   2.325   2.104  16.358  0.7521  0.3646  0.1460
  442MPD2    C3 6639   2.415   2.001  16.315  0.0871 -0.3798  0.3265
  442MPD2    C4 6640   2.543   1.996  16.367  0.1033 -0.8645 -0.1697
  442MPD2    C5 6641   2.572   2.097  16.451  0.5572 -0.0576  0.2255
  442MPD2     H 6642   2.223   2.106  16.323  0.9779  0.2680 -0.5119
  442MPD2    H1 6643   2.618   1.923  16.340 -0.5588 -1.2551 -0.9760
  442MPD2    H2 6644   2.526   2.244  16.593  0.6094  1.1888 -0.2930
  442MPD2    H3 6645   2.675   2.095  16.486  0.3685 -1.2552  0.6907
  442MPD2     N 6646   2.385   1.909  16.213  0.4231  0.3137 -0.0471
  442MPD2    H5 6647   2.462   1.846  16.191 -2.2020 -2.4472 -1.2103
  442MPD2    N1 6648   2.268   2.296  16.474 -0.6491  0.0780 -0.4344
  442MPD2    H7 6649   2.186   2.305  16.416 -1.3521 -1.5858  0.3078
  443TMC3    C1 6650   2.175   2.476  16.591 -0.3223  0.9205 -0.2992
  443TMC3    C2 6651   2.101   2.532  16.489  0.0936  0.2610  0.4380
  443TMC3    C3 6652   1.976   2.569  16.528  0.1584  0.9654  1.0133
  443TMC3    C4 6653   2.135   2.470  16.720 -0.0320  0.1837  0.2074
  443TMC3    C5 6654   2.006   2.500  16.750  0.2412 -0.1417 -0.4011
  443TMC3    C6 6655   1.922   2.560  16.656  0.1879 -0.0921 -0.0621
  443TMC3     C 6656   2.286   2.393  16.569 -0.1272 -0.8170  0.1293
  443TMC3     O 6657   2.387   2.414  16.637  0.3588 -0.0253 -0.5136
  443TMC3     H 6658   2.133   2.523  16.385  0.9828 -0.2966  0.7609
  443TMC3    H1 6659   2.202   2.429  16.794  1.7361 -0.6123 -1.8391
  443TMC3    H2 6660   1.815   2.576  16.665 -0.0223 -1.0993 -0.7075
  443TMC3    C7 6661   1.945   2.419  16.855 -0.0962 -0.4762 -0.5070
  443TMC3    C8 6662   1.886   2.519  16.424 -0.5731  0.2491  0.5611
  443TMC3    O1 6663   2.016   2.321  16.879  0.1117  0.3691 -0.2579
  443TMC3    O2 6664   1.863   2.398  16.440 -0.2492  0.2977 -0.6400
  444MPD2     C 6665   2.627   2.045  16.827 -0.9725 -0.0986  0.0777
  444MPD2    C1 6666   2.543   1.946  16.793 -0.9301 -0.0970 -0.3447
  444MPD2    C2 6667   2.598   1.833  16.734 -0.8066  0.1261 -0.7808
  444MPD2    C3 6668   2.732   1.823  16.694  0.0823  0.5245 -0.0943
  444MPD2    C4 6669   2.809   1.937  16.713  0.4594 -0.4864  0.7671
  444MPD2    C5 6670   2.759   2.040  16.789 -0.2877 -0.8718 -0.3476
  444MPD2     H 6671   2.536   1.747  16.712 -1.1741 -0.2750  1.8363
  444MPD2    H1 6672   2.912   1.946  16.678  0.9098 -0.7717  2.0250
  444MPD2    H2 6673   2.598   2.132  16.883  1.7666  1.4167 -0.8819
  444MPD2    H3 6674   2.816   2.129  16.813 -0.5824 -0.0659 -2.7064
  444MPD2     N 6675   2.769   1.708  16.627 -0.2276 -0.3574  0.3919
  444MPD2    H5 6676   2.698   1.636  16.620 -0.2393 -0.1573 -1.5171
  444MPD2    N1 6677   2.403   1.937  16.831  0.1021 -0.7191  0.3941
  444MPD2    H7 6678   2.369   1.841  16.832  0.3283 -0.8091 -0.2465
  445TMC3    C1 6679   2.910   1.543  16.532  0.4515  0.0223 -0.6784
  445TMC3    C2 6680   2.813   1.491  16.455 -0.0256  0.1400  0.2314
  445TMC3    C3 6681   2.830   1.361  16.410 -0.3506  0.3742  0.3853
  445TMC3    C4 6682   3.026   1.472  16.564  0.0839  0.0936  1.0176
  445TMC3    C5 6683   3.033   1.345  16.515 -1.3699  0.2960 -0.0527
  445TMC3    C6 6684   2.937   1.279  16.445  0.1121 -0.4522 -1.2049
  445TMC3     C 6685   2.898   1.680  16.584 -0.0247 -0.2680 -0.1270
  445TMC3     O 6686   3.004   1.734  16.613  0.4751 -0.1037 -0.1933
  445TMC3     H 6687   2.738   1.559  16.415 -1.1493 -1.0809  0.2364
  445TMC3    H1 6688   3.100   1.513  16.632  0.8744 -0.5967  0.5665
  445TMC3    H2 6689   2.951   1.176  16.415  3.9002 -0.1087 -0.5427
  445TMC3    C7 6690   3.160   1.279  16.529 -0.6896 -0.2544  0.3531
  445TMC3    C8 6691   2.721   1.317  16.311  0.6265  0.6267  0.4319
  445TMC3    O1 6692   3.257   1.351  16.515 -0.0520 -0.4294  0.1401
  445TMC3    O2 6693   2.665   1.409  16.252  0.0848  0.0587 -0.0844
  446MPD2     C 6694   1.898   2.824  11.656  0.3769 -0.2955 -0.8913
  446MPD2    C1 6695   1.922   2.852  11.521 -0.1946 -0.0480  0.5995
  446MPD2    C2 6696   2.003   2.956  11.480  0.5449  0.1346 -0.1821
  446MPD2    C3 6697   2.068   3.035  11.577 -0.3145 -0.0846  0.6673
  446MPD2    C4 6698   2.057   3.002  11.709  0.6110  0.9337  0.0331
  446MPD2    C5 6699   1.972   2.896  11.745  0.3484 -0.1696 -0.1838
  446MPD2     H 6700   2.005   2.974  11.373 -1.6280 -1.6559 -0.5215
  446MPD2    H1 6701   2.100   3.054  11.794 -2.4584  1.0834  1.4903
  446MPD2    H2 6702   1.824   2.752  11.689 -0.7025  0.8795 -0.7275
  446MPD2    H3 6703   1.963   2.870  11.850 -1.1233 -0.9418 -0.4996
  446MPD2     N 6704   2.156   3.141  11.533 -0.8627  1.0188 -0.2598
  446MPD2    H5 6705   2.168   3.154  11.433 -0.0381  0.4056 -0.2412
  446MPD2    N1 6706   1.852   2.786  11.418  0.1567 -0.2154 -0.6710
  446MPD2    H7 6707   1.852   2.827  11.325  0.4769  1.7373  0.1915
  447TMC3    C1 6708   2.355   3.259  11.544  0.2828 -0.0607 -0.2481
  447TMC3    C2 6709   2.355   3.289  11.405  0.0794  0.5394  0.4073
  447TMC3    C3 6710   2.475   3.314  11.342  0.0007  1.1355  0.4096
  447TMC3    C4 6711   2.480   3.264  11.614  0.4024  0.0620  0.4142
  447TMC3    C5 6712   2.591   3.301  11.545 -0.8193 -0.2463 -1.5936
  447TMC3    C6 6713   2.588   3.326  11.412  0.7189 -0.3089  0.2653
  447TMC3     C 6714   2.239   3.215  11.616 -0.2367  0.3149 -0.2473
  447TMC3     O 6715   2.246   3.230  11.737  0.2329 -0.7821 -0.0653
  447TMC3     H 6716   2.263   3.290  11.348 -0.3424 -1.6447  1.0402
  447TMC3    H1 6717   2.484   3.234  11.718  0.6405 -1.2387  0.0379
  447TMC3    H2 6718   2.670   3.382  11.368 -0.1069  0.6823 -0.0001
  447TMC3    C7 6719   2.725   3.293  11.603  0.3300 -0.3301 -0.1409
  447TMC3    C8 6720   2.472   3.336  11.197  0.1827  0.6311  1.1636
  447TMC3    O1 6721   2.826   3.304  11.535 -0.1076  0.4283  0.3920
  447TMC3    O2 6722   2.361   3.334  11.144 -0.0087 -0.1484 -0.3907
  448TMC3    C1 6723   0.754   3.145  17.043 -0.3844 -0.3251  0.0604
  448TMC3    C2 6724   0.752   3.031  16.960  0.7881 -0.4970 -0.2347
  448TMC3    C3 6725   0.846   2.934  16.981  0.7111  0.1473 -0.4022
  448TMC3    C4 6726   0.858   3.172  17.129  0.0597  0.1139 -0.3404
  448TMC3    C5 6727   0.953   3.075  17.146 -0.5987  0.7714 -0.2367
  448TMC3    C6 6728   0.949   2.957  17.069  0.3596  0.1782 -0.1305
  448TMC3     C 6729   0.675   3.264  16.996 -0.0403  0.5566 -0.4835
  448TMC3     O 6730   0.711   3.372  17.035  0.4355  0.2736 -0.0802
  448TMC3     H 6731   0.664   3.011  16.900  1.4975 -0.0534 -1.4344
  448TMC3    H1 6732   0.875   3.268  17.176 -2.3737  0.1345  0.5114
  448TMC3    H2 6733   1.027   2.882  17.081  0.8301  0.6522 -0.2199
  448TMC3    C7 6734   1.057   3.089  17.243  0.1662 -0.0448  0.6255
  448TMC3    C8 6735   0.853   2.809  16.902 -0.5575  0.1727 -0.1645
  448TMC3    O1 6736   1.109   3.200  17.249 -0.5077  0.2672 -0.3641
  448TMC3    O2 6737   0.920   2.726  16.959  0.0489 -0.4935  0.2565
  449MPD2     C 6738   2.188   1.472  14.061 -0.2596 -0.3859  0.4910
  449MPD2    C1 6739   2.063   1.498  14.022  0.1726 -0.5715  0.3701
  449MPD2    C2 6740   1.976   1.398  14.012  0.4090 -0.2207  0.1746
  449MPD2    C3 6741   1.997   1.266  14.050 -0.6097  0.2979  0.5465
  449MPD2    C4 6742   2.127   1.240  14.100 -0.2304  0.3600 -0.5610
  449MPD2    C5 6743   2.213   1.342  14.109 -0.1741  0.3586 -0.1321
  449MPD2     H 6744   1.880   1.417  13.964  0.6368  0.9466  0.1817
  449MPD2    H1 6745   2.166   1.142  14.123 -0.3906  0.0903 -1.4442
  449MPD2    H2 6746   2.271   1.542  14.071 -1.1786  0.5329  1.6805
  449MPD2    H3 6747   2.304   1.315  14.163 -0.8041 -0.5864  0.4556
  449MPD2     N 6748   1.894   1.168  14.037  0.1536  0.6665 -0.3727
  449MPD2    H5 6749   1.813   1.196  13.983 -0.5949 -0.1677  0.3085
  449MPD2    N1 6750   2.027   1.627  13.975  0.1013  0.0713  0.4676
  449MPD2    H7 6751   1.933   1.627  13.936  1.0961 -0.5765 -1.9733
  450TMC3    C1 6752   2.015   1.816  13.849  0.0512 -0.2013 -0.0415
  450TMC3    C2 6753   2.049   1.819  13.717  0.0369 -0.3965  1.1454
  450TMC3    C3 6754   1.957   1.814  13.618 -0.5442  0.5588  0.6972
  450TMC3    C4 6755   1.882   1.821  13.883 -0.7207  0.2175 -0.3621
  450TMC3    C5 6756   1.787   1.820  13.783 -0.7586  0.2982 -0.2056
  450TMC3    C6 6757   1.825   1.822  13.656 -0.0511  0.1079 -0.5906
  450TMC3     C 6758   2.100   1.729  13.926  0.1503  0.3250  0.5598
  450TMC3     O 6759   2.228   1.727  13.920  0.1416 -0.1320  0.0407
  450TMC3     H 6760   2.154   1.815  13.693 -0.1873  1.4477 -0.1040
  450TMC3    H1 6761   1.857   1.804  13.987  2.5939  3.4353  0.9293
  450TMC3    H2 6762   1.748   1.817  13.580 -0.3620  0.5280 -0.3099
  450TMC3    C7 6763   1.695   1.710  13.811  0.5362 -0.1496  0.2817
  450TMC3    C8 6764   1.980   1.772  13.483 -0.6606 -0.2454  0.3076
  450TMC3    O1 6765   1.741   1.637  13.901  0.3388 -1.0749 -0.1648
  450TMC3    O2 6766   1.885   1.780  13.406 -0.2775 -0.8144  0.4237
  451MPD2     C 6767   3.544   4.009   1.284  0.1472  0.4208 -0.7088
  451MPD2    C1 6768   3.507   4.045   1.157 -0.5359 -0.1448 -0.0352
  451MPD2    C2 6769   3.609   4.041   1.058 -0.2349 -0.5207  0.3288
  451MPD2    C3 6770   3.746   4.005   1.077 -0.8793 -0.4708 -0.1762
  451MPD2    C4 6771   3.778   3.977   1.208  0.2925  0.5055 -0.1769
  451MPD2    C5 6772   3.677   3.989   1.310 -0.6412 -0.9693  0.1052
  451MPD2     H 6773   3.575   4.060   0.957 -3.7639  0.4190  1.6887
  451MPD2    H1 6774   3.873   3.939   1.246  1.9849  2.1869 -2.7771
  451MPD2    H2 6775   3.479   4.008   1.370 -0.0924 -3.2254 -0.9449
  451MPD2    H3 6776   3.710   3.963   1.410 -0.6146 -0.7411  0.1561
  451MPD2     N 6777   3.838   4.012   0.971 -0.6121  0.0682 -0.3880
  451MPD2    H5 6778   3.808   4.062   0.888 -0.1384  2.0066  0.5826
  451MPD2    N1 6779   3.371   4.081   1.135 -0.1941  0.8782 -0.0315
  451MPD2    H7 6780   3.305   4.085   1.211  0.7077  2.3047  0.6679
  452TMC3    C1 6781   4.043   4.010   0.856 -0.0048  0.1589 -0.8161
  452TMC3    C2 6782   4.001   3.939   0.746  0.2924  0.3658 -0.0784
  452TMC3    C3 6783   4.057   3.965   0.627 -0.0369  0.0845  0.1124
  452TMC3    C4 6784   4.136   4.110   0.855 -0.2500  0.2859 -0.4406
  452TMC3    C5 6785   4.194   4.141   0.731 -0.3436  0.2784 -0.2223
  452TMC3    C6 6786   4.152   4.069   0.623  0.1980 -0.1560  0.9287
  452TMC3     C 6787   3.975   3.988   0.982 -0.2950 -0.0944  0.7514
  452TMC3     O 6788   4.042   3.984   1.085 -0.9056  0.2242 -0.3142
  452TMC3     H 6789   3.929   3.859   0.749 -0.7906  1.2606 -1.6849
  452TMC3    H1 6790   4.159   4.162   0.947 -0.5867  1.1340 -0.8367
  452TMC3    H2 6791   4.173   4.119   0.529  1.2497 -1.9513  0.2133
  452TMC3    C7 6792   4.229   4.276   0.703  0.1671 -0.3333  0.1672
  452TMC3    C8 6793   3.982   3.967   0.499 -0.3164 -0.9334 -0.3392
  452TMC3    O1 6794   4.159   4.366   0.745  0.3534 -0.4099 -0.2141
  452TMC3    O2 6795   3.945   4.075   0.454  0.4644  0.0650  0.1375
  453TMC3    C1 6796   4.507   1.906  11.525  0.2184 -0.3303  0.3467
  453TMC3    C2 6797   4.452   1.784  11.562  0.3675 -0.6980 -0.2750
  453TMC3    C3 6798   4.356   1.734  11.474 -0.1256 -1.0257 -0.4699
  453TMC3    C4 6799   4.473   1.964  11.404 -0.0068  0.1767  0.8122
  453TMC3    C5 6800   4.380   1.908  11.319 -0.5294  0.2900 -0.0985
  453TMC3    C6 6801   4.322   1.793  11.355  0.3327  0.0631  0.2483
  453TMC3     C 6802   4.624   1.960  11.595 -0.0136 -0.4593 -0.3597
  453TMC3     O 6803   4.666   2.067  11.555  0.3773 -0.1674  0.5771
  453TMC3     H 6804   4.487   1.736  11.652  2.7771  0.2655 -0.6932
  453TMC3    H1 6805   4.524   2.056  11.378  0.1388  0.1470  0.9922
  453TMC3    H2 6806   4.249   1.742  11.293  0.4314  0.5969 -0.3057
  453TMC3    C7 6807   4.431   1.893  11.184 -0.2220 -0.6228 -0.5775
  453TMC3    C8 6808   4.293   1.606  11.499 -0.4816 -0.1266 -0.3000
  453TMC3    O1 6809   4.411   1.781  11.132 -0.0024 -0.0559  0.2863
  453TMC3    O2 6810   4.187   1.577  11.441  0.3472 -0.0025 -0.4272
  454MPD2     C 6811   3.466   1.486  16.051  0.2497  0.4819 -0.8083
  454MPD2    C1 6812   3.411   1.532  15.928  0.5051 -0.3758  0.4162
  454MPD2    C2 6813   3.357   1.655  15.931 -0.1565 -0.2719 -0.1699
  454MPD2    C3 6814   3.361   1.736  16.043 -0.2893  0.5804 -1.2099
  454MPD2    C4 6815   3.423   1.693  16.161 -0.0982  0.1511  0.4489
  454MPD2    C5 6816   3.480   1.568  16.165 -0.6056 -0.3555 -0.5744
  454MPD2     H 6817   3.307   1.683  15.840  0.6283  1.4635 -0.0577
  454MPD2    H1 6818   3.436   1.756  16.249 -1.6914  1.0487  0.0505
  454MPD2    H2 6819   3.523   1.395  16.050 -0.2353  0.1765 -0.0703
  454MPD2    H3 6820   3.541   1.543  16.252 -1.7705 -1.4344 -0.0749
  454MPD2     N 6821   3.301   1.863  16.053 -0.0860  0.2830  0.0004
  454MPD2    H5 6822   3.292   1.900  16.147 -1.1672 -0.6316  0.2460
  454MPD2    N1 6823   3.392   1.455  15.809  0.1827 -0.4854  0.3746
  454MPD2    H7 6824   3.334   1.502  15.740 -2.1564 -1.8081  1.4151
  455TMC3    C1 6825   3.088   1.951  16.005  0.1788  0.1339 -0.0074
  455TMC3    C2 6826   3.075   2.046  16.095 -0.3379  0.3494 -0.3263
  455TMC3    C3 6827   2.978   2.026  16.204  0.1855  0.2700  0.4154
  455TMC3    C4 6828   3.010   1.842  16.009  0.2767  0.5233 -0.0583
  455TMC3    C5 6829   2.920   1.824  16.113  0.8189  0.2724  1.0426
  455TMC3    C6 6830   2.903   1.915  16.213 -0.7768  0.1562 -0.0156
  455TMC3     C 6831   3.219   1.917  15.950 -0.1369  0.1166 -0.3567
  455TMC3     O 6832   3.223   1.911  15.830 -0.2012 -0.1392 -0.3016
  455TMC3     H 6833   3.150   2.124  16.098  2.1065 -1.9265 -3.1380
  455TMC3    H1 6834   3.019   1.758  15.941  1.9786  0.9939 -0.3982
  455TMC3    H2 6835   2.837   1.897  16.297  0.9289  0.2936  1.3433
  455TMC3    C7 6836   2.895   1.686  16.145 -0.6986 -0.0505  0.0412
  455TMC3    C8 6837   2.973   2.118  16.312 -0.5572  0.0913 -0.1885
  455TMC3    O1 6838   2.780   1.653  16.171  0.5180  0.5196  0.8761
  455TMC3    O2 6839   2.948   2.068  16.421 -0.6336 -0.0198 -0.1979
  456MPD2     C 6840   1.133   1.418  16.387  0.2811 -0.5186  0.3450
  456MPD2    C1 6841   1.174   1.408  16.513 -0.1973 -0.3652  0.1412
  456MPD2    C2 6842   1.138   1.508  16.606  0.0647  0.3559 -0.1130
  456MPD2    C3 6843   1.074   1.624  16.560 -0.3428  0.3393  0.1014
  456MPD2    C4 6844   1.031   1.628  16.426 -0.3320  0.2689 -0.9830
  456MPD2    C5 6845   1.061   1.527  16.345  0.0116 -0.3517 -0.2434
  456MPD2     H 6846   1.176   1.506  16.707  1.2272 -1.4389 -0.5792
  456MPD2    H1 6847   0.979   1.712  16.380 -0.3060  2.5631  3.1237
  456MPD2    H2 6848   1.149   1.342  16.311  0.6305 -2.9531  2.8734
  456MPD2    H3 6849   1.023   1.522  16.244 -0.3685 -2.7956  0.0243
  456MPD2     N 6850   1.051   1.725  16.652  0.0391 -0.0409  0.5766
  456MPD2    H5 6851   1.080   1.713  16.749 -1.3426  0.3289  1.0478
  456MPD2    N1 6852   1.243   1.289  16.546  0.2537  0.7157  0.0413
  456MPD2    H7 6853   1.257   1.224  16.469  0.6618  0.7204  0.1113
  457TMC3    C1 6854   0.966   1.927  16.744 -0.1934  0.1721  0.2969
  457TMC3    C2 6855   0.911   2.044  16.713 -0.4109 -0.2294  0.2732
  457TMC3    C3 6856   0.951   2.159  16.781  0.5033  0.1118 -0.3465
  457TMC3    C4 6857   1.047   1.919  16.849 -0.2596  0.4803  0.1643
  457TMC3    C5 6858   1.075   2.031  16.926 -0.5017 -0.2395 -0.4292
  457TMC3    C6 6859   1.025   2.157  16.895  0.1941 -0.7267 -1.0449
  457TMC3     C 6860   0.977   1.839  16.630  0.6975  0.0679 -0.7964
  457TMC3     O 6861   0.946   1.895  16.526  0.0111 -0.1680  0.4736
  457TMC3     H 6862   0.848   2.057  16.626  0.9309 -0.7571 -0.7816
  457TMC3    H1 6863   1.079   1.820  16.881  1.1815  0.7868 -0.3434
  457TMC3    H2 6864   1.050   2.250  16.945  1.8281 -0.4249 -2.4122
  457TMC3    C7 6865   1.145   2.012  17.053  0.6006 -0.3337  0.3298
  457TMC3    C8 6866   0.864   2.277  16.782 -0.9091  0.2672  0.2359
  457TMC3    O1 6867   1.169   1.893  17.081  0.0971 -0.2777  0.2776
  457TMC3    O2 6868   0.850   2.337  16.886 -0.2026 -0.2633  0.2366
  458MPD2     C 6869   3.309   0.836  11.991  0.0050  0.1989 -0.1521
  458MPD2    C1 6870   3.281   0.886  12.120 -0.1258 -0.3370  0.6656
  458MPD2    C2 6871   3.156   0.930  12.157  0.1031 -0.2212  0.1717
  458MPD2    C3 6872   3.055   0.914  12.063 -0.8765 -0.2031 -0.4892
  458MPD2    C4 6873   3.082   0.849  11.941  0.0731  0.3310  0.4457
  458MPD2    C5 6874   3.207   0.815  11.900  0.0368 -0.0962  0.2654
  458MPD2     H 6875   3.131   0.975  12.252  1.1299 -1.2891  0.9489
  458MPD2    H1 6876   3.001   0.807  11.882  0.5807 -0.7076  0.4946
  458MPD2    H2 6877   3.404   0.797  11.958 -0.0453 -1.7548  2.0359
  458MPD2    H3 6878   3.217   0.771  11.802 -0.6761 -2.0974  1.0940
  458MPD2     N 6879   2.928   0.971  12.097  0.0806  0.0643  0.1304
  458MPD2    H5 6880   2.919   1.009  12.190  0.1232 -0.5466  0.3835
  458MPD2    N1 6881   3.396   0.893  12.202 -0.7491 -0.3293 -0.2571
  458MPD2    H7 6882   3.489   0.872  12.165 -0.5357  0.4704 -0.1609
  459TMC3    C1 6883   3.537   0.929  12.391 -0.3556 -0.3030  0.1331
  459TMC3    C2 6884   3.641   0.959  12.307 -0.3137 -0.4098  0.0401
  459TMC3    C3 6885   3.766   0.940  12.354 -1.4354 -0.8422 -0.4175
  459TMC3    C4 6886   3.549   0.887  12.518 -0.3628 -0.1853 -0.5796
  459TMC3    C5 6887   3.679   0.870  12.565 -0.8411 -0.3803  0.3619
  459TMC3    C6 6888   3.792   0.884  12.480 -0.2402 -0.2842 -0.8726
  459TMC3     C 6889   3.401   0.922  12.340 -0.3162 -0.4137 -0.1896
  459TMC3     O 6890   3.307   0.924  12.418  0.0920 -0.3324 -0.1192
  459TMC3     H 6891   3.629   0.990  12.204 -2.2335 -2.2790 -0.2847
  459TMC3    H1 6892   3.458   0.874  12.575 -1.6124  1.1991 -2.2424
  459TMC3    H2 6893   3.894   0.883  12.516  0.1309 -0.0571 -1.9282
  459TMC3    C7 6894   3.711   0.816  12.698  0.7010 -0.1318 -0.3102
  459TMC3    C8 6895   3.878   1.014  12.290 -0.3913  0.4329 -0.5756
  459TMC3    O1 6896   3.826   0.804  12.730  0.2611 -0.0062  0.5310
  459TMC3    O2 6897   3.984   0.987  12.340  0.4010 -0.3565  0.0204
  460MPD2     C 6898   2.734   3.379  10.957 -0.1268  0.2316  0.2909
  460MPD2    C1 6899   2.601   3.389  11.001 -0.4373  0.2852  0.2467
  460MPD2    C2 6900   2.493   3.415  10.912 -0.4340 -0.1909 -0.3609
  460MPD2    C3 6901   2.526   3.443  10.781 -0.3525 -1.1277 -0.0506
  460MPD2    C4 6902   2.659   3.446  10.736  0.1521  0.4356 -0.2451
  460MPD2    C5 6903   2.758   3.404  10.824  0.1511 -1.1258  0.0871
  460MPD2     H 6904   2.388   3.423  10.938 -0.1831  1.2761  0.1683
  460MPD2    H1 6905   2.683   3.449  10.631 -0.8340 -0.2766 -0.4882
  460MPD2    H2 6906   2.818   3.340  11.013  0.5878  0.3936 -0.6753
  460MPD2    H3 6907   2.862   3.403  10.792 -0.1712  1.7249 -1.1123
  460MPD2     N 6908   2.422   3.488  10.694 -0.8099  0.2928 -0.0824
  460MPD2    H5 6909   2.327   3.467  10.725 -0.6351  1.0031  0.9186
  460MPD2    N1 6910   2.591   3.353  11.138 -0.2012 -0.3777 -0.0989
  460MPD2    H7 6911   2.671   3.332  11.196  0.9744  0.2921 -1.4925
  461TMC3    C1 6912   2.330   3.582  10.501  0.6137  0.1931  0.1914
  461TMC3    C2 6913   2.230   3.499  10.507 -0.1068  0.0714  0.2402
  461TMC3    C3 6914   2.113   3.537  10.442 -0.4948 -0.0577 -0.0253
  461TMC3    C4 6915   2.325   3.700  10.440 -0.4529 -1.1253 -0.3442
  461TMC3    C5 6916   2.209   3.726  10.368 -0.6956  0.5042  0.6295
  461TMC3    C6 6917   2.103   3.643  10.361  0.0071 -0.5328  0.3217
  461TMC3     C 6918   2.448   3.552  10.575 -0.5062  0.5570 -1.4593
  461TMC3     O 6919   2.548   3.612  10.529 -0.4528 -0.0094 -0.4516
  461TMC3     H 6920   2.236   3.402  10.555 -0.9622  0.9528  2.1391
  461TMC3    H1 6921   2.407   3.767  10.461 -0.4911 -2.0927  2.8717
  461TMC3    H2 6922   2.008   3.664  10.314  1.4537  1.8846 -1.4956
  461TMC3    C7 6923   2.168   3.863  10.323 -0.2721 -0.7518 -0.7444
  461TMC3    C8 6924   2.059   3.415  10.371 -0.4737 -0.0363 -0.0067
  461TMC3    O1 6925   2.045   3.873  10.298 -0.1786 -0.8221  0.2892
  461TMC3    O2 6926   2.139   3.330  10.331  0.4030 -0.4118  0.3337
  462TMC3    C1 6927   2.662   4.474   0.080  0.3908 -0.0176 -0.2608
  462TMC3    C2 6928   2.743   4.453  17.720  0.3218 -0.3345  0.0771
  462TMC3    C3 6929   2.786   4.327  17.705 -0.8780 -0.0420 -0.4393
  462TMC3    C4 6930   2.638   4.382   0.177  0.1412  0.4550  0.3075
  462TMC3    C5 6931   2.693   4.265   0.162 -0.3652 -0.2154  0.1123
  462TMC3    C6 6932   2.772   4.230   0.056  0.1042 -0.5466  0.9122
  462TMC3     C 6933   2.602   4.607   0.101  0.3965  1.4249  0.7301
  462TMC3     O 6934   2.509   4.609   0.181 -0.0149 -0.2871 -0.1953
  462TMC3     H 6935   2.741   4.526  17.640 -3.0586  1.0110  1.3969
  462TMC3    H1 6936   2.582   4.410   0.266  1.2758  0.6294  0.9564
  462TMC3    H2 6937   2.781   4.126   0.029 -1.0323 -0.5608  0.5743
  462TMC3    C7 6938   2.621   4.156   0.223 -0.1664  0.9490  0.2864
  462TMC3    C8 6939   2.820   4.294  17.574  0.1064 -0.0247 -0.3675
  462TMC3    O1 6940   2.678   4.048   0.231 -0.1739 -0.0317  0.1916
  462TMC3    O2 6941   2.791   4.377  17.491  0.0281  0.0174  0.2897
  463MPD2     C 6942   4.644   2.381   0.843 -0.1792  0.7580 -0.3354
  463MPD2    C1 6943   4.557   2.475   0.876 -0.4509  0.5823 -0.5856
  463MPD2    C2 6944   4.601   2.608   0.889 -0.4156 -0.6830  0.4426
  463MPD2    C3 6945   0.000   2.630   0.877 -0.4799  0.5748  0.3542
  463MPD2    C4 6946   0.090   2.525   0.866  0.1229  0.6404  0.3294
  463MPD2    C5 6947   0.040   2.408   0.842 -0.0203  0.2477 -0.3472
  463MPD2     H 6948   4.530   2.686   0.913 -0.2333 -0.5461  0.5386
  463MPD2    H1 6949   0.199   2.524   0.862  0.0722  0.3140 -1.0416
  463MPD2    H2 6950   4.619   2.277   0.826  0.1631  0.6137  0.0225
  463MPD2    H3 6951   0.102   2.319   0.842 -1.0258 -0.4322  1.8013
  463MPD2     N 6952   0.063   2.758   0.891  0.4948  0.1924 -0.0290
  463MPD2    H5 6953   0.161   2.770   0.911  0.5764  0.0137 -0.3124
  463MPD2    N1 6954   4.424   2.446   0.878  0.2066  0.4539  0.3694
  463MPD2    H7 6955   4.361   2.521   0.905  0.0032  0.6854 -0.7601
  464TMC3    C1 6956   4.212   2.333   0.914  0.2970 -0.2761  0.3357
  464TMC3    C2 6957   4.164   2.448   0.973 -0.0550 -0.5198 -0.2648
  464TMC3    C3 6958   4.043   2.437   1.048  1.5686  0.4512  0.2737
  464TMC3    C4 6959   4.152   2.211   0.928 -0.2548 -0.1582 -0.2337
  464TMC3    C5 6960   4.026   2.205   0.981 -0.8850  0.4457 -0.1556
  464TMC3    C6 6961   3.966   2.316   1.041 -0.3561  0.0571  0.0001
  464TMC3     C 6962   4.356   2.324   0.871 -0.3799 -0.0213 -0.7977
  464TMC3     O 6963   4.403   2.210   0.868  0.1412 -0.1046 -0.0700
  464TMC3     H 6964   4.211   2.546   0.966 -0.8715  0.0163  1.7754
  464TMC3    H1 6965   4.194   2.122   0.882  1.6949  0.4204  0.4358
  464TMC3    H2 6966   3.867   2.309   1.086 -0.3595 -1.5911 -0.2937
  464TMC3    C7 6967   3.947   2.100   0.936 -0.3486 -0.0421 -0.2070
  464TMC3    C8 6968   3.963   2.553   1.094 -0.4802  0.4148  0.0259
  464TMC3    O1 6969   4.011   2.006   0.890 -0.4994 -0.1533  0.1974
  464TMC3    O2 6970   3.847   2.549   1.064 -0.4997  0.4818 -0.0961
  465MPD2     C 6971   0.069   1.798  16.996  0.4717 -0.1054 -0.0208
  465MPD2    C1 6972   4.670   1.785  17.003  0.5317  0.9642  0.5153
  465MPD2    C2 6973   4.599   1.848  16.896  0.0757 -0.5603 -0.0667
  465MPD2    C3 6974   4.657   1.907  16.788 -0.2756  0.1959 -0.2337
  465MPD2    C4 6975   0.053   1.905  16.784  0.4223 -0.3032  0.2034
  465MPD2    C5 6976   0.133   1.864  16.889  0.0106  0.7822  0.6527
  465MPD2     H 6977   4.491   1.838  16.903 -0.1831  1.4044 -1.3326
  465MPD2    H1 6978   0.104   1.948  16.699 -0.3490 -2.4663 -1.3512
  465MPD2    H2 6979   0.135   1.763  17.075 -0.0010 -0.0902  0.3823
  465MPD2    H3 6980   0.241   1.868  16.878  0.0074 -0.0763  0.2763
  465MPD2     N 6981   4.577   1.956  16.683 -0.1187  0.3673  0.2446
  465MPD2    H5 6982   4.477   1.946  16.694 -0.4097  1.8848 -0.9219
  465MPD2    N1 6983   4.595   1.724  17.110 -0.3718 -0.3034  0.3713
  465MPD2    H7 6984   4.496   1.705  17.099 -0.3663 -0.6668  0.9799
  466TMC3    C1 6985   4.315   1.994  16.377 -0.4676  0.6623  0.0484
  466TMC3    C2 6986   4.321   2.110  16.300  0.1230  0.2014  0.1378
  466TMC3    C3 6987   4.422   2.193  16.329 -0.0873  0.4273 -0.5792
  466TMC3    C4 6988   4.416   1.968  16.472 -0.1109  0.1012 -0.1171
  466TMC3    C5 6989   4.518   2.061  16.494 -0.1333 -0.5507 -0.1248
  466TMC3    C6 6990   4.520   2.180  16.424  0.3408  0.1263  0.5318
  466TMC3     C 6991   4.193   1.950  16.442  0.9896 -0.0990 -0.2179
  466TMC3     O 6992   4.211   1.886  16.545  0.8045  0.2477  0.2448
  466TMC3     H 6993   4.249   2.128  16.221 -0.2934 -1.2258  0.1898
  466TMC3    H1 6994   4.421   1.864  16.503  0.8538 -0.0367 -0.7255
  466TMC3    H2 6995   4.594   2.258  16.434  0.8649  0.0262 -2.3653
  466TMC3    C7 6996   4.624   2.030  16.577 -0.4150  0.2150  0.0914
  466TMC3    C8 6997   4.425   2.325  16.269  0.2224 -0.1505  0.4896
  466TMC3    O1 6998   4.718   2.110  16.584 -0.0712  0.2816 -0.2062
  466TMC3    O2 6999   4.429   2.336  16.147  0.0296  0.1471  0.9081
  467TMC3    C1 7000   0.992   0.523  13.612  0.0536  0.5298  0.0746
  467TMC3    C2 7001   0.937   0.643  13.639  0.2148 -0.3307  0.2069
  467TMC3    C3 7002   0.800   0.640  13.644 -0.1464 -1.0504  0.1121
  467TMC3    C4 7003   0.922   0.405  13.572 -0.3910  0.1081  0.0228
  467TMC3    C5 7004   0.787   0.416  13.572  0.0855 -0.1897 -0.6968
  467TMC3    C6 7005   0.716   0.531  13.617 -0.1043  0.2395 -0.4084
  467TMC3     C 7006   1.136   0.524  13.602 -0.1209 -0.9890 -0.1451
  467TMC3     O 7007   1.194   0.421  13.621 -0.1182 -0.6821 -0.6655
  467TMC3     H 7008   1.000   0.727  13.665 -2.5295  1.6637  0.4758
  467TMC3    H1 7009   0.979   0.318  13.540  0.1862 -0.0079  1.3916
  467TMC3    H2 7010   0.609   0.548  13.608 -0.1263 -0.0638 -0.7326
  467TMC3    C7 7011   0.718   0.298  13.527  0.7098 -0.1736  0.3273
  467TMC3    C8 7012   0.760   0.767  13.711 -0.5234 -0.7466 -0.0198
  467TMC3    O1 7013   0.759   0.217  13.447 -0.2464  0.1408  0.2408
  467TMC3    O2 7014   0.844   0.819  13.777 -0.0166 -0.6286 -0.3423
  468MPD2     C 7015   4.349   2.626  10.356 -0.2531  0.0558  0.0917
  468MPD2    C1 7016   4.478   2.590  10.401 -0.0518  0.4131  0.0282
  468MPD2    C2 7017   4.514   2.456  10.408  0.1947  0.0165 -0.7426
  468MPD2    C3 7018   4.424   2.357  10.386  0.6162 -0.1408  0.3896
  468MPD2    C4 7019   4.292   2.387  10.351 -0.2272  0.2414  0.3179
  468MPD2    C5 7020   4.256   2.521  10.328  0.1797 -1.3202 -0.3425
  468MPD2     H 7021   4.615   2.440  10.444 -0.1113 -0.8839 -0.2957
  468MPD2    H1 7022   4.224   2.305  10.331  1.0697 -0.5103 -0.9401
  468MPD2    H2 7023   4.323   2.731  10.354  2.1198  0.6256  0.2072
  468MPD2    H3 7024   4.159   2.543  10.286 -0.0455  0.3465  1.1064
  468MPD2     N 7025   4.456   2.224  10.412 -0.3946 -0.1846  0.3572
  468MPD2    H5 7026   4.381   2.155  10.413 -0.6198  0.0827  2.2549
  468MPD2    N1 7027   4.580   2.682  10.439 -0.2697 -0.3267 -0.2029
  468MPD2    H7 7028   4.659   2.651  10.494 -1.1046  1.1367  1.8127
  469TMC3    C1 7029   4.697   2.883  10.467 -0.1206 -0.3830  0.6401
  469TMC3    C2 7030   0.051   2.812  10.530  0.3175  0.2946  0.2242
  469TMC3    C3 7031   0.128   2.881  10.621 -0.0066  0.1579 -0.0588
  469TMC3    C4 7032   4.673   3.013  10.489 -0.2623  0.2392 -0.2639
  469TMC3    C5 7033   0.017   3.084  10.567  0.5081  0.3905 -0.1915
  469TMC3    C6 7034   0.111   3.018  10.643 -0.3200 -0.6232  0.1576
  469TMC3     C 7035   4.583   2.813  10.405 -0.1331  0.3168  0.1064
  469TMC3     O 7036   4.503   2.876  10.341 -0.2696 -0.4310  0.0649
  469TMC3     H 7037   0.070   2.711  10.494 -0.8469  0.1669 -0.0319
  469TMC3    H1 7038   4.597   3.056  10.426  0.3832  0.3655 -0.9617
  469TMC3    H2 7039   0.196   3.066  10.688  1.2332 -2.6698 -0.5753
  469TMC3    C7 7040   0.013   3.228  10.564 -0.5318 -0.1838  0.4534
  469TMC3    C8 7041   0.223   2.794  10.689 -0.0440 -0.7799 -0.0028
  469TMC3    O1 7042   4.673   3.280  10.485  0.2109  0.2424 -0.4482
  469TMC3    O2 7043   0.224   2.671  10.667  0.4382 -0.1776 -0.0760
  470TMC3    C1 7044   1.843   4.161   0.608 -1.0206 -0.1015  0.6578
  470TMC3    C2 7045   1.786   4.202   0.725  0.0193  0.2800  0.7216
  470TMC3    C3 7046   1.814   4.130   0.841 -0.5072  0.3911 -0.1040
  470TMC3    C4 7047   1.923   4.052   0.601 -0.4277  0.3794  0.7345
  470TMC3    C5 7048   1.949   3.987   0.712  0.8022 -0.4954  0.2915
  470TMC3    C6 7049   1.894   4.020   0.828  0.9429  0.3290 -0.9262
  470TMC3     C 7050   1.790   4.223   0.490 -0.1420  0.3345 -0.1744
  470TMC3     O 7051   1.818   4.165   0.387 -0.1256 -0.3571  0.8265
  470TMC3     H 7052   1.728   4.293   0.728  0.8026  0.7680  1.1050
  470TMC3    H1 7053   1.957   4.019   0.503  2.1606  2.1176  1.0551
  470TMC3    H2 7054   1.918   3.969   0.921  0.9030  1.8365 -0.0764
  470TMC3    C7 7055   2.055   3.890   0.700 -0.2541 -0.2132  1.0956
  470TMC3    C8 7056   1.813   4.200   0.968 -0.5456  0.9064 -0.0929
  470TMC3    O1 7057   2.046   3.822   0.596  0.1748  0.7532  0.6259
  470TMC3    O2 7058   1.767   4.315   0.964  0.2978 -0.6500  0.1316
  471MPD2     C 7059   2.474   0.933  17.121  0.1943 -0.4948 -0.6765
  471MPD2    C1 7060   2.428   0.804  17.078  0.2463 -0.2817  0.6112
  471MPD2    C2 7061   2.434   0.698  17.162 -0.4199  0.6253 -0.1426
  471MPD2    C3 7062   2.487   0.710  17.291  0.1993 -0.7768 -0.0624
  471MPD2    C4 7063   2.528   0.831  17.332 -0.4102 -0.1499  0.0909
  471MPD2    C5 7064   2.519   0.943  17.253 -0.5601  0.9595  0.2541
  471MPD2     H 7065   2.405   0.599  17.130  2.4709 -0.3982  0.3814
  471MPD2    H1 7066   2.565   0.837  17.434 -0.8760 -1.5461  0.3434
  471MPD2    H2 7067   2.484   1.017  17.053 -4.8260 -0.2186 -1.1064
  471MPD2    H3 7068   2.549   1.042  17.286 -1.1946  1.2700 -0.0799
  471MPD2     N 7069   2.494   0.605  17.391  0.0562  0.0000  0.0857
  471MPD2    H5 7070   2.577   0.596  17.448 -0.4284 -0.0625  0.7941
  471MPD2    N1 7071   2.391   0.771  16.945 -0.0979 -0.3554  0.2620
  471MPD2    H7 7072   2.363   0.674  16.933  0.2625 -0.3971 -0.2632
  472TMC3    C1 7073   2.391   0.780  16.708 -0.2851 -0.8257 -0.6201
  472TMC3    C2 7074   2.355   0.853  16.602 -0.4313 -0.1025 -0.1834
  472TMC3    C3 7075   2.369   0.799  16.477 -0.1111 -0.9576  0.6490
  472TMC3    C4 7076   2.440   0.651  16.694  0.0342 -0.6811 -0.4115
  472TMC3    C5 7077   2.468   0.607  16.569  0.3469  0.8437 -0.2469
  472TMC3    C6 7078   2.427   0.678  16.457 -0.5072  0.2148 -0.3390
  472TMC3     C 7079   2.404   0.850  16.837  0.4719 -0.5142 -0.4601
  472TMC3     O 7080   2.458   0.960  16.832  0.1611 -0.8957  0.0825
  472TMC3     H 7081   2.321   0.953  16.625 -2.7281 -0.9301 -0.0511
  472TMC3    H1 7082   2.489   0.609  16.781  0.2881 -1.3303 -0.8702
  472TMC3    H2 7083   2.447   0.640  16.357  0.2255  1.9284 -0.8532
  472TMC3    C7 7084   2.463   0.459  16.566  0.2531  0.1344  0.4183
  472TMC3    C8 7085   2.332   0.891  16.363 -0.4214  0.0188  0.4859
  472TMC3    O1 7086   2.454   0.396  16.670  0.0384  0.2651  0.0363
  472TMC3    O2 7087   2.312   1.006  16.392 -0.4024 -0.6907  0.0136
  473MPD2     C 7088   2.629   2.775  14.072 -0.0096  0.1680  0.1092
  473MPD2    C1 7089   2.573   2.841  13.956  0.0507  0.2889  0.0855
  473MPD2    C2 7090   2.592   2.980  13.963  0.3211 -0.6262  0.0911
  473MPD2    C3 7091   2.671   3.044  14.060  0.0380 -0.0379 -0.2480
  473MPD2    C4 7092   2.725   2.968  14.161  0.9290 -0.1209 -0.1434
  473MPD2    C5 7093   2.708   2.831  14.163 -0.1726  0.0722  0.1041
  473MPD2     H 7094   2.553   3.046  13.887 -0.8576 -0.9196  0.4436
  473MPD2    H1 7095   2.785   3.015  14.238 -1.1342 -0.7495  1.8442
  473MPD2    H2 7096   2.624   2.667  14.083 -0.9943  0.1708 -0.2833
  473MPD2    H3 7097   2.758   2.758  14.225  0.2703 -1.5365 -2.1218
  473MPD2     N 7098   2.715   3.176  14.053 -0.5596  0.3077  0.0751
  473MPD2    H5 7099   2.799   3.193  14.108  0.1745  0.7974 -1.1986
  473MPD2    N1 7100   2.494   2.775  13.849  0.0277  0.7902  0.1254
  473MPD2    H7 7101   2.464   2.832  13.771 -0.0262  1.2705  0.4961
  474TMC3    C1 7102   2.715   3.410  14.001  0.2119  0.0286 -0.2407
  474TMC3    C2 7103   2.696   3.489  13.890 -0.6875  0.1499 -0.2563
  474TMC3    C3 7104   2.767   3.605  13.886 -0.3423  0.0214  0.9464
  474TMC3    C4 7105   2.802   3.435  14.105  0.4553  0.1377 -0.2163
  474TMC3    C5 7106   2.874   3.552  14.098 -0.6395 -0.3491  0.3368
  474TMC3    C6 7107   2.862   3.629  13.984 -0.0694 -0.6174  0.2231
  474TMC3     C 7108   2.649   3.280  13.992  0.0002 -0.3308  0.1626
  474TMC3     O 7109   2.546   3.277  13.928 -0.0413  0.2191 -0.3959
  474TMC3     H 7110   2.622   3.458  13.817 -2.2586 -1.3412  1.9458
  474TMC3    H1 7111   2.812   3.368  14.190 -2.6023  0.7883  0.6519
  474TMC3    H2 7112   2.918   3.720  13.967 -1.0648  0.4494  2.5277
  474TMC3    C7 7113   2.987   3.582  14.184 -0.1067 -0.3824 -0.0906
  474TMC3    C8 7114   2.725   3.714  13.794  0.1284  0.0644  0.1668
  474TMC3    O1 7115   3.088   3.637  14.143 -0.5957  0.8463 -0.3951
  474TMC3    O2 7116   2.645   3.683  13.707 -0.1328  0.0586 -0.3883
  475MPD2     C 7117   1.066   0.503  10.362 -0.3439  0.1135  0.2111
  475MPD2    C1 7118   0.996   0.619  10.329 -0.4963  0.5291 -0.4194
  475MPD2    C2 7119   0.900   0.672  10.419 -0.5377  0.0301 -0.1091
  475MPD2    C3 7120   0.866   0.608  10.532  0.2314  0.8759 -0.2354
  475MPD2    C4 7121   0.926   0.488  10.560 -0.1665  0.2726 -0.0473
  475MPD2    C5 7122   1.026   0.441  10.479 -0.1339  0.0756 -0.3718
  475MPD2     H 7123   0.859   0.773  10.416 -1.1720 -0.2506 -0.6033
  475MPD2    H1 7124   0.895   0.441  10.653  0.7564 -0.8771 -0.3169
  475MPD2    H2 7125   1.148   0.471  10.298 -0.3084  1.3838 -0.3844
  475MPD2    H3 7126   1.080   0.351  10.507 -2.2172 -0.1285  2.9829
  475MPD2     N 7127   0.770   0.667  10.624 -0.1617 -0.1547 -0.1436
  475MPD2    H5 7128   0.748   0.765  10.611  1.2507  0.1301 -0.3687
  475MPD2    N1 7129   1.034   0.682  10.208 -0.0600 -0.0461 -0.1491
  475MPD2    H7 7130   1.112   0.641  10.159  0.9305  0.3937  1.0591
  476TMC3    C1 7131   1.032   0.841  10.034  0.5763  1.2471 -0.2342
  476TMC3    C2 7132   0.937   0.907   9.960  0.3863 -0.1836 -0.1300
  476TMC3    C3 7133   0.989   1.014   9.886  0.5798 -0.6454 -0.3673
  476TMC3    C4 7134   1.162   0.873  10.045 -0.5805  0.3143  0.3596
  476TMC3    C5 7135   1.200   0.979   9.965  0.2849 -0.3259 -0.1057
  476TMC3    C6 7136   1.117   1.040   9.870 -0.0728  0.1286 -0.3652
  476TMC3     C 7137   0.972   0.792  10.154  0.5048  0.4560  0.4473
  476TMC3     O 7138   0.885   0.858  10.201 -0.4004  0.5005  0.1126
  476TMC3     H 7139   0.831   0.884   9.955  0.6753 -1.2582 -1.3352
  476TMC3    H1 7140   1.235   0.826  10.110  0.3760 -1.9413 -2.3176
  476TMC3    H2 7141   1.153   1.125   9.812  1.0619 -0.2320 -0.1732
  476TMC3    C7 7142   1.312   1.069   9.999  0.0301  0.0231 -0.1583
  476TMC3    C8 7143   0.896   1.084   9.797 -0.5108  0.1655 -0.6364
  476TMC3    O1 7144   1.427   1.026   9.995 -0.4363  0.5911 -0.6120
  476TMC3    O2 7145   0.950   1.172   9.729 -0.0994 -0.0254 -0.1443
  477MPD2     C 7146   2.763   2.294  11.129  0.2428  0.4040  0.3667
  477MPD2    C1 7147   2.740   2.327  11.257 -0.2172 -0.1152 -0.3271
  477MPD2    C2 7148   2.793   2.248  11.358 -0.1036 -0.1382 -0.5758
  477MPD2    C3 7149   2.878   2.145  11.335 -0.5422  0.2381  0.0076
  477MPD2    C4 7150   2.906   2.117  11.202  0.7206  0.0578 -0.3307
  477MPD2    C5 7151   2.858   2.203  11.101 -0.2186  0.5017  0.2894
  477MPD2     H 7152   2.779   2.277  11.462  2.7118 -1.3666  0.1449
  477MPD2    H1 7153   2.971   2.034  11.175 -0.2839 -1.1954  1.0752
  477MPD2    H2 7154   2.720   2.349  11.047 -0.8356  0.0835  0.7206
  477MPD2    H3 7155   2.879   2.189  10.995 -0.4114 -0.0173  0.3236
  477MPD2     N 7156   2.897   2.053  11.438  0.3266  0.6183 -0.2735
  477MPD2    H5 7157   2.853   2.073  11.528  0.7325  0.6842 -0.0900
  477MPD2    N1 7158   2.643   2.420  11.285  0.3730  0.1309 -0.0998
  477MPD2    H7 7159   2.609   2.470  11.203 -0.9985 -0.7263 -0.0697
  478TMC3    C1 7160   2.484   2.552  11.407 -0.2953 -0.6212  0.0779
  478TMC3    C2 7161   2.440   2.609  11.522 -0.5270  0.0215  0.5790
  478TMC3    C3 7162   2.306   2.628  11.544  0.0577  0.0965  0.4483
  478TMC3    C4 7163   2.395   2.531  11.308  0.0853  0.5177 -0.4391
  478TMC3    C5 7164   2.262   2.561  11.328 -0.1559  0.5651 -0.1319
  478TMC3    C6 7165   2.217   2.605  11.449 -0.7947 -0.3677 -0.9728
  478TMC3     C 7166   2.604   2.472  11.410  0.0461  0.0232  0.3787
  478TMC3     O 7167   2.662   2.457  11.518  0.4280 -0.4076 -0.5529
  478TMC3     H 7168   2.510   2.642  11.598  0.5162  2.5345 -1.4815
  478TMC3    H1 7169   2.417   2.499  11.207 -2.1402 -1.0967 -0.4269
  478TMC3    H2 7170   2.110   2.616  11.462 -0.6990  2.6492 -2.6137
  478TMC3    C7 7171   2.176   2.569  11.215  0.1050 -0.3726  0.2146
  478TMC3    C8 7172   2.262   2.629  11.681  0.1338  0.1972  0.4891
  478TMC3    O1 7173   2.187   2.477  11.133 -0.1513 -0.1459 -0.0639
  478TMC3    O2 7174   2.173   2.555  11.715 -0.3052 -0.5456  0.4657
  479MPD2     C 7175   2.259   0.190  15.316 -0.7805 -0.3015 -0.0928
  479MPD2    C1 7176   2.187   0.082  15.369 -0.5511 -0.2123 -0.1433
  479MPD2    C2 7177   2.202   0.057  15.505  0.1276 -0.2043 -0.0345
  479MPD2    C3 7178   2.289   0.138  15.586 -0.3682 -0.2539 -0.4655
  479MPD2    C4 7179   2.374   0.229  15.523 -0.5740  0.0045 -0.2378
  479MPD2    C5 7180   2.357   0.253  15.395 -0.2316  0.2341 -0.1200
  479MPD2     H 7181   2.143   4.712  15.543 -0.3985 -0.3463 -1.1766
  479MPD2    H1 7182   2.455   0.275  15.578 -0.1807 -3.3320  2.0160
  479MPD2    H2 7183   2.246   0.221  15.213 -1.8145 -0.8779 -0.1348
  479MPD2    H3 7184   2.419   0.333  15.355 -1.6864  0.4766 -1.8804
  479MPD2     N 7185   2.312   0.111  15.723 -0.3537 -0.4312  0.4187
  479MPD2    H5 7186   2.399   0.153  15.753  0.0557  1.6854 -3.8242
  479MPD2    N1 7187   2.082   0.025  15.300 -0.6574  0.3202  0.9659
  479MPD2    H7 7188   2.075   0.055  15.203  0.5472 -1.9138  0.1785
  480TMC3    C1 7189   1.933   4.586  15.844 -0.2218  0.3609 -0.2842
  480TMC3    C2 7190   1.845   4.673  15.791  0.4238  0.4791  0.7546
  480TMC3    C3 7191   1.894   0.054  15.740 -0.6532 -0.2384  0.1427
  480TMC3    C4 7192   2.065   4.614  15.854  0.1866 -0.5689 -0.5673
  480TMC3    C5 7193   2.111   4.730  15.802  0.2369 -0.2195  0.0930
  480TMC3    C6 7194   2.026   0.087  15.756  0.1496  0.6596  0.1899
  480TMC3     C 7195   1.887   4.460  15.893 -1.4171  0.3119 -0.1530
  480TMC3     O 7196   1.965   4.398  15.964  0.7768 -0.3671  0.6955
  480TMC3     H 7197   1.738   4.653  15.796  0.1715  1.1999 -1.7443
  480TMC3    H1 7198   2.133   4.531  15.871  0.8732 -0.1803 -1.3887
  480TMC3    H2 7199   2.062   0.187  15.736 -0.4248  1.4077  2.8464
  480TMC3    C7 7200   2.256   0.016  15.798  0.7136  0.3406 -0.2420
  480TMC3    C8 7201   1.801   0.116  15.645  0.5719  0.4533  0.4425
  480TMC3    O1 7202   2.316   4.691  15.886 -0.2416  0.4204 -0.2113
  480TMC3    O2 7203   1.692   0.061  15.643 -0.1857 -0.4144  0.0982
  481MPD2     C 7204   3.389   4.640  14.177  0.0603 -0.1448  0.1192
  481MPD2    C1 7205   3.337   4.513  14.182  0.5187  0.0975  0.6179
  481MPD2    C2 7206   3.310   4.462  14.310  0.7868 -0.1033 -0.0901
  481MPD2    C3 7207   3.333   4.541  14.426 -0.3368  0.2238 -0.2111
  481MPD2    C4 7208   3.367   4.668  14.410 -0.7335 -0.1026 -0.1175
  481MPD2    C5 7209   3.405   4.714  14.289  0.5289  1.1503  0.1657
  481MPD2     H 7210   3.280   4.358  14.322 -1.5379  0.2207 -3.3595
  481MPD2    H1 7211   3.385   4.736  14.492 -1.0899 -1.8588  1.3897
  481MPD2    H2 7212   3.424   4.679  14.082  0.7692 -0.6626  0.1671
  481MPD2    H3 7213   3.448   0.075  14.284  3.5259 -0.3123 -3.0719
  481MPD2     N 7214   3.323   4.497  14.558  0.0238  0.0701 -0.2807
  481MPD2    H5 7215   3.347   4.560  14.634 -1.1369 -0.3367  0.4294
  481MPD2    N1 7216   3.302   4.433  14.069 -0.1720  0.4862 -0.0496
  481MPD2    H7 7217   3.321   4.482  13.981 -0.4858 -0.3197 -0.5611
  482TMC3    C1 7218   3.185   4.278  13.943 -0.0120  0.2644  0.0516
  482TMC3    C2 7219   3.159   4.148  13.931  1.2054 -0.5256  0.2705
  482TMC3    C3 7220   3.123   4.109  13.804 -1.0551 -0.1916 -0.1449
  482TMC3    C4 7221   3.177   4.374  13.844  0.0698  0.2512  0.5277
  482TMC3    C5 7222   3.129   4.327  13.722  0.7629 -0.0744  0.1867
  482TMC3    C6 7223   3.111   4.190  13.695 -0.4624 -0.1069 -0.4646
  482TMC3     C 7224   3.251   4.311  14.065  0.1419  0.1417 -0.1236
  482TMC3     O 7225   3.249   4.226  14.151  0.6049  0.3174 -0.0556
  482TMC3     H 7226   3.183   4.076  14.008 -1.2228 -0.7808  0.7771
  482TMC3    H1 7227   3.190   4.480  13.864  1.9336  0.5294 -2.1722
  482TMC3    H2 7228   3.081   4.159  13.595  2.8151 -1.2700 -1.0751
  482TMC3    C7 7229   3.127   4.417  13.614  0.2725 -0.7295 -0.3483
  482TMC3    C8 7230   3.101   3.961  13.784  0.5130  0.3677 -0.3758
  482TMC3    O1 7231   3.114   4.371  13.502 -0.3091  0.0776 -0.2839
  482TMC3    O2 7232   3.115   3.892  13.884 -0.6018  0.0085  0.0483
  483TMC3    C1 7233   2.940   3.000   1.284 -0.0777  0.4136  0.3242
  483TMC3    C2 7234   2.885   3.074   1.187  0.0622 -0.3741  0.2430
  483TMC3    C3 7235   2.919   3.037   1.059 -0.1266 -0.6334 -0.1207
  483TMC3    C4 7236   3.022   2.890   1.271 -0.2546  0.4633  0.5158
  483TMC3    C5 7237   3.050   2.848   1.147  0.2847  0.9389 -0.6176
  483TMC3    C6 7238   2.998   2.922   1.033  0.0118  0.5795 -0.7987
  483TMC3     C 7239   2.854   2.996   1.404 -0.3477  0.0696  0.0693
  483TMC3     O 7240   2.902   2.978   1.516  0.7477  0.1188 -0.1280
  483TMC3     H 7241   2.805   3.144   1.208  0.3351 -0.0312  0.1380
  483TMC3    H1 7242   3.019   2.822   1.356 -0.3580  1.3428  1.2249
  483TMC3    H2 7243   2.991   2.872   0.937  1.9316 -0.6072 -0.3258
  483TMC3    C7 7244   3.039   2.705   1.130 -0.4638 -0.1316 -0.3148
  483TMC3    C8 7245   2.867   3.124   0.949  0.2080  0.1404  0.3034
  483TMC3    O1 7246   3.004   2.660   1.021  0.6100 -0.3925 -0.2436
  483TMC3    O2 7247   2.754   3.170   0.952 -0.2488  0.5537  0.2667
  484MPD2     C 7248   3.880   1.285  12.031 -0.3474 -0.2286 -0.4171
  484MPD2    C1 7249   3.935   1.200  12.127  0.6030  0.6710  0.7109
  484MPD2    C2 7250   4.073   1.195  12.137 -0.0253  0.5842 -0.0825
  484MPD2    C3 7251   4.156   1.286  12.071  0.1358 -0.1239  0.3491
  484MPD2    C4 7252   4.097   1.378  11.987 -0.3556 -0.0452 -0.0538
  484MPD2    C5 7253   3.964   1.367  11.962  0.8407 -0.7074 -0.4182
  484MPD2     H 7254   4.124   1.127  12.204 -0.9684  0.1729  0.2090
  484MPD2    H1 7255   4.164   1.438  11.927 -0.0928 -0.8794 -0.6062
  484MPD2    H2 7256   3.776   1.281  12.000 -0.1801 -1.1059 -0.8650
  484MPD2    H3 7257   3.919   1.429  11.886  0.5045 -1.2331 -0.6389
  484MPD2     N 7258   4.292   1.289  12.086  0.8547 -0.4331 -0.1507
  484MPD2    H5 7259   4.337   1.376  12.060  0.7994 -1.3398 -3.2601
  484MPD2    N1 7260   3.848   1.110  12.205  0.0194  0.5168  0.4554
  484MPD2    H7 7261   3.747   1.126  12.201  0.3143  2.2137 -0.1571
  485TMC3    C1 7262   4.507   1.219  12.155  0.5784 -0.2028 -0.3505
  485TMC3    C2 7263   4.569   1.136  12.247 -0.4046  0.8802 -0.3008
  485TMC3    C3 7264   4.669   1.201  12.319  0.1419  0.7161 -1.0846
  485TMC3    C4 7265   4.562   1.336  12.103 -0.5073 -0.0825 -0.1431
  485TMC3    C5 7266   4.686   1.370  12.151  0.7475 -0.1846 -0.5379
  485TMC3    C6 7267   4.734   1.310  12.263  0.2896  0.1011 -0.5142
  485TMC3     C 7268   4.367   1.193  12.145 -0.3804  0.6000  0.1444
  485TMC3     O 7269   4.336   1.079  12.169 -0.1241 -0.2120 -0.1987
  485TMC3     H 7270   4.524   1.049  12.294  3.2631 -0.8325  0.0462
  485TMC3    H1 7271   4.527   1.377  12.009 -0.8052 -1.8704 -0.8078
  485TMC3    H2 7272   0.077   1.358  12.317 -1.1423  0.4583  1.3451
  485TMC3    C7 7273   0.047   1.367  12.052  0.0306  0.2624  0.0827
  485TMC3    C8 7274   0.025   1.106  12.362  0.1758 -0.3093  0.0157
  485TMC3    O1 7275   0.027   1.427  11.946 -0.2617 -0.0697 -0.1446
  485TMC3    O2 7276   0.141   1.131  12.320 -0.0481  0.2339  0.1930
  486MPD2     C 7277   1.430   0.241  13.319  0.2032  0.3646 -0.2562
  486MPD2    C1 7278   1.520   0.217  13.220 -0.2629  0.5092  0.1772
  486MPD2    C2 7279   1.517   0.298  13.103 -0.6578 -0.4194 -0.6001
  486MPD2    C3 7280   1.418   0.397  13.086 -0.5866  0.2723 -0.4530
  486MPD2    C4 7281   1.326   0.409  13.190  0.1853 -0.1984  0.5371
  486MPD2    C5 7282   1.331   0.331  13.303 -0.2328 -0.3253  0.3785
  486MPD2     H 7283   1.589   0.278  13.024  1.6530 -1.2160  1.7287
  486MPD2    H1 7284   1.251   0.487  13.194  0.0916 -0.2923  0.6207
  486MPD2    H2 7285   1.430   0.175  13.405  2.6629 -0.2105 -0.7226
  486MPD2    H3 7286   1.252   0.343  13.375  0.0383  2.0099  0.2900
  486MPD2     N 7287   1.418   0.469  12.970 -0.1465  1.1183  0.3984
  486MPD2    H5 7288   1.470   0.427  12.894 -1.2864  0.6196 -0.1150
  486MPD2    N1 7289   1.615   0.110  13.231  0.1074 -0.6076  0.0077
  486MPD2    H7 7290   1.672   0.086  13.151  0.0207  0.9106 -0.5019
  487TMC3    C1 7291   1.776   4.719  13.329  0.2500 -0.5489 -0.1139
  487TMC3    C2 7292   1.758   4.609  13.252  0.1813  0.5122  0.3075
  487TMC3    C3 7293   1.841   4.510  13.279  0.1856  0.5614 -0.3352
  487TMC3    C4 7294   1.879   4.729  13.425 -0.5291  0.1358 -0.3096
  487TMC3    C5 7295   1.963   4.621  13.443 -0.3812 -0.1123  0.5913
  487TMC3    C6 7296   1.950   4.511  13.364  0.1921 -0.2650  0.2728
  487TMC3     C 7297   1.665   0.073  13.357  0.4701 -0.2128  0.0841
  487TMC3     O 7298   1.645   0.115  13.468  0.8049  0.0496  0.4773
  487TMC3     H 7299   1.673   4.597  13.186  1.5525 -2.0647 -0.9832
  487TMC3    H1 7300   1.883   0.083  13.482 -3.5236 -0.5159  0.9193
  487TMC3    H2 7301   2.004   4.422  13.397  0.0775  1.3165  4.7481
  487TMC3    C7 7302   1.971   4.588  13.582  0.1003  0.2298 -0.1192
  487TMC3    C8 7303   1.769   4.382  13.275  0.7872  0.4520  0.2838
  487TMC3    O1 7304   1.936   4.477  13.619 -0.0543 -0.5496 -0.1084
  487TMC3    O2 7305   1.642   4.392  13.265 -0.4431 -0.0707  0.2566
  488MPD2     C 7306   1.620   1.485  16.279  0.6599  0.1555  0.6389
  488MPD2    C1 7307   1.701   1.589  16.315  0.3916 -0.5674  0.0572
  488MPD2    C2 7308   1.720   1.614  16.447 -0.6935 -0.3066  0.1496
  488MPD2    C3 7309   1.664   1.536  16.548  0.5063  0.1059  0.3105
  488MPD2    C4 7310   1.569   1.437  16.510  0.4935  0.0043 -0.4424
  488MPD2    C5 7311   1.548   1.422  16.375  0.2534  0.2271  0.5398
  488MPD2     H 7312   1.799   1.685  16.468 -0.2633 -0.1526 -2.0291
  488MPD2    H1 7313   1.521   1.368  16.579  2.0544 -0.5461  0.0969
  488MPD2    H2 7314   1.601   1.461  16.175 -1.8948  0.3995  1.0420
  488MPD2    H3 7315   1.486   1.337  16.347  0.1849  0.8594 -1.2906
  488MPD2     N 7316   1.697   1.566  16.683 -0.0494  0.1816 -0.1040
  488MPD2    H5 7317   1.764   1.641  16.692  0.3774 -0.3201  0.9354
  488MPD2    N1 7318   1.762   1.672  16.222  0.1509  0.0266 -0.0895
  488MPD2    H7 7319   1.798   1.755  16.267  1.2689 -0.8559  0.6587
  489TMC3    C1 7320   1.667   1.603  16.911  0.0349  0.2790 -0.3416
  489TMC3    C2 7321   1.696   1.739  16.888 -0.0454  0.0811 -0.4050
  489TMC3    C3 7322   1.697   1.814  17.001  0.4848 -0.0175 -0.2609
  489TMC3    C4 7323   1.647   1.550  17.035 -0.0012 -0.1277 -0.0747
  489TMC3    C5 7324   1.680   1.623  17.141  0.1459 -0.2820 -0.3677
  489TMC3    C6 7325   1.698   1.755  17.124 -0.2581 -0.1750  0.2150
  489TMC3     C 7326   1.646   1.514  16.800  0.2221 -0.2469  0.1942
  489TMC3     O 7327   1.604   1.399  16.820  0.2758  0.2083 -0.2666
  489TMC3     H 7328   1.693   1.783  16.789  1.6504 -1.6827 -1.2381
  489TMC3    H1 7329   1.658   1.442  17.038  1.2502 -0.0161 -0.5173
  489TMC3    H2 7330   1.733   1.813  17.209 -0.9684 -0.4126  0.6758
  489TMC3    C7 7331   1.657   1.580  17.279  0.2490  0.0474  0.0562
  489TMC3    C8 7332   1.743   1.948  16.991  0.3440 -0.1992  0.4837
  489TMC3    O1 7333   1.684   1.648  17.373 -0.5139 -1.1386  0.2892
  489TMC3    O2 7334   1.818   1.969  16.899 -0.0443  0.3595 -0.3055
  490MPD2     C 7335   2.752   0.974  17.714 -0.2455 -0.4927  0.3915
  490MPD2    C1 7336   2.627   1.001  17.664  0.1145 -0.5134  0.8547
  490MPD2    C2 7337   2.603   1.115  17.594 -0.2696  0.2538 -0.2600
  490MPD2    C3 7338   2.708   1.204  17.559 -0.8296  0.8287 -0.1949
  490MPD2    C4 7339   2.829   1.171  17.606 -0.4517 -0.2302 -0.1098
  490MPD2    C5 7340   2.855   1.059  17.686  1.3232 -0.0455  0.2653
  490MPD2     H 7341   2.497   1.134  17.575 -0.0922 -0.8860 -2.3595
  490MPD2    H1 7342   2.904   1.249  17.597 -0.9231  0.1301 -0.9664
  490MPD2    H2 7343   2.774   0.878   0.008 -0.4192 -1.3923 -1.4269
  490MPD2    H3 7344   2.949   1.035  17.734  0.1816 -0.5679  2.2691
  490MPD2     N 7345   2.704   1.321  17.484  0.3660 -0.1813 -0.4159
  490MPD2    H5 7346   2.794   1.358  17.456  0.9308  0.2081  1.8919
  490MPD2    N1 7347   2.508   0.932  17.695 -0.4896  0.0760  0.1917
  490MPD2    H7 7348   2.428   0.975  17.651 -0.6126 -0.9705 -0.6070
  491TMC3    C1 7349   2.351   0.786   0.025  0.9196  0.7440 -0.3781
  491TMC3    C2 7350   2.306   0.730   0.139 -0.0647  0.7622  0.1888
  491TMC3    C3 7351   2.193   0.655   0.130  0.0832 -0.2198 -0.0603
  491TMC3    C4 7352   2.295   0.770  17.650 -0.8009 -0.2996 -0.1226
  491TMC3    C5 7353   2.170   0.705  17.654 -0.0954  0.0040  0.1069
  491TMC3    C6 7354   2.123   0.638   0.011 -0.2826  0.6589  0.2807
  491TMC3     C 7355   2.487   0.834   0.036  0.4400 -0.6003 -0.4519
  491TMC3     O 7356   2.564   0.791   0.122  0.0951  0.7922 -0.7175
  491TMC3     H 7357   2.365   0.730   0.230  0.3991  3.3977 -0.1096
  491TMC3    H1 7358   2.349   0.790  17.558 -2.0148  0.5004 -0.6535
  491TMC3    H2 7359   2.029   0.585   0.002  0.1770  0.3151 -2.5211
  491TMC3    C7 7360   2.091   0.692  17.533  0.1470 -0.8208 -0.0143
  491TMC3    C8 7361   2.116   0.656   0.256 -0.9542  0.4081  0.2517
  491TMC3    O1 7362   2.008   0.603  17.522 -0.1539 -0.0475 -0.3833
  491TMC3    O2 7363   2.148   0.750   0.325  0.4400 -0.8600 -0.5254
  492MPD2     C 7364   3.032   0.983  11.137 -0.2609  0.2776 -0.3845
  492MPD2    C1 7365   2.903   0.954  11.091 -0.2141  0.0385 -0.1969
  492MPD2    C2 7366   2.824   0.876  11.165  0.7551 -0.3095  0.4228
  492MPD2    C3 7367   2.856   0.819  11.289  0.0738  0.6083 -0.4029
  492MPD2    C4 7368   2.982   0.855  11.336 -0.1363 -0.0590 -0.1482
  492MPD2    C5 7369   3.063   0.930  11.263  0.0881  0.1724  0.4122
  492MPD2     H 7370   2.730   0.838  11.127  0.5795  1.6605 -1.1193
  492MPD2    H1 7371   3.010   0.808  11.430 -0.5097 -0.2791 -0.1501
  492MPD2    H2 7372   3.101   1.048  11.086 -0.0820  1.9175  1.9308
  492MPD2    H3 7373   3.158   0.966  11.299  1.0258 -0.4608 -1.3988
  492MPD2     N 7374   2.773   0.719  11.359  0.2129 -0.1425  0.4616
  492MPD2    H5 7375   2.810   0.697  11.451 -0.9395  0.0023  0.9683
  492MPD2    N1 7376   2.867   1.022  10.973 -0.2044  0.4742 -0.1448
  492MPD2    H7 7377   2.935   1.077  10.922  1.9328 -2.4756 -0.4693
  493TMC3    C1 7378   2.738   1.061  10.772  0.4002 -0.3269  0.3708
  493TMC3    C2 7379   2.794   1.183  10.756  0.3558  0.3356  0.6674
  493TMC3    C3 7380   2.752   1.270  10.652 -0.0778 -0.0823  0.1389
  493TMC3    C4 7381   2.629   1.018  10.698  0.6726  0.4817  0.0264
  493TMC3    C5 7382   2.585   1.110  10.604  0.0516  0.5223  0.3629
  493TMC3    C6 7383   2.646   1.231  10.569 -0.1671 -0.1000  0.4022
  493TMC3     C 7384   2.751   0.995  10.903 -0.2743  0.2165  0.6878
  493TMC3     O 7385   2.669   0.909  10.920 -0.7131 -0.0927  0.3110
  493TMC3     H 7386   2.875   1.222  10.817  1.4959  0.7734 -1.1490
  493TMC3    H1 7387   2.591   0.917  10.702 -0.5832  0.9365 -0.4681
  493TMC3    H2 7388   2.609   1.284  10.483  0.8023 -1.1435 -0.6652
  493TMC3    C7 7389   2.481   1.061  10.518 -0.6670 -0.2101  0.4014
  493TMC3    C8 7390   2.711   1.387  10.728 -0.0948  0.4989 -0.1857
  493TMC3    O1 7391   2.465   1.108  10.406  0.0856 -0.1715  0.0198
  493TMC3    O2 7392   2.703   1.361  10.845  0.0318 -0.2850 -0.2241
  494TMC3    C1 7393   3.153   2.769   0.313  0.0372 -0.0874 -0.5810
  494TMC3    C2 7394   3.066   2.660   0.306  0.4987 -0.4248  0.1192
  494TMC3    C3 7395   3.012   2.636   0.189 -0.3739  0.0004  0.3763
  494TMC3    C4 7396   3.152   2.865   0.222 -0.1062  0.2079  0.3267
  494TMC3    C5 7397   3.076   2.846   0.103 -0.4582  0.6698 -0.4053
  494TMC3    C6 7398   3.003   2.732   0.091  0.0959  0.9564  0.2801
  494TMC3     C 7399   3.217   2.802   0.437  0.0974 -1.1203 -0.4180
  494TMC3     O 7400   3.221   2.920   0.475  0.3406 -0.3045 -0.4054
  494TMC3     H 7401   3.063   2.582   0.382  1.3015 -1.2775 -0.7280
  494TMC3    H1 7402   3.221   2.946   0.242  1.4663 -1.1741  0.4663
  494TMC3    H2 7403   2.956   2.703  17.749  0.2197 -2.6937  1.3523
  494TMC3    C7 7404   3.106   2.933  17.743 -0.0626 -0.1651  0.3940
  494TMC3    C8 7405   2.968   2.499   0.158 -0.1550 -1.2743 -0.1036
  494TMC3    O1 7406   3.222   2.965  17.729  0.0259  0.2310 -0.3909
  494TMC3    O2 7407   2.871   2.477   0.089  0.0691 -0.0876  0.2976
  495TMC3    C1 7408   2.248   0.428  14.843 -0.2690  0.5908 -0.0281
  495TMC3    C2 7409   2.183   0.490  14.739 -0.4958 -0.5097 -0.4032
  495TMC3    C3 7410   2.055   0.528  14.760 -0.9490  0.3139  0.0306
  495TMC3    C4 7411   2.198   0.435  14.973  0.2757  0.4513  0.0493
  495TMC3    C5 7412   2.077   0.496  14.997  0.4315 -0.8185 -0.0280
  495TMC3    C6 7413   2.002   0.545  14.890 -0.2018  0.4109 -0.5429
  495TMC3     C 7414   2.395   0.432  14.820 -0.3586 -0.2520  0.0012
  495TMC3     O 7415   2.459   0.509  14.890  0.2789  0.6233  0.2559
  495TMC3     H 7416   2.224   0.507  14.640  2.3049  1.2238  1.0927
  495TMC3    H1 7417   2.259   0.392  15.052 -1.7620 -1.2689  0.6850
  495TMC3    H2 7418   1.906   0.591  14.907  0.9150  2.1341  1.0901
  495TMC3    C7 7419   2.025   0.467  15.127 -0.4088  0.5505 -0.4816
  495TMC3    C8 7420   1.954   0.462  14.676  0.5085  0.3693  0.0187
  495TMC3    O1 7421   2.108   0.453  15.222  0.3204  0.2866  0.8142
  495TMC3    O2 7422   1.842   0.442  14.720 -0.2263 -0.3368  0.1660
  496MPD2     C 7423   4.024   4.682  15.423  0.9877  0.9216  0.2107
  496MPD2    C1 7424   4.045   0.079  15.413  0.1334  0.3202  0.7290
  496MPD2    C2 7425   3.953   0.168  15.465  0.8439  0.2762 -0.2032
  496MPD2    C3 7426   3.843   0.118  15.534  0.4898 -0.0596 -0.8864
  496MPD2    C4 7427   3.824   4.719  15.539 -0.3276  0.1719 -0.0867
  496MPD2    C5 7428   3.914   4.632  15.489  0.2489  0.3658  0.1092
  496MPD2     H 7429   3.964   0.276  15.455 -0.6280  0.2588 -2.0208
  496MPD2    H1 7430   3.735   4.686  15.592 -1.7939 -0.6352 -3.0430
  496MPD2    H2 7431   4.092   4.611  15.378 -0.3678  0.7654 -1.6004
  496MPD2    H3 7432   3.897   4.525  15.494 -1.0318  0.4611 -2.3020
  496MPD2     N 7433   3.745   0.200  15.598 -0.5990 -0.1470 -0.3578
  496MPD2    H5 7434   3.673   0.156  15.653  0.1621 -1.3561 -0.3435
  496MPD2    N1 7435   4.151   0.120  15.327 -0.2192  0.0895  0.5321
  496MPD2    H7 7436   4.213   0.053  15.283 -1.9608 -0.4133 -1.1553
  497TMC3    C1 7437   3.656   0.397  15.679  0.4435 -0.0155  0.4925
  497TMC3    C2 7438   3.609   0.519  15.649  0.1409  0.5850 -0.2411
  497TMC3    C3 7439   3.598   0.606  15.755  1.0277 -0.2614  0.3516
  497TMC3    C4 7440   3.668   0.346  15.807  0.1507  0.0483  1.0542
  497TMC3    C5 7441   3.649   0.438  15.907  0.3594 -0.0029  0.1893
  497TMC3    C6 7442   3.613   0.567  15.886  0.1372  0.4648 -0.4975
  497TMC3     C 7443   3.741   0.337  15.583  0.3913  0.6444 -1.0802
  497TMC3     O 7444   3.786   0.414  15.497 -0.6036  0.5559 -0.4693
  497TMC3     H 7445   3.586   0.542  15.546  0.3799  0.6811 -0.2716
  497TMC3    H1 7446   3.698   0.246  15.839 -0.5719 -0.9455 -1.4049
  497TMC3    H2 7447   3.597   0.639  15.966  1.5126  0.6093 -0.3467
  497TMC3    C7 7448   3.670   0.392  16.038 -0.1730  0.3578 -0.2701
  497TMC3    C8 7449   3.579   0.751  15.732 -0.0869  0.2635 -0.6522
  497TMC3    O1 7450   3.632   0.278  16.050  0.4493  0.2792 -0.1153
  497TMC3    O2 7451   3.540   0.829  15.823 -0.4584  0.1614  0.0350
  498MPD2     C 7452   4.165   1.434   9.456 -0.1585 -0.0111  0.1025
  498MPD2    C1 7453   4.253   1.404   9.562  0.1104  1.2715 -0.0013
  498MPD2    C2 7454   4.210   1.308   9.653 -0.1136 -0.4889  0.9696
  498MPD2    C3 7455   4.082   1.257   9.652 -0.4662  0.0264  0.3581
  498MPD2    C4 7456   3.997   1.300   9.551  0.1722  1.4437  0.2138
  498MPD2    C5 7457   4.039   1.390   9.459  0.0798  0.4613  0.0272
  498MPD2     H 7458   4.272   1.280   9.738  0.4291 -2.3111 -0.0314
  498MPD2    H1 7459   3.898   1.259   9.539  0.2798  1.0052  0.8190
  498MPD2    H2 7460   4.192   1.497   9.372 -0.1041 -3.1745 -2.2395
  498MPD2    H3 7461   3.977   1.407   9.372 -1.7940  1.7780  1.6090
  498MPD2     N 7462   4.044   1.165   9.756 -0.6296 -0.5902  0.2844
  498MPD2    H5 7463   4.120   1.131   9.814 -1.7010 -1.7437  1.0251
  498MPD2    N1 7464   4.385   1.445   9.575  0.0743  0.5517 -0.2010
  498MPD2    H7 7465   4.444   1.393   9.640 -0.8988 -0.5597 -0.2031
  499TMC3    C1 7466   4.596   1.504   9.507 -0.6660 -0.3785  0.7190
  499TMC3    C2 7467   4.641   1.374   9.521 -0.3800  0.3905 -0.4720
  499TMC3    C3 7468   0.031   1.351   9.497  0.0632  0.1723 -0.9143
  499TMC3    C4 7469   4.676   1.603   9.459 -0.5007 -0.4567  0.3833
  499TMC3    C5 7470   0.063   1.570   9.431 -0.6637 -0.0932 -0.1815
  499TMC3    C6 7471   0.113   1.445   9.460  0.7567 -0.5504  0.5101
  499TMC3     C 7472   4.451   1.526   9.491 -0.8522  0.5117  0.0423
  499TMC3     O 7473   4.407   1.601   9.406  0.2524 -0.1862 -0.6767
  499TMC3     H 7474   4.575   1.289   9.532 -1.5364  1.4566  0.8352
  499TMC3    H1 7475   4.637   1.703   9.443  1.6621  0.1870 -0.8927
  499TMC3    H2 7476   0.221   1.435   9.459  0.7833 -0.4736  2.1817
  499TMC3    C7 7477   0.162   1.681   9.435 -0.3007 -0.7999 -0.2867
  499TMC3    C8 7478   0.096   1.223   9.511 -0.1065 -0.0620  0.1649
  499TMC3    O1 7479   0.266   1.662   9.375  0.4959  0.5018 -0.8466
  499TMC3    O2 7480   0.201   1.211   9.450 -0.2398 -0.5040 -0.2013
  500MPD2     C 7481   1.593   2.666  10.660 -0.0226 -0.2135  0.5226
  500MPD2    C1 7482   1.635   2.650  10.530  0.0568 -0.6596  0.2047
  500MPD2    C2 7483   1.555   2.702  10.427 -0.5988 -0.3191 -0.6477
  500MPD2    C3 7484   1.419   2.747  10.459  0.4613  0.2185  0.4677
  500MPD2    C4 7485   1.377   2.765  10.590 -0.0840 -0.6940  0.5268
  500MPD2    C5 7486   1.476   2.727  10.687  0.0992  0.2453  0.3908
  500MPD2     H 7487   1.590   2.697  10.324  0.7204  0.4952 -0.2434
  500MPD2    H1 7488   1.271   2.784  10.604 -0.3442 -1.6720 -0.1047
  500MPD2    H2 7489   1.653   2.624  10.741  1.5463 -1.2292 -1.1617
  500MPD2    H3 7490   1.453   2.719  10.792  0.2633 -0.9927  0.3299
  500MPD2     N 7491   1.317   2.788  10.360  0.4349 -0.6471 -0.0612
  500MPD2    H5 7492   1.223   2.805  10.394  0.8115 -0.6796  0.9982
  500MPD2    N1 7493   1.749   2.576  10.492 -0.0303  0.2689 -0.5077
  500MPD2    H7 7494   1.789   2.577  10.399 -1.5466 -0.8870 -1.1800
  501TMC3    C1 7495   1.942   2.451  10.534  0.4213  0.2387  0.0533
  501TMC3    C2 7496   2.027   2.558  10.521  0.3312 -0.3224 -0.2510
  501TMC3    C3 7497   2.159   2.544  10.535  0.1579  0.0064 -0.6013
  501TMC3    C4 7498   1.990   2.332  10.568  0.1432  0.2823  0.1548
  501TMC3    C5 7499   2.122   2.323  10.596  0.1994  0.0910 -0.3077
  501TMC3    C6 7500   2.214   2.425  10.576 -0.1314  0.0427  0.1289
  501TMC3     C 7501   1.806   2.482  10.578 -0.2504 -0.0848 -0.2079
  501TMC3     O 7502   1.765   2.435  10.684  0.0329 -0.2722  0.1585
  501TMC3     H 7503   1.983   2.657  10.506 -1.5360 -1.0175  0.6961
  501TMC3    H1 7504   1.920   2.254  10.596  0.2036 -0.4541 -1.7643
  501TMC3    H2 7505   2.319   2.407  10.596  0.0316 -1.3526 -2.0337
  501TMC3    C7 7506   2.157   2.234  10.701  0.5170  0.1680 -0.1206
  501TMC3    C8 7507   2.250   2.660  10.556  0.2219 -0.2648 -0.0532
  501TMC3    O1 7508   2.105   2.124  10.691  0.3342  0.3126  0.9047
  501TMC3    O2 7509   2.371   2.634  10.556 -0.5816  0.3798 -0.2312
  502TMC3    C1 7510   1.744   1.306  15.063 -0.1561 -0.0264  0.9028
  502TMC3    C2 7511   1.707   1.435  15.060 -0.2439 -0.2746  0.0758
  502TMC3    C3 7512   1.573   1.455  15.038 -0.2389  0.1127 -0.2558
  502TMC3    C4 7513   1.653   1.208  15.041 -0.3152  0.3907  0.2968
  502TMC3    C5 7514   1.519   1.230  15.019 -0.9987  0.2847 -0.0743
  502TMC3    C6 7515   1.471   1.363  15.027  0.8911 -0.2881 -0.6476
  502TMC3     C 7516   1.846   1.261  15.155 -0.7002 -0.1527 -0.4525
  502TMC3     O 7517   1.944   1.329  15.159 -0.3424  0.1582  0.4083
  502TMC3     H 7518   1.777   1.515  15.080  2.2174 -2.0687 -1.3383
  502TMC3    H1 7519   1.685   1.105  15.027 -0.9735  0.0842  0.9825
  502TMC3    H2 7520   1.364   1.378  15.025  1.0629  1.0631  0.4833
  502TMC3    C7 7521   1.448   1.145  15.107 -0.2163 -0.0409  0.4828
  502TMC3    C8 7522   1.535   1.594  15.014  0.1222 -0.0670  0.0378
  502TMC3    O1 7523   1.505   1.106  15.207  0.0978 -0.2901 -0.1074
  502TMC3    O2 7524   1.620   1.679  14.989 -0.0518  0.0978  0.5239
  503MPD2     C 7525   3.414   1.973  16.840  0.2833 -0.2976 -0.2992
  503MPD2    C1 7526   3.455   2.012  16.961  0.0577  0.1541 -0.0534
  503MPD2    C2 7527   3.481   1.925  17.063 -0.5497  0.0647  0.3214
  503MPD2    C3 7528   3.467   1.791  17.042 -0.2657 -0.1377  0.4780
  503MPD2    C4 7529   3.435   1.750  16.916 -0.5343  0.0643  0.9883
  503MPD2    C5 7530   3.421   1.837  16.813 -0.1463  0.2326  0.2578
  503MPD2     H 7531   3.513   1.958  17.162 -0.9905  0.2417  0.4025
  503MPD2    H1 7532   3.419   1.647  16.887  1.9442  0.3619 -1.4304
  503MPD2    H2 7533   3.384   2.036  16.757 -0.9562 -0.8599 -0.2721
  503MPD2    H3 7534   3.406   1.810  16.709 -1.6071  0.0366  0.5224
  503MPD2     N 7535   3.506   1.699  17.138 -0.4589 -0.1139  1.2147
  503MPD2    H5 7536   3.537   1.734  17.227  1.1659  3.0774 -0.6132
  503MPD2    N1 7537   3.470   2.153  16.985  0.5781  0.2699 -0.3249
  503MPD2    H7 7538   3.478   2.184  17.081 -0.0754 -0.0959 -0.1509
  504TMC3    C1 7539   3.592   1.510  17.234 -0.0455  0.4831  0.2950
  504TMC3    C2 7540   3.560   1.401  17.302  0.2952  0.3751 -0.1126
  504TMC3    C3 7541   3.633   1.347  17.403  0.2223  0.2704 -0.2553
  504TMC3    C4 7542   3.712   1.568  17.260 -0.6723  0.0076  0.0635
  504TMC3    C5 7543   3.800   1.507  17.345  0.7063  0.0767 -0.5856
  504TMC3    C6 7544   3.756   1.401  17.428  0.6373  0.1501 -0.2674
  504TMC3     C 7545   3.512   1.559  17.133  0.7407  0.5833 -0.8775
  504TMC3     O 7546   3.478   1.486  17.041 -0.8723 -0.1118 -0.5368
  504TMC3     H 7547   3.463   1.361  17.274  0.1109  0.4752  0.3715
  504TMC3    H1 7548   3.750   1.649  17.200  2.2921 -2.1920 -1.0449
  504TMC3    H2 7549   3.820   1.344  17.494 -0.4635 -0.7707 -0.0001
  504TMC3    C7 7550   3.943   1.518  17.305 -0.5384 -0.0192  0.0038
  504TMC3    C8 7551   3.560   1.251  17.485 -0.4633  0.2299  0.2895
  504TMC3    O1 7552   3.974   1.584  17.208  0.0538  0.5301  0.4102
  504TMC3    O2 7553   3.456   1.204  17.444  0.2822 -0.7465 -0.4937
  505MPD2     C 7554   3.983   4.695  10.678 -0.3966  0.6227  0.1477
  505MPD2    C1 7555   4.053   4.720  10.564 -0.2588  0.0850 -0.0328
  505MPD2    C2 7556   4.153   0.078  10.566 -0.3109 -0.2646 -0.2985
  505MPD2    C3 7557   4.198   0.129  10.685 -0.2063  0.5267 -0.5305
  505MPD2    C4 7558   4.126   0.112  10.802  0.2391 -0.3539 -0.2423
  505MPD2    C5 7559   4.016   0.025  10.795 -0.3489  0.2389  0.0177
  505MPD2     H 7560   4.204   0.096  10.471 -1.1356 -2.0084 -1.0710
  505MPD2    H1 7561   4.142   0.177  10.887  0.9754  0.9308 -1.3770
  505MPD2    H2 7562   3.903   4.623  10.689 -0.7562  1.3333  2.0864
  505MPD2    H3 7563   3.955   0.008  10.883 -2.1801 -3.9614 -2.0825
  505MPD2     N 7564   4.321   0.205  10.679 -0.1156 -0.6873 -0.1527
  505MPD2    H5 7565   4.365   0.228  10.591 -0.4059  2.0838  0.4283
  505MPD2    N1 7566   4.022   4.658  10.441 -0.3748 -0.1501 -0.3312
  505MPD2    H7 7567   4.084   4.685  10.365 -2.3355  0.9412 -1.5455
  506TMC3    C1 7568   3.960   4.512  10.285 -0.4653  0.8005  0.4664
  506TMC3    C2 7569   3.949   4.607  10.188 -0.4193  0.0509  0.4524
  506TMC3    C3 7570   4.036   4.605  10.083  0.0739  0.0710 -0.1610
  506TMC3    C4 7571   4.069   4.424  10.291  0.4381 -0.0964 -0.5158
  506TMC3    C5 7572   4.149   4.428  10.183  0.6608  0.2522 -0.5124
  506TMC3    C6 7573   4.140   4.520  10.082  0.0574  0.4195  0.6198
  506TMC3     C 7574   3.935   4.560  10.418 -0.0849  0.0356 -0.1712
  506TMC3     O 7575   3.863   4.497  10.492  0.1267  0.1247 -0.0543
  506TMC3     H 7576   3.867   4.678  10.194  0.4540  0.9899  1.3103
  506TMC3    H1 7577   4.081   4.345  10.363 -1.4969  0.7717  0.7572
  506TMC3    H2 7578   4.218   4.534  10.008 -1.9917  0.9778 -1.4473
  506TMC3    C7 7579   4.281   4.389  10.214 -0.4580  0.0733 -0.7094
  506TMC3    C8 7580   4.014   4.676   9.958 -0.0068 -0.1150 -0.6154
  506TMC3    O1 7581   4.295   4.279  10.268  0.1225  0.1427 -0.4541
  506TMC3    O2 7582   4.051   4.620   9.855 -0.7835  0.0353 -0.3525
  507TMC3    C1 7583   0.065   1.138  14.915  0.1564  0.2771  0.1847
  507TMC3    C2 7584   0.079   1.096  14.786 -0.0490 -0.6003 -0.3199
  507TMC3    C3 7585   0.128   1.182  14.696 -0.3850 -0.5748 -0.4703
  507TMC3    C4 7586   0.117   1.254  14.959 -0.7445  0.0356 -0.0520
  507TMC3    C5 7587   0.182   1.338  14.872 -0.0631  0.8537  0.1739
  507TMC3    C6 7588   0.187   1.299  14.735 -0.2760  0.3281 -0.0769
  507TMC3     C 7589   4.685   1.103  14.975  0.3019 -0.0200  0.2391
  507TMC3     O 7590   4.678   1.120  15.095  0.5773  0.0028 -0.0236
  507TMC3     H 7591   0.043   0.999  14.754  0.8243 -0.7780 -0.7582
  507TMC3    H1 7592   0.107   1.287  15.061 -1.6955 -1.5007  0.3470
  507TMC3    H2 7593   0.241   1.357  14.661  0.7527  0.4887  0.8004
  507TMC3    C7 7594   0.143   1.482  14.876  0.5320 -0.0583 -0.1353
  507TMC3    C8 7595   0.028   1.205  14.598 -0.5570  0.0097  0.2154
  507TMC3    O1 7596   0.108   1.520  14.765  0.0304  0.4774 -0.1593
  507TMC3    O2 7597   4.693   1.113  14.564  0.1291  0.1740  0.1879
  508MPD2     C 7598   0.864   3.275  16.024  0.2148  0.2505 -0.3111
  508MPD2    C1 7599   0.934   3.391  16.049 -0.3772 -0.9433  0.5401
  508MPD2    C2 7600   0.930   3.502  15.968  0.2003  0.1169  0.0964
  508MPD2    C3 7601   0.846   3.492  15.860 -0.0621  0.7818  0.2877
  508MPD2    C4 7602   0.781   3.376  15.829  0.0991 -0.0440 -0.1620
  508MPD2    C5 7603   0.794   3.263  15.906  0.1122 -0.5385 -0.0193
  508MPD2     H 7604   0.974   3.597  15.992 -0.8142 -0.2409  3.3033
  508MPD2    H1 7605   0.740   3.361  15.729 -1.4666  1.2583  0.2968
  508MPD2    H2 7606   0.878   3.183  16.080 -1.6804  2.3760  3.6491
  508MPD2    H3 7607   0.755   3.172  15.862 -1.6613 -0.1356  0.7449
  508MPD2     N 7608   0.846   3.609  15.782  0.0155  0.3908  0.4644
  508MPD2    H5 7609   0.905   3.688  15.804  1.3107 -0.8426  1.4245
  508MPD2    N1 7610   0.993   3.403  16.178 -0.3892  0.3883 -0.3411
  508MPD2    H7 7611   1.032   3.495  16.197 -0.0012 -0.1620  1.5001
  509TMC3    C1 7612   0.687   3.951  15.504 -0.2035  0.4483  0.0623
  509TMC3    C2 7613   0.813   4.013  15.495 -0.3031  0.0459  0.5147
  509TMC3    C3 7614   0.915   3.942  15.543  0.2745 -0.6087  0.1101
  509TMC3    C4 7615   0.665   3.824  15.555 -0.2864 -0.3421 -0.1861
  509TMC3    C5 7616   0.776   3.758  15.603  0.1568 -0.0173 -0.1159
  509TMC3    C6 7617   0.900   3.812  15.590 -0.3403 -0.3227 -0.5249
  509TMC3     C 7618   0.563   4.019  15.479  0.6207 -1.0941  0.2482
  509TMC3     O 7619   0.465   3.990  15.545  0.3323  0.3132 -0.1595
  509TMC3     H 7620   0.820   4.115  15.460  2.1770  0.3398  1.8992
  509TMC3    H1 7621   0.564   3.796  15.581 -0.1731  0.2714  0.9075
  509TMC3    H2 7622   0.985   3.753  15.621  0.2199  0.7667  0.0500
  509TMC3    C7 7623   0.765   3.629  15.673 -0.2688 -0.3580 -0.5418
  509TMC3    C8 7624   1.041   4.007  15.566 -0.1932  0.1019 -0.4037
  509TMC3    O1 7625   0.654   3.578  15.652 -0.2443  0.2316  0.2686
  509TMC3    O2 7626   1.130   3.936  15.610  0.3789 -0.0110 -0.3371
  510MPD2     C 7627   3.410   0.770  14.529 -0.3414  0.6582  0.1313
  510MPD2    C1 7628   3.461   0.668  14.608  0.4111  1.0375  1.7060
  510MPD2    C2 7629   3.588   0.623  14.566  0.0018 -0.4455  0.2580
  510MPD2    C3 7630   3.647   0.661  14.453 -0.7817  0.0637  0.6155
  510MPD2    C4 7631   3.585   0.756  14.373  0.0337  0.5763  0.4152
  510MPD2    C5 7632   3.464   0.809  14.415  0.5099 -0.3463 -0.3232
  510MPD2     H 7633   3.646   0.552  14.623 -2.2281 -1.2474  1.5154
  510MPD2    H1 7634   3.624   0.800  14.281  2.7998  0.9681  1.7827
  510MPD2    H2 7635   3.315   0.814  14.556 -0.8566  0.4436 -1.3470
  510MPD2    H3 7636   3.418   0.888  14.357  1.0969  0.3243  0.1225
  510MPD2     N 7637   3.779   0.605  14.419  0.5388 -0.7751 -0.3309
  510MPD2    H5 7638   3.816   0.530  14.477  2.4635  0.5762  0.1739
  510MPD2    N1 7639   3.380   0.612  14.710  0.2977  0.5539 -0.7045
  510MPD2    H7 7640   3.285   0.647  14.721  1.5016  2.7452  2.5052
  511TMC3    C1 7641   3.317   0.435  14.839  0.3603  0.2328 -0.6712
  511TMC3    C2 7642   3.231   0.488  14.936  0.7235  0.2455  0.3972
  511TMC3    C3 7643   3.125   0.416  14.970 -0.1966  0.0580  0.1124
  511TMC3    C4 7644   3.304   0.310  14.786 -0.0479  0.3856  0.4693
  511TMC3    C5 7645   3.188   0.242  14.822  0.2487  0.7467  0.1104
  511TMC3    C6 7646   3.103   0.295  14.918  0.7130 -0.4797 -1.0219
  511TMC3     C 7647   3.424   0.509  14.784  0.0452 -0.1830  0.5100
  511TMC3     O 7648   3.539   0.466  14.789 -0.2473  0.3920  0.5132
  511TMC3     H 7649   3.250   0.588  14.972  2.3941  0.4665 -1.1024
  511TMC3    H1 7650   3.361   0.279  14.699 -0.2116 -1.5912  1.0625
  511TMC3    H2 7651   3.013   0.243  14.946 -0.3127  0.3584 -2.7283
  511TMC3    C7 7652   3.147   0.118  14.749  0.0095  0.1318  0.0092
  511TMC3    C8 7653   3.035   0.468  15.071 -0.4632 -0.1773  0.7483
  511TMC3    O1 7654   3.216   0.085  14.654 -0.3747  0.5649  0.1963
  511TMC3    O2 7655   3.059   0.586  15.090  0.1935 -0.5704  0.0090
  512TMC3    C1 7656   2.803   0.100  12.791 -0.7163 -0.2003  0.0518
  512TMC3    C2 7657   2.834   0.077  12.927 -1.0186 -0.2486 -0.4120
  512TMC3    C3 7658   2.834   4.686  12.971  0.2049  0.6223  0.2766
  512TMC3    C4 7659   2.755   0.006  12.704  0.2309  0.0439 -0.0200
  512TMC3    C5 7660   2.744   4.618  12.762  0.2574 -0.3324  0.4985
  512TMC3    C6 7661   2.790   4.592  12.890  0.0569 -0.3287 -0.6647
  512TMC3     C 7662   2.807   0.245  12.750 -0.3902  0.3648 -0.2604
  512TMC3     O 7663   2.870   0.314  12.827 -0.4193 -0.1598 -0.4856
  512TMC3     H 7664   2.879   0.158  12.982 -1.9930 -0.0733  0.1346
  512TMC3    H1 7665   2.753   0.016  12.596  1.7696 -0.7640 -0.1262
  512TMC3    H2 7666   2.784   4.493  12.932  1.2220 -0.8570 -1.7478
  512TMC3    C7 7667   2.656   4.537  12.688  0.6404 -0.2765 -0.7831
  512TMC3    C8 7668   2.823   4.654  13.110  0.3070  0.3695 -0.5702
  512TMC3    O1 7669   2.575   4.600  12.622  0.0226 -0.3577 -0.3710
  512TMC3    O2 7670   2.792   4.544  13.147  0.2404 -0.3521  0.2258
  513MPD2     C 7671   3.765   4.075  13.016  0.7226  0.7903 -0.1260
  513MPD2    C1 7672   3.865   3.986  13.049  0.3972  0.2597 -0.3242
  513MPD2    C2 7673   3.946   4.025  13.155  0.0304 -0.0065  0.0296
  513MPD2    C3 7674   3.942   4.142  13.221 -0.4247 -0.9060  0.0871
  513MPD2    C4 7675   3.827   4.216  13.200  0.6301 -0.2507  0.1129
  513MPD2    C5 7676   3.745   4.179  13.098  1.1505 -0.3001  0.6036
  513MPD2     H 7677   4.034   3.966  13.176 -1.2868 -1.2654  2.0160
  513MPD2    H1 7678   3.812   4.309  13.253  2.6024  0.1359  0.0071
  513MPD2    H2 7679   3.700   4.061  12.931  0.9323  1.5772 -0.4156
  513MPD2    H3 7680   3.663   4.248  13.080  2.2112  0.7810 -0.0898
  513MPD2     N 7681   4.049   4.174  13.310 -0.4896  0.3446  0.1717
  513MPD2    H5 7682   4.130   4.114  13.303 -0.0408  0.7515  2.1309
  513MPD2    N1 7683   3.895   3.880  12.965  0.0998  0.1668  1.0939
  513MPD2    H7 7684   3.847   3.874  12.876  0.1518  3.9624  0.8335
  514TMC3    C1 7685   4.040   3.725  12.869 -0.1118  0.1137  0.2245
  514TMC3    C2 7686   4.050   3.804  12.756 -0.6594 -0.5979  0.1563
  514TMC3    C3 7687   4.167   3.800  12.677  0.4008 -0.0462 -0.1656
  514TMC3    C4 7688   4.140   3.637  12.891  0.0322  0.2753 -0.1809
  514TMC3    C5 7689   4.258   3.647  12.825  0.5097  0.4818  0.0206
  514TMC3    C6 7690   4.273   3.722  12.709 -0.3175  0.2024 -0.9348
  514TMC3     C 7691   3.997   3.787  12.986 -0.7721 -0.0226  0.2577
  514TMC3     O 7692   4.041   3.742  13.090 -1.0360 -0.3526 -0.0952
  514TMC3     H 7693   3.974   3.874  12.722 -1.8605 -1.1540  1.6974
  514TMC3    H1 7694   4.148   3.569  12.974 -0.2712  0.2459 -0.1756
  514TMC3    H2 7695   4.365   3.727  12.653  1.2745 -0.4360  1.5941
  514TMC3    C7 7696   4.359   3.685  12.924 -0.4153 -0.4746 -0.4422
  514TMC3    C8 7697   4.200   3.946  12.658 -0.2204 -0.4865  0.6120
  514TMC3    O1 7698   4.346   3.653  13.043 -0.3431 -0.2415  0.3715
  514TMC3    O2 7699   4.130   4.025  12.713 -0.5314  0.0734 -0.0779
  515MPD2     C 7700   2.406   1.496  14.820 -0.1465  1.3607  0.3021
  515MPD2    C1 7701   2.370   1.583  14.721 -0.0041  0.8811  0.1774
  515MPD2    C2 7702   2.404   1.716  14.731 -0.1156  0.5418  0.3305
  515MPD2    C3 7703   2.488   1.747  14.830  0.0275 -1.2396  0.1545
  515MPD2    C4 7704   2.537   1.658  14.917 -0.1160 -0.4012  0.0284
  515MPD2    C5 7705   2.493   1.533  14.921 -0.6024 -0.2868 -0.5935
  515MPD2     H 7706   2.372   1.794  14.662 -0.2460  1.0571  0.9767
  515MPD2    H1 7707   2.603   1.693  14.995 -1.5114  0.8835  0.6341
  515MPD2    H2 7708   2.385   1.389  14.822  0.1311  1.2715 -1.4065
  515MPD2    H3 7709   2.516   1.463  15.000  1.3012 -0.2718 -1.1160
  515MPD2     N 7710   2.527   1.873  14.867  0.3507  0.4756 -0.3533
  515MPD2    H5 7711   2.588   1.883  14.947  0.2997  0.1437 -0.2739
  515MPD2    N1 7712   2.292   1.540  14.606 -0.0842 -0.0837 -0.6134
  515MPD2    H7 7713   2.291   1.614  14.535 -0.8873  2.1252  1.7000
  516TMC3    C1 7714   2.152   1.377  14.481 -0.0947 -0.3858 -0.1636
  516TMC3    C2 7715   2.071   1.476  14.437  0.0917 -0.6138 -0.0403
  516TMC3    C3 7716   1.950   1.436  14.383  0.0409  0.0448  0.4972
  516TMC3    C4 7717   2.120   1.242  14.471  0.0132 -0.0806 -0.7872
  516TMC3    C5 7718   1.998   1.205  14.428 -0.1173  0.5126 -1.0947
  516TMC3    C6 7719   1.906   1.305  14.382 -0.2733  0.0638  0.3869
  516TMC3     C 7720   2.254   1.405  14.581 -0.3668 -0.5321  0.2436
  516TMC3     O 7721   2.296   1.302  14.636  0.1138  0.0407  0.0808
  516TMC3     H 7722   2.092   1.580  14.461 -0.9931  0.2202 -2.7056
  516TMC3    H1 7723   2.179   1.162  14.513 -1.1845  0.6726  2.3447
  516TMC3    H2 7724   1.800   1.286  14.364 -0.1695 -1.0633  0.9426
  516TMC3    C7 7725   1.955   1.081  14.492  0.1214 -0.1508  0.4111
  516TMC3    C8 7726   1.854   1.544  14.357  1.0902 -0.2192  0.7177
  516TMC3    O1 7727   2.041   0.991  14.511  0.5984  0.2221  0.0111
  516TMC3    O2 7728   1.741   1.503  14.336  0.2863  0.2409  0.4744
  517MPD2     C 7729   1.843   3.366  17.533  0.6974  0.5218 -0.2967
  517MPD2    C1 7730   1.966   3.313  17.509 -1.0790 -0.0841 -0.5488
  517MPD2    C2 7731   2.062   3.321  17.606 -0.5644 -0.7176  0.6548
  517MPD2    C3 7732   2.028   3.364  17.738 -0.0661  0.3031  0.0325
  517MPD2    C4 7733   1.901   3.410   0.011 -0.5013  0.1403  0.2542
  517MPD2    C5 7734   1.812   3.409  17.659  0.2189  0.0938 -0.6070
  517MPD2     H 7735   2.162   3.286  17.585 -0.4433 -0.2603  0.4673
  517MPD2    H1 7736   1.864   3.454   0.102  0.0031  0.7289  0.1788
  517MPD2    H2 7737   1.760   3.374  17.464 -0.9521  0.0668  1.6386
  517MPD2    H3 7738   1.717   3.454  17.684 -0.2375 -0.4474 -1.3860
  517MPD2     N 7739   2.116   3.370   0.098  0.1888  0.5638 -0.2979
  517MPD2    H5 7740   2.092   3.426   0.179 -2.8216 -0.7806 -0.2617
  517MPD2    N1 7741   2.002   3.252  17.387  0.3987  0.0435 -0.4788
  517MPD2    H7 7742   2.096   3.216  17.377  0.0226 -0.4978 -2.1691
  518TMC3    C1 7743   1.988   3.135  17.192 -0.4449 -0.2308  0.1817
  518TMC3    C2 7744   1.945   3.009  17.166  0.2865 -0.5091  0.9194
  518TMC3    C3 7745   2.028   2.932  17.090 -0.4706  0.5218 -0.6325
  518TMC3    C4 7746   2.107   3.184  17.163  0.2992  0.2852  0.0305
  518TMC3    C5 7747   2.187   3.106  17.081 -0.0004 -0.3611 -0.0021
  518TMC3    C6 7748   2.146   2.979  17.043 -0.1091 -0.1885  0.4850
  518TMC3     C 7749   1.910   3.201  17.298  0.1614 -0.3978  0.3835
  518TMC3     O 7750   1.789   3.182  17.307 -0.4693  0.1494 -0.1980
  518TMC3     H 7751   1.853   2.959  17.195 -1.5738  2.3332 -0.1723
  518TMC3    H1 7752   2.127   3.288  17.182 -0.3685  0.0725  1.9094
  518TMC3    H2 7753   2.205   2.906  16.988 -2.0858  0.2663 -2.1914
  518TMC3    C7 7754   2.323   3.148  17.055  0.3155 -0.0562 -0.0958
  518TMC3    C8 7755   2.010   2.789  17.101  0.1304 -0.0905 -0.6041
  518TMC3    O1 7756   2.349   3.264  17.026 -0.1571  0.4121 -0.1162
  518TMC3    O2 7757   2.051   2.719  17.013 -0.0065 -0.5270  0.7187
  519MPD2     C 7758   3.671   1.678  14.420 -0.9321  1.0378  0.1227
  519MPD2    C1 7759   3.656   1.668  14.279  0.5587  0.1994 -0.4246
  519MPD2    C2 7760   3.687   1.543  14.227  0.3273 -0.3295 -0.5912
  519MPD2    C3 7761   3.727   1.436  14.308  0.1032  0.2381  0.4346
  519MPD2    C4 7762   3.748   1.458  14.441  0.2800  0.6859 -0.7951
  519MPD2    C5 7763   3.717   1.577  14.498 -0.6307  0.0781  0.7638
  519MPD2     H 7764   3.672   1.525  14.122  0.8875 -0.4950 -0.6418
  519MPD2    H1 7765   3.781   1.374  14.502 -1.4464  1.3426  1.0644
  519MPD2    H2 7766   3.635   1.766  14.473 -0.4331  1.8534 -0.8841
  519MPD2    H3 7767   3.718   1.589  14.605 -0.1041 -1.8462  0.9797
  519MPD2     N 7768   3.753   1.315  14.245 -0.5566 -0.1642  0.2867
  519MPD2    H5 7769   3.790   1.241  14.304  1.1748  1.0353  0.6922
  519MPD2    N1 7770   3.590   1.772  14.209 -0.2349  0.1543  0.0635
  519MPD2    H7 7771   3.562   1.851  14.266  0.2673  0.7457 -0.5084
  520TMC3    C1 7772   3.767   1.133  14.096 -0.3174 -0.0861  0.5204
  520TMC3    C2 7773   3.673   1.068  14.015  0.1917  0.1720 -0.8690
  520TMC3    C3 7774   3.722   0.982  13.920 -0.0167 -0.7197 -0.6292
  520TMC3    C4 7775   3.896   1.090  14.113 -0.2078  0.1485 -0.8933
  520TMC3    C5 7776   3.931   0.991  14.029  0.1262  0.8768  0.2767
  520TMC3    C6 7777   3.852   0.928  13.935 -0.0596 -0.5499 -0.2010
  520TMC3     C 7778   3.719   1.267  14.120  0.0141  0.6542 -0.4990
  520TMC3     O 7779   3.647   1.311  14.034  0.0392 -0.7991 -0.6077
  520TMC3     H 7780   3.567   1.089  14.017  0.6755  2.3159  2.0803
  520TMC3    H1 7781   3.971   1.160  14.147  2.6219 -2.0309 -2.6265
  520TMC3    H2 7782   3.888   0.859  13.859  0.5095 -1.4821  0.9137
  520TMC3    C7 7783   4.064   0.941  14.049  0.4428 -0.1338 -0.3172
  520TMC3    C8 7784   3.680   1.014  13.782  0.1371 -0.4336 -0.2362
  520TMC3    O1 7785   4.108   0.929  14.163 -0.0279  0.5229 -0.6332
  520TMC3    O2 7786   3.717   0.943  13.693  0.3380  0.3576 -0.3574
  521MPD2     C 7787   4.606   4.430  17.338 -0.3456 -0.6071  0.3433
  521MPD2    C1 7788   4.573   4.320  17.254 -0.2325 -0.5688  0.2316
  521MPD2    C2 7789   4.678   4.255  17.182  0.7359 -0.0082 -0.3247
  521MPD2    C3 7790   0.069   4.306  17.190  0.7514  0.2797 -0.7444
  521MPD2    C4 7791   0.098   4.401  17.289 -0.2213  0.3708  0.7937
  521MPD2    C5 7792   4.736   4.460  17.360  0.4455 -0.3171 -0.1701
  521MPD2     H 7793   4.650   4.178  17.111 -1.4847  0.0771  0.4445
  521MPD2    H1 7794   0.198   4.442  17.299  0.0657 -0.1154 -0.0650
  521MPD2    H2 7795   4.530   4.487  17.390 -0.1514 -0.9890  1.0494
  521MPD2    H3 7796   0.016   4.541  17.430 -2.4215  1.1473 -1.1549
  521MPD2     N 7797   0.166   4.260  17.104 -0.5059  0.3897 -0.0665
  521MPD2    H5 7798   0.136   4.214  17.018 -0.0302 -1.7738  0.9179
  521MPD2    N1 7799   4.437   4.295  17.252 -0.2870 -0.3283 -0.7838
  521MPD2    H7 7800   4.384   4.359  17.311  1.9622  0.7269  0.1270
  522TMC3    C1 7801   0.385   4.221  17.019  0.0747 -0.3998  0.2406
  522TMC3    C2 7802   0.512   4.184  17.050  0.4570  0.3399  0.3022
  522TMC3    C3 7803   0.593   4.166  16.942 -0.2000 -0.3388  0.0210
  522TMC3    C4 7804   0.339   4.239  16.892  0.2847  0.0682  0.0574
  522TMC3    C5 7805   0.424   4.209  16.789  1.0400  0.1186 -0.0992
  522TMC3    C6 7806   0.555   4.177  16.815 -0.4662  0.4613  0.2264
  522TMC3     C 7807   0.303   4.279  17.125  0.1607 -0.1945  0.3724
  522TMC3     O 7808   0.368   4.320  17.221 -0.4705 -1.0792  0.6038
  522TMC3     H 7809   0.545   4.173  17.152 -1.8925  0.0680  1.0480
  522TMC3    H1 7810   0.244   4.291  16.882 -0.2698 -1.2821 -1.5226
  522TMC3    H2 7811   0.617   4.157  16.729  1.4593  1.4781  1.3605
  522TMC3    C7 7812   0.417   4.300  16.665 -0.8608 -0.2435 -0.7105
  522TMC3    C8 7813   0.732   4.131  16.972  0.6648  0.9682  0.3444
  522TMC3    O1 7814   0.516   4.329  16.607  0.3259  0.3025  0.0433
  522TMC3    O2 7815   0.776   4.165  17.084 -0.2482  0.2752 -0.3080
  523MPD2     C 7816   2.366   4.178  10.306  0.1190  0.0437  0.4245
  523MPD2    C1 7817   2.262   4.083  10.276 -0.0522  0.4959 -0.1445
  523MPD2    C2 7818   2.151   4.140  10.212  0.4046  0.6344  0.4892
  523MPD2    C3 7819   2.135   4.277  10.196 -0.0101 -0.2970  0.2369
  523MPD2    C4 7820   2.234   4.361  10.236  0.2037  0.1561 -0.3060
  523MPD2    C5 7821   2.356   4.312  10.289 -0.0856 -0.2547  0.7500
  523MPD2     H 7822   2.069   4.078  10.179  1.5938 -0.2549 -0.7824
  523MPD2    H1 7823   2.241   4.466  10.211  0.6802  0.3688  0.6914
  523MPD2    H2 7824   2.457   4.147  10.357  0.9997  1.3042 -0.3632
  523MPD2    H3 7825   2.430   4.388  10.310 -0.1752  0.0360  0.0006
  523MPD2     N 7826   2.037   4.351  10.133  0.0130  0.3454 -0.2299
  523MPD2    H5 7827   2.043   4.452  10.140 -0.4322  0.2726  1.2300
  523MPD2    N1 7828   2.276   3.946  10.310 -0.2528  0.0089 -0.0052
  523MPD2    H7 7829   2.367   3.907  10.334  0.9091  2.0805 -1.0321
  524TMC3    C1 7830   1.855   4.383   9.980 -0.1117  0.0632 -0.7674
  524TMC3    C2 7831   1.804   4.338   9.862 -0.7711  0.2283 -1.3200
  524TMC3    C3 7832   1.724   4.414   9.786  0.2834  0.3936 -0.3444
  524TMC3    C4 7833   1.808   4.501  10.035  0.5527 -0.0393  0.0695
  524TMC3    C5 7834   1.713   4.567   9.965  0.8052 -0.2533 -0.0387
  524TMC3    C6 7835   1.671   4.530   9.841 -0.2042  0.8430 -0.5398
  524TMC3     C 7836   1.938   4.294  10.062  0.0817 -0.0488 -0.1112
  524TMC3     O 7837   1.913   4.177  10.036  0.0236 -0.0789 -0.4265
  524TMC3     H 7838   1.865   4.261   9.816 -0.6751  0.2877 -1.2932
  524TMC3    H1 7839   1.852   4.531  10.129 -0.4877 -0.4364  0.6831
  524TMC3    H2 7840   1.602   4.593   9.785 -0.2077  0.5572 -0.8563
  524TMC3    C7 7841   1.633   4.655  10.048  0.4614  0.1698  0.6173
  524TMC3    C8 7842   1.661   4.363   9.668 -0.0594  0.3353  0.3144
  524TMC3    O1 7843   1.659   4.660  10.167  0.4863 -0.3317 -0.2781
  524TMC3    O2 7844   1.610   4.447   9.595 -0.6239 -0.3233 -0.5639
  525MPD2     C 7845   0.339   0.924  14.399 -0.2087 -0.4442 -0.1994
  525MPD2    C1 7846   0.468   0.925  14.445  0.0916  0.4317  0.0880
  525MPD2    C2 7847   0.553   1.034  14.426 -0.5102  0.5606 -0.1579
  525MPD2    C3 7848   0.500   1.146  14.368 -0.6057  0.6060  0.2743
  525MPD2    C4 7849   0.366   1.145  14.339 -0.4246 -0.1348  0.3912
  525MPD2    C5 7850   0.277   1.041  14.350 -0.0571  0.1348  0.1701
  525MPD2     H 7851   0.655   1.036  14.463 -0.5309  1.5688 -0.1555
  525MPD2    H1 7852   0.322   1.237  14.301 -1.1016 -1.0433 -1.0061
  525MPD2    H2 7853   0.268   0.842  14.409  0.4564 -1.0156 -0.1951
  525MPD2    H3 7854   0.177   1.048  14.308 -0.7890 -0.0754  1.9117
  525MPD2     N 7855   0.575   1.263  14.349  0.3380 -0.6234  0.1329
  525MPD2    H5 7856   0.525   1.345  14.317  1.2138 -0.8247 -1.7492
  525MPD2    N1 7857   0.519   0.821  14.527  0.2250  0.0106  0.0478
  525MPD2    H7 7858   0.619   0.821  14.543  0.0166  0.5979  1.3130
  526TMC3    C1 7859   0.523   0.644  14.682  0.3305 -0.4489 -0.3310
  526TMC3    C2 7860   0.462   0.599  14.800  0.1188  0.2499 -0.3107
  526TMC3    C3 7861   0.536   0.527  14.894 -0.1228  0.3359  0.3716
  526TMC3    C4 7862   0.648   0.609  14.650 -0.5769 -0.0608 -0.2048
  526TMC3    C5 7863   0.719   0.559  14.749  0.2861  0.7968 -0.1483
  526TMC3    C6 7864   0.668   0.514  14.866 -0.1902  0.8796  0.7411
  526TMC3     C 7865   0.443   0.728  14.590  0.8485  0.3699  0.4115
  526TMC3     O 7866   0.324   0.720  14.601 -0.7453  0.1098  0.8737
  526TMC3     H 7867   0.358   0.621  14.824 -0.2700 -0.0872 -1.7170
  526TMC3    H1 7868   0.677   0.619  14.546 -0.2183  1.0699  0.0077
  526TMC3    H2 7869   0.736   0.477  14.943 -1.0233  2.1890  2.1093
  526TMC3    C7 7870   0.853   0.521  14.707 -0.1400  0.6732  0.0349
  526TMC3    C8 7871   0.492   0.511  15.033  0.1072 -0.1316 -0.1531
  526TMC3    O1 7872   0.904   0.428  14.772  0.4069  0.2456  0.0832
  526TMC3    O2 7873   0.577   0.493  15.119  0.2326  0.2971  0.3733
  527MPD2     C 7874   3.635   3.581   1.188  0.3026 -0.1008  0.2782
  527MPD2    C1 7875   3.617   3.547   1.053  0.1271 -0.3348  0.3229
  527MPD2    C2 7876   3.737   3.538   0.977 -0.2470  0.2749  0.4105
  527MPD2    C3 7877   3.858   3.554   1.038  0.0261 -0.4396  0.4107
  527MPD2    C4 7878   3.868   3.603   1.168 -0.6427 -0.1737  0.1979
  527MPD2    C5 7879   3.753   3.614   1.243 -0.0657  0.9955  0.3943
  527MPD2     H 7880   3.747   3.515   0.871  1.6415  0.8570  0.4507
  527MPD2    H1 7881   3.962   3.601   1.223  0.1629 -0.6482 -1.1836
  527MPD2    H2 7882   3.551   3.595   1.255  1.0127  2.2493  0.6872
  527MPD2    H3 7883   3.760   3.647   1.346 -1.2518  0.7299  0.5556
  527MPD2     N 7884   3.969   3.533   0.953  0.3658 -0.1292  0.0520
  527MPD2    H5 7885   3.951   3.518   0.854 -1.1423  2.7120 -0.1013
  527MPD2    N1 7886   3.493   3.542   0.989 -0.3766 -0.0576  0.2889
  527MPD2    H7 7887   3.496   3.518   0.891  1.0218  0.1494  0.2780
  528TMC3    C1 7888   3.257   3.530   0.964 -0.6284 -0.1543  0.1420
  528TMC3    C2 7889   3.269   3.536   0.825 -0.1398  0.7086  0.0857
  528TMC3    C3 7890   3.160   3.506   0.744 -0.0654  0.5011  0.1668
  528TMC3    C4 7891   3.132   3.505   1.025  0.2509  0.2678 -0.1849
  528TMC3    C5 7892   3.025   3.481   0.939 -0.5067 -0.1544 -0.6062
  528TMC3    C6 7893   3.040   3.468   0.799  0.1610 -0.0876  0.4541
  528TMC3     C 7894   3.372   3.544   1.053  0.4059  0.2113 -0.6249
  528TMC3     O 7895   3.337   3.574   1.165  0.1172  0.3094  0.4253
  528TMC3     H 7896   3.363   3.565   0.779 -0.8736 -1.3617 -2.6789
  528TMC3    H1 7897   3.131   3.509   1.133 -0.1246  0.1570 -0.1866
  528TMC3    H2 7898   2.949   3.440   0.746  0.8574 -1.7820  0.1518
  528TMC3    C7 7899   2.892   3.496   0.991 -1.0564  0.1231 -0.5269
  528TMC3    C8 7900   3.161   3.589   0.623  0.1509 -0.3251 -0.0724
  528TMC3    O1 7901   2.808   3.545   0.912  0.9803  0.0539 -0.1458
  528TMC3    O2 7902   3.251   3.669   0.612  0.1049 -0.2482 -0.2109
  529MPD2     C 7903   1.414   2.431   0.894  0.0826 -0.7799  0.4617
  529MPD2    C1 7904   1.335   2.324   0.845  0.3397  0.4118  0.4786
  529MPD2    C2 7905   1.269   2.336   0.725  0.0020  0.0871  0.2778
  529MPD2    C3 7906   1.272   2.457   0.663 -0.2313  0.4162 -0.4824
  529MPD2    C4 7907   1.347   2.559   0.714  0.2487  0.3569 -0.0044
  529MPD2    C5 7908   1.417   2.551   0.830  0.7263  1.2644  0.5206
  529MPD2     H 7909   1.209   2.252   0.693  1.7535 -1.6182  1.4802
  529MPD2    H1 7910   1.336   2.652   0.660  2.3562 -0.3677 -1.6597
  529MPD2    H2 7911   1.448   2.435   0.997  1.4986  1.4609 -0.1075
  529MPD2    H3 7912   1.476   2.630   0.874 -0.0758  0.9216  2.1923
  529MPD2     N 7913   1.221   2.476   0.527 -0.4428  0.2137  0.6645
  529MPD2    H5 7914   1.246   2.562   0.480  1.4425 -0.9486 -0.4679
  529MPD2    N1 7915   1.315   2.205   0.917  0.2482 -0.0550  0.1768
  529MPD2    H7 7916   1.246   2.137   0.889 -2.1494  2.4471 -0.0177
  530TMC3    C1 7917   1.365   2.034   1.083  0.2434  0.1327  0.4242
  530TMC3    C2 7918   1.453   1.998   1.187  0.0704 -0.6463 -0.2260
  530TMC3    C3 7919   1.456   1.862   1.220  0.4106  0.0609  0.4447
  530TMC3    C4 7920   1.296   1.940   1.008 -0.5041  0.0677 -0.1894
  530TMC3    C5 7921   1.306   1.807   1.052 -0.1206 -0.6330  0.0451
  530TMC3    C6 7922   1.374   1.769   1.161  1.3592 -0.3525  0.3256
  530TMC3     C 7923   1.386   2.173   1.036  0.0934 -0.4345  0.4382
  530TMC3     O 7924   1.461   2.240   1.102  0.1953  0.1791 -0.2594
  530TMC3     H 7925   1.524   2.068   1.230 -1.7624  0.5037  0.9065
  530TMC3    H1 7926   1.222   1.968   0.933 -2.1517 -2.1648  0.6051
  530TMC3    H2 7927   1.373   1.666   1.196 -0.3984 -0.6029 -0.4752
  530TMC3    C7 7928   1.222   1.721   0.983  0.1620 -0.0946 -0.5624
  530TMC3    C8 7929   1.539   1.821   1.338  0.1191  0.1542 -0.8591
  530TMC3    O1 7930   1.205   1.741   0.862  0.4189  0.6720 -0.3059
  530TMC3    O2 7931   1.590   1.902   1.413  0.3589 -0.8051 -0.2592
  531MPD2     C 7932   4.645   4.078  13.049 -0.5925 -0.8586 -0.4393
  531MPD2    C1 7933   4.541   4.021  13.114 -0.6993 -0.9810 -0.4460
  531MPD2    C2 7934   4.479   3.912  13.058  0.1499  0.0083  0.1017
  531MPD2    C3 7935   4.522   3.866  12.933  0.0833 -0.5388 -0.4059
  531MPD2    C4 7936   4.618   3.933  12.864  0.0423  0.1828 -0.2614
  531MPD2    C5 7937   4.685   4.033  12.928 -0.0795 -0.0455 -0.1617
  531MPD2     H 7938   4.394   3.866  13.108 -1.5599  2.8835 -0.1881
  531MPD2    H1 7939   4.649   3.909  12.763  0.3579 -2.8063  0.5523
  531MPD2    H2 7940   4.708   4.147  13.104 -0.0656 -0.5184 -1.4760
  531MPD2    H3 7941   0.025   4.089  12.877  0.2142 -1.0351 -0.7888
  531MPD2     N 7942   4.446   3.771  12.863  0.0400  0.8982 -0.1466
  531MPD2    H5 7943   4.456   3.773  12.762 -3.3128  3.5637 -0.4526
  531MPD2    N1 7944   4.492   4.090  13.229  0.4043  0.4338  0.3978
  531MPD2    H7 7945   4.553   4.164  13.262 -0.3187  0.3772  1.8706
  532TMC3    C1 7946   4.374   4.128  13.427 -0.3743 -0.1407 -0.7268
  532TMC3    C2 7947   4.246   4.127  13.458 -0.3654  0.0435  0.9187
  532TMC3    C3 7948   4.185   4.247  13.489 -0.3798  0.4575  0.6437
  532TMC3    C4 7949   4.450   4.238  13.442 -0.5828 -0.1004 -0.3172
  532TMC3    C5 7950   4.394   4.355  13.478  0.1179  0.4641  0.6040
  532TMC3    C6 7951   4.261   4.361  13.500  0.3469 -0.8055  0.2520
  532TMC3     C 7952   4.384   4.056  13.306  0.1959 -0.6262 -0.9492
  532TMC3     O 7953   4.291   3.984  13.282  0.0882  0.1633 -0.0403
  532TMC3     H 7954   4.188   4.037  13.473  0.1013 -0.7089 -1.9925
  532TMC3    H1 7955   4.555   4.217  13.425 -0.7309 -1.2818  0.2553
  532TMC3    H2 7956   4.210   4.453  13.525 -1.0019 -1.2862 -0.7751
  532TMC3    C7 7957   4.480   4.466  13.503  0.6880  0.6231  0.3033
  532TMC3    C8 7958   4.061   4.267  13.409  0.6901  0.0835  0.0125
  532TMC3    O1 7959   4.437   4.582  13.487  0.3186 -0.2743 -0.2051
  532TMC3    O2 7960   4.012   4.380  13.407  0.8000 -0.2221  0.1260
  533TMC3    C1 7961   0.718   1.433  14.406 -0.1718 -0.6716  0.2600
  533TMC3    C2 7962   0.844   1.484  14.421 -0.1107 -0.2871  0.1757
  533TMC3    C3 7963   0.853   1.587  14.509 -0.1820 -0.8968 -0.1177
  533TMC3    C4 7964   0.605   1.488  14.460  0.0854  1.0443  0.4388
  533TMC3    C5 7965   0.619   1.589  14.551  0.4553  0.3041 -0.0201
  533TMC3    C6 7966   0.742   1.637  14.572 -0.4368  0.1965 -0.1767
  533TMC3     C 7967   0.707   1.288  14.373  0.1467  0.3474 -0.4051
  533TMC3     O 7968   0.804   1.215  14.379  0.0046 -0.2477  0.0870
  533TMC3     H 7969   0.933   1.439  14.378  0.2955 -1.4972  2.2670
  533TMC3    H1 7970   0.505   1.453  14.439  0.6902  0.2813 -1.1559
  533TMC3    H2 7971   0.751   1.729  14.628  1.5035 -0.2322  0.2283
  533TMC3    C7 7972   0.534   1.554  14.672 -0.5902  0.1668 -0.2434
  533TMC3    C8 7973   0.965   1.679  14.497  0.1318 -0.1789  0.3326
  533TMC3    O1 7974   0.474   1.451  14.663 -0.1096 -0.2874  0.0884
  533TMC3    O2 7975   0.927   1.794  14.513  1.2139 -0.3526  0.5339
  534MPD2     C 7976   3.750   1.892   0.868  0.2438  0.4223  0.3650
  534MPD2    C1 7977   3.720   2.022   0.885 -0.3234  0.1279 -0.1879
  534MPD2    C2 7978   3.588   2.061   0.894 -0.0178 -0.2243  0.3199
  534MPD2    C3 7979   3.487   1.972   0.874 -0.8211  0.4677 -0.2135
  534MPD2    C4 7980   3.520   1.832   0.848  0.1697 -0.2600  0.6331
  534MPD2    C5 7981   3.652   1.800   0.845 -0.0503 -0.1377  0.7833
  534MPD2     H 7982   3.562   2.164   0.917 -0.4786  0.1074 -1.7029
  534MPD2    H1 7983   3.449   1.755   0.821 -1.1759  1.1724  0.0044
  534MPD2    H2 7984   3.853   1.860   0.855  0.3408  0.5723  0.7663
  534MPD2    H3 7985   3.667   1.695   0.825  0.7937 -0.1689  1.5805
  534MPD2     N 7986   3.349   2.001   0.882 -0.8880 -0.1379 -0.3314
  534MPD2    H5 7987   3.293   1.918   0.865  0.9695 -1.6150  0.7315
  534MPD2    N1 7988   3.814   2.121   0.918  0.1349 -0.5401  0.0481
  534MPD2    H7 7989   3.782   2.213   0.948 -1.0163 -0.5902 -1.0221
  535TMC3    C1 7990   3.148   2.139   0.902  0.0725 -0.0461  0.2694
  535TMC3    C2 7991   3.086   2.046   0.984  0.0278  0.8598  0.4141
  535TMC3    C3 7992   2.949   2.057   0.994  0.2881  0.1731 -0.0112
  535TMC3    C4 7993   3.081   2.252   0.857  0.2835 -0.2902 -0.5282
  535TMC3    C5 7994   2.943   2.244   0.867  0.8098 -0.6782  0.4099
  535TMC3    C6 7995   2.873   2.146   0.925 -0.8828 -0.1176  0.1998
  535TMC3     C 7996   3.296   2.129   0.877 -0.1525 -0.1581 -0.2903
  535TMC3     O 7997   3.347   2.238   0.878  0.1511 -0.3572 -0.0556
  535TMC3     H 7998   3.144   1.964   1.026  0.9576 -0.3053 -3.1280
  535TMC3    H1 7999   3.128   2.310   0.778  1.7117 -0.4918  0.1746
  535TMC3    H2 8000   2.767   2.129   0.916 -0.7530 -1.0288  0.3209
  535TMC3    C7 8001   2.879   2.328   0.769  0.2180 -0.0801 -0.5350
  535TMC3    C8 8002   2.875   1.984   1.096 -0.5211  0.1554 -0.1614
  535TMC3    O1 8003   2.795   2.274   0.700  0.2834  0.0470 -0.2661
  535TMC3    O2 8004   2.751   1.970   1.095  0.4490 -0.0692 -0.7628
  536MPD2     C 8005   1.919   0.838  16.473  0.0058  0.2837  0.0994
  536MPD2    C1 8006   1.845   0.720  16.456 -0.1235  0.2115 -0.1088
  536MPD2    C2 8007   1.785   0.702  16.344 -0.5493 -0.3532 -0.1796
  536MPD2    C3 8008   1.811   0.783  16.229  0.2773 -0.0657 -0.3273
  536MPD2    C4 8009   1.897   0.893  16.244 -0.0080  0.0657  0.2316
  536MPD2    C5 8010   1.952   0.921  16.367  0.3816 -0.3222 -0.3560
  536MPD2     H 8011   1.710   0.623  16.343 -0.1135 -0.6976 -3.6474
  536MPD2    H1 8012   1.918   0.963  16.164 -0.2277 -1.2191 -0.9522
  536MPD2    H2 8013   1.966   0.862  16.568 -1.3640 -2.8937  1.5900
  536MPD2    H3 8014   2.019   1.005  16.385  1.6738 -1.5528  0.5253
  536MPD2     N 8015   1.738   0.778  16.109  0.0426 -0.2330  0.5386
  536MPD2    H5 8016   1.762   0.842  16.034  0.0976 -0.0973  0.6732
  536MPD2    N1 8017   1.825   0.651  16.578  0.4007  0.0346  0.1399
  536MPD2    H7 8018   1.873   0.684  16.661 -1.4136 -0.2072  1.2674
  537TMC3    C1 8019   1.747   0.479  16.728 -0.0010 -0.0017 -0.4402
  537TMC3    C2 8020   1.808   0.557  16.831  0.1602  0.5095  0.1353
  537TMC3    C3 8021   1.777   0.513  16.954  0.2716 -0.6218 -0.3517
  537TMC3    C4 8022   1.662   0.369  16.748  0.7238 -0.2162  0.5966
  537TMC3    C5 8023   1.635   0.347  16.881 -0.2794  0.1495  0.2719
  537TMC3    C6 8024   1.686   0.418  16.983  0.1556  0.1946  0.1340
  537TMC3     C 8025   1.754   0.534  16.597  0.9513 -0.4320 -0.3635
  537TMC3     O 8026   1.700   0.461  16.514 -0.3363  0.1724 -0.4938
  537TMC3     H 8027   1.891   0.624  16.807  1.8958 -1.1333  1.5189
  537TMC3    H1 8028   1.631   0.306  16.665  1.5552 -0.3142  0.3627
  537TMC3    H2 8029   1.654   0.406  17.086  1.3113  0.1378  0.4809
  537TMC3    C7 8030   1.594   0.214  16.917  0.1955  0.1264 -0.3153
  537TMC3    C8 8031   1.824   0.590  17.073  0.2867  0.3682 -0.0911
  537TMC3    O1 8032   1.547   0.143  16.829 -0.0138  0.0023 -0.7100
  537TMC3    O2 8033   1.813   0.541  17.184  0.0205 -0.3247 -0.9409
  538TMC3    C1 8034   2.897   3.671  11.040 -0.3994  0.0382  0.8248
  538TMC3    C2 8035   3.024   3.677  10.997  0.2900 -0.3925  0.4148
  538TMC3    C3 8036   3.050   3.733  10.873 -0.3291 -0.3298  0.1778
  538TMC3    C4 8037   2.795   3.701  10.956  0.4072 -0.5281 -0.5688
  538TMC3    C5 8038   2.829   3.764  10.831 -0.2461  0.8019  0.9055
  538TMC3    C6 8039   2.957   3.794  10.795 -0.0361  0.2160  0.0117
  538TMC3     C 8040   2.874   3.664  11.188 -0.3697 -0.1268  0.4960
  538TMC3     O 8041   2.758   3.637  11.224  0.0447 -0.5373 -0.5483
  538TMC3     H 8042   3.101   3.626  11.051  0.0963  0.8350  1.8504
  538TMC3    H1 8043   2.698   3.687  11.001 -0.1111  3.4829 -0.4567
  538TMC3    H2 8044   2.975   3.846  10.702  1.0219 -1.3474 -0.6617
  538TMC3    C7 8045   2.730   3.850  10.774 -0.1349 -0.4976 -0.2861
  538TMC3    C8 8046   3.181   3.719  10.821 -0.3226  1.2445  0.0403
  538TMC3    O1 8047   2.758   3.925  10.682  0.5393  0.2070  0.2486
  538TMC3    O2 8048   3.270   3.660  10.879  0.6349 -0.2174  0.1502
  539MPD2     C 8049   2.204   2.685  11.965 -0.0316 -0.0597  0.2435
  539MPD2    C1 8050   2.278   2.768  11.880  0.3799 -0.8065  0.7876
  539MPD2    C2 8051   2.307   2.897  11.914  0.0330 -0.0444 -0.3327
  539MPD2    C3 8052   2.261   2.950  12.031 -0.9174  0.4509 -0.2137
  539MPD2    C4 8053   2.183   2.874  12.120  0.0862 -0.4670 -0.7324
  539MPD2    C5 8054   2.162   2.740  12.082  0.0412 -0.0093 -0.2824
  539MPD2     H 8055   2.355   2.963  11.843 -0.4410  0.0521 -0.5702
  539MPD2    H1 8056   2.152   2.908  12.218 -1.0781 -2.3424 -0.4509
  539MPD2    H2 8057   2.180   2.581  11.946  0.3275  0.3991 -2.6214
  539MPD2    H3 8058   2.118   2.669  12.151  1.2798  0.3937  0.9377
  539MPD2     N 8059   2.282   3.084  12.064 -0.0053  0.7321 -0.0737
  539MPD2    H5 8060   2.226   3.127  12.137 -0.8471  2.7023 -1.8662
  539MPD2    N1 8061   2.312   2.733  11.747 -0.4170  0.7732 -0.8133
  539MPD2    H7 8062   2.361   2.800  11.688 -0.4575  1.0877 -0.4905
  540TMC3    C1 8063   2.311   3.316  12.023  0.5968  1.2490 -0.3534
  540TMC3    C2 8064   2.383   3.409  11.963 -0.4746 -0.1197 -0.0236
  540TMC3    C3 8065   2.324   3.518  11.913  0.9885 -0.2470  0.6868
  540TMC3    C4 8066   2.184   3.338  12.068  0.2719  0.4206  1.1629
  540TMC3    C5 8067   2.124   3.450  12.020 -0.7695 -0.3778 -0.4020
  540TMC3    C6 8068   2.185   3.539  11.940 -0.3602 -0.2764 -0.9317
  540TMC3     C 8069   2.353   3.180  11.992  0.1119  0.3524 -0.3781
  540TMC3     O 8070   2.466   3.156  11.938 -0.5466 -0.5237 -0.4183
  540TMC3     H 8071   2.480   3.383  11.923  1.7363  1.8418  4.1088
  540TMC3    H1 8072   2.117   3.259  12.100  0.0702  0.1626  0.1170
  540TMC3    H2 8073   2.144   3.639  11.932  1.4372  0.6545  1.5621
  540TMC3    C7 8074   1.997   3.496  12.074  0.0139  0.2202 -0.2119
  540TMC3    C8 8075   2.385   3.593  11.806 -0.2252  0.2682 -0.0502
  540TMC3    O1 8076   1.925   3.579  12.010  0.2409  0.3035  0.0993
  540TMC3    O2 8077   2.512   3.583  11.797  0.6311  0.2758  0.2077
  541MPD2     C 8078   0.980   4.532  13.607  0.3631  0.2784  0.5899
  541MPD2    C1 8079   1.043   4.456  13.510 -0.4085 -0.0961 -0.0933
  541MPD2    C2 8080   1.092   4.524  13.402 -0.1704 -0.4731  0.5034
  541MPD2    C3 8081   1.061   4.657  13.387  0.5214  0.5595 -1.5991
  541MPD2    C4 8082   1.001   4.735  13.486  0.0420 -0.5351  0.5587
  541MPD2    C5 8083   0.962   4.664  13.595  0.0970 -0.0405 -0.7727
  541MPD2     H 8084   1.151   4.481  13.322 -2.0595 -1.1074 -0.5561
  541MPD2    H1 8085   0.972   0.101  13.483 -0.0100 -0.5131  1.9467
  541MPD2    H2 8086   0.928   4.490  13.692  0.9722 -0.2377  0.6994
  541MPD2    H3 8087   0.904   4.714  13.672  1.7860 -0.3260  0.6735
  541MPD2     N 8088   1.100   4.722  13.263  0.3967 -0.3733  0.8864
  541MPD2    H5 8089   1.043   0.059  13.226  0.9160 -0.1362  0.5662
  541MPD2    N1 8090   1.045   4.316  13.525  0.4235 -0.5286 -0.2967
  541MPD2    H7 8091   1.031   4.277  13.617  0.1233 -1.5084 -0.7536
  542TMC3    C1 8092   1.233   0.025  13.072 -0.6187 -0.1787  0.0887
  542TMC3    C2 8093   1.328   4.722  12.988  0.2220 -0.6519 -0.6155
  542TMC3    C3 8094   1.337   0.043  12.860  0.6215  0.0878  1.0276
  542TMC3    C4 8095   1.146   0.124  13.039 -0.2608  0.2018  0.3579
  542TMC3    C5 8096   1.159   0.190  12.920 -0.0860  0.4037  0.6329
  542TMC3    C6 8097   1.247   0.144  12.832  0.8029 -0.2794  0.1927
  542TMC3     C 8098   1.216   4.686  13.193 -0.1159  0.2006 -0.3566
  542TMC3     O 8099   1.306   4.609  13.230  0.3974  0.6874  0.2333
  542TMC3     H 8100   1.392   4.636  13.006 -1.1366 -1.5481 -0.1348
  542TMC3    H1 8101   1.088   0.169  13.119 -1.2335  1.4394 -1.0624
  542TMC3    H2 8102   1.253   0.205  12.742  0.8993  0.6368  0.8197
  542TMC3    C7 8103   1.065   0.304  12.901  0.2047 -0.4494  0.1176
  542TMC3    C8 8104   1.431   0.008  12.762  0.2825 -0.1996  0.5423
  542TMC3    O1 8105   1.004   0.349  12.998  0.0620  0.1131 -0.9679
  542TMC3    O2 8106   1.424   0.072  12.657 -0.9528 -0.3067  1.0449
  543TMC3    C1 8107   0.300   1.358  17.343  0.0148 -0.3545  0.3053
  543TMC3    C2 8108   0.284   1.231  17.397 -0.4462 -0.3529 -0.3311
  543TMC3    C3 8109   0.246   1.222  17.531 -0.1072 -0.5741 -0.2281
  543TMC3    C4 8110   0.255   1.467  17.412  0.8157 -0.8348 -1.0595
  543TMC3    C5 8111   0.212   1.448  17.543  0.1325 -0.8977  0.6187
  543TMC3    C6 8112   0.202   1.327  17.609 -0.2079 -0.2814  0.8491
  543TMC3     C 8113   0.389   1.384  17.225 -0.6543 -0.0545 -0.2122
  543TMC3     O 8114   0.459   1.288  17.189  0.6182  0.0687 -0.0422
  543TMC3     H 8115   0.317   1.146  17.337  3.2404  1.9015 -1.5328
  543TMC3    H1 8116   0.297   1.564  17.388 -2.8635  0.6107 -1.6031
  543TMC3    H2 8117   0.156   1.323  17.707 -3.1569  0.8698 -0.5002
  543TMC3    C7 8118   0.127   1.548  17.604 -0.1394 -0.0595  0.5538
  543TMC3    C8 8119   0.256   1.091  17.583  1.1207 -0.1129 -0.4658
  543TMC3    O1 8120   0.073   1.534  17.709 -0.5648  0.1877 -0.0743
  543TMC3    O2 8121   0.296   0.998  17.512  0.3484  0.4293 -0.0841
  544MPD2     C 8122   0.272   0.760   0.220 -0.0406 -0.3672  0.0915
  544MPD2    C1 8123   0.271   0.735   0.081 -0.6404 -1.0689 -0.0744
  544MPD2    C2 8124   0.254   0.839  17.749 -0.7799  0.2824  0.4894
  544MPD2    C3 8125   0.241   0.969   0.049  0.5417  0.2370 -0.5979
  544MPD2    C4 8126   0.250   0.989   0.184 -0.4331 -0.2546 -0.7301
  544MPD2    C5 8127   0.260   0.887   0.271 -0.4084 -0.2042 -0.0100
  544MPD2     H 8128   0.256   0.831  17.640  0.5640 -1.5502  0.6527
  544MPD2    H1 8129   0.232   1.090   0.218 -1.0011  0.2975 -2.6721
  544MPD2    H2 8130   0.280   0.681   0.294  0.4109  0.0017  0.4348
  544MPD2    H3 8131   0.268   0.902   0.378  0.2949  1.6879 -0.3329
  544MPD2     N 8132   0.221   1.081  17.719  0.4206 -0.1771  0.1439
  544MPD2    H5 8133   0.207   1.172   0.009 -2.9808 -1.6472  2.2731
  544MPD2    N1 8134   0.286   0.600   0.045 -0.2128  0.5427  0.6280
  544MPD2    H7 8135   0.294   0.528   0.116 -1.5832 -1.8496 -1.6575
  545TMC3    C1 8136   0.295   0.401  17.679 -0.1236  0.1247 -0.2163
  545TMC3    C2 8137   0.394   0.363   0.011 -0.0080 -0.1633  0.1989
  545TMC3    C3 8138   0.420   0.225   0.010  0.3215 -0.2271 -0.1085
  545TMC3    C4 8139   0.218   0.321  17.603  0.4478  0.4032 -0.5950
  545TMC3    C5 8140   0.247   0.183  17.609  0.2887  0.0632  0.2266
  545TMC3    C6 8141   0.349   0.135  17.688  0.2433 -0.2332  0.1127
  545TMC3     C 8142   0.251   0.541  17.682 -0.3486  0.6616  0.0409
  545TMC3     O 8143   0.196   0.591  17.584  0.2765  0.7892 -0.4581
  545TMC3     H 8144   0.451   0.435   0.070 -1.6513  0.6615  0.7875
  545TMC3    H1 8145   0.145   0.358  17.531  0.2600  1.8283  0.3199
  545TMC3    H2 8146   0.380   0.031  17.696  2.4008  0.1956 -2.6349
  545TMC3    C7 8147   0.137   0.094  17.573  0.1036 -0.0790 -0.0529
  545TMC3    C8 8148   0.540   0.175   0.079 -0.0531 -0.2431 -0.8080
  545TMC3    O1 8149   0.039   0.149  17.536 -0.0399 -0.0342  0.4439
  545TMC3    O2 8150   0.563   0.056   0.091  0.2115 -0.2203  0.1345
  546MPD2     C 8151   1.908   1.389  17.531  0.7065  0.1886 -0.4193
  546MPD2    C1 8152   1.910   1.359  17.395  0.4480  0.0395 -0.4326
  546MPD2    C2 8153   1.969   1.450  17.309 -0.1458  0.3129 -0.5261
  546MPD2    C3 8154   2.015   1.569  17.359  0.1826  0.7469 -0.9834
  546MPD2    C4 8155   2.020   1.588  17.487  0.9984  0.4469 -0.2804
  546MPD2    C5 8156   1.964   1.503  17.571 -0.9682  0.3438  0.9203
  546MPD2     H 8157   1.966   1.439  17.201 -1.9245  2.4844 -0.7061
  546MPD2    H1 8158   2.073   1.672  17.531  2.2662 -0.7551  0.4688
  546MPD2    H2 8159   1.868   1.319  17.604  1.4721 -0.3944 -0.5546
  546MPD2    H3 8160   1.971   1.535  17.674 -0.5670  1.1659  0.6363
  546MPD2     N 8161   2.054   1.678  17.277  0.2700 -0.1206 -0.2896
  546MPD2    H5 8162   2.067   1.767  17.323  1.1965  1.2254 -3.1795
  546MPD2    N1 8163   1.854   1.236  17.348  0.0523  0.4978 -0.1476
  546MPD2    H7 8164   1.827   1.177  17.426 -1.4651 -1.9789 -2.5398
  547TMC3    C1 8165   1.776   1.065  17.206 -1.3510 -0.5849 -0.0303
  547TMC3    C2 8166   1.695   1.036  17.096 -0.0278 -0.6771  0.0356
  547TMC3    C3 8167   1.618   0.924  17.095 -0.0954 -0.2782 -0.6761
  547TMC3    C4 8168   1.786   0.984  17.308  0.4095 -0.8474 -0.2943
  547TMC3    C5 8169   1.713   0.870  17.303  0.0552 -0.1204 -0.0012
  547TMC3    C6 8170   1.628   0.831  17.196  0.0730  0.5008  1.0131
  547TMC3     C 8171   1.827   1.202  17.220 -0.3733  0.0199  0.4046
  547TMC3     O 8172   1.845   1.261  17.118 -0.3424 -0.0791  0.4417
  547TMC3     H 8173   1.689   1.113  17.020  0.5391 -3.1623 -2.5250
  547TMC3    H1 8174   1.846   0.995  17.398  0.5213 -1.6411 -0.2737
  547TMC3    H2 8175   1.570   0.740  17.195  2.9776 -1.3384 -0.7394
  547TMC3    C7 8176   1.680   0.794  17.431 -0.0333  0.2160 -0.8712
  547TMC3    C8 8177   1.501   0.930  17.017 -0.4059 -0.4348  0.0205
  547TMC3    O1 8178   1.680   0.861  17.535 -0.0305 -0.1413  0.2234
  547TMC3    O2 8179   1.467   1.044  16.983  0.0294 -0.0023  0.4011
  548MPD2     C 8180   1.765   1.975  12.513  0.4565  0.0153  0.3773
  548MPD2    C1 8181   1.700   1.886  12.600  0.2815  0.0027  0.7490
  548MPD2    C2 8182   1.775   1.812  12.690 -0.0584  0.1742 -0.3549
  548MPD2    C3 8183   1.913   1.823  12.686  0.1897 -0.1133 -0.5567
  548MPD2    C4 8184   1.980   1.918  12.603  0.4864  0.4636 -0.2473
  548MPD2    C5 8185   1.899   2.001  12.527 -0.1134  0.1925 -0.1460
  548MPD2     H 8186   1.726   1.733  12.747 -0.9102  2.0106  1.4369
  548MPD2    H1 8187   2.087   1.937  12.604  0.5594  0.0109  0.7812
  548MPD2    H2 8188   1.702   2.031  12.445  1.3905  0.4670 -0.1169
  548MPD2    H3 8189   1.942   2.088  12.478 -1.3451  0.5106 -0.6747
  548MPD2     N 8190   1.987   1.729  12.758  0.4590  0.2038 -0.7096
  548MPD2    H5 8191   1.941   1.647  12.796  1.3215  0.9862  2.0189
  548MPD2    N1 8192   1.563   1.863  12.571  0.1047  0.0569  0.5153
  548MPD2    H7 8193   1.518   1.928  12.507  1.5391 -0.8834 -1.4557
  549TMC3    C1 8194   1.340   1.784  12.594  0.5256  0.1723 -0.8470
  549TMC3    C2 8195   1.306   1.881  12.502  0.2737  0.6270  0.2632
  549TMC3    C3 8196   1.182   1.862  12.435 -0.0933  0.2707 -0.1482
  549TMC3    C4 8197   1.258   1.681  12.625  0.4096 -0.1538  0.3172
  549TMC3    C5 8198   1.144   1.667  12.551  0.3832 -0.1216  0.4282
  549TMC3    C6 8199   1.102   1.750  12.451  0.2607 -0.0567 -0.5212
  549TMC3     C 8200   1.478   1.768  12.629 -0.3740 -0.2079 -0.0514
  549TMC3     O 8201   1.512   1.680  12.704  0.4296 -0.0662 -0.0673
  549TMC3     H 8202   1.371   1.962  12.470  0.4947 -0.6154 -2.4833
  549TMC3    H1 8203   1.291   1.622  12.709  2.0744 -1.5871 -1.3505
  549TMC3    H2 8204   1.013   1.730  12.393 -1.1478  1.9168  0.9797
  549TMC3    C7 8205   1.052   1.577  12.614  0.0434 -0.1223 -0.6269
  549TMC3    C8 8206   1.127   1.965  12.352  0.2567 -0.7513  0.1999
  549TMC3    O1 8207   0.930   1.599  12.621  0.9623  0.3071  0.3849
  549TMC3    O2 8208   1.022   1.931  12.300 -0.7137 -0.4895  0.0381
  550TMC3    C1 8209   0.863   4.047  12.371  0.3227 -0.0943  0.3974
  550TMC3    C2 8210   0.789   4.055  12.484 -0.8100  0.4294 -0.8959
  550TMC3    C3 8211   0.788   4.165  12.560 -0.2187 -0.5264  0.7937
  550TMC3    C4 8212   0.943   4.154  12.341  0.0312 -0.3363  0.5470
  550TMC3    C5 8213   0.934   4.265  12.415  0.5436  0.4738 -0.1461
  550TMC3    C6 8214   0.881   4.266  12.537  0.3653 -0.6878  0.4108
  550TMC3     C 8215   0.788   3.992  12.265 -0.8769 -0.3675 -0.3245
  550TMC3     O 8216   0.670   3.960  12.286  0.2828  0.3592  0.7748
  550TMC3     H 8217   0.721   3.972  12.496 -1.3588  0.9776 -0.2136
  550TMC3    H1 8218   1.014   4.151  12.259 -0.0921 -1.4691  0.4827
  550TMC3    H2 8219   0.875   4.351  12.603  1.7134  0.4169 -0.9039
  550TMC3    C7 8220   0.853   4.355  12.332  0.2986  0.2060 -0.3934
  550TMC3    C8 8221   0.660   4.203  12.619 -0.4237  0.2167 -0.6939
  550TMC3    O1 8222   0.814   4.315  12.222  0.0369  0.2911  0.2542
  550TMC3    O2 8223   0.667   4.276  12.718  0.0677 -0.6540 -0.2544
  551TMC3    C1 8224   2.827   2.638  13.569 -0.0183 -0.3374  0.1898
  551TMC3    C2 8225   2.922   2.582  13.486  0.2466 -0.2352  0.5615
  551TMC3    C3 8226   3.050   2.604  13.531  0.3903  0.7717  0.3753
  551TMC3    C4 8227   2.850   2.708  13.684  0.0149 -0.2627 -0.1088
  551TMC3    C5 8228   2.984   2.719  13.731 -0.1534 -0.8528  0.3264
  551TMC3    C6 8229   3.082   2.666  13.652 -1.0272  0.8945 -0.0530
  551TMC3     C 8230   2.705   2.670  13.502 -0.4417 -0.2954 -0.1676
  551TMC3     O 8231   2.642   2.765  13.543 -0.0615 -0.4513 -0.4155
  551TMC3     H 8232   2.917   2.547  13.383 -0.6202 -0.7495  0.7769
  551TMC3    H1 8233   2.770   2.761  13.737 -0.1810 -1.9588  1.2888
  551TMC3    H2 8234   3.184   2.651  13.686 -1.6448  0.7165  1.7173
  551TMC3    C7 8235   3.030   2.745  13.874  0.0744  0.0255  0.0537
  551TMC3    C8 8236   3.157   2.569  13.433  0.3933 -0.4114  0.3135
  551TMC3    O1 8237   2.960   2.729  13.974 -0.3677  0.2121  0.8656
  551TMC3    O2 8238   3.143   2.467  13.369  0.2243 -0.6346 -0.3040
  552MPD2     C 8239   0.222   4.494  14.177  0.1812 -0.3195  0.0630
  552MPD2    C1 8240   0.158   4.401  14.258  0.0663 -0.2972 -0.2508
  552MPD2    C2 8241   0.212   4.367  14.376 -0.2421 -0.5288 -0.0239
  552MPD2    C3 8242   0.330   4.419  14.415 -0.1790  0.4060 -0.0015
  552MPD2    C4 8243   0.401   4.506  14.333  0.0037 -1.1131  0.3265
  552MPD2    C5 8244   0.344   4.543  14.216  0.9588  0.2333  0.4263
  552MPD2     H 8245   0.158   4.293  14.434 -1.8759  0.7636  0.1105
  552MPD2    H1 8246   0.500   4.528  14.368 -0.7633  2.5332  0.1829
  552MPD2    H2 8247   0.188   4.533  14.081 -0.5191 -2.3648 -0.5176
  552MPD2    H3 8248   0.404   4.606  14.152  2.1025  1.6970  2.9114
  552MPD2     N 8249   0.384   4.378  14.540 -0.2943  0.1318 -0.4036
  552MPD2    H5 8250   0.468   4.425  14.571 -0.5969  0.3076  0.1574
  552MPD2    N1 8251   0.035   4.335  14.220 -0.3282  0.3117 -0.7621
  552MPD2    H7 8252   4.720   4.276  14.282 -1.4960  1.6101 -0.5364
  553TMC3    C1 8253   4.604   4.238  14.068  0.3812  0.2967 -0.3098
  553TMC3    C2 8254   4.567   4.228  13.934 -0.5484  0.4178 -0.0336
  553TMC3    C3 8255   4.521   4.105  13.889  1.2462 -0.2718 -0.2047
  553TMC3    C4 8256   4.593   4.129  14.151  0.3676 -0.4500  0.6892
  553TMC3    C5 8257   4.537   4.013  14.105  0.3828  0.4505  0.8666
  553TMC3    C6 8258   4.503   4.002  13.974 -0.3793  0.5848 -0.6876
  553TMC3     C 8259   4.722   4.331  14.091 -0.3942  0.5160  0.1055
  553TMC3     O 8260   0.023   4.383  13.988 -0.6940 -0.8055 -0.3704
  553TMC3     H 8261   4.588   4.311  13.867 -1.9322  1.7207  1.1357
  553TMC3    H1 8262   4.629   4.145  14.252 -0.3370 -1.1428  1.0461
  553TMC3    H2 8263   4.466   3.907  13.938 -1.1623  0.0131  1.5942
  553TMC3    C7 8264   4.603   3.899  14.162  0.0421 -0.2252  0.0938
  553TMC3    C8 8265   4.554   4.082  13.743 -0.0776 -0.3966 -0.2897
  553TMC3    O1 8266   4.699   3.921  14.231  0.3526  0.0376  0.1068
  553TMC3    O2 8267   4.598   4.175  13.676 -0.2979  0.0704 -0.2710
  554TMC3    C1 8268   1.073   3.330  11.749  0.6878  0.1637 -0.4334
  554TMC3    C2 8269   0.963   3.298  11.673 -0.5551  0.1756 -0.9397
  554TMC3    C3 8270   0.954   3.343  11.544  0.8159 -0.1669  0.2095
  554TMC3    C4 8271   1.171   3.422  11.708  1.0785  0.4688  0.4634
  554TMC3    C5 8272   1.142   3.477  11.583 -0.8734 -0.7280 -0.3279
  554TMC3    C6 8273   1.039   3.441  11.505 -0.2248  0.5463  0.0383
  554TMC3     C 8274   1.073   3.294  11.887 -0.3441 -0.5522 -0.1139
  554TMC3     O 8275   0.974   3.262  11.947 -0.0087  0.3691  0.0975
  554TMC3     H 8276   0.880   3.243  11.716  0.1446 -1.0134 -1.0880
  554TMC3    H1 8277   1.250   3.454  11.775  1.2692  0.7544  0.1022
  554TMC3    H2 8278   1.020   3.492  11.412  0.0524 -1.0012 -0.8631
  554TMC3    C7 8279   1.255   3.554  11.516  0.2618 -0.0239 -0.8986
  554TMC3    C8 8280   0.881   3.259  11.445 -0.8225 -0.4411  1.0379
  554TMC3    O1 8281   1.268   3.555  11.391  0.1075  0.6202  0.1696
  554TMC3    O2 8282   0.829   3.152  11.480  0.4684 -0.1836 -0.6053
  555TMC3    C1 8283   0.831   3.027  15.425  0.3168  0.3360  0.0932
  555TMC3    C2 8284   0.851   3.058  15.551 -0.3481 -0.0966  1.0420
  555TMC3    C3 8285   0.908   2.961  15.631 -0.5067  0.6104  0.3047
  555TMC3    C4 8286   0.860   2.900  15.385 -0.4103  0.3899 -0.3564
  555TMC3    C5 8287   0.906   2.801  15.467  0.4174 -0.3840 -0.1326
  555TMC3    C6 8288   0.935   2.834  15.592  0.5882 -0.2551  0.0439
  555TMC3     C 8289   0.769   3.138  15.338  0.6081  0.3545  0.0996
  555TMC3     O 8290   0.770   3.255  15.379  0.0383 -0.2947 -0.7481
  555TMC3     H 8291   0.831   3.162  15.575 -3.6576 -0.8753  1.7098
  555TMC3    H1 8292   0.836   2.876  15.282  0.5439 -1.6733 -0.0880
  555TMC3    H2 8293   0.975   2.752  15.650  2.4524  0.8008  0.2321
  555TMC3    C7 8294   0.912   2.664  15.421 -0.0329 -0.3353 -0.4667
  555TMC3    C8 8295   0.983   3.012  15.744 -0.0505 -0.2093 -1.3387
  555TMC3    O1 8296   0.904   2.572  15.503  0.3856  0.0049  0.5146
  555TMC3    O2 8297   1.011   3.130  15.749 -0.5310  0.2890  0.0198
  556MPD2     C 8298   3.639   0.058  10.112 -0.0657 -0.5432 -0.0387
  556MPD2    C1 8299   3.622   4.715  10.220 -1.2652 -0.4818 -0.0457
  556MPD2    C2 8300   3.559   4.591  10.205  0.7512  0.0597  0.1771
  556MPD2    C3 8301   3.527   4.547  10.079  0.0560  0.6781  0.5517
  556MPD2    C4 8302   3.540   4.635   9.971 -0.6203  0.7110 -0.0334
  556MPD2    C5 8303   3.595   0.020   9.987 -0.0495  0.0040 -0.7412
  556MPD2     H 8304   3.552   4.536  10.298  2.9265  0.2218  0.4522
  556MPD2    H1 8305   3.520   4.622   9.865 -1.2849 -0.6710  0.2514
  556MPD2    H2 8306   3.683   0.156  10.123  4.1189 -2.0821 -3.2520
  556MPD2    H3 8307   3.599   0.087   9.902 -1.6782 -1.9641 -2.3557
  556MPD2     N 8308   3.487   4.416  10.060 -0.2635 -0.5354 -0.0699
  556MPD2    H5 8309   3.490   4.360  10.144  0.5222 -1.1486 -0.5009
  556MPD2    N1 8310   3.661   0.005  10.352 -0.0062  0.4428  0.3260
  556MPD2    H7 8311   3.635   4.680  10.427 -0.6493  1.5628  1.0313
  557TMC3    C1 8312   3.379   4.225   9.971 -0.3697  0.9234  0.4338
  557TMC3    C2 8313   3.332   4.155   9.861  0.4023 -0.0159  0.0187
  557TMC3    C3 8314   3.269   4.042   9.884 -0.5039 -0.3418 -0.7138
  557TMC3    C4 8315   3.375   4.171  10.099  0.3459 -0.4672  0.0254
  557TMC3    C5 8316   3.318   4.047  10.114  0.1361  0.2695  0.0248
  557TMC3    C6 8317   3.259   3.977  10.006  0.2062  0.2772 -0.2033
  557TMC3     C 8318   3.442   4.354   9.944  0.3199  0.0894 -0.5166
  557TMC3     O 8319   3.422   4.399   9.829 -0.2605  0.1657 -0.1572
  557TMC3     H 8320   3.330   4.199   9.762 -1.1023 -0.2199 -0.0423
  557TMC3    H1 8321   3.414   4.220  10.188  1.7591 -3.9846  1.3483
  557TMC3    H2 8322   3.195   3.892  10.026  0.6688 -0.2247 -0.8429
  557TMC3    C7 8323   3.295   3.998  10.249 -0.1105 -0.1911 -0.0474
  557TMC3    C8 8324   3.198   3.978   9.782 -0.0469  0.1601  0.4623
  557TMC3    O1 8325   3.183   3.945  10.264 -0.3186 -0.1486  0.5622
  557TMC3    O2 8326   3.168   4.044   9.686  0.1709  0.0926  0.6991
  558TMC3    C1 8327   1.199   2.848  10.180 -0.2448 -0.2801 -1.0062
  558TMC3    C2 8328   1.090   2.774  10.220  0.5675 -0.3328 -0.0094
  558TMC3    C3 8329   0.978   2.762  10.146 -0.1533  0.2610 -0.6078
  558TMC3    C4 8330   1.202   2.913  10.053 -0.9190 -0.8313 -0.1923
  558TMC3    C5 8331   1.080   2.898   9.986  0.5112 -0.0006  0.1649
  558TMC3    C6 8332   0.967   2.827  10.027  0.1316 -0.7474  0.2267
  558TMC3     C 8333   1.330   2.814  10.227  0.1475 -0.5380  0.5085
  558TMC3     O 8334   1.436   2.848  10.174  0.7970 -0.0064  0.3487
  558TMC3     H 8335   1.091   2.723  10.316 -0.8931 -0.5019 -0.0830
  558TMC3    H1 8336   1.299   2.937  10.011 -1.6520 -0.0059 -1.3776
  558TMC3    H2 8337   0.876   2.816   9.970  0.6969 -0.7695 -0.6709
  558TMC3    C7 8338   1.108   2.916   9.837 -0.1621 -0.5903  0.3480
  558TMC3    C8 8339   0.884   2.655  10.158  0.0875  0.0247  0.0909
  558TMC3    O1 8340   1.202   2.991   9.802  0.5201 -0.0007 -0.0558
  558TMC3    O2 8341   0.771   2.672  10.112  0.2939  0.5107  0.3006
  559MPD2     C 8342   1.051   2.921  10.876 -0.0712 -0.7195  0.7875
  559MPD2    C1 8343   1.070   2.789  10.856 -0.1181 -0.5715 -0.4393
  559MPD2    C2 8344   1.183   2.728  10.910  0.5886 -0.5119  0.2119
  559MPD2    C3 8345   1.269   2.799  10.981 -0.4214 -0.7412 -0.5286
  559MPD2    C4 8346   1.244   2.936  11.004 -0.0436 -0.3873  0.1975
  559MPD2    C5 8347   1.141   2.993  10.942  0.1510  0.1403 -0.3797
  559MPD2     H 8348   1.208   2.623  10.904 -2.7944 -1.3308  0.8938
  559MPD2    H1 8349   1.310   3.004  11.057  0.5002 -0.4983 -0.3466
  559MPD2    H2 8350   0.969   2.968  10.823  0.3080  0.1887  1.0198
  559MPD2    H3 8351   1.121   3.098  10.964  1.6005  0.0217  1.5373
  559MPD2     N 8352   1.381   2.736  11.034  0.1814 -0.3397 -0.0654
  559MPD2    H5 8353   1.388   2.640  11.001  0.7988  0.2259 -1.5949
  559MPD2    N1 8354   0.972   2.719  10.792 -0.7050  0.2988 -0.2139
  559MPD2    H7 8355   0.894   2.773  10.755 -1.3622 -1.0480 -0.7893
  560TMC3    C1 8356   1.590   2.700  11.142  0.0645 -0.4500 -0.2355
  560TMC3    C2 8357   1.588   2.569  11.094 -0.5802  0.5438  0.0478
  560TMC3    C3 8358   1.660   2.474  11.160  0.3040  1.0648  0.5892
  560TMC3    C4 8359   1.667   2.724  11.252 -0.0803  0.4700 -0.1260
  560TMC3    C5 8360   1.723   2.618  11.321 -0.4049 -0.0822  0.0624
  560TMC3    C6 8361   1.719   2.492  11.277  0.3226  0.5501  0.5021
  560TMC3     C 8362   1.483   2.797  11.101  0.9126 -0.8235  0.9357
  560TMC3     O 8363   1.491   2.906  11.146  0.0334  0.3190  0.2600
  560TMC3     H 8364   1.543   2.552  10.996 -0.4756 -1.4375  0.3455
  560TMC3    H1 8365   1.665   2.827  11.285  1.1926  0.8928 -1.3854
  560TMC3    H2 8366   1.768   2.422  11.344 -1.5472 -0.8156  0.4274
  560TMC3    C7 8367   1.812   2.658  11.432  0.3830 -0.2323  0.1110
  560TMC3    C8 8368   1.694   2.349  11.090  0.3050 -0.0568  0.4684
  560TMC3    O1 8369   1.858   2.573  11.504  0.2924 -0.0167 -0.8696
  560TMC3    O2 8370   1.789   2.285  11.136  0.3398 -0.0601 -0.2688
  561TMC3    C1 8371   4.048   1.255  11.252  0.0653  0.1579  0.0309
  561TMC3    C2 8372   3.954   1.222  11.351  0.3500  0.0696  0.3416
  561TMC3    C3 8373   3.851   1.310  11.376  0.1015  0.2072  0.5930
  561TMC3    C4 8374   4.042   1.370  11.178 -0.1226  0.3791  0.2059
  561TMC3    C5 8375   3.933   1.449  11.194  0.2766 -0.4426  0.3305
  561TMC3    C6 8376   3.833   1.420  11.291  0.1491  1.1859  0.1490
  561TMC3     C 8377   4.175   1.194  11.289  0.4144 -0.2396 -0.1955
  561TMC3     O 8378   4.191   1.073  11.288 -0.0734  0.2841  0.0324
  561TMC3     H 8379   3.986   1.149  11.424 -1.4177  1.9629  3.0234
  561TMC3    H1 8380   4.111   1.379  11.095  0.0710  2.0206  0.5283
  561TMC3    H2 8381   3.749   1.488  11.291 -0.7014  0.1112  2.9016
  561TMC3    C7 8382   3.913   1.556  11.099  0.3903 -0.4810  0.2868
  561TMC3    C8 8383   3.780   1.299  11.501 -0.7796 -0.5196 -0.7642
  561TMC3    O1 8384   3.795   1.576  11.065 -0.1930 -0.3695  0.0101
  561TMC3    O2 8385   3.813   1.207  11.574 -0.5397 -0.0092  0.5586
  562TMC3    C1 8386   0.752   3.158  16.527 -0.0255  0.3262  0.3163
  562TMC3    C2 8387   0.713   3.282  16.522 -1.2141 -0.2539 -0.3574
  562TMC3    C3 8388   0.641   3.324  16.408  1.3483  0.3022 -0.2844
  562TMC3    C4 8389   0.739   3.064  16.425  0.0070  0.8098 -0.0276
  562TMC3    C5 8390   0.672   3.111  16.316  0.1148 -0.4209 -0.2705
  562TMC3    C6 8391   0.621   3.238  16.309  0.4111 -0.3630 -0.1262
  562TMC3     C 8392   0.863   3.127  16.618 -0.1579 -0.8456 -0.2501
  562TMC3     O 8393   0.906   3.013  16.619  0.3099 -0.8148  0.1321
  562TMC3     H 8394   0.721   3.351  16.605  1.4360  0.4271 -1.1710
  562TMC3    H1 8395   0.792   2.970  16.422 -0.3948  0.5857 -0.0741
  562TMC3    H2 8396   0.555   3.265  16.227  0.4735  0.9337  0.2371
  562TMC3    C7 8397   0.676   3.043  16.186  0.7543  0.6078  0.5623
  562TMC3    C8 8398   0.621   3.468  16.390  0.6187  0.1002  0.5528
  562TMC3    O1 8399   0.584   3.067  16.108  0.0352  0.2042  0.4744
  562TMC3    O2 8400   0.629   3.529  16.497 -0.9588  0.2426  0.3769
  563MPD2     C 8401   2.978   0.069  15.594 -0.0673  0.6906 -0.2827
  563MPD2    C1 8402   3.052   0.079  15.715 -0.5117 -0.2743 -0.1573
  563MPD2    C2 8403   3.164   4.737  15.727  0.3429  0.0085  0.3372
  563MPD2    C3 8404   3.204   4.655  15.621 -0.1505  0.9840  0.1396
  563MPD2    C4 8405   3.137   4.666  15.501 -0.6156  0.2060 -0.2158
  563MPD2    C5 8406   3.022   4.735  15.488 -0.3317  0.4366  0.4810
  563MPD2     H 8407   3.215   4.727  15.822 -0.5211 -1.4530  0.6427
  563MPD2    H1 8408   3.171   4.604  15.419 -1.3335  1.5690 -1.5665
  563MPD2    H2 8409   2.878   0.108  15.579 -0.7423 -1.1973 -0.6201
  563MPD2    H3 8410   2.961   4.723  15.399  0.5748  0.4490 -0.1418
  563MPD2     N 8411   3.316   4.569  15.639 -0.2329  0.1286  0.3282
  563MPD2    H5 8412   3.351   4.557  15.733  0.4671  0.4518  0.1119
  563MPD2    N1 8413   2.987   0.152  15.821 -0.1041  1.0644  0.1413
  563MPD2    H7 8414   2.889   0.169  15.803 -0.4196 -2.1380 -1.1445
  564TMC3    C1 8415   2.958   0.165  16.055  0.1460 -0.5798  0.6702
  564TMC3    C2 8416   2.822   0.158  16.026 -0.4391  0.4337 -0.0242
  564TMC3    C3 8417   2.736   0.087  16.113 -0.0136  1.2034 -0.7860
  564TMC3    C4 8418   3.009   0.109  16.170  1.1270  0.0677 -0.0987
  564TMC3    C5 8419   2.915   0.054  16.262 -0.1874  0.2568 -0.7260
  564TMC3    C6 8420   2.781   0.050  16.235  0.1446  0.3931 -0.0847
  564TMC3     C 8421   3.050   0.173  15.943 -0.1145 -0.1939  0.0735
  564TMC3     O 8422   3.170   0.179  15.966  0.8665  1.2037 -0.3121
  564TMC3     H 8423   2.781   0.192  15.932 -1.9116 -2.5896 -0.4720
  564TMC3    H1 8424   3.117   0.099  16.177  1.1983 -0.0812 -1.3699
  564TMC3    H2 8425   2.724   4.719  16.296  0.8280  0.4161  0.5829
  564TMC3    C7 8426   2.977   4.673  16.312  0.1931 -0.4681  0.2941
  564TMC3    C8 8427   2.664   4.712  16.056  0.0263  0.3528 -0.2498
  564TMC3    O1 8428   3.089   4.681  16.353 -0.1921  0.4114 -0.5191
  564TMC3    O2 8429   2.666   4.607  16.116 -0.0667 -0.1915 -0.3450
  565TMC3    C1 8430   3.012   1.215  10.028 -0.3139  0.5488 -0.0440
  565TMC3    C2 8431   3.031   1.074  10.044  0.6969 -0.1486  0.4321
  565TMC3    C3 8432   2.959   1.002   9.956  0.6873  0.1026  0.2873
  565TMC3    C4 8433   2.932   1.268   9.931 -0.0706  0.1994 -0.3590
  565TMC3    C5 8434   2.862   1.192   9.850 -0.2359  0.0663 -0.4382
  565TMC3    C6 8435   2.880   1.056   9.862  0.1425 -0.6677 -0.8752
  565TMC3     C 8436   3.119   1.295  10.084 -0.0454  0.3789 -0.1954
  565TMC3     O 8437   3.188   1.246  10.173  0.4123  0.6448 -0.5760
  565TMC3     H 8438   3.091   1.049  10.131  1.2537 -0.7633 -0.1335
  565TMC3    H1 8439   2.915   1.375   9.932  0.3553  0.2417  3.7220
  565TMC3    H2 8440   2.807   0.990   9.817  0.8982 -1.4558 -0.9374
  565TMC3    C7 8441   2.773   1.244   9.748  0.5993  0.1146  0.7395
  565TMC3    C8 8442   2.959   0.863   9.988 -0.8382 -0.7631 -0.0358
  565TMC3    O1 8443   2.712   1.163   9.672  0.4022 -0.2085  0.6880
  565TMC3    O2 8444   3.003   0.838  10.099 -1.0043 -0.6463  0.4226
  566MPD2     C 8445   0.447   2.478  14.247 -0.3688  0.2027  0.4494
  566MPD2    C1 8446   0.446   2.520  14.119 -1.2145 -0.4218  0.6262
  566MPD2    C2 8447   0.335   2.510  14.038  0.7850 -0.3374 -0.3857
  566MPD2    C3 8448   0.223   2.448  14.091  0.4204 -0.3973 -0.0610
  566MPD2    C4 8449   0.236   2.393  14.212 -0.0129  0.7757 -0.7934
  566MPD2    C5 8450   0.345   2.401  14.296  0.5074 -0.3514  0.0113
  566MPD2     H 8451   0.346   2.564  13.945  2.1453  1.3538  0.7514
  566MPD2    H1 8452   0.159   2.337  14.264  0.5807  0.5385 -0.1757
  566MPD2    H2 8453   0.534   2.490  14.309 -0.2831  0.9522  0.1855
  566MPD2    H3 8454   0.336   2.362  14.397  0.1066  3.8235  1.5901
  566MPD2     N 8455   0.105   2.435  14.019  0.2047 -0.4787  0.5992
  566MPD2    H5 8456   0.045   2.361  14.054  0.2400 -0.5849  0.4351
  566MPD2    N1 8457   0.567   2.593  14.088  0.2546 -0.0842 -0.2452
  566MPD2    H7 8458   0.643   2.586  14.154  0.2431 -1.6039 -0.4034
  567TMC3    C1 8459   0.713   2.740  13.970  0.1188 -0.0794  0.2255
  567TMC3    C2 8460   0.756   2.780  13.847  0.0917  0.1373 -0.0061
  567TMC3    C3 8461   0.856   2.868  13.848 -0.3193  0.2911 -0.0441
  567TMC3    C4 8462   0.761   2.786  14.083  0.3456 -0.4318  0.3424
  567TMC3    C5 8463   0.866   2.874  14.077  0.5937  0.6488  0.0497
  567TMC3    C6 8464   0.916   2.917  13.956  0.2578 -0.3019  0.5515
  567TMC3     C 8465   0.582   2.672  13.974  0.4454  0.0118  0.1154
  567TMC3     O 8466   0.513   2.681  13.876  0.3347 -0.0227  0.2264
  567TMC3     H 8467   0.724   2.730  13.756 -2.0033  1.0831  0.2066
  567TMC3    H1 8468   0.699   2.764  14.169  1.6897  0.8182  1.6424
  567TMC3    H2 8469   0.988   2.998  13.963  0.0011  0.1296 -1.8411
  567TMC3    C7 8470   0.909   2.938  14.199  0.5260 -1.1155  0.0347
  567TMC3    C8 8471   0.890   2.934  13.716 -0.0751 -0.5763  0.2637
  567TMC3    O1 8472   0.965   3.048  14.190 -0.1176  0.0389  0.0345
  567TMC3    O2 8473   0.983   3.010  13.710  0.4390 -0.7006  0.0446
  568MPD2     C 8474   3.143   3.429  15.943  0.1200 -0.5877 -0.1047
  568MPD2    C1 8475   3.012   3.421  15.983 -0.7448 -0.4979 -0.2063
  568MPD2    C2 8476   2.909   3.490  15.910  0.5477 -0.1352 -0.1769
  568MPD2    C3 8477   2.935   3.587  15.824 -0.0185 -0.5290 -0.3381
  568MPD2    C4 8478   3.066   3.595  15.794  0.2528  0.3109  0.0402
  568MPD2    C5 8479   3.165   3.513  15.834 -0.4228 -0.3926 -0.1216
  568MPD2     H 8480   2.805   3.471  15.935  0.4079  2.7689  1.3888
  568MPD2    H1 8481   3.096   3.669  15.720  0.4974 -3.5847 -3.7359
  568MPD2    H2 8482   3.226   3.378  15.991  0.0575 -1.0710 -0.5127
  568MPD2    H3 8483   3.264   3.524  15.794  0.8265 -0.4396  2.9335
  568MPD2     N 8484   2.825   3.665  15.783 -0.2389 -0.4681 -0.2414
  568MPD2    H5 8485   2.728   3.632  15.789  0.2105 -1.7210  0.2111
  568MPD2    N1 8486   2.989   3.338  16.094  0.4863  0.1850 -0.7991
  568MPD2    H7 8487   3.076   3.313  16.141 -0.4167  2.4113  2.0302
  569TMC3    C1 8488   2.696   3.851  15.719 -0.4015 -0.4056  0.1790
  569TMC3    C2 8489   2.613   3.822  15.818  0.7252  0.0590  0.1530
  569TMC3    C3 8490   2.548   3.930  15.875  1.0264 -0.1612 -0.0966
  569TMC3    C4 8491   2.709   3.979  15.665 -0.5248 -0.2074 -0.2058
  569TMC3    C5 8492   2.639   4.083  15.725  0.1407 -0.0227  0.3780
  569TMC3    C6 8493   2.550   4.057  15.824 -0.6259  0.5562 -0.5647
  569TMC3     C 8494   2.827   3.790  15.727 -0.0959  0.1816  0.6467
  569TMC3     O 8495   2.913   3.873  15.711  0.7257 -0.5275  0.1818
  569TMC3     H 8496   2.612   3.724  15.865 -0.4433  0.4260  0.9055
  569TMC3    H1 8497   2.773   4.011  15.585  1.1764 -1.5395  0.6202
  569TMC3    H2 8498   2.490   4.140  15.858 -1.4986 -0.0902 -0.5220
  569TMC3    C7 8499   2.626   4.204  15.659  0.1040  0.0080  0.3591
  569TMC3    C8 8500   2.491   3.898  16.005  0.0719 -0.3706  0.5213
  569TMC3    O1 8501   2.612   4.198  15.535  0.0444 -0.2292  0.0835
  569TMC3    O2 8502   2.438   3.789  16.016  0.4875  0.0415  0.1030
  570TMC3    C1 8503   1.802   1.794  16.023  0.2238  0.7549  0.6569
  570TMC3    C2 8504   1.909   1.796  15.932  0.5784  0.7649 -0.4123
  570TMC3    C3 8505   1.945   1.922  15.896  0.0202  0.1651 -0.3962
  570TMC3    C4 8506   1.732   1.907  16.066  0.6653  0.1788 -0.3849
  570TMC3    C5 8507   1.765   2.027  16.011 -0.2880 -0.0265  0.0112
  570TMC3    C6 8508   1.872   2.032  15.926  0.1181 -0.1666  0.1793
  570TMC3     C 8509   1.768   1.661  16.084 -0.0030 -0.0242  0.0155
  570TMC3     O 8510   1.754   1.566  16.009  0.0067  0.2586 -0.2583
  570TMC3     H 8511   1.949   1.702  15.895  0.2585 -0.0051  1.2066
  570TMC3    H1 8512   1.635   1.894  16.111  0.5538 -0.9509 -0.9552
  570TMC3    H2 8513   1.899   2.128  15.884 -1.7990  0.5346  0.5411
  570TMC3    C7 8514   1.738   2.144  16.090  0.1290  0.8471 -0.5560
  570TMC3    C8 8515   2.056   1.951  15.803  0.1882 -0.3136 -0.2928
  570TMC3    O1 8516   1.752   2.139  16.209 -0.4084 -0.4988  0.4090
  570TMC3    O2 8517   2.075   2.067  15.772 -0.5219  0.4210 -0.0668
  571MPD2     C 8518   0.266   3.485   0.512 -0.0203  0.8352 -0.4838
  571MPD2    C1 8519   0.152   3.564   0.488 -0.1476 -0.0828 -0.0633
  571MPD2    C2 8520   0.152   3.697   0.537 -0.2546 -0.0122 -1.0378
  571MPD2    C3 8521   0.263   3.741   0.611  0.4816  0.5969 -0.6231
  571MPD2    C4 8522   0.370   3.660   0.641 -0.4602 -0.0547 -0.2798
  571MPD2    C5 8523   0.362   3.529   0.593 -0.0227 -0.6343 -0.1568
  571MPD2     H 8524   0.066   3.760   0.516  0.5833  0.8576 -1.8325
  571MPD2    H1 8525   0.467   3.696   0.675  0.4866 -2.3996 -0.4711
  571MPD2    H2 8526   0.273   3.387   0.467  0.1855  0.7199 -0.1960
  571MPD2    H3 8527   0.449   3.465   0.607  0.1125  0.0708  2.3139
  571MPD2     N 8528   0.278   3.874   0.660  0.6226  0.4553 -0.5510
  571MPD2    H5 8529   0.363   3.893   0.713 -1.0248  2.2631  1.4369
  571MPD2    N1 8530   0.049   3.506   0.415  0.5920  0.4094 -0.0085
  571MPD2    H7 8531   0.077   3.419   0.371 -0.4776  1.2623 -2.3620
  572TMC3    C1 8532   0.244   4.108   0.672  0.0175 -0.5302  0.2712
  572TMC3    C2 8533   0.347   4.104   0.766 -0.5815 -0.1878 -0.0051
  572TMC3    C3 8534   0.386   4.233   0.796 -0.2255 -0.2470  0.1595
  572TMC3    C4 8535   0.223   4.210   0.584  0.1923 -0.1079  0.3680
  572TMC3    C5 8536   0.287   4.327   0.602 -0.3316 -0.7900  0.1988
  572TMC3    C6 8537   0.363   4.341   0.714  0.0751  0.5057  0.1114
  572TMC3     C 8538   0.196   3.978   0.624  0.2012 -0.8298  0.0333
  572TMC3     O 8539   0.096   3.977   0.552  0.1174 -0.0960  0.1238
  572TMC3     H 8540   0.353   4.023   0.837  0.2813  1.7516  2.1397
  572TMC3    H1 8541   0.151   4.202   0.503 -0.1566 -0.5295  0.7230
  572TMC3    H2 8542   0.394   4.440   0.744  3.4553 -0.6291  0.3251
  572TMC3    C7 8543   0.266   4.448   0.519  0.4992  0.0441 -0.2309
  572TMC3    C8 8544   0.492   4.259   0.895  0.1427  0.7014  0.0289
  572TMC3    O1 8545   0.163   4.440   0.455  0.0174  0.3810 -0.4342
  572TMC3    O2 8546   0.512   4.375   0.921  0.3080 -0.4072 -0.6610
  573MPD2     C 8547   0.705   4.479   0.410 -0.1079  0.7178  0.1371
  573MPD2    C1 8548   0.675   4.360   0.476  0.6283 -0.3113  0.7838
  573MPD2    C2 8549   0.574   4.271   0.425  0.1391 -0.4761 -0.5112
  573MPD2    C3 8550   0.511   4.307   0.307 -0.2209  0.0595  1.0590
  573MPD2    C4 8551   0.552   4.423   0.234  0.4265 -0.5698 -0.2559
  573MPD2    C5 8552   0.654   4.509   0.286 -0.4335 -0.4149 -0.2547
  573MPD2     H 8553   0.552   4.178   0.476  0.2473 -0.8212 -1.0841
  573MPD2    H1 8554   0.505   4.447   0.139  0.6068 -2.1559 -0.7460
  573MPD2    H2 8555   0.785   4.542   0.448 -0.3859  0.0587  1.8369
  573MPD2    H3 8556   0.685   4.593   0.225  0.3617  0.0459  0.7893
  573MPD2     N 8557   0.415   4.225   0.245 -0.7810 -0.2571 -0.5178
  573MPD2    H5 8558   0.376   4.253   0.156 -1.6638  3.3297  0.9978
  573MPD2    N1 8559   0.757   4.335   0.593 -0.1760 -0.3386 -0.1498
  573MPD2    H7 8560   0.815   4.409   0.631  0.5336 -0.7139 -0.5097
  574TMC3    C1 8561   0.272   4.045   0.201  0.6472 -0.1526  0.8062
  574TMC3    C2 8562   0.160   4.128   0.182  0.5396  0.3769  0.8871
  574TMC3    C3 8563   0.055   4.069   0.117 -0.3173  0.6591  0.1521
  574TMC3    C4 8564   0.275   3.912   0.170  0.4196 -0.4927  0.3395
  574TMC3    C5 8565   0.166   3.863   0.101 -0.0099 -0.0767  0.4617
  574TMC3    C6 8566   0.057   3.945   0.068  0.4028  1.0306  0.2827
  574TMC3     C 8567   0.380   4.094   0.282 -0.3529 -0.3518 -0.1903
  574TMC3     O 8568   0.447   4.015   0.346  0.5361 -0.5385  0.9375
  574TMC3     H 8569   0.155   4.222   0.235 -1.2682 -0.1104  1.5946
  574TMC3    H1 8570   0.360   3.849   0.195  0.2433 -0.0931  1.9471
  574TMC3    H2 8571   4.708   3.909   0.013  0.8128 -0.4959  0.6230
  574TMC3    C7 8572   0.147   3.716   0.086 -0.3594 -0.4069 -0.4531
  574TMC3    C8 8573   4.710   4.162   0.046  0.1682 -0.5354 -0.1555
  574TMC3    O1 8574   0.048   3.671   0.037  0.0044 -0.1751  0.4224
  574TMC3    O2 8575   4.592   4.144   0.031  0.1465 -0.4609  0.0542
  575TMC3    C1 8576   3.280   0.134  10.405  0.3318  0.0646 -0.0560
  575TMC3    C2 8577   3.265   0.012  10.351  0.1189 -0.2971 -0.5419
  575TMC3    C3 8578   3.207   0.003  10.228  0.1491 -0.4507  0.0185
  575TMC3    C4 8579   3.231   0.245  10.349 -0.1677  0.9577 -0.2679
  575TMC3    C5 8580   3.173   0.231  10.227 -0.5484  0.7225  0.2799
  575TMC3    C6 8581   3.164   0.108  10.159  0.1082  0.6749  0.1526
  575TMC3     C 8582   3.356   0.143  10.529 -0.2918  0.6659 -0.1868
  575TMC3     O 8583   3.362   0.046  10.603  0.0926  0.0347 -0.4156
  575TMC3     H 8584   3.303   4.663  10.403  1.0731  1.1580  1.2052
  575TMC3    H1 8585   3.238   0.342  10.398  2.7466  1.0479 -0.8776
  575TMC3    H2 8586   3.085   0.091  10.087  1.2697  2.1379 -1.4629
  575TMC3    C7 8587   3.102   0.344  10.176  0.6743  0.6103  0.1437
  575TMC3    C8 8588   3.186   4.609  10.170 -0.5699  0.8180  1.0856
  575TMC3    O1 8589   3.078   0.435  10.257 -0.2541 -0.1032  0.1767
  575TMC3    O2 8590   3.200   4.512  10.251 -0.2357  0.0727  0.4300
  576MPD2     C 8591   2.790   2.049  12.136  0.2067 -0.2099  0.0757
  576MPD2    C1 8592   2.918   2.008  12.103 -0.1208  0.8156 -0.1215
  576MPD2    C2 8593   3.029   2.061  12.172 -0.8090  0.2273 -0.2653
  576MPD2    C3 8594   3.007   2.147  12.276 -0.4145  0.1122  0.3982
  576MPD2    C4 8595   2.878   2.191  12.304 -0.3908 -0.1833  0.1086
  576MPD2    C5 8596   2.770   2.143  12.231 -0.5532 -0.0603 -0.4239
  576MPD2     H 8597   3.130   2.050  12.135 -1.6149 -0.6233 -2.2117
  576MPD2    H1 8598   2.848   2.245  12.394  1.6665  0.0071  0.6741
  576MPD2    H2 8599   2.699   2.011  12.090 -0.2316  2.1210 -0.9827
  576MPD2    H3 8600   2.667   2.161  12.261 -1.0165 -2.8834 -0.3493
  576MPD2     N 8601   3.119   2.211  12.334  0.0220 -0.4781 -0.2145
  576MPD2    H5 8602   3.213   2.190  12.301 -0.0904 -2.2861  0.6152
  576MPD2    N1 8603   2.941   1.934  11.982  0.2733 -0.4184  0.9328
  576MPD2    H7 8604   3.027   1.880  11.978  1.0535  0.7597  2.0167
  577TMC3    C1 8605   2.902   1.837  11.777  0.8224 -0.6266  0.2659
  577TMC3    C2 8606   3.017   1.764  11.811 -0.8366 -0.5686 -0.2585
  577TMC3    C3 8607   3.104   1.734  11.711  0.2879 -0.3896 -0.3836
  577TMC3    C4 8608   2.881   1.900  11.660  1.1614  0.1229  0.0445
  577TMC3    C5 8609   2.971   1.863  11.559 -1.0100  0.3284  0.1071
  577TMC3    C6 8610   3.076   1.776  11.581  0.5213  0.0413  0.5958
  577TMC3     C 8611   2.846   1.909  11.884  0.1283 -0.4394  0.3008
  577TMC3     O 8612   2.731   1.944  11.878 -0.5019 -0.6605  0.4720
  577TMC3     H 8613   3.023   1.704  11.901  0.5315 -1.7902 -1.1659
  577TMC3    H1 8614   2.802   1.973  11.644 -0.8748 -1.9855  0.5436
  577TMC3    H2 8615   3.149   1.749  11.506 -1.3957 -1.0201 -0.8813
  577TMC3    C7 8616   2.976   1.942  11.440 -0.2099  0.0969  0.8888
  577TMC3    C8 8617   3.232   1.680  11.762  0.3803  0.5806  0.0059
  577TMC3    O1 8618   3.046   1.898  11.348 -0.1397  0.4532 -0.2377
  577TMC3    O2 8619   3.246   1.711  11.879  0.4867 -0.8415  0.0205
  578MPD2     C 8620   1.958   2.254   1.845 -0.4547 -0.6451 -0.7152
  578MPD2    C1 8621   2.004   2.246   1.716  0.6722  0.2584 -0.1544
  578MPD2    C2 8622   2.036   2.126   1.658  0.7676 -0.2411  0.4242
  578MPD2    C3 8623   2.042   2.016   1.736  0.5688  0.5957  0.0324
  578MPD2    C4 8624   2.022   2.020   1.874  0.5054 -0.3488 -0.2458
  578MPD2    C5 8625   1.981   2.143   1.924  0.0317 -0.3820  0.6878
  578MPD2     H 8626   2.075   2.116   1.558 -0.7932  1.6688 -0.3698
  578MPD2    H1 8627   2.023   1.935   1.941  0.0547 -2.6532 -3.1332
  578MPD2    H2 8628   1.920   2.343   1.895 -0.8442 -0.2983 -1.6372
  578MPD2    H3 8629   1.951   2.145   2.028  3.2852  1.5207  1.5782
  578MPD2     N 8630   2.103   1.905   1.677  0.1782  0.7209  0.5480
  578MPD2    H5 8631   2.141   1.918   1.584 -0.3262  1.3759  0.4313
  578MPD2    N1 8632   2.010   2.366   1.639 -0.1394 -0.1400 -0.3099
  578MPD2    H7 8633   1.982   2.454   1.682 -2.1721 -1.3851  0.9436
  579TMC3    C1 8634   2.220   1.709   1.657  0.5404  0.0753 -0.7166
  579TMC3    C2 8635   2.358   1.709   1.678 -0.4575  0.8055  0.3584
  579TMC3    C3 8636   2.445   1.666   1.582 -0.9470 -0.2904  0.2884
  579TMC3    C4 8637   2.165   1.676   1.539  0.5702 -0.1774 -0.4297
  579TMC3    C5 8638   2.254   1.642   1.441 -0.2636 -0.7219  0.4801
  579TMC3    C6 8639   2.389   1.620   1.469 -0.2456  0.3595  0.3079
  579TMC3     C 8640   2.150   1.798   1.743  0.0830 -0.6693 -0.4330
  579TMC3     O 8641   2.163   1.770   1.863  0.0732  0.1947  0.2619
  579TMC3     H 8642   2.393   1.769   1.761  2.0848  0.3337 -0.3573
  579TMC3    H1 8643   2.058   1.684   1.525 -0.0947 -0.2545  4.4327
  579TMC3    H2 8644   2.433   1.563   1.388  2.5695  3.2402 -0.1995
  579TMC3    C7 8645   2.201   1.588   1.311  0.9694 -0.0152 -0.2074
  579TMC3    C8 8646   2.584   1.683   1.602  0.2466 -0.0291  0.3538
  579TMC3    O1 8647   2.244   1.481   1.266  0.3612 -0.1419 -0.1540
  579TMC3    O2 8648   2.630   1.711   1.711  0.0857  0.2249  0.4001
  580TMC3    C1 8649   0.973   0.911  11.628  0.6297  0.1521  1.1557
  580TMC3    C2 8650   1.023   0.867  11.513 -0.4712  0.1653  0.0758
  580TMC3    C3 8651   1.086   0.744  11.515 -0.0085  0.0811  0.8180
  580TMC3    C4 8652   0.988   0.851  11.746 -0.3986 -0.4778  0.0796
  580TMC3    C5 8653   1.060   0.733  11.744 -0.0125 -0.2929 -0.2467
  580TMC3    C6 8654   1.110   0.675  11.632  0.3199 -0.7413  0.0050
  580TMC3     C 8655   0.999   1.052  11.625 -0.6061  0.4076  0.2351
  580TMC3     O 8656   1.065   1.092  11.534  0.3535  0.4029 -0.2159
  580TMC3     H 8657   0.997   0.924  11.424  1.2781  1.4215  0.3843
  580TMC3    H1 8658   0.961   0.893  11.842 -2.1224 -0.0301 -0.5977
  580TMC3    H2 8659   1.148   0.574  11.628 -1.1502 -1.3744  2.2924
  580TMC3    C7 8660   1.112   0.701  11.877 -0.0940  0.0301 -0.1369
  580TMC3    C8 8661   1.171   0.716  11.406  0.8358 -0.7568 -0.4337
  580TMC3    O1 8662   1.041   0.719  11.977 -0.0025 -0.1877  0.4897
  580TMC3    O2 8663   1.233   0.609  11.397 -0.8009  0.0964  0.5655
  581MPD2     C 8664   3.904   0.904  14.548 -0.3858  0.5844  0.7041
  581MPD2    C1 8665   3.862   0.932  14.673 -0.0233  0.5129 -0.0075
  581MPD2    C2 8666   3.759   1.023  14.693  0.5411 -0.3000 -0.2007
  581MPD2    C3 8667   3.693   1.078  14.582  0.0407 -0.1888 -0.0519
  581MPD2    C4 8668   3.738   1.043  14.452  0.0811  1.2296 -0.4529
  581MPD2    C5 8669   3.854   0.969  14.437  0.0932 -0.0787 -0.3631
  581MPD2     H 8670   3.716   1.054  14.788 -0.8918 -1.8663 -0.3427
  581MPD2    H1 8671   3.688   1.085  14.366  0.4243  0.8409 -0.8435
  581MPD2    H2 8672   3.984   0.833  14.530 -2.9047 -1.6047 -2.0795
  581MPD2    H3 8673   3.886   0.927  14.343  0.4497  1.6058 -0.9938
  581MPD2     N 8674   3.581   1.162  14.600 -0.4495  0.1599 -0.3607
  581MPD2    H5 8675   3.558   1.182  14.697 -0.2714 -1.4179  0.0037
  581MPD2    N1 8676   3.912   0.844  14.776 -0.3922 -0.1765  0.2901
  581MPD2    H7 8677   3.982   0.775  14.752  0.0267 -0.5324  2.4957
  582TMC3    C1 8678   3.886   0.708  14.966 -0.0976  0.2862  0.6625
  582TMC3    C2 8679   3.986   0.727  15.062  0.1209 -0.1683  0.3254
  582TMC3    C3 8680   3.992   0.644  15.168 -0.7257  0.8062 -0.6162
  582TMC3    C4 8681   3.782   0.622  14.991  0.8365 -0.1719  0.3005
  582TMC3    C5 8682   3.776   0.556  15.110 -0.3499  0.3639  0.0295
  582TMC3    C6 8683   3.880   0.563  15.198  0.1992  0.2895  0.1693
  582TMC3     C 8684   3.854   0.831  14.899 -0.1430  0.6478  0.0282
  582TMC3     O 8685   3.760   0.893  14.940 -0.0405  0.7031  0.1090
  582TMC3     H 8686   4.057   0.809  15.056  1.3497 -1.2594 -0.1654
  582TMC3    H1 8687   3.698   0.622  14.923  0.4777  0.4808  0.7513
  582TMC3    H2 8688   3.867   0.523  15.298  0.0815  0.3400  0.1743
  582TMC3    C7 8689   3.656   0.589  15.176 -0.9094  0.1916  0.3147
  582TMC3    C8 8690   4.056   0.700  15.283  1.2166 -0.2634  0.5099
  582TMC3    O1 8691   3.631   0.538  15.282  0.0176  0.2697  0.3033
  582TMC3    O2 8692   4.050   0.818  15.299  0.3667  0.8224 -0.3906
  583MPD2     C 8693   3.941   2.662  16.677 -0.1715  1.0669 -0.2124
  583MPD2    C1 8694   3.934   2.787  16.621  0.4884 -0.0812 -1.3851
  583MPD2    C2 8695   3.852   2.878  16.689 -0.0918 -0.3059 -0.2677
  583MPD2    C3 8696   3.780   2.853  16.802 -0.1791 -0.0493  0.2163
  583MPD2    C4 8697   3.780   2.725  16.842 -0.7862  0.1370 -0.3039
  583MPD2    C5 8698   3.853   2.629  16.777  0.3524 -0.2886  0.3569
  583MPD2     H 8699   3.851   2.975  16.639 -2.0483  0.6423  1.5941
  583MPD2    H1 8700   3.724   2.690  16.927 -2.5750  0.4764 -1.3361
  583MPD2    H2 8701   4.012   2.585  16.649 -2.1207 -1.1197  0.9144
  583MPD2    H3 8702   3.852   2.530  16.821  0.6198 -0.1512  0.6703
  583MPD2     N 8703   3.708   2.954  16.869 -0.0476  0.2304 -0.1502
  583MPD2    H5 8704   3.701   3.045  16.824  1.0626  0.7051  0.6464
  583MPD2    N1 8705   4.004   2.834  16.512  0.5652  0.3136 -0.3057
  583MPD2    H7 8706   3.998   2.930  16.479  1.1327  0.8906  1.3140
  584TMC3    C1 8707   3.581   3.055  17.036  0.5947 -0.3011 -0.2514
  584TMC3    C2 8708   3.633   3.178  16.999  0.6950  0.1634 -0.0735
  584TMC3    C3 8709   3.610   3.278  17.089  1.0637 -1.0009 -0.0852
  584TMC3    C4 8710   3.491   3.034  17.141  0.8287 -0.3503  0.1451
  584TMC3    C5 8711   3.480   3.144  17.223 -0.7266 -0.6979 -0.0610
  584TMC3    C6 8712   3.527   3.263  17.199 -0.7664 -0.0654 -0.0621
  584TMC3     C 8713   3.637   2.934  16.986  0.3678  0.3475 -0.1147
  584TMC3     O 8714   3.606   2.831  17.046  0.0715  0.0510  0.0517
  584TMC3     H 8715   3.678   3.185  16.900  1.6559  0.7003  0.4086
  584TMC3    H1 8716   3.434   2.945  17.165  0.3485  0.1606  0.9548
  584TMC3    H2 8717   3.495   3.348  17.258 -1.1022 -0.0459 -0.2736
  584TMC3    C7 8718   3.364   3.138  17.314 -0.3263 -0.5726 -0.5770
  584TMC3    C8 8719   3.606   3.401  17.014  0.2775 -0.2622  0.0057
  584TMC3    O1 8720   3.384   3.183  17.427  0.6299 -0.1636  0.0581
  584TMC3    O2 8721   3.570   3.387  16.896  0.0138 -0.0484  0.1456
  585MPD2     C 8722   2.555   2.033   0.243  0.4226 -0.1515  0.1379
  585MPD2    C1 8723   2.560   2.096   0.121  0.3620 -0.5858 -1.1283
  585MPD2    C2 8724   2.586   2.019   0.008 -0.4135 -0.0886  0.6646
  585MPD2    C3 8725   2.621   1.884   0.026  0.0633  0.3141  0.0674
  585MPD2    C4 8726   2.618   1.817   0.151  0.0384  0.4365 -0.0568
  585MPD2    C5 8727   2.585   1.898   0.259 -1.0752  0.2272  0.1127
  585MPD2     H 8728   2.580   2.061  17.659  3.1732  1.8935  1.2902
  585MPD2    H1 8729   2.649   1.714   0.165  1.2714  0.8525  0.3210
  585MPD2    H2 8730   2.519   2.083   0.332  2.2923  1.3127  0.0728
  585MPD2    H3 8731   2.572   1.849   0.355  1.3109 -1.4724 -0.4172
  585MPD2     N 8732   2.663   1.801  17.675  0.2437 -0.1550  0.7949
  585MPD2    H5 8733   2.673   1.705  17.706  0.9820 -0.3826 -0.1534
  585MPD2    N1 8734   2.532   2.232   0.119  0.5109 -0.4060  0.2508
  585MPD2    H7 8735   2.521   2.281   0.208  0.2353  1.1804 -0.6578
  586TMC3    C1 8736   2.676   1.740  17.448  0.2053 -0.3769  0.1652
  586TMC3    C2 8737   2.780   1.724  17.361  0.3771  0.5284  0.1421
  586TMC3    C3 8738   2.797   1.609  17.297 -0.2819 -0.2127  1.2350
  586TMC3    C4 8739   2.593   1.638  17.478 -0.1607  0.2527 -0.9715
  586TMC3    C5 8740   2.615   1.523  17.402 -0.7098 -0.2940  0.6318
  586TMC3    C6 8741   2.708   1.508  17.308  0.4952 -0.1354 -0.2658
  586TMC3     C 8742   2.692   1.845  17.542 -0.4849 -0.4304 -0.6519
  586TMC3     O 8743   2.722   1.955  17.496  0.0651  0.5195  0.1873
  586TMC3     H 8744   2.842   1.811  17.341 -0.2700  0.8700 -0.3949
  586TMC3    H1 8745   2.511   1.633  17.548 -1.0447 -2.8409 -2.2139
  586TMC3    H2 8746   2.734   1.410  17.269  3.6903  0.0762  1.3059
  586TMC3    C7 8747   2.590   1.393  17.471 -0.3743 -0.6499 -0.5737
  586TMC3    C8 8748   2.925   1.548  17.307 -0.5670  0.4485 -0.2359
  586TMC3    O1 8749   2.483   1.372  17.525  0.1807 -0.2236  0.2940
  586TMC3    O2 8750   2.941   1.466  17.401  0.0930 -0.1127 -0.5847
  587TMC3    C1 8751   0.541   0.609  17.084 -0.5382  0.3391  0.3833
  587TMC3    C2 8752   0.545   0.720  17.003 -0.2219  0.0562 -0.7882
  587TMC3    C3 8753   0.660   0.754  16.943  0.1231 -0.0427  0.1718
  587TMC3    C4 8754   0.661   0.544  17.117 -0.7361  0.4188 -0.5976
  587TMC3    C5 8755   0.780   0.589  17.067 -0.3599 -0.5755 -0.4108
  587TMC3    C6 8756   0.777   0.696  16.978  0.2606 -0.0236 -0.0831
  587TMC3     C 8757   0.417   0.546  17.131 -0.4599  0.9980 -0.6287
  587TMC3     O 8758   0.424   0.454  17.213 -0.8718  0.0859  0.0652
  587TMC3     H 8759   0.450   0.766  16.976 -0.3096  0.1231 -0.3780
  587TMC3    H1 8760   0.648   0.459  17.183 -1.1976  0.3528 -0.7718
  587TMC3    H2 8761   0.863   0.723  16.917  0.2950  2.4772  1.0988
  587TMC3    C7 8762   0.901   0.550  17.142  0.7546 -0.1083  0.7748
  587TMC3    C8 8763   0.663   0.848  16.835  0.2800  0.1529 -0.3744
  587TMC3    O1 8764   0.910   0.443  17.197  0.4279  0.0448 -0.3280
  587TMC3    O2 8765   0.743   0.833  16.747  0.0584 -0.1365  0.3589
  588TMC3    C1 8766   2.358   3.146   9.991  1.1268 -0.5226 -0.5745
  588TMC3    C2 8767   2.343   3.009   9.969 -0.9368  1.1171  0.2514
  588TMC3    C3 8768   2.456   2.936   9.963 -0.4574  0.1808 -0.0636
  588TMC3    C4 8769   2.476   3.211   9.983 -0.4196  0.2293  0.0196
  588TMC3    C5 8770   2.584   3.132   9.957  0.5570 -0.5787  0.8000
  588TMC3    C6 8771   2.574   3.000   9.946  0.2259 -0.1006  0.1563
  588TMC3     C 8772   2.238   3.226   9.970  0.8603  0.0092  0.4765
  588TMC3     O 8773   2.136   3.162   9.947  0.7988 -0.3600  0.0407
  588TMC3     H 8774   2.250   2.954   9.964  0.1088 -0.4851 -1.3426
  588TMC3    H1 8775   2.490   3.317  10.000  1.2741  0.3069 -1.8878
  588TMC3    H2 8776   2.664   2.945   9.922 -0.5628 -1.4429  0.2960
  588TMC3    C7 8777   2.716   3.196   9.944 -0.0371  0.0104  0.3652
  588TMC3    C8 8778   2.436   2.797   9.911  0.3166 -0.4932  1.0795
  588TMC3    O1 8779   2.827   3.141   9.940  0.5106  0.0628 -0.3820
  588TMC3    O2 8780   2.323   2.758   9.874  0.2206 -0.3555  0.1418
  589TMC3    C1 8781   2.109   0.190   1.374  0.1571 -0.4481 -0.1324
  589TMC3    C2 8782   2.221   0.167   1.447 -0.7382 -0.4663  0.0077
  589TMC3    C3 8783   2.257   0.034   1.451  0.2894  0.0448  0.9638
  589TMC3    C4 8784   2.023   0.091   1.331  0.0965 -0.2311 -0.5312
  589TMC3    C5 8785   2.068   4.700   1.341  0.6141  0.2654  0.4247
  589TMC3    C6 8786   2.189   4.669   1.391  0.4044 -0.1844 -0.7413
  589TMC3     C 8787   2.055   0.331   1.386  0.4885 -0.2656 -0.1113
  589TMC3     O 8788   1.937   0.362   1.365 -0.7122 -0.0800  1.2069
  589TMC3     H 8789   2.289   0.247   1.473 -2.1099  0.7568 -0.2359
  589TMC3    H1 8790   1.924   0.114   1.294 -1.3833 -0.9903  2.9738
  589TMC3    H2 8791   2.219   4.565   1.398  0.2438 -0.3005 -1.8649
  589TMC3    C7 8792   1.995   4.588   1.287 -0.0809  0.1182  0.0416
  589TMC3    C8 8793   2.391   4.735   1.492  0.4635  0.0116 -0.3276
  589TMC3    O1 8794   1.933   4.603   1.185 -0.2663 -0.5780  0.7755
  589TMC3    O2 8795   2.444   0.072   1.579  0.4178 -0.3615 -0.0612
  590MPD2     C 8796   1.564   3.075  16.404 -0.0209 -0.3818 -0.4115
  590MPD2    C1 8797   1.549   3.206  16.434  0.3079  0.4079 -0.7442
  590MPD2    C2 8798   1.624   3.310  16.381 -0.0827 -0.2636  0.1641
  590MPD2    C3 8799   1.709   3.277  16.280  1.1716 -0.0491 -0.3678
  590MPD2    C4 8800   1.727   3.145  16.247 -0.5148  0.0742 -1.1621
  590MPD2    C5 8801   1.663   3.043  16.311 -0.0296  0.0786  0.0942
  590MPD2     H 8802   1.604   3.415  16.402 -0.4750 -0.4215  0.5771
  590MPD2    H1 8803   1.798   3.121  16.169 -0.0622  1.1425 -1.0796
  590MPD2    H2 8804   1.500   3.004  16.455 -0.3868  0.0697 -0.2442
  590MPD2    H3 8805   1.672   2.943  16.272 -0.3227  0.2273 -0.3548
  590MPD2     N 8806   1.780   3.384  16.217 -0.2073 -0.0706  0.2676
  590MPD2    H5 8807   1.757   3.471  16.264 -0.5240 -0.3322  0.5939
  590MPD2    N1 8808   1.430   3.228  16.505  0.4037 -0.0296  0.2629
  590MPD2    H7 8809   1.363   3.155  16.523  1.8071 -1.5863 -0.8921
  591TMC3    C1 8810   1.900   3.509  16.054 -1.0168  0.7770 -0.3258
  591TMC3    C2 8811   1.997   3.490  15.957  0.7522 -0.2430  0.5798
  591TMC3    C3 8812   2.000   3.586  15.862 -0.6945 -0.1404  0.9982
  591TMC3    C4 8813   1.833   3.620  16.083  0.0111  0.0089  0.4989
  591TMC3    C5 8814   1.850   3.719  15.991 -0.2160  0.2240 -0.3464
  591TMC3    C6 8815   1.917   3.701  15.876  0.2840 -0.4686  0.2192
  591TMC3     C 8816   1.870   3.380  16.114  0.0568 -0.8162  0.1938
  591TMC3     O 8817   1.919   3.280  16.070  0.0400 -0.4912 -0.1848
  591TMC3     H 8818   2.056   3.401  15.937  2.7586  1.1899  0.0036
  591TMC3    H1 8819   1.772   3.634  16.172  0.7991 -1.1618  1.2289
  591TMC3    H2 8820   1.898   3.772  15.797  1.9483  0.9007  1.0525
  591TMC3    C7 8821   1.760   3.825  16.004 -1.7106 -0.2126  0.2846
  591TMC3    C8 8822   1.995   3.529  15.730  0.4523  0.0183  0.5285
  591TMC3    O1 8823   1.655   3.798  16.067 -0.2208  0.5827 -0.0144
  591TMC3    O2 8824   1.962   3.409  15.719  0.3056  0.0113  0.4403
  592MPD2     C 8825   2.170   0.698  11.921  0.6633 -0.3786  0.6177
  592MPD2    C1 8826   2.100   0.784  12.000  0.1246 -0.3876 -0.0386
  592MPD2    C2 8827   2.060   0.745  12.125 -0.1603 -0.3546 -0.0465
  592MPD2    C3 8828   2.095   0.623  12.172  0.3875  0.5111  0.7421
  592MPD2    C4 8829   2.158   0.535  12.091 -0.0942  0.0966 -0.4718
  592MPD2    C5 8830   2.197   0.571  11.966 -0.2148  0.5317  0.2353
  592MPD2     H 8831   2.008   0.816  12.188  2.0431  1.2377  0.0004
  592MPD2    H1 8832   2.167   0.433  12.127 -0.7785  0.2985  0.2608
  592MPD2    H2 8833   2.204   0.715  11.819 -1.9826  1.6473  0.0671
  592MPD2    H3 8834   2.239   0.491  11.907  0.8548 -0.3221  2.1696
  592MPD2     N 8835   2.035   0.592  12.296 -0.0579  0.0249 -0.0360
  592MPD2    H5 8836   1.968   0.658  12.334  2.4408  1.9474  1.0099
  592MPD2    N1 8837   2.075   0.915  11.941  0.3500 -0.4946 -0.1321
  592MPD2    H7 8838   2.115   0.934  11.850 -3.8984 -0.5213 -1.9827
  593TMC3    C1 8839   2.018   1.135  11.913 -0.2023 -0.1686  0.0002
  593TMC3    C2 8840   2.020   1.256  11.979 -0.2456 -0.1437  0.1491
  593TMC3    C3 8841   2.010   1.367  11.905 -0.6327 -0.6137 -0.3013
  593TMC3    C4 8842   2.007   1.124  11.778 -0.1677  0.4589 -0.3789
  593TMC3    C5 8843   2.008   1.246  11.714 -0.1338 -0.2765 -0.0197
  593TMC3    C6 8844   2.006   1.367  11.774 -0.6237  0.0719 -0.1822
  593TMC3     C 8845   1.998   1.015  11.992 -0.0486 -0.3389 -0.0275
  593TMC3     O 8846   1.937   1.019  12.097 -0.1147  1.0346 -0.0906
  593TMC3     H 8847   2.015   1.255  12.088 -1.2636  2.5478  0.1267
  593TMC3    H1 8848   2.007   1.026  11.731  1.8529  1.2483 -2.0232
  593TMC3    H2 8849   2.011   1.464  11.726  0.6997  0.1820  0.1718
  593TMC3    C7 8850   2.036   1.251  11.574  0.1563  0.4799  0.2003
  593TMC3    C8 8851   2.034   1.491  11.970 -0.2391  0.3418 -0.0170
  593TMC3    O1 8852   2.046   1.366  11.532 -0.1421  0.4548  0.1062
  593TMC3    O2 8853   1.990   1.595  11.921 -0.1488 -0.3019 -0.4309
  594MPD2     C 8854   0.982   4.414  15.138  0.3612 -0.5520  0.6856
  594MPD2    C1 8855   0.932   4.415  15.011 -0.3056  0.3163 -0.2751
  594MPD2    C2 8856   1.019   4.457  14.909 -0.2488  0.1308  0.1035
  594MPD2    C3 8857   1.142   4.503  14.940 -0.6433  0.1879 -0.2278
  594MPD2    C4 8858   1.190   4.483  15.066 -1.3465 -0.3295 -0.5636
  594MPD2    C5 8859   1.110   4.444  15.166  0.1864 -0.0410  0.8267
  594MPD2     H 8860   0.995   4.446  14.804 -0.4611 -3.4974  0.5186
  594MPD2    H1 8861   1.294   4.500  15.093 -1.2962 -1.2378 -0.1581
  594MPD2    H2 8862   0.917   4.365  15.209  0.0494  1.4408  1.7914
  594MPD2    H3 8863   1.154   4.433  15.264 -1.1962 -1.4998  1.2938
  594MPD2     N 8864   1.219   4.558  14.840  0.1723 -0.0687  0.2589
  594MPD2    H5 8865   1.172   4.573  14.751 -2.1251  2.2414  1.8842
  594MPD2    N1 8866   0.805   4.355  14.985  0.1804 -0.1483  0.1296
  594MPD2    H7 8867   0.745   4.340  15.065 -0.9571  1.0936 -0.5072
  595TMC3    C1 8868   1.552   4.714  14.552  0.3835  0.1972 -0.0471
  595TMC3    C2 8869   1.521   4.652  14.670  0.7730 -0.1535  0.4217
  595TMC3    C3 8870   1.394   4.657  14.724 -0.0314  0.3199 -0.5154
  595TMC3    C4 8871   1.458   0.062  14.502 -0.7377 -0.1278  0.4087
  595TMC3    C5 8872   1.343   0.075  14.565 -0.0923 -0.0486 -0.3853
  595TMC3    C6 8873   1.302   4.736  14.671 -0.1596 -0.1252 -0.2071
  595TMC3     C 8874   1.695   0.023  14.546  0.7096  0.5172  0.4537
  595TMC3     O 8875   1.758   0.017  14.652  0.6885 -0.1792  0.2220
  595TMC3     H 8876   1.599   4.586  14.706 -0.9805 -1.2219  2.2950
  595TMC3    H1 8877   1.467   0.108  14.404  0.6726 -1.7606 -0.2437
  595TMC3    H2 8878   1.205   0.013  14.716  0.6151  1.1802  1.0066
  595TMC3    C7 8879   1.232   0.162  14.517  0.3795 -0.2411  0.0624
  595TMC3    C8 8880   1.354   4.575  14.843  0.3074 -1.0874 -0.5124
  595TMC3    O1 8881   1.115   0.121  14.526  0.0157 -0.1519  0.3168
  595TMC3    O2 8882   1.442   4.530  14.916 -0.1818 -0.6307  0.2922
  596MPD2     C 8883   4.721   2.693  16.646  0.3945 -0.8469  0.2014
  596MPD2    C1 8884   0.006   2.809  16.578 -0.2874  0.4452  0.0590
  596MPD2    C2 8885   0.035   2.808  16.444  0.4782  0.6787  0.4969
  596MPD2    C3 8886   0.043   2.687  16.382  0.8779  0.3391  0.6686
  596MPD2    C4 8887   0.029   2.573  16.449  0.3161  0.3172 -0.2743
  596MPD2    C5 8888   4.726   2.581  16.580  0.4254  0.1069 -0.0279
  596MPD2     H 8889   0.038   2.902  16.390 -2.9994  0.3842 -0.2128
  596MPD2    H1 8890   0.029   2.472  16.409  3.3060  0.8671 -1.6766
  596MPD2    H2 8891   4.697   2.690  16.752  2.7751 -5.0317  0.6397
  596MPD2    H3 8892   4.700   2.484  16.622 -0.5703  1.0959  1.6391
  596MPD2     N 8893   0.067   2.680  16.243  0.4498 -0.0202 -0.2751
  596MPD2    H5 8894   0.077   2.590  16.197 -0.6239 -0.6608  0.7461
  596MPD2    N1 8895   0.007   2.932  16.649  0.2071  0.0138 -0.2777
  596MPD2    H7 8896   0.029   3.018  16.599  0.4800 -0.3712 -0.8243
  597TMC3    C1 8897   4.692   3.097  16.803  0.2694  0.3842  0.1517
  597TMC3    C2 8898   0.014   3.202  16.729 -0.0253  0.8212 -0.3061
  597TMC3    C3 8899   4.706   3.329  16.751 -0.0113 -0.3862  0.4406
  597TMC3    C4 8900   4.600   3.137  16.898 -0.0395  0.5053 -0.3671
  597TMC3    C5 8901   4.562   3.264  16.920  0.5938  0.3708  1.0043
  597TMC3    C6 8902   4.621   3.368  16.852 -0.0597 -0.3053 -0.5774
  597TMC3     C 8903   4.702   2.955  16.776  0.5618  0.9971  0.1318
  597TMC3     O 8904   4.640   2.890  16.853  0.6189  0.0856 -0.0909
  597TMC3     H 8905   0.102   3.188  16.666 -1.8407 -1.1327 -2.4032
  597TMC3    H1 8906   4.538   3.058  16.940  0.0961  0.6768  0.1556
  597TMC3    H2 8907   4.590   3.471  16.860 -0.0966 -0.4495  1.0716
  597TMC3    C7 8908   4.444   3.281  16.997  0.6543  0.3982 -0.5603
  597TMC3    C8 8909   4.736   3.433  16.653  0.5591  0.8832 -0.8561
  597TMC3    O1 8910   4.424   3.199  17.085 -0.0441 -0.2828 -0.1007
  597TMC3    O2 8911   4.723   3.546  16.684  0.3264 -0.3206  0.2595
  598TMC3    C1 8912   2.854   4.239  15.281  0.7141  0.1732  0.3989
  598TMC3    C2 8913   2.803   4.112  15.304  0.1687  0.1206 -0.5702
  598TMC3    C3 8914   2.753   4.038  15.201 -0.2650 -0.1918  0.7045
  598TMC3    C4 8915   2.837   4.303  15.157  0.0567  0.6261  0.0933
  598TMC3    C5 8916   2.791   4.222  15.054  0.5465  0.3652 -0.1295
  598TMC3    C6 8917   2.753   4.089  15.075 -0.5487 -0.3801  0.0056
  598TMC3     C 8918   2.902   4.325  15.392  0.1567 -0.3473 -0.1272
  598TMC3     O 8919   2.885   4.444  15.390  0.5996 -0.2049  0.1230
  598TMC3     H 8920   2.825   4.068  15.400  0.4356  2.3355  0.3929
  598TMC3    H1 8921   2.892   4.394  15.138  0.8246  0.2539  0.5158
  598TMC3    H2 8922   2.700   4.036  14.998  1.5148  0.4287 -1.9738
  598TMC3    C7 8923   2.796   4.270  14.917 -0.3438  0.1011  0.5476
  598TMC3    C8 8924   2.663   3.928  15.229 -0.1071  0.5053  0.1574
  598TMC3    O1 8925   2.800   4.185  14.829  0.0151 -0.6720  0.3794
  598TMC3    O2 8926   2.653   3.848  15.136  0.6286  0.9762 -0.8148
  599MPD2     C 8927   2.965   1.781  15.642 -0.4853  0.0924  0.1533
  599MPD2    C1 8928   2.930   1.648  15.670 -0.0678 -0.4015  0.3244
  599MPD2    C2 8929   2.814   1.618  15.739  0.1431 -0.5619  0.4691
  599MPD2    C3 8930   2.731   1.720  15.793 -0.3579 -0.5338  0.5683
  599MPD2    C4 8931   2.774   1.846  15.755 -0.5974  0.0876 -0.1091
  599MPD2    C5 8932   2.891   1.879  15.691  0.2624  0.4037  0.1973
  599MPD2     H 8933   2.793   1.513  15.758  0.0271 -1.1636 -3.0176
  599MPD2    H1 8934   2.710   1.932  15.776 -2.8802 -1.4663 -0.6445
  599MPD2    H2 8935   3.055   1.811  15.589 -0.9848  1.8877  0.3009
  599MPD2    H3 8936   2.925   1.980  15.668 -0.1841  0.6205  0.4994
  599MPD2     N 8937   2.610   1.709  15.869  0.7591  0.3100 -0.0877
  599MPD2    H5 8938   2.574   1.795  15.908 -1.7962 -1.0126  0.5097
  599MPD2    N1 8939   3.026   1.548  15.629 -0.2438  0.2259 -0.3256
  599MPD2    H7 8940   3.114   1.579  15.589 -0.4627  2.0056  0.5440
  600TMC3    C1 8941   2.427   1.617  15.979 -0.8873  0.5939 -0.2046
  600TMC3    C2 8942   2.371   1.504  16.028 -0.4043 -1.2114  0.3290
  600TMC3    C3 8943   2.267   1.519  16.118  0.1398  0.6365 -0.5530
  600TMC3    C4 8944   2.378   1.739  16.005 -0.1687  0.5999 -0.2238
  600TMC3    C5 8945   2.271   1.752  16.090  0.1933  0.6285 -0.7205
  600TMC3    C6 8946   2.214   1.639  16.143  0.8558 -0.5432 -0.2351
  600TMC3     C 8947   2.541   1.596  15.886  0.0864 -0.0428 -0.2725
  600TMC3     O 8948   2.577   1.486  15.854  0.0474 -0.4071 -0.2410
  600TMC3     H 8949   2.418   1.407  16.017  0.6419 -0.6813  0.1976
  600TMC3    H1 8950   2.433   1.830  15.983  0.6741  0.1663  0.1322
  600TMC3    H2 8951   2.154   1.649  16.232  3.6932  1.4474  1.4744
  600TMC3    C7 8952   2.263   1.867  16.172  0.0833  0.1942 -0.4440
  600TMC3    C8 8953   2.249   1.420  16.222 -0.3085 -0.2884 -0.0010
  600TMC3    O1 8954   2.153   1.894  16.214  0.4795 -0.4631  0.0637
  600TMC3    O2 8955   2.349   1.360  16.253 -0.0906 -0.0709 -0.2702
  601MPD2     C 8956   0.355   0.195   0.350 -0.2753 -0.2171 -0.1986
  601MPD2    C1 8957   0.236   0.125   0.352 -0.5992  0.2227  0.6017
  601MPD2    C2 8958   0.241   4.730   0.400 -0.6198 -0.4685  0.2931
  601MPD2    C3 8959   0.353   4.678   0.462  0.1454  0.0273 -0.0939
  601MPD2    C4 8960   0.468   0.014   0.459 -0.4524 -0.1952  0.2810
  601MPD2    C5 8961   0.466   0.143   0.410 -0.4940  0.2876  0.1567
  601MPD2     H 8962   0.147   4.677   0.408 -1.3925  0.6802 -1.1168
  601MPD2    H1 8963   0.558   4.712   0.503  0.6315  0.7377 -1.0795
  601MPD2    H2 8964   0.360   0.288   0.295 -1.0474 -0.5752 -0.8736
  601MPD2    H3 8965   0.559   0.199   0.405 -1.5670  2.2010  1.8466
  601MPD2     N 8966   0.357   4.549   0.520  0.7605 -0.2064  0.3235
  601MPD2    H5 8967   0.449   4.524   0.555  0.3532 -0.3177  1.3190
  601MPD2    N1 8968   0.116   0.176   0.292 -0.3361 -0.1671 -0.8425
  601MPD2    H7 8969   0.037   0.113   0.298 -0.2609  0.1451  2.9557
  602TMC3    C1 8970   4.697   0.324   0.203  0.0163  0.1102  0.0743
  602TMC3    C2 8971   4.663   0.459   0.187  0.0036 -0.1817  0.6619
  602TMC3    C3 8972   4.531   0.480   0.146 -0.4014  0.3967  0.2342
  602TMC3    C4 8973   4.617   0.218   0.177  0.9125  0.2428 -0.3519
  602TMC3    C5 8974   4.490   0.244   0.138 -0.4020 -0.0590  0.0940
  602TMC3    C6 8975   4.443   0.372   0.129 -0.2723 -0.0277 -0.4644
  602TMC3     C 8976   0.097   0.307   0.248  0.6223 -0.0233 -0.7021
  602TMC3     O 8977   0.176   0.398   0.236 -0.6825 -0.2476  0.3074
  602TMC3     H 8978   0.007   0.529   0.192  0.7053 -1.0602  1.4730
  602TMC3    H1 8979   4.646   0.114   0.167  1.9616  0.4858  0.1417
  602TMC3    H2 8980   4.340   0.382   0.097  0.0361  3.7183 -0.3127
  602TMC3    C7 8981   4.406   0.140   0.080 -0.4169 -0.3212  0.2037
  602TMC3    C8 8982   4.492   0.613   0.110 -0.1185 -0.6616 -0.0774
  602TMC3    O1 8983   4.391   0.047   0.157 -0.2966  0.0893 -0.2415
  602TMC3    O2 8984   4.555   0.714   0.138 -0.4694 -0.3327  0.8891
  603TMC3    C1 8985   3.082   0.483  10.777  0.1114  0.8921  0.4560
  603TMC3    C2 8986   3.102   0.466  10.912 -0.3372 -0.1236  0.1450
  603TMC3    C3 8987   3.152   0.565  10.993  0.3469  0.6707  0.0061
  603TMC3    C4 8988   3.083   0.611  10.732 -0.4406  0.4503  0.1015
  603TMC3    C5 8989   3.112   0.715  10.821  0.2042 -0.5830 -0.2252
  603TMC3    C6 8990   3.168   0.692  10.946  0.2142 -0.8133 -0.4403
  603TMC3     C 8991   3.015   0.377  10.704  0.2229  0.0872  0.0111
  603TMC3     O 8992   2.984   0.274  10.765  0.7091  0.2607  0.4429
  603TMC3     H 8993   3.116   0.362  10.941  6.6881  0.0077 -2.6523
  603TMC3    H1 8994   3.078   0.633  10.626 -0.7955 -3.2720 -0.6729
  603TMC3    H2 8995   3.180   0.773  11.017  0.9187 -0.9793 -0.3723
  603TMC3    C7 8996   3.108   0.850  10.765 -0.0954  0.6642  1.0924
  603TMC3    C8 8997   3.208   0.522  11.123  0.0065 -0.0770 -0.7011
  603TMC3    O1 8998   3.177   0.930  10.824 -0.1804 -0.5765 -0.5919
  603TMC3    O2 8999   3.181   0.405  11.152 -0.4687 -0.5228 -0.5876
  604MPD2     C 9000   3.986   4.101  16.273  0.1404  0.4652  0.3558
  604MPD2    C1 9001   3.877   4.024  16.237  0.8489  0.5429 -0.6834
  604MPD2    C2 9002   3.876   3.971  16.109 -0.0493 -0.3709 -0.0314
  604MPD2    C3 9003   3.971   4.001  16.015 -0.4088  0.1794  0.3832
  604MPD2    C4 9004   4.079   4.084  16.050 -0.0368 -0.3750 -0.0629
  604MPD2    C5 9005   4.083   4.132  16.180  0.2022  0.1522  0.5054
  604MPD2     H 9006   3.792   3.906  16.086 -0.8034  0.3007  0.8485
  604MPD2    H1 9007   4.158   4.108  15.981 -1.2757 -1.2609 -1.7780
  604MPD2    H2 9008   3.995   4.141  16.373 -1.5987 -2.2692  1.5892
  604MPD2    H3 9009   4.168   4.191  16.210  0.1291  0.3039  0.4151
  604MPD2     N 9010   3.969   3.944  15.886  0.1692 -0.6342 -0.0135
  604MPD2    H5 9011   3.882   3.900  15.861  1.2690 -2.8669  0.0929
  604MPD2    N1 9012   3.777   4.007  16.337 -0.3194 -0.2615  0.0695
  604MPD2    H7 9013   3.786   4.057  16.425 -1.4839  0.7794 -0.4043
  605TMC3    C1 9014   3.564   3.994  16.436 -0.1043 -0.1608 -0.1009
  605TMC3    C2 9015   3.635   4.012  16.553  0.3274  0.5297 -0.8733
  605TMC3    C3 9016   3.586   4.115  16.633 -0.0905 -0.5764 -0.1931
  605TMC3    C4 9017   3.453   4.066  16.407 -0.4678  0.2948  0.8649
  605TMC3    C5 9018   3.418   4.171  16.486  0.6162 -0.2933 -0.2673
  605TMC3    C6 9019   3.480   4.190  16.602  0.1869 -0.1828  0.5572
  605TMC3     C 9020   3.649   3.956  16.323 -0.0829 -0.6424  0.0821
  605TMC3     O 9021   3.600   3.888  16.231 -0.1322 -0.0643  0.0160
  605TMC3     H 9022   3.724   3.953  16.570 -0.0514 -0.1731 -1.3262
  605TMC3    H1 9023   3.412   4.054  16.308 -2.0178  0.5220  1.4845
  605TMC3    H2 9024   3.459   4.281  16.658 -1.4664 -0.1620 -0.1077
  605TMC3    C7 9025   3.301   4.248  16.456  1.1017  0.0242 -0.1277
  605TMC3    C8 9026   3.708   4.194  16.652 -0.0956 -0.4491 -0.3213
  605TMC3    O1 9027   3.290   4.355  16.514 -0.2639  0.6071  0.0218
  605TMC3    O2 9028   3.793   4.160  16.574  0.6986  1.4814  0.4658
  606TMC3    C1 9029   0.039   2.740  17.610 -0.1169 -0.2196 -0.0759
  606TMC3    C2 9030   0.093   2.664  17.709 -0.5307  0.4536  0.4937
  606TMC3    C3 9031   0.050   2.534  17.726  0.4242  0.2036 -0.2954
  606TMC3    C4 9032   4.679   2.693  17.525 -0.0839  0.7661  0.4789
  606TMC3    C5 9033   4.642   2.562  17.541  0.5657 -0.2293 -0.1067
  606TMC3    C6 9034   4.691   2.481  17.639 -0.2227  0.5893 -0.3083
  606TMC3     C 9035   0.043   2.880  17.640 -0.1026 -0.3178 -0.4633
  606TMC3     O 9036   0.124   2.924  17.719  0.2864 -0.6071 -0.1686
  606TMC3     H 9037   0.166   2.705   0.027 -0.9722  1.5055  0.3353
  606TMC3    H1 9038   4.667   2.744  17.430 -1.5614 -1.4486 -0.5112
  606TMC3    H2 9039   4.659   2.377  17.638 -3.4500  1.5688  0.4176
  606TMC3    C7 9040   4.592   2.499  17.426 -0.0782 -0.1093 -0.2681
  606TMC3    C8 9041   0.123   2.435   0.055 -0.2727  0.1905  0.1063
  606TMC3    O1 9042   4.633   2.543  17.320 -0.1718 -0.2678 -0.0645
  606TMC3    O2 9043   0.048   2.337   0.081  0.4778  0.3154  0.1467
  607MPD2     C 9044   2.303   4.727  11.350  0.1392 -0.9357 -0.5283
  607MPD2    C1 9045   2.288   0.065  11.459 -0.0580  0.1604  0.1754
  607MPD2    C2 9046   2.241   0.016  11.577 -0.3007 -0.3189 -0.4423
  607MPD2    C3 9047   2.205   4.625  11.589  0.0241  0.0779 -0.0538
  607MPD2    C4 9048   2.229   4.546  11.477 -0.1467 -0.6495  0.3424
  607MPD2    C5 9049   2.270   4.590  11.355  0.4612 -0.1888  0.3417
  607MPD2     H 9050   2.254   0.078  11.665  2.3276  2.0510 -2.5341
  607MPD2    H1 9051   2.202   4.441  11.485  1.9034 -1.1645  0.5190
  607MPD2    H2 9052   2.348   0.030  11.260 -1.1754  2.7196  0.5014
  607MPD2    H3 9053   2.261   4.534  11.262 -1.0173  0.3551  0.1693
  607MPD2     N 9054   2.180   4.576  11.720 -0.2767 -0.6426  0.5663
  607MPD2    H5 9055   2.181   4.652  11.788  0.4604 -0.5113  0.4135
  607MPD2    N1 9056   2.347   0.190  11.472 -0.0952  0.1468  0.4234
  607MPD2    H7 9057   2.323   0.243  11.555  0.3713 -0.5604  1.0134
  608TMC3    C1 9058   2.459   0.384  11.437 -0.2570 -0.0775  1.3824
  608TMC3    C2 9059   2.489   0.387  11.575 -0.7705  0.7537 -0.6232
  608TMC3    C3 9060   2.559   0.497  11.621 -0.0450 -0.3496  0.0186
  608TMC3    C4 9061   2.514   0.476  11.348  0.8071 -0.3871  0.1819
  608TMC3    C5 9062   2.597   0.568  11.406 -0.0888  0.1993 -0.5698
  608TMC3    C6 9063   2.620   0.584  11.538  0.6383 -0.6154 -0.3802
  608TMC3     C 9064   2.407   0.260  11.379  0.2291 -0.7540 -0.2743
  608TMC3     O 9065   2.420   0.241  11.259  0.2863 -0.5938  0.2044
  608TMC3     H 9066   2.476   0.300  11.638  2.8067 -1.7833 -3.3475
  608TMC3    H1 9067   2.506   0.460  11.241  0.4475  0.1050  0.1348
  608TMC3    H2 9068   2.683   0.663  11.577 -0.8019  0.4407 -0.2131
  608TMC3    C7 9069   2.664   0.655  11.311 -0.4910 -0.4142  0.3234
  608TMC3    C8 9070   2.563   0.519  11.769  0.0905 -0.3073 -0.3521
  608TMC3    O1 9071   2.639   0.637  11.196  0.3098 -0.1385  0.4662
  608TMC3    O2 9072   2.622   0.619  11.812  0.5019 -0.1935 -0.6819
  609TMC3    C1 9073   0.755   0.289   9.108  0.3102 -0.4082  0.4109
  609TMC3    C2 9074   0.799   0.334   8.982 -0.0967 -0.7925 -0.2080
  609TMC3    C3 9075   0.937   0.323   8.956 -0.3595  0.0579  0.6179
  609TMC3    C4 9076   0.842   0.232   9.195 -0.4864  0.1190  0.1467
  609TMC3    C5 9077   0.975   0.221   9.159 -0.9667  0.1148  1.5008
  609TMC3    C6 9078   1.022   0.256   9.036 -0.0258 -0.6222  0.2022
  609TMC3     C 9079   0.621   0.303   9.156  0.5753 -0.0633 -0.3482
  609TMC3     O 9080   0.585   0.209   9.221 -0.5533  0.1455  0.3534
  609TMC3     H 9081   0.729   0.364   8.904 -1.1195  3.3624  2.3601
  609TMC3    H1 9082   0.810   0.216   9.297  2.2948 -1.4621  0.7644
  609TMC3    H2 9083   1.124   0.242   9.001  0.4985  2.5371  0.4346
  609TMC3    C7 9084   1.058   0.129   9.228  0.4520  0.0796  0.2201
  609TMC3    C8 9085   0.984   0.352   8.828  0.2858 -0.4297  0.1563
  609TMC3    O1 9086   1.009   0.047   9.310  0.2396 -0.7870  0.1569
  609TMC3    O2 9087   1.085   0.294   8.784  0.2045  0.0956  0.2162
  610TMC3    C1 9088   2.875   0.636  12.227 -0.7354  0.0937  0.1906
  610TMC3    C2 9089   2.854   0.615  12.095 -0.2774  0.1051  0.2207
  610TMC3    C3 9090   2.856   0.485  12.055  0.0306  0.0760  0.5790
  610TMC3    C4 9091   2.894   0.535  12.318  0.8518 -0.1408 -0.0100
  610TMC3    C5 9092   2.890   0.402  12.274 -0.8337 -0.0755  0.0568
  610TMC3    C6 9093   2.885   0.381  12.137 -0.0320  0.4751  0.3072
  610TMC3     C 9094   2.828   0.763  12.280 -0.1311 -0.2595  0.6001
  610TMC3     O 9095   2.720   0.807  12.244  0.7817 -0.8636 -0.2659
  610TMC3     H 9096   2.841   0.687  12.015 -0.2821  1.2034  1.2137
  610TMC3    H1 9097   2.901   0.548  12.426 -0.9206  0.9493 -0.0247
  610TMC3    H2 9098   2.914   0.289  12.089 -0.7005 -0.7429  2.2563
  610TMC3    C7 9099   2.926   0.295  12.368 -0.1703  0.2272  0.5449
  610TMC3    C8 9100   2.891   0.471  11.914 -0.6373  0.8963  0.3174
  610TMC3    O1 9101   2.967   0.328  12.479  0.1511 -0.1073  0.3194
  610TMC3    O2 9102   2.957   0.561  11.865  0.7946 -0.0865 -0.1013
  611MPD2     C 9103   2.082   0.449  10.134  0.5673  0.1417 -0.8789
  611MPD2    C1 9104   2.154   0.510  10.233 -0.1732  1.2710 -0.6038
  611MPD2    C2 9105   2.249   0.605  10.200  0.3846 -0.3897 -0.3115
  611MPD2    C3 9106   2.271   0.640  10.068 -0.5501  0.5052  0.1322
  611MPD2    C4 9107   2.193   0.575   9.969  0.3789  1.0386  0.5412
  611MPD2    C5 9108   2.102   0.481  10.003  0.1213 -0.4867  0.3535
  611MPD2     H 9109   2.303   0.659  10.278  0.5965 -0.7947 -0.1796
  611MPD2    H1 9110   2.217   0.605   9.868 -1.3305  1.7775  0.3567
  611MPD2    H2 9111   2.008   0.374  10.155 -0.8154  1.3436 -1.4673
  611MPD2    H3 9112   2.045   0.434   9.925  0.6763 -0.9183  0.2082
  611MPD2     N 9113   2.376   0.724  10.020 -0.1179  0.2739 -0.6839
  611MPD2    H5 9114   2.385   0.736   9.920 -1.9493  1.3786 -0.7172
  611MPD2    N1 9115   2.114   0.474  10.361 -0.1429  0.2085 -0.0409
  611MPD2    H7 9116   2.047   0.399  10.370  1.8275 -1.3861  1.3182
  612TMC3    C1 9117   2.521   0.904  10.059 -0.2753  0.2079  0.9959
  612TMC3    C2 9118   2.622   0.955  10.138  0.3095 -0.2847 -0.2637
  612TMC3    C3 9119   2.635   1.091  10.129 -1.2696  0.2149 -0.2479
  612TMC3    C4 9120   2.442   0.981   9.984 -0.1642 -0.4548 -0.2062
  612TMC3    C5 9121   2.468   1.112   9.968 -0.5278 -0.1042  0.3403
  612TMC3    C6 9122   2.568   1.171  10.042 -0.8081 -0.4077  0.2396
  612TMC3     C 9123   2.468   0.774  10.106  0.7896 -0.1292  1.3495
  612TMC3     O 9124   2.498   0.745  10.221 -0.3635  0.0123  0.1158
  612TMC3     H 9125   2.689   0.892  10.196 -0.2850 -0.5848  0.0945
  612TMC3    H1 9126   2.360   0.939   9.927  1.0948 -2.6782 -0.3942
  612TMC3    H2 9127   2.599   1.275  10.035 -1.2445 -0.2979 -0.0483
  612TMC3    C7 9128   2.371   1.188   9.894  0.4657 -0.3744  0.5255
  612TMC3    C8 9129   2.731   1.163  10.214 -0.3101 -0.2978  0.4690
  612TMC3    O1 9130   2.286   1.134   9.831 -0.0245  0.0643 -0.2597
  612TMC3    O2 9131   2.752   1.283  10.201 -0.5717  0.8183 -0.0133
  613MPD2     C 9132   1.476   2.095  16.750 -0.0007  0.3322 -0.2303
  613MPD2    C1 9133   1.441   2.216  16.684  0.6962 -0.6322 -0.2972
  613MPD2    C2 9134   1.332   2.223  16.607 -0.6847 -0.1094  0.6297
  613MPD2    C3 9135   1.262   2.108  16.580 -0.2207 -0.6276 -0.2036
  613MPD2    C4 9136   1.298   1.990  16.646  0.1433  0.3570 -0.5208
  613MPD2    C5 9137   1.410   1.978  16.723  0.2818  0.0404 -0.2090
  613MPD2     H 9138   1.302   2.319  16.565  0.3805 -0.1911 -0.3110
  613MPD2    H1 9139   1.241   1.901  16.622 -0.9181  1.0888 -0.6729
  613MPD2    H2 9140   1.569   2.090  16.804  0.1228 -3.2078 -0.7877
  613MPD2    H3 9141   1.440   1.882  16.766  0.0922 -0.7748 -1.8984
  613MPD2     N 9142   1.153   2.112  16.490 -0.4249 -0.1747 -0.1237
  613MPD2    H5 9143   1.085   2.037  16.493 -0.4694 -0.1584 -0.5928
  613MPD2    N1 9144   1.535   2.320  16.699 -0.6453 -0.4996  0.2501
  613MPD2    H7 9145   1.607   2.306  16.768  0.3857 -2.5682 -1.2222
  614TMC3    C1 9146   1.521   2.461  16.491  0.9837 -0.7321 -0.3640
  614TMC3    C2 9147   1.508   2.354  16.410  0.5493 -0.4838 -0.2613
  614TMC3    C3 9148   1.457   2.364  16.286 -0.0672 -0.6012 -1.0223
  614TMC3    C4 9149   1.497   2.585  16.441 -0.5338 -0.3189 -0.2105
  614TMC3    C5 9150   1.439   2.592  16.312  0.7848  0.1552  0.7197
  614TMC3    C6 9151   1.411   2.483  16.230 -0.4529 -0.0666 -0.3025
  614TMC3     C 9152   1.542   2.439  16.635 -0.2422  0.3924 -0.6811
  614TMC3     O 9153   1.593   2.538  16.681 -0.2695  0.1243  0.2502
  614TMC3     H 9154   1.545   2.261  16.451  0.1269  0.3823  2.0516
  614TMC3    H1 9155   1.519   2.669  16.506 -2.0838  0.5667 -0.8331
  614TMC3    H2 9156   1.341   2.486  16.147  1.1597  1.2082 -1.6193
  614TMC3    C7 9157   1.381   2.720  16.294 -0.7256 -0.2362  0.5024
  614TMC3    C8 9158   1.415   2.249  16.213 -0.3858 -0.2688  0.2824
  614TMC3    O1 9159   1.402   2.810  16.372 -0.1277 -0.2582  0.4211
  614TMC3    O2 9160   1.353   2.260  16.106  0.4257 -0.1113 -0.0459
  615MPD2     C 9161   0.903   3.973  15.949 -0.1755 -0.0075 -0.1779
  615MPD2    C1 9162   0.982   4.091  15.942 -0.6749  0.9113 -0.3139
  615MPD2    C2 9163   0.927   4.196  15.874  0.0555 -0.1599 -0.0983
  615MPD2    C3 9164   0.802   4.190  15.825 -0.0637 -0.0840 -0.2691
  615MPD2    C4 9165   0.725   4.072  15.833  0.0131 -0.1608 -0.1697
  615MPD2    C5 9166   0.779   3.961  15.900 -0.3909  0.0305 -0.1398
  615MPD2     H 9167   0.992   4.282  15.864 -1.0916  0.6378 -0.7327
  615MPD2    H1 9168   0.626   4.061  15.791 -0.2960 -1.1003  0.8091
  615MPD2    H2 9169   0.926   3.883  16.005 -0.1331 -0.8327 -1.5109
  615MPD2    H3 9170   0.725   3.868  15.912  1.7873 -0.9667  2.0024
  615MPD2     N 9171   0.733   4.310  15.773 -0.1918  0.1286  0.0414
  615MPD2    H5 9172   0.634   4.311  15.750  0.1726  2.7398 -1.3738
  615MPD2    N1 9173   1.106   4.101  16.000 -0.8820  0.2191  0.2809
  615MPD2    H7 9174   1.148   4.193  15.996  1.8668 -0.9695  1.5258
  616TMC3    C1 9175   1.305   4.043  16.126 -0.0731 -0.0739 -0.9039
  616TMC3    C2 9176   1.350   4.171  16.123 -0.8375  0.5946  0.4676
  616TMC3    C3 9177   1.450   4.211  16.212 -0.3835  0.0251 -0.3973
  616TMC3    C4 9178   1.364   3.953  16.209  0.7318 -0.4982 -0.3311
  616TMC3    C5 9179   1.449   3.998  16.306  1.3038  0.2071 -0.2880
  616TMC3    C6 9180   1.495   4.126  16.309  0.0852  0.0435  0.2763
  616TMC3     C 9181   1.174   4.003  16.067  0.2025  0.5135  0.4021
  616TMC3     O 9182   1.135   3.892  16.096  0.3735  0.0502 -0.1263
  616TMC3     H 9183   1.300   4.244  16.060 -0.8913 -0.6571 -0.9574
  616TMC3    H1 9184   1.354   3.847  16.190  0.9766 -0.7538  1.0202
  616TMC3    H2 9185   1.569   4.151  16.383  3.8887 -1.7136 -2.9218
  616TMC3    C7 9186   1.455   3.906  16.418  0.2499  0.5010 -0.1423
  616TMC3    C8 9187   1.494   4.345  16.226 -0.2254  0.4981 -0.4068
  616TMC3    O1 9188   1.437   3.788  16.384 -0.8606 -0.1995  0.0537
  616TMC3    O2 9189   1.552   4.370  16.331  0.3405  0.1186 -0.0327
  617MPD2     C 9190   3.376   2.351  13.653 -0.3585 -0.6488  0.1375
  617MPD2    C1 9191   3.451   2.380  13.765 -0.4308 -0.3525  0.1014
  617MPD2    C2 9192   3.391   2.405  13.892 -0.3776 -0.5328 -0.2272
  617MPD2    C3 9193   3.254   2.403  13.898  0.3636 -0.1121 -0.2588
  617MPD2    C4 9194   3.177   2.365  13.786  0.0413  0.0849  0.7569
  617MPD2    C5 9195   3.240   2.339  13.665  0.1546  0.5306  0.9847
  617MPD2     H 9196   3.456   2.434  13.974 -2.1615  1.0977  0.6245
  617MPD2    H1 9197   3.071   2.349  13.797 -0.0184 -2.0237 -2.5934
  617MPD2    H2 9198   3.430   2.324  13.563  0.6766  1.0809  0.2484
  617MPD2    H3 9199   3.170   2.311  13.587  1.7705 -0.7191 -0.0195
  617MPD2     N 9200   3.184   2.448  14.012 -0.5952 -0.3986 -0.3380
  617MPD2    H5 9201   3.083   2.443  14.002 -0.6624  2.7028 -1.3741
  617MPD2    N1 9202   3.586   2.375  13.742  0.6757 -0.1373  0.0978
  617MPD2    H7 9203   3.615   2.365  13.645  2.4210 -1.4258  0.7552
  618TMC3    C1 9204   3.813   2.374  13.775 -0.9179 -0.1017  0.6120
  618TMC3    C2 9205   3.912   2.426  13.851 -0.2695 -0.0164 -0.7204
  618TMC3    C3 9206   4.035   2.425  13.794  0.4170  0.4409  0.8555
  618TMC3    C4 9207   3.837   2.316  13.652  0.6044  0.2899  0.4556
  618TMC3    C5 9208   3.964   2.332  13.605 -0.8203  0.5863  1.1726
  618TMC3    C6 9209   4.068   2.380  13.675 -0.0600  1.0824 -0.4160
  618TMC3     C 9210   3.686   2.393  13.841 -0.2956  0.1301 -0.4012
  618TMC3     O 9211   3.686   2.418  13.961  0.0430 -0.4214  0.1106
  618TMC3     H 9212   3.895   2.478  13.944  0.5068 -1.5769  0.2932
  618TMC3    H1 9213   3.760   2.256  13.607 -0.9420  3.2577 -0.8932
  618TMC3    H2 9214   4.172   2.360  13.649  1.0405  3.3628  2.2352
  618TMC3    C7 9215   3.989   2.267  13.478 -0.2793 -0.5718  0.1684
  618TMC3    C8 9216   4.139   2.393  13.899  0.6000 -0.2196  0.1512
  618TMC3    O1 9217   3.908   2.180  13.447  0.4738  0.1045  0.0145
  618TMC3    O2 9218   4.185   2.478  13.973 -0.1158 -0.0731  0.0461
  619MPD2     C 9219   0.341   3.536  13.637 -0.1438 -0.0118 -1.2783
  619MPD2    C1 9220   0.245   3.595  13.554 -0.3315  0.1430  0.3260
  619MPD2    C2 9221   0.120   3.537  13.527 -0.1546 -0.4515  0.4417
  619MPD2    C3 9222   0.092   3.422  13.603  0.6453  0.3408 -1.0072
  619MPD2    C4 9223   0.184   3.369  13.680  0.7803 -0.7888 -0.0048
  619MPD2    C5 9224   0.311   3.426  13.705 -0.9310  1.0791 -0.2968
  619MPD2     H 9225   0.043   3.584  13.467  2.7948  3.1266 -0.5328
  619MPD2    H1 9226   0.178   3.277  13.738 -3.3894 -1.0491 -0.8050
  619MPD2    H2 9227   0.440   3.578  13.654 -0.4613  1.5208 -3.2211
  619MPD2    H3 9228   0.374   3.383  13.782  0.4318  1.9357 -0.9262
  619MPD2     N 9229   4.700   3.366  13.595  0.6797 -0.1432  0.4190
  619MPD2    H5 9230   4.660   3.314  13.673 -2.5450  0.6720 -0.6924
  619MPD2    N1 9231   0.269   3.723  13.500  0.2766 -0.2450  0.1952
  619MPD2    H7 9232   0.196   3.760  13.439  1.1481 -1.8330 -1.8046
  620TMC3    C1 9233   0.389   3.920  13.454  0.6329 -0.4137  0.0958
  620TMC3    C2 9234   0.316   3.928  13.343 -0.0241 -1.1124 -0.1237
  620TMC3    C3 9235   0.273   4.047  13.292  0.1698 -0.2871  0.5582
  620TMC3    C4 9236   0.414   4.044  13.518  0.0693  0.1858  0.0233
  620TMC3    C5 9237   0.401   4.163  13.456  0.5941  0.4644 -0.4338
  620TMC3    C6 9238   0.333   4.164  13.333  0.2661 -0.0718  0.0999
  620TMC3     C 9239   0.370   3.812  13.539 -0.0428  0.0153  0.1317
  620TMC3     O 9240   0.447   3.799  13.628 -0.5762  0.5741 -0.0146
  620TMC3     H 9241   0.291   3.836  13.291 -1.3160 -0.3327 -0.8977
  620TMC3    H1 9242   0.455   4.043  13.619 -0.2174 -1.9590  0.1184
  620TMC3    H2 9243   0.302   4.254  13.281  0.5757  1.1566  2.0257
  620TMC3    C7 9244   0.340   4.266  13.539  0.1293  0.2865  0.4801
  620TMC3    C8 9245   0.131   4.054  13.305 -0.0656  0.1246 -0.3605
  620TMC3    O1 9246   0.287   4.224  13.637  0.3069 -0.0393  0.5041
  620TMC3    O2 9247   0.091   4.160  13.359 -0.0139  0.5693  0.1891
  621MPD2     C 9248   4.115   3.620   9.965 -0.3637 -0.1050 -0.3744
  621MPD2    C1 9249   4.254   3.606   9.979 -0.2827  0.0652  0.0690
  621MPD2    C2 9250   4.336   3.718   9.988 -0.1609 -0.1722 -0.3318
  621MPD2    C3 9251   4.278   3.845  10.008 -0.1441  0.5977 -0.3785
  621MPD2    C4 9252   4.140   3.858   9.999 -0.4705  0.3666 -0.2304
  621MPD2    C5 9253   4.066   3.743   9.972 -0.4272 -0.2631  0.3485
  621MPD2     H 9254   4.444   3.710   9.999 -0.1635  2.1841  1.2184
  621MPD2    H1 9255   4.090   3.953  10.015 -3.5932 -1.1346 -1.0750
  621MPD2    H2 9256   4.048   3.535   9.959  0.0367 -0.3792 -0.9870
  621MPD2    H3 9257   3.959   3.756   9.972 -0.3797  0.1367  0.6637
  621MPD2     N 9258   4.368   3.956  10.011  0.6015  0.3930  0.0770
  621MPD2    H5 9259   4.465   3.929  10.025  0.3809 -0.4116  0.0351
  621MPD2    N1 9260   4.325   3.481   9.967 -0.1752  0.2488  0.2075
  621MPD2    H7 9261   4.420   3.492   9.934 -0.0616 -1.2656  0.0133
  622TMC3    C1 9262   4.360   3.247   9.928 -0.4126  0.7851 -0.3163
  622TMC3    C2 9263   4.298   3.141   9.853  0.1522 -0.6808 -0.2284
  622TMC3    C3 9264   4.373   3.084   9.757  0.4810  0.5783 -0.8245
  622TMC3    C4 9265   4.495   3.267   9.909 -0.5522 -0.2855 -0.6238
  622TMC3    C5 9266   4.568   3.194   9.819  0.3878  0.0206 -0.5322
  622TMC3    C6 9267   4.503   3.109   9.738 -0.3889  0.9794  0.7192
  622TMC3     C 9268   4.271   3.357   9.968  1.4290 -0.2343 -0.7798
  622TMC3     O 9269   4.153   3.328   9.978  0.1739  0.9972 -0.5321
  622TMC3     H 9270   4.199   3.099   9.863  0.2300 -1.0876 -1.1752
  622TMC3    H1 9271   4.548   3.336   9.974  1.9098  0.4311 -3.3905
  622TMC3    H2 9272   4.564   3.058   9.663 -1.1694 -2.1462  2.1825
  622TMC3    C7 9273   4.685   3.262   9.765 -0.0209 -0.3848 -0.2885
  622TMC3    C8 9274   4.320   2.982   9.667 -0.1194 -0.0280 -0.2089
  622TMC3    O1 9275   0.026   3.317   9.842  0.5995 -0.4781  1.0328
  622TMC3    O2 9276   4.383   2.879   9.655  0.6168  0.5871 -0.0311
  623MPD2     C 9277   4.027   4.290  15.588 -0.1397 -0.7398 -0.1826
  623MPD2    C1 9278   3.938   4.297  15.688  0.0674  0.8517  0.3510
  623MPD2    C2 9279   3.992   4.334  15.817  0.3406  0.3941 -0.0965
  623MPD2    C3 9280   4.119   4.374  15.838  0.2352  0.1137  0.6578
  623MPD2    C4 9281   4.200   4.376  15.729  0.1488  0.6343  0.5696
  623MPD2    C5 9282   4.155   4.329  15.608 -0.8368  0.6830  0.2117
  623MPD2     H 9283   3.922   4.341  15.900 -0.0283  2.3540 -0.5867
  623MPD2    H1 9284   4.305   4.403  15.735  0.4483  0.2444 -2.8184
  623MPD2    H2 9285   4.003   4.235  15.498  0.4061  0.0541 -0.8085
  623MPD2    H3 9286   4.227   4.323  15.527 -0.8042  0.6201  0.2452
  623MPD2     N 9287   4.159   4.405  15.972 -0.9417 -0.2014 -0.2889
  623MPD2    H5 9288   4.086   4.386  16.040 -3.2775  1.9235 -2.1967
  623MPD2    N1 9289   3.804   4.256  15.685 -0.0220 -0.2840 -0.2985
  623MPD2    H7 9290   3.753   4.256  15.773  1.0886  1.1120  0.3435
  624TMC3    C1 9291   4.440   4.471  16.341  0.1143 -0.2801  0.3437
  624TMC3    C2 9292   4.327   4.495  16.420  0.2937  0.7994  0.3333
  624TMC3    C3 9293   4.206   4.500  16.360 -0.3246  0.0175 -0.0643
  624TMC3    C4 9294   4.425   4.451  16.206 -0.1759  0.1112 -0.4307
  624TMC3    C5 9295   4.300   4.456  16.155  1.0918  1.0008  0.3531
  624TMC3    C6 9296   4.191   4.484  16.225  0.3177  0.2098 -0.1780
  624TMC3     C 9297   4.572   4.452  16.406 -0.1499 -0.6050 -0.3718
  624TMC3     O 9298   4.568   4.428  16.527 -0.3415 -0.4799  0.2838
  624TMC3     H 9299   4.347   4.503  16.526 -2.0267 -2.6667  1.0382
  624TMC3    H1 9300   4.512   4.421  16.148  0.8652  1.0728  0.6172
  624TMC3    H2 9301   4.096   4.505  16.179 -0.1512 -0.3472  0.5461
  624TMC3    C7 9302   4.289   4.436  16.008  0.2164 -0.2328  0.7966
  624TMC3    C8 9303   4.084   4.501  16.436 -0.4717 -0.7111  0.1343
  624TMC3    O1 9304   4.392   4.452  15.941 -0.3666 -0.1738 -1.0002
  624TMC3    O2 9305   3.987   4.457  16.372  0.2446 -0.0496 -0.2336
  625MPD2     C 9306   4.341   0.753   0.739 -0.6387  1.0744 -0.1943
  625MPD2    C1 9307   4.354   0.891   0.742  0.7617 -0.1357  0.6868
  625MPD2    C2 9308   4.474   0.950   0.778 -0.5947  0.1236 -0.3491
  625MPD2    C3 9309   4.581   0.872   0.817 -0.5645  0.3877  0.3795
  625MPD2    C4 9310   4.571   0.730   0.815 -0.4615 -0.1895  0.4290
  625MPD2    C5 9311   4.449   0.678   0.780 -1.0279 -0.3292 -0.1206
  625MPD2     H 9312   4.474   1.058   0.776  0.9658  0.1788  2.4152
  625MPD2    H1 9313   4.653   0.666   0.845 -0.8206  0.4278  2.7052
  625MPD2    H2 9314   4.252   0.703   0.702 -0.4920 -0.1437  1.1017
  625MPD2    H3 9315   4.448   0.570   0.768 -1.5529 -0.5138  1.5714
  625MPD2     N 9316   4.709   0.939   0.837 -0.1322 -0.0017  0.1347
  625MPD2    H5 9317   4.710   1.038   0.814 -1.1480 -0.6852 -2.8946
  625MPD2    N1 9318   4.240   0.968   0.696 -0.4429 -0.1241 -0.1286
  625MPD2    H7 9319   4.250   1.068   0.687 -1.0521 -0.3191 -2.8492
  626TMC3    C1 9320   4.045   1.028   0.591  0.0607  1.0381 -0.2673
  626TMC3    C2 9321   3.955   0.990   0.499 -0.2416  0.1607 -0.0228
  626TMC3    C3 9322   3.859   1.077   0.459  0.3061 -0.1067  0.1134
  626TMC3    C4 9323   4.026   1.150   0.660 -0.0523 -0.3554 -0.3078
  626TMC3    C5 9324   3.932   1.235   0.613 -0.6278  0.2694  0.8182
  626TMC3    C6 9325   3.847   1.201   0.516  0.0185  0.6525 -0.0059
  626TMC3     C 9326   4.120   0.924   0.652  0.5903  0.3920  0.1975
  626TMC3     O 9327   4.064   0.816   0.647  0.1853 -0.7591 -0.2880
  626TMC3     H 9328   3.972   0.889   0.464  2.0701  0.7481 -0.5928
  626TMC3    H1 9329   4.078   1.164   0.754  0.2656 -0.9901 -0.3889
  626TMC3    H2 9330   3.780   1.264   0.459 -1.9750 -0.8760  0.6564
  626TMC3    C7 9331   3.888   1.333   0.707  0.3886 -0.2327  1.3366
  626TMC3    C8 9332   3.825   1.079   0.316  0.2489 -0.0511  0.5040
  626TMC3    O1 9333   3.953   1.357   0.808  0.5519 -0.0472 -0.0280
  626TMC3    O2 9334   3.913   1.075   0.233  0.1412 -0.3390 -0.1461
  627MPD2     C 9335   2.765   1.544  14.408  0.5314 -0.4467  0.2527
  627MPD2    C1 9336   2.829   1.436  14.457 -0.0109 -0.2541 -0.4709
  627MPD2    C2 9337   2.766   1.315  14.491 -0.3515 -0.1408 -0.2502
  627MPD2    C3 9338   2.630   1.320  14.500 -0.2069  0.2476  0.3489
  627MPD2    C4 9339   2.562   1.429  14.452 -0.4537  0.1147 -0.0676
  627MPD2    C5 9340   2.629   1.534  14.412 -0.3451 -0.6660  0.3229
  627MPD2     H 9341   2.816   1.221  14.512 -0.6622 -0.2437  0.0360
  627MPD2    H1 9342   2.457   1.424  14.424 -0.7965 -2.4312  1.6840
  627MPD2    H2 9343   2.815   1.633  14.370 -1.6788  0.4131 -0.6394
  627MPD2    H3 9344   2.575   1.624  14.385  1.0352 -0.9287 -3.4028
  627MPD2     N 9345   2.545   1.210  14.527 -0.6899 -0.3201  0.0814
  627MPD2    H5 9346   2.445   1.229  14.538 -0.3487  1.3598  0.3786
  627MPD2    N1 9347   2.965   1.452  14.456 -0.3611  0.0321  0.5700
  627MPD2    H7 9348   3.006   1.543  14.434  0.9828 -0.9884 -1.1590
  628TMC3    C1 9349   3.185   1.384  14.508  0.2602  0.4197  0.1737
  628TMC3    C2 9350   3.275   1.285  14.500  0.2888 -0.0565  0.1311
  628TMC3    C3 9351   3.398   1.296  14.563 -0.4187 -0.2889  1.0882
  628TMC3    C4 9352   3.206   1.502  14.577 -0.5095 -0.7893 -0.6964
  628TMC3    C5 9353   3.329   1.507  14.637 -0.1338  0.1481  0.7252
  628TMC3    C6 9354   3.430   1.410  14.625  0.0402  0.0709 -0.3771
  628TMC3     C 9355   3.051   1.348  14.482 -0.5420 -0.3059  0.5029
  628TMC3     O 9356   3.022   1.233  14.509 -0.7118  0.1680  0.0394
  628TMC3     H 9357   3.248   1.193  14.450 -0.1313  0.7884 -1.1687
  628TMC3    H1 9358   3.120   1.559  14.612 -1.3984 -1.2318 -2.1900
  628TMC3    H2 9359   3.529   1.404  14.670 -1.0982 -0.6949  2.0466
  628TMC3    C7 9360   3.376   1.638  14.679 -0.2347 -0.5916 -0.2112
  628TMC3    C8 9361   3.501   1.213  14.501  0.9741  0.7203 -0.6891
  628TMC3    O1 9362   3.469   1.633  14.754  0.1823  0.5198  0.8893
  628TMC3    O2 9363   3.492   1.191  14.384  0.4411 -0.4126  0.1676
  629MPD2     C 9364   1.601   0.068  16.039  0.3414 -0.1261 -0.6779
  629MPD2    C1 9365   1.637   0.007  16.162  0.0316  0.3177  0.0912
  629MPD2    C2 9366   1.596   4.615  16.194 -0.3083  0.3064 -0.1914
  629MPD2    C3 9367   1.517   4.552  16.101  0.4623  0.6898 -0.4176
  629MPD2    C4 9368   1.498   4.609  15.975  0.6287  0.4096  0.1266
  629MPD2    C5 9369   1.534   4.737  15.946 -0.1117 -0.2573  0.3266
  629MPD2     H 9370   1.629   4.564  16.283 -1.0533  0.6744  0.2957
  629MPD2    H1 9371   1.450   4.552  15.896 -0.9690  2.0441 -0.0695
  629MPD2    H2 9372   1.633   0.170  16.018 -1.0875  0.3149 -0.7448
  629MPD2    H3 9373   1.505   0.039  15.849 -0.8975 -0.2169  0.5793
  629MPD2     N 9374   1.465   4.425  16.122  0.5925 -0.1386 -0.0080
  629MPD2    H5 9375   1.405   4.384  16.051  0.2104  1.7346 -0.7685
  629MPD2    N1 9376   1.696   0.092  16.260 -0.0378  0.0325  0.0665
  629MPD2    H7 9377   1.697   0.192  16.246 -0.8134  0.2209  1.2742
  630TMC3    C1 9378   1.793   0.151  16.464  0.3845  0.0359  0.2720
  630TMC3    C2 9379   1.892   0.227  16.414 -0.0648  0.1303 -0.4111
  630TMC3    C3 9380   1.997   0.257  16.495 -0.5334 -0.5990 -0.3208
  630TMC3    C4 9381   1.796   0.100  16.598 -0.3994  0.3026 -0.9108
  630TMC3    C5 9382   1.902   0.143  16.671 -0.5996 -0.0839  0.4002
  630TMC3    C6 9383   2.001   0.225  16.627  0.3446 -0.1613 -0.0660
  630TMC3     C 9384   1.739   0.048  16.385  0.2920  0.1020  0.4361
  630TMC3     O 9385   1.753   4.678  16.435 -0.4853  0.7135  0.0046
  630TMC3     H 9386   1.875   0.265  16.314 -1.5597 -0.0962 -0.2363
  630TMC3    H1 9387   1.704   0.065  16.642  0.4339  0.5146  1.0214
  630TMC3    H2 9388   2.084   0.261  16.686  0.2117 -0.6672  0.4234
  630TMC3    C7 9389   1.953   0.045  16.769  0.1455 -0.6582 -0.2214
  630TMC3    C8 9390   2.074   0.375  16.458  0.1700 -0.0549 -0.5818
  630TMC3    O1 9391   2.060   0.066  16.830  0.2090  0.1549  0.2548
  630TMC3    O2 9392   2.102   0.453  16.547 -0.3598 -0.0294  0.1524
  631MPD2     C 9393   4.608   4.535  15.361 -0.5426  0.1150  0.4779
  631MPD2    C1 9394   4.670   4.648  15.312  0.1271 -0.1186  0.8844
  631MPD2    C2 9395   0.066   4.667  15.351  0.3323  0.2211  0.3485
  631MPD2    C3 9396   0.129   4.579  15.439 -0.3037 -0.1693  1.0153
  631MPD2    C4 9397   0.069   4.460  15.476  0.6189  0.7667  0.0053
  631MPD2    C5 9398   4.674   4.448  15.443 -0.1983 -0.5563 -0.0526
  631MPD2     H 9399   0.118   0.013  15.307 -1.1535 -0.3806 -2.6075
  631MPD2    H1 9400   0.109   4.387  15.545  1.3061  0.4535 -0.7309
  631MPD2    H2 9401   4.505   4.513  15.337 -0.0979 -0.4198 -0.9267
  631MPD2    H3 9402   4.620   4.361  15.478 -1.5894  1.4156  2.6187
  631MPD2     N 9403   0.259   4.604  15.487 -0.1064  0.4427  0.1575
  631MPD2    H5 9404   0.298   4.695  15.463 -0.7873  0.7662  0.2655
  631MPD2    N1 9405   4.591   4.728  15.232  0.3483  0.0360  0.0465
  631MPD2    H7 9406   4.499   4.693  15.211  1.3918 -1.2932 -2.1940
  632TMC3    C1 9407   4.511   0.190  15.153  0.0196 -1.0953  0.5623
  632TMC3    C2 9408   4.399   0.175  15.233 -0.2958 -0.4708 -0.4347
  632TMC3    C3 9409   4.295   0.255  15.198  0.3671  0.9737 -0.0434
  632TMC3    C4 9410   4.521   0.291  15.065 -0.8930  0.0008 -0.0785
  632TMC3    C5 9411   4.410   0.372  15.031  0.4178 -0.1185 -0.7711
  632TMC3    C6 9412   4.295   0.358  15.100 -0.3280 -0.1186  0.2749
  632TMC3     C 9413   4.627   0.114  15.183  0.1478  1.0344 -0.2438
  632TMC3     O 9414   4.733   0.163  15.150 -0.4933 -0.3487 -0.1153
  632TMC3     H 9415   4.397   0.110  15.319  0.9223  1.2799  0.9139
  632TMC3    H1 9416   4.618   0.315  15.022 -1.3526  0.4478 -0.8821
  632TMC3    H2 9417   4.211   0.426  15.091  1.0480  1.3345 -1.7234
  632TMC3    C7 9418   4.386   0.411  14.895 -0.2814 -0.6308  0.0055
  632TMC3    C8 9419   4.185   0.245  15.284  0.0595  0.2923 -1.0105
  632TMC3    O1 9420   4.289   0.484  14.870  0.0722  0.0649 -0.3213
  632TMC3    O2 9421   4.120   0.348  15.299 -0.3306 -0.1130  0.1840
  633MPD2     C 9422   3.908   2.740  17.271  0.3700 -0.0575 -0.5500
  633MPD2    C1 9423   3.958   2.686  17.152  0.4932  0.8051  0.0546
  633MPD2    C2 9424   3.950   2.555  17.150  0.5260  0.1092 -0.2600
  633MPD2    C3 9425   3.893   2.482  17.247  0.5705  0.1580  1.4398
  633MPD2    C4 9426   3.844   2.532  17.368 -0.6199 -0.0668  0.1955
  633MPD2    C5 9427   3.853   2.668  17.377 -0.1099  0.6107 -0.1234
  633MPD2     H 9428   3.987   2.508  17.060 -0.6883 -0.7577 -0.3033
  633MPD2    H1 9429   3.797   2.477  17.449  1.7599 -0.7556  1.1283
  633MPD2    H2 9430   3.917   2.847  17.282  2.3631 -0.2163 -0.6273
  633MPD2    H3 9431   3.814   2.723  17.461 -1.6081  0.7795 -0.9230
  633MPD2     N 9432   3.859   2.345  17.238  0.1927  0.3138 -0.0689
  633MPD2    H5 9433   3.823   2.301  17.322  0.0064 -2.4781 -1.6499
  633MPD2    N1 9434   4.017   2.751  17.049  0.4095 -0.0961 -0.0196
  633MPD2    H7 9435   4.053   2.695  16.972 -1.2493 -0.8271 -0.2520
  634TMC3    C1 9436   4.108   2.915  16.912  0.3100 -0.2080 -1.1379
  634TMC3    C2 9437   4.227   2.850  16.886 -0.4302  0.3805  0.4621
  634TMC3    C3 9438   4.318   2.904  16.797 -0.2746 -0.3229 -0.0551
  634TMC3    C4 9439   4.073   3.027  16.838  0.2136 -0.4214 -0.2492
  634TMC3    C5 9440   4.170   3.083  16.761 -0.2243  0.1490  0.1314
  634TMC3    C6 9441   4.289   3.023  16.738  0.6128 -0.1663 -0.1613
  634TMC3     C 9442   4.028   2.887  17.034 -0.1393 -0.0248 -0.2779
  634TMC3     O 9443   3.956   2.979  17.068 -0.7865 -0.5742  0.7256
  634TMC3     H 9444   4.248   2.759  16.942  0.6060  0.0522 -0.4628
  634TMC3    H1 9445   3.970   3.061  16.845 -0.0780 -1.0993 -1.2689
  634TMC3    H2 9446   4.356   3.079  16.674  2.9597  1.7096  3.9769
  634TMC3    C7 9447   4.126   3.190  16.678 -0.5411  0.1885  0.0693
  634TMC3    C8 9448   4.361   2.807  16.705  0.3757  0.2202 -0.2171
  634TMC3    O1 9449   4.192   3.218  16.579  0.1438  0.2151 -0.2492
  634TMC3    O2 9450   4.345   2.690  16.748  0.1339 -0.5971 -0.5807
  635TMC3    C1 9451   4.600   3.482   0.278 -0.6833  0.7026 -0.2246
  635TMC3    C2 9452   4.537   3.533   0.173 -0.5541  0.0146 -0.1159
  635TMC3    C3 9453   4.494   3.449   0.075  0.7501 -0.1774  0.5114
  635TMC3    C4 9454   4.633   3.350   0.288  0.0802  0.1701  0.3060
  635TMC3    C5 9455   4.568   3.265   0.197  0.1678 -0.9212  0.6428
  635TMC3    C6 9456   4.497   3.314   0.086  0.1862 -0.2607  0.1041
  635TMC3     C 9457   4.676   3.569   0.366 -0.3272 -0.1387 -0.7089
  635TMC3     O 9458   4.657   3.688   0.352  0.1497  0.0816  0.2853
  635TMC3     H 9459   4.518   3.639   0.164  0.7615  0.2340 -0.4184
  635TMC3    H1 9460   4.682   3.307   0.374  0.1061  2.1185  1.2743
  635TMC3    H2 9461   4.454   3.247   0.012 -1.8807  1.3607 -0.1720
  635TMC3    C7 9462   4.605   3.131   0.207  0.0527 -0.4578 -0.3049
  635TMC3    C8 9463   4.424   3.501  17.710 -0.2514  0.5505 -0.2115
  635TMC3    O1 9464   4.707   3.093   0.262  0.1549  0.8328 -0.5945
  635TMC3    O2 9465   4.339   3.440  17.649  0.5167 -0.8956  0.5304
  636MPD2     C 9466   0.724   2.850  15.958 -0.0511 -0.3030  0.7898
  636MPD2    C1 9467   0.767   2.833  16.093 -0.4107  0.1910 -0.3051
  636MPD2    C2 9468   0.830   2.718  16.121  0.3840 -0.4300 -0.4395
  636MPD2    C3 9469   0.834   2.606  16.041 -0.0695  0.3428  0.4021
  636MPD2    C4 9470   0.781   2.620  15.910 -0.8139 -0.2508  0.7974
  636MPD2    C5 9471   0.730   2.742  15.877 -0.3025 -0.1786 -0.3024
  636MPD2     H 9472   0.861   2.705  16.224 -2.2862 -1.7206  0.2003
  636MPD2    H1 9473   0.782   2.538  15.840  1.4476 -1.2340  1.9627
  636MPD2    H2 9474   0.659   2.935  15.937  3.6935  2.7202  1.5253
  636MPD2    H3 9475   0.681   2.753  15.781 -1.8893 -2.1644  0.3080
  636MPD2     N 9476   0.896   2.493  16.092 -0.3449 -0.4598 -0.0209
  636MPD2    H5 9477   0.922   2.501  16.190  0.9020 -1.1653 -0.2883
  636MPD2    N1 9478   0.764   2.935  16.192 -0.1322  0.2193 -0.3597
  636MPD2    H7 9479   0.825   2.924  16.272 -0.8328  2.0092  0.4061
  637TMC3    C1 9480   0.961   2.270  16.105 -0.4269  0.1132 -1.1975
  637TMC3    C2 9481   0.973   2.289  16.241 -0.4712 -0.2001  0.2532
  637TMC3    C3 9482   1.013   2.181  16.320  0.0676  0.1102 -0.3295
  637TMC3    C4 9483   0.963   2.142  16.054  0.4069  0.1880 -0.2909
  637TMC3    C5 9484   0.998   2.040  16.136 -0.2490 -0.3526  0.2957
  637TMC3    C6 9485   1.016   2.057  16.267 -0.3980 -0.0308 -0.2522
  637TMC3     C 9486   0.906   2.370  16.027  0.2057  0.5193  0.5388
  637TMC3     O 9487   0.889   2.346  15.908  0.1575  0.2718 -0.5303
  637TMC3     H 9488   0.963   2.384  16.291  1.0268  0.3346 -0.4438
  637TMC3    H1 9489   0.944   2.127  15.948 -3.3455 -0.1775  0.4383
  637TMC3    H2 9490   1.061   1.974  16.320  1.6861  1.5740  0.4662
  637TMC3    C7 9491   1.014   1.909  16.074  0.6503  0.1607 -0.9140
  637TMC3    C8 9492   1.124   2.214  16.402  1.4259  0.0813 -0.4584
  637TMC3    O1 9493   0.930   1.883  15.989  0.0648 -0.2257  0.4147
  637TMC3    O2 9494   1.175   2.326  16.387  0.1840 -0.8579  0.0646
  638MPD2     C 9495   0.450   1.728  14.980  0.2157  0.1173  0.0030
  638MPD2    C1 9496   0.487   1.623  14.895  0.6508  0.6072  0.2403
  638MPD2    C2 9497   0.498   1.496  14.947  0.1474 -0.0617  0.0934
  638MPD2    C3 9498   0.471   1.467  15.079  0.4220 -0.8216  0.9152
  638MPD2    C4 9499   0.411   1.562  15.159 -0.7990  0.3220  0.6862
  638MPD2    C5 9500   0.406   1.691  15.105 -0.2798 -0.0685  0.0129
  638MPD2     H 9501   0.530   1.409  14.891  0.9328 -1.1110  2.1851
  638MPD2    H1 9502   0.379   1.551  15.262 -1.9689  1.7456  0.4804
  638MPD2    H2 9503   0.439   1.829  14.943 -2.1208  0.1411  0.7563
  638MPD2    H3 9504   0.353   1.756  15.174  1.0712 -0.5280  1.4815
  638MPD2     N 9505   0.483   1.335  15.118 -0.0509 -0.5051 -0.2987
  638MPD2    H5 9506   0.547   1.275  15.067  0.7896 -0.3344  0.5523
  638MPD2    N1 9507   0.525   1.654  14.763  0.1826 -0.5096  0.3055
  638MPD2    H7 9508   0.557   1.745  14.733 -1.0390  0.5653  2.2868
  639TMC3    C1 9509   0.454   1.140  15.233 -0.3202  0.2285  0.2491
  639TMC3    C2 9510   0.356   1.052  15.200  0.7185  0.2736  0.0772
  639TMC3    C3 9511   0.396   0.925  15.173  0.3676 -0.6748 -0.1419
  639TMC3    C4 9512   0.585   1.105  15.210 -0.1501 -0.4610  0.2852
  639TMC3    C5 9513   0.617   0.980  15.182  0.2952 -0.2778  0.0715
  639TMC3    C6 9514   0.526   0.886  15.184 -0.0042  0.0002 -0.6998
  639TMC3     C 9515   0.414   1.278  15.223 -0.0125 -0.8303 -0.1710
  639TMC3     O 9516   0.303   1.313  15.263 -0.1189  0.4488  0.1755
  639TMC3     H 9517   0.251   1.078  15.203  0.6671 -0.1374  2.0379
  639TMC3    H1 9518   0.658   1.185  15.211 -0.5741 -0.0753  0.3629
  639TMC3    H2 9519   0.558   0.784  15.167 -1.4891 -0.8857  1.7045
  639TMC3    C7 9520   0.750   0.930  15.212  0.1686 -0.2028 -0.4496
  639TMC3    C8 9521   0.330   0.869  15.058  0.6227  0.4178 -0.2459
  639TMC3    O1 9522   0.747   0.819  15.267 -0.3639 -0.1119  0.5390
  639TMC3    O2 9523   0.406   0.836  14.967 -0.7303  0.4905  0.8972
  640MPD2     C 9524   0.547   0.608  10.345  0.0560  0.0375  0.5524
  640MPD2    C1 9525   0.530   0.658  10.219  0.0374 -0.1894  0.8139
  640MPD2    C2 9526   0.436   0.754  10.196 -0.2072 -0.0840 -0.0619
  640MPD2    C3 9527   0.355   0.803  10.290 -0.2529 -0.4368  0.9467
  640MPD2    C4 9528   0.364   0.751  10.421 -0.8592  0.0094  0.4684
  640MPD2    C5 9529   0.461   0.654  10.445  0.6133 -0.1557 -0.7407
  640MPD2     H 9530   0.423   0.805  10.101  1.5934  1.0829  0.3326
  640MPD2    H1 9531   0.290   0.771  10.498  1.2122  2.4359  1.8308
  640MPD2    H2 9532   0.618   0.529  10.367 -0.5763 -0.7634 -0.3227
  640MPD2    H3 9533   0.480   0.610  10.542  0.3597  4.2480  1.3113
  640MPD2     N 9534   0.259   0.895  10.263  0.1857  0.1760 -0.2178
  640MPD2    H5 9535   0.179   0.902  10.326 -0.5492 -0.1475 -1.1050
  640MPD2    N1 9536   0.619   0.611  10.116 -0.7032 -0.1984  0.6213
  640MPD2    H7 9537   0.655   0.517  10.132  0.3529  0.4304  1.9407
  641TMC3    C1 9538   0.700   0.574   9.903 -0.0884  0.0565  0.2385
  641TMC3    C2 9539   0.784   0.477   9.953  0.8544 -0.3376 -0.3787
  641TMC3    C3 9540   0.839   0.391   9.862 -0.2182  0.0603 -0.8425
  641TMC3    C4 9541   0.658   0.577   9.773 -0.7963  0.1203  0.0484
  641TMC3    C5 9542   0.722   0.487   9.685 -0.4214 -0.4556 -0.3641
  641TMC3    C6 9543   0.818   0.402   9.729 -0.1508 -0.0446  0.1334
  641TMC3     C 9544   0.623   0.663   9.994  0.3276 -0.2631  0.9863
  641TMC3     O 9545   0.582   0.764   9.946 -0.0346  0.3248  0.2058
  641TMC3     H 9546   0.816   0.476  10.057 -0.4722  1.6147  0.0471
  641TMC3    H1 9547   0.588   0.653   9.740  0.1047  1.1636  0.5418
  641TMC3    H2 9548   0.859   0.327   9.663  1.7863  0.4629  0.7653
  641TMC3    C7 9549   0.706   0.509   9.543  0.4063 -0.0535 -0.1707
  641TMC3    C8 9550   0.952   0.306   9.893  0.4562 -0.3873  0.0476
  641TMC3    O1 9551   0.593   0.548   9.513 -0.1615  0.3256 -0.3651
  641TMC3    O2 9552   1.009   0.255   9.797 -0.1623 -0.0960  0.3061
  642TMC3    C1 9553   2.161   1.595  12.828 -0.3347  0.3518  0.5650
  642TMC3    C2 9554   2.286   1.581  12.885  0.4094  0.2224  0.2177
  642TMC3    C3 9555   2.335   1.453  12.919 -0.4826  0.7138  0.1880
  642TMC3    C4 9556   2.088   1.480  12.799  0.7947 -0.4398 -0.2380
  642TMC3    C5 9557   2.133   1.360  12.834 -0.1417 -0.3539  0.1037
  642TMC3    C6 9558   2.255   1.344  12.901  0.0009 -0.1596  0.0573
  642TMC3     C 9559   2.123   1.727  12.781  0.2446  0.0799 -0.6153
  642TMC3     O 9560   2.204   1.821  12.763  0.2715  0.6350 -0.0640
  642TMC3     H 9561   2.356   1.664  12.893  1.3669 -0.6292  0.5935
  642TMC3    H1 9562   2.001   1.497  12.738  1.5719  0.5376 -1.0811
  642TMC3    H2 9563   2.290   1.246  12.930 -0.5489 -0.5354 -0.5308
  642TMC3    C7 9564   2.067   1.241  12.787  0.5194 -0.1363  0.4415
  642TMC3    C8 9565   2.476   1.443  12.949  0.5089  0.0601  0.6214
  642TMC3    O1 9566   2.125   1.131  12.802 -0.6357  0.0934 -0.5767
  642TMC3    O2 9567   2.537   1.546  12.924  0.5614 -0.0035  0.4747
  643TMC3    C1 9568   1.238   0.711   0.412 -0.5359  0.1838  0.0046
  643TMC3    C2 9569   1.143   0.793   0.355  0.1049 -1.1195  0.1634
  643TMC3    C3 9570   1.110   0.774   0.223  0.1562 -0.7326 -0.2842
  643TMC3    C4 9571   1.290   0.609   0.344 -0.1104  0.2387 -0.1174
  643TMC3    C5 9572   1.248   0.595   0.220  0.8621 -0.9184 -0.2796
  643TMC3    C6 9573   1.152   0.666   0.153  0.6320  0.1655  0.3407
  643TMC3     C 9574   1.283   0.746   0.548 -0.1828 -0.1116 -0.4813
  643TMC3     O 9575   1.272   0.867   0.584  0.3250  0.6345 -0.2324
  643TMC3     H 9576   1.093   0.866   0.416  1.5066  0.2257 -0.2915
  643TMC3    H1 9577   1.372   0.552   0.387 -1.1466  0.0469  1.5820
  643TMC3    H2 9578   1.138   0.656   0.046  0.8526  0.8774  0.2432
  643TMC3    C7 9579   1.326   0.519   0.135  0.1147 -0.1105 -0.6129
  643TMC3    C8 9580   1.042   0.874   0.143  0.0879 -0.3234  0.1829
  643TMC3    O1 9581   1.338   0.403   0.176  0.0903  0.5115  0.1148
  643TMC3    O2 9582   1.006   0.835   0.035 -0.3249 -0.0043  0.2884
  644MPD2     C 9583   0.913   1.057   9.368  0.0212 -0.3584  0.5638
  644MPD2    C1 9584   0.886   0.959   9.462 -0.2815  0.1719  0.1082
  644MPD2    C2 9585   0.755   0.918   9.478  0.0430 -0.0422 -0.2733
  644MPD2    C3 9586   0.650   0.974   9.404  0.1404  0.1686  0.3422
  644MPD2    C4 9587   0.681   1.086   9.330  0.2671  0.3388 -0.1403
  644MPD2    C5 9588   0.811   1.122   9.312 -0.6469 -0.6512 -0.4077
  644MPD2     H 9589   0.731   0.837   9.547 -0.9867  1.2230  0.8545
  644MPD2    H1 9590   0.612   1.128   9.258  2.6997  3.5807 -0.5551
  644MPD2    H2 9591   1.010   1.091   9.334 -1.1187  2.8434  0.5071
  644MPD2    H3 9592   0.826   1.196   9.235  1.4310 -0.6915 -0.0562
  644MPD2     N 9593   0.528   0.902   9.407  0.4179 -0.1763  0.3217
  644MPD2    H5 9594   0.504   0.846   9.488 -2.2851 -0.2496 -0.5448
  644MPD2    N1 9595   0.995   0.893   9.526 -0.5716 -0.7811 -1.1308
  644MPD2    H7 9596   1.090   0.918   9.502 -0.6916 -0.3252 -1.1336
  645TMC3    C1 9597   0.316   0.833   9.340 -0.0387  0.4503  0.5310
  645TMC3    C2 9598   0.327   0.724   9.427 -0.1308  0.2277  0.7193
  645TMC3    C3 9599   0.208   0.666   9.458 -0.0079  0.2979 -0.0560
  645TMC3    C4 9600   0.198   0.883   9.293 -0.1768  0.3435  0.2696
  645TMC3    C5 9601   0.080   0.824   9.338 -0.2946  0.2023  0.0102
  645TMC3    C6 9602   0.082   0.714   9.417 -0.2871  0.0147 -0.5350
  645TMC3     C 9603   0.434   0.906   9.303  0.3002  0.2377 -0.1335
  645TMC3     O 9604   0.434   0.980   9.204  0.3599 -0.2566  0.5740
  645TMC3     H 9605   0.425   0.683   9.446  0.2761  0.0130 -1.8557
  645TMC3    H1 9606   0.194   0.981   9.246 -4.0560 -0.4916 -1.0938
  645TMC3    H2 9607   4.725   0.672   9.447  0.7030 -1.1142  1.0270
  645TMC3    C7 9608   4.689   0.879   9.303  0.3158  0.1093 -0.3883
  645TMC3    C8 9609   0.205   0.544   9.530 -0.0947 -0.0156  0.1515
  645TMC3    O1 9610   4.591   0.814   9.333  0.0608 -0.2796 -0.2441
  645TMC3    O2 9611   0.096   0.513   9.569 -0.2273  0.2089  0.5200
  646MPD2     C 9612   0.721   0.297  14.490  0.6443 -0.3335 -0.2401
  646MPD2    C1 9613   0.626   0.250  14.573  0.9653  0.1623  0.7042
  646MPD2    C2 9614   0.490   0.283  14.555 -0.1220  0.5999  0.1679
  646MPD2    C3 9615   0.453   0.357  14.447  0.3587  0.4182 -0.1461
  646MPD2    C4 9616   0.553   0.406  14.360 -0.7166 -0.2138 -0.8438
  646MPD2    C5 9617   0.683   0.386  14.393  0.2905  0.2440 -0.6777
  646MPD2     H 9618   0.413   0.247  14.623  0.4080 -1.2485 -0.2190
  646MPD2    H1 9619   0.531   0.463  14.270 -0.1405  1.9097  0.3561
  646MPD2    H2 9620   0.826   0.277  14.512  1.0932  0.5337 -1.6184
  646MPD2    H3 9621   0.761   0.436  14.336  1.0227  2.0623  1.9426
  646MPD2     N 9622   0.316   0.384  14.426 -0.2549 -0.0826 -0.2168
  646MPD2    H5 9623   0.261   0.355  14.507 -2.1225  0.8815 -1.1438
  646MPD2    N1 9624   0.670   0.170  14.684 -0.0521  0.5011 -0.4855
  646MPD2    H7 9625   0.768   0.145  14.693  0.9566  3.4754 -3.2953
  647TMC3    C1 9626   0.665   0.069  14.892 -0.4610  0.5987  0.4327
  647TMC3    C2 9627   0.605   4.720  14.989 -0.1128  0.5027  0.2889
  647TMC3    C3 9628   0.660   4.718  15.119  0.4783 -0.6991  0.4690
  647TMC3    C4 9629   0.771   0.150  14.932 -0.3296  0.8055 -0.0214
  647TMC3    C5 9630   0.833   0.133  15.058  0.7504 -0.4532  0.1798
  647TMC3    C6 9631   0.776   0.046  15.149  0.4124  0.2684 -0.6587
  647TMC3     C 9632   0.589   0.115  14.778 -0.0991  0.1793 -0.7215
  647TMC3     O 9633   0.474   0.086  14.777  0.4403 -0.2553  0.0555
  647TMC3     H 9634   0.509   4.674  14.969 -0.7092  1.4516  0.9398
  647TMC3    H1 9635   0.819   0.210  14.856  0.4146  0.2091 -0.0290
  647TMC3    H2 9636   0.819   0.030  15.248 -1.2452  0.0246  0.0231
  647TMC3    C7 9637   0.979   0.151  15.085  0.3819  0.2045  0.1324
  647TMC3    C8 9638   0.638   4.591  15.193  0.3521  0.0590 -0.0929
  647TMC3    O1 9639   1.031   0.087  15.171  0.1383 -0.1857  0.6852
  647TMC3    O2 9640   0.731   4.547  15.258  0.3565  0.2021  0.3847
  648TMC3    C1 9641   0.078   2.734  16.017 -1.0420 -0.2003  0.8413
  648TMC3    C2 9642   0.148   2.624  15.976  0.0948  0.1111 -0.0721
  648TMC3    C3 9643   0.135   2.593  15.848 -0.3420 -0.1906 -0.9269
  648TMC3    C4 9644   4.718   2.795  15.941 -0.5704 -0.0969  1.1570
  648TMC3    C5 9645   4.723   2.767  15.809 -0.3185  0.2247  0.4280
  648TMC3    C6 9646   0.061   2.667  15.755  0.4772  0.9706 -0.5996
  648TMC3     C 9647   0.089   2.785  16.154  0.8709 -0.0722  0.1560
  648TMC3     O 9648   0.089   2.909  16.170 -0.0067  0.1544 -0.3646
  648TMC3     H 9649   0.235   2.586  16.029 -0.7980  0.8858  1.9155
  648TMC3    H1 9650   4.683   2.893  15.972 -0.0005  0.3081  0.5433
  648TMC3    H2 9651   0.048   2.642  15.650  0.0531 -0.1945 -0.2624
  648TMC3    C7 9652   4.687   2.877  15.720  0.5591  0.2703 -0.5703
  648TMC3    C8 9653   0.172   2.455  15.803  0.1285 -0.0446  0.8809
  648TMC3    O1 9654   0.022   2.900  15.625 -0.3682 -0.2584  0.5417
  648TMC3    O2 9655   0.152   2.428  15.685 -0.1075 -0.4311  0.9561
  649TMC3    C1 9656   3.810   3.404  12.945 -0.3631  0.2293 -0.1762
  649TMC3    C2 9657   3.855   3.286  12.893 -0.4023  0.1020  0.0171
  649TMC3    C3 9658   3.868   3.188  12.981 -1.2180 -0.4751  0.7204
  649TMC3    C4 9659   3.772   3.427  13.075  0.7623  0.8822  0.4198
  649TMC3    C5 9660   3.807   3.329  13.165 -0.6674  0.2701  0.0519
  649TMC3    C6 9661   3.860   3.209  13.116  0.7291 -0.3661  0.2822
  649TMC3     C 9662   3.775   3.509  12.845  0.1756  0.2556  0.5641
  649TMC3     O 9663   3.691   3.591  12.875  0.2188 -0.2732  0.1531
  649TMC3     H 9664   3.853   3.266  12.786  1.3708  1.5225 -0.2898
  649TMC3    H1 9665   3.721   3.518  13.104  1.4681  1.6012 -0.6323
  649TMC3    H2 9666   3.903   3.141  13.189  0.5025  1.9196  2.5399
  649TMC3    C7 9667   3.765   3.351  13.302 -0.5012  0.7289 -1.0286
  649TMC3    C8 9668   3.857   3.051  12.942  0.0967  0.3397  0.3686
  649TMC3    O1 9669   3.673   3.428  13.309 -0.1041 -0.0085  0.6768
  649TMC3    O2 9670   3.798   2.969  13.015 -0.2768 -0.0526  0.3062
  650TMC3    C1 9671   1.322   0.629  12.808  0.3125  0.0699 -0.6939
  650TMC3    C2 9672   1.281   0.755  12.793 -0.2860 -0.0871  0.4293
  650TMC3    C3 9673   1.283   0.810  12.669  0.2983 -0.0008 -0.3193
  650TMC3    C4 9674   1.342   0.546  12.699  0.1399  0.0038 -0.2749
  650TMC3    C5 9675   1.332   0.603  12.572 -0.5196 -0.4489 -0.2484
  650TMC3    C6 9676   1.303   0.739  12.556  0.0680  0.8208  0.4098
  650TMC3     C 9677   1.334   0.579  12.945  0.1704  0.2057  0.5564
  650TMC3     O 9678   1.253   0.638  13.019  0.7255 -0.2287 -0.0777
  650TMC3     H 9679   1.256   0.815  12.880 -0.2835  0.4655  0.0482
  650TMC3    H1 9680   1.352   0.438  12.708 -1.4049 -0.1247  0.0054
  650TMC3    H2 9681   1.312   0.787  12.459  1.4914 -1.1513 -0.4394
  650TMC3    C7 9682   1.368   0.524  12.452  0.5597  0.3954  0.3620
  650TMC3    C8 9683   1.245   0.951  12.657  0.7238  0.1116 -1.0266
  650TMC3    O1 9684   1.435   0.424  12.475  0.3330  0.1209 -0.2124
  650TMC3    O2 9685   1.294   1.011  12.560 -0.3323  0.1123 -0.7431
  651MPD2     C 9686   0.388   1.799  10.586  0.5999 -0.0402 -0.1887
  651MPD2    C1 9687   0.318   1.915  10.588  0.0330 -0.1387  0.0657
  651MPD2    C2 9688   0.383   2.036  10.601 -0.4978  0.1845  0.4174
  651MPD2    C3 9689   0.522   2.038  10.610 -0.2391 -0.5937 -0.1799
  651MPD2    C4 9690   0.594   1.925  10.602 -0.0094  0.2763  0.8296
  651MPD2    C5 9691   0.527   1.799  10.582 -1.0793  0.4716 -0.0355
  651MPD2     H 9692   0.317   2.121  10.607 -1.8596 -0.8862  0.5242
  651MPD2    H1 9693   0.702   1.925  10.612 -0.0129 -2.2364  1.0061
  651MPD2    H2 9694   0.344   1.700  10.591  2.0133 -0.6442  0.1875
  651MPD2    H3 9695   0.585   1.708  10.570 -0.0352  0.9840  1.1036
  651MPD2     N 9696   0.576   2.165  10.625  1.0359  0.1607  0.0701
  651MPD2    H5 9697   0.513   2.244  10.635  0.1372 -0.5990  0.4270
  651MPD2    N1 9698   0.174   1.912  10.567 -0.4879 -0.5627 -0.5515
  651MPD2    H7 9699   0.132   2.003  10.554 -0.6689 -0.5004  0.5333
  652TMC3    C1 9700   0.855   2.522  10.694 -0.3148  0.0921 -0.1006
  652TMC3    C2 9701   0.841   2.391  10.702  0.0674 -0.2133  0.1484
  652TMC3    C3 9702   0.739   2.338  10.622  0.0466  0.5893 -0.4485
  652TMC3    C4 9703   0.783   2.605  10.607 -0.1480 -0.4374 -0.0801
  652TMC3    C5 9704   0.690   2.543  10.529  0.2029 -0.0497 -0.6534
  652TMC3    C6 9705   0.668   2.407  10.529 -0.3938  0.5090 -0.6357
  652TMC3     C 9706   0.964   2.576  10.776  0.1283 -0.1308  0.5207
  652TMC3     O 9707   1.031   2.491  10.824  0.5657 -0.1151  0.3667
  652TMC3     H 9708   0.916   2.329  10.750  2.6778  0.9067 -2.4623
  652TMC3    H1 9709   0.811   2.708  10.587 -0.2013 -0.5148 -0.5753
  652TMC3    H2 9710   0.607   2.355  10.456 -1.0045  1.6621 -0.9492
  652TMC3    C7 9711   0.583   2.628  10.486  0.2146  0.5603  0.3220
  652TMC3    C8 9712   0.712   2.194  10.640  0.2908  0.1119 -0.0924
  652TMC3    O1 9713   0.505   2.567  10.413  0.0954 -0.0917 -0.4845
  652TMC3    O2 9714   0.802   2.120  10.670  0.1736 -0.6037  0.4135
  653MPD2     C 9715   3.547   2.863  17.655  0.1202 -0.3515  0.5418
  653MPD2    C1 9716   3.609   2.920  17.546 -0.3216  0.2578 -0.6045
  653MPD2    C2 9717   3.585   2.867  17.418 -0.2774  0.4697  0.4349
  653MPD2    C3 9718   3.509   2.754  17.394  0.3443  0.4684  0.5963
  653MPD2    C4 9719   3.466   2.690  17.509 -0.3256  0.2217  0.2509
  653MPD2    C5 9720   3.480   2.741  17.636  0.4471 -0.4274 -0.2454
  653MPD2     H 9721   3.641   2.901  17.332  0.3026  0.3622  0.7644
  653MPD2    H1 9722   3.413   2.596  17.501 -1.4511  0.7864  1.1705
  653MPD2    H2 9723   3.557   2.903   0.004 -2.4028 -1.9336  1.4212
  653MPD2    H3 9724   3.439   2.693  17.724  1.0009 -0.4267  0.0121
  653MPD2     N 9725   3.493   2.704  17.261 -0.6420  0.1285  0.7238
  653MPD2    H5 9726   3.524   2.747  17.175  1.3045 -1.3123  0.7058
  653MPD2    N1 9727   3.700   3.027  17.551 -0.5414 -0.0055 -0.5176
  653MPD2    H7 9728   3.738   3.051  17.460 -1.9312  0.2560 -1.0403
  654TMC3    C1 9729   3.430   2.542  17.099 -0.1746 -0.3819 -0.1087
  654TMC3    C2 9730   3.412   2.641  17.005  0.3972  0.4064 -0.0330
  654TMC3    C3 9731   3.442   2.608  16.874 -0.1131 -0.1926 -0.0337
  654TMC3    C4 9732   3.468   2.418  17.066 -0.2536  0.1836 -0.1232
  654TMC3    C5 9733   3.471   2.387  16.935  0.0146  0.3701 -0.3420
  654TMC3    C6 9734   3.461   2.479  16.836 -0.2436  0.3304  0.5618
  654TMC3     C 9735   3.453   2.578  17.239 -0.0992  0.6630  0.6975
  654TMC3     O 9736   3.441   2.482  17.310  0.2625 -0.2632 -0.4841
  654TMC3     H 9737   3.376   2.739  17.031 -1.9293 -0.2074 -0.8917
  654TMC3    H1 9738   3.485   2.339  17.138  2.4781 -2.6006 -3.7959
  654TMC3    H2 9739   3.474   2.453  16.732  0.8422  2.3159  0.1924
  654TMC3    C7 9740   3.487   2.248  16.883 -0.4655  0.0586  0.5338
  654TMC3    C8 9741   3.407   2.706  16.774  0.1793  0.0911  0.4384
  654TMC3    O1 9742   3.513   2.235  16.763 -0.4002 -0.5609  0.4909
  654TMC3    O2 9743   3.334   2.793  16.825 -0.1542 -0.8234 -0.3589
  655MPD2     C 9744   0.429   2.761  15.718  1.7420 -0.3453  0.0649
  655MPD2    C1 9745   0.427   2.861  15.622  0.3018  0.2309  0.3607
  655MPD2    C2 9746   0.485   2.833  15.494 -0.0921  0.5828  0.3731
  655MPD2    C3 9747   0.539   2.707  15.474  0.5313  0.1103 -0.3855
  655MPD2    C4 9748   0.524   2.611  15.569  0.3400  0.2565  0.5289
  655MPD2    C5 9749   0.474   2.635  15.688  0.3085  0.6371  0.1474
  655MPD2     H 9750   0.487   2.911  15.419 -1.5099  1.7798  1.5707
  655MPD2    H1 9751   0.561   2.510  15.562  0.6117  0.3639  0.4403
  655MPD2    H2 9752   0.397   2.781  15.820  1.7343 -0.8924  0.1694
  655MPD2    H3 9753   0.474   2.552  15.759  1.8575  0.3507 -0.1858
  655MPD2     N 9754   0.593   2.652  15.353 -0.5729  0.2557 -0.0502
  655MPD2    H5 9755   0.626   2.556  15.355  3.8319  1.7307 -1.9615
  655MPD2    N1 9756   0.367   2.990  15.643  0.0016 -0.5709  0.7934
  655MPD2    H7 9757   0.347   3.045  15.560 -1.0855 -1.8797  0.1999
  656TMC3    C1 9758   0.227   3.150  15.753  0.1446  0.8270 -0.1115
  656TMC3    C2 9759   0.154   3.176  15.869 -0.0879 -0.1304  0.1213
  656TMC3    C3 9760   0.055   3.262  15.861 -0.0082  0.4539  0.0859
  656TMC3    C4 9761   0.182   3.212  15.632 -0.4179  0.1674  0.8530
  656TMC3    C5 9762   0.084   3.309  15.641  0.3772  0.4399 -0.7320
  656TMC3    C6 9763   0.026   3.347  15.760 -0.1618  0.6587 -0.1627
  656TMC3     C 9764   0.327   3.040  15.765 -0.0314  0.0790  0.1066
  656TMC3     O 9765   0.340   2.991  15.878  0.3480  0.6043 -0.2811
  656TMC3     H 9766   0.186   3.133  15.963 -0.0556 -1.6831 -0.5952
  656TMC3    H1 9767   0.234   3.198  15.537 -0.6619  0.2805  0.7041
  656TMC3    H2 9768   4.675   3.407  15.773 -1.2992 -0.5342 -2.5132
  656TMC3    C7 9769   0.059   3.394  15.525  0.0119  0.7125  0.4126
  656TMC3    C8 9770   4.701   3.250  15.969 -0.5824 -0.5237  0.8218
  656TMC3    O1 9771   0.104   3.359  15.415 -0.0371  0.3732 -0.4922
  656TMC3    O2 9772   4.671   3.137  16.007 -0.4128  0.0773 -0.6010
  657TMC3    C1 9773   4.126   1.913  15.139 -0.1347  0.6678 -0.3848
  657TMC3    C2 9774   4.188   1.970  15.244  0.0828  0.0249 -0.1055
  657TMC3    C3 9775   4.140   2.089  15.282 -0.3652  0.2563  0.5156
  657TMC3    C4 9776   4.016   1.964  15.076  0.0551  0.2010 -0.1888
  657TMC3    C5 9777   3.966   2.078  15.125 -0.7773  0.5449 -0.5326
  657TMC3    C6 9778   4.025   2.142  15.233 -0.5519 -0.1136 -0.3756
  657TMC3     C 9779   4.203   1.810  15.062 -0.2109 -0.5074  0.5692
  657TMC3     O 9780   4.177   1.797  14.941  0.5610  0.8159 -0.0677
  657TMC3     H 9781   4.286   1.937  15.275  0.8968  0.8137 -1.8379
  657TMC3    H1 9782   3.972   1.925  14.985  1.9987  1.3491 -1.6226
  657TMC3    H2 9783   3.988   2.234  15.277  1.3257  0.0538  0.8544
  657TMC3    C7 9784   3.836   2.128  15.080  0.1641 -0.3523  0.3919
  657TMC3    C8 9785   4.182   2.145  15.402 -0.2580 -0.4012 -0.8626
  657TMC3    O1 9786   3.766   2.048  15.018  0.0594  0.7439  0.3495
  657TMC3    O2 9787   4.159   2.263  15.420 -0.1668 -0.2395 -0.2168
  658MPD2     C 9788   0.824   3.018  14.702 -0.1062 -0.5249  0.0230
  658MPD2    C1 9789   0.800   2.882  14.673  0.7896 -0.1461 -0.3589
  658MPD2    C2 9790   0.816   2.838  14.547 -0.0454  0.4110  0.3428
  658MPD2    C3 9791   0.860   2.923  14.450 -0.4806 -1.0452  0.0305
  658MPD2    C4 9792   0.889   3.054  14.477  0.4257 -0.6437  0.4392
  658MPD2    C5 9793   0.864   3.104  14.604  0.3161  0.3853 -0.7961
  658MPD2     H 9794   0.786   2.736  14.525  2.5158  0.1210 -1.8832
  658MPD2    H1 9795   0.922   3.122  14.399 -1.6905  0.7998  0.8041
  658MPD2    H2 9796   0.794   3.066  14.794  0.4059  0.1311 -0.1444
  658MPD2    H3 9797   0.866   3.210  14.623  0.9464  0.2235  0.0639
  658MPD2     N 9798   0.867   2.872  14.311  0.3880  0.4361  0.5513
  658MPD2    H5 9799   0.840   2.776  14.297  0.1934  0.5591  0.0809
  658MPD2    N1 9800   0.743   2.808  14.778  0.3941 -0.0265  0.3168
  658MPD2    H7 9801   0.745   2.859  14.866  1.8131  1.8333 -0.7813
  659TMC3    C1 9802   0.688   2.615  14.900 -0.3263 -0.9201  0.0504
  659TMC3    C2 9803   0.661   2.697  15.011  0.0991  0.2751 -0.3355
  659TMC3    C3 9804   0.652   2.643  15.130  0.7712 -0.2658 -0.6179
  659TMC3    C4 9805   0.655   2.482  14.910  0.4973 -0.0388  0.3589
  659TMC3    C5 9806   0.619   2.431  15.030  0.5003 -0.2171  0.0465
  659TMC3    C6 9807   0.630   2.509  15.142  0.6788 -0.1632 -0.7733
  659TMC3     C 9808   0.716   2.669  14.773 -0.0841  0.2216 -0.3321
  659TMC3     O 9809   0.717   2.595  14.678  0.1979 -0.0152  0.4403
  659TMC3     H 9810   0.671   2.805  15.009  1.1672  0.1287 -2.8414
  659TMC3    H1 9811   0.643   2.420  14.822 -2.4918 -2.2281  2.3319
  659TMC3    H2 9812   0.601   2.458  15.233  1.1996  0.7100 -0.1234
  659TMC3    C7 9813   0.497   2.357  15.043 -0.1729 -0.1341 -0.4849
  659TMC3    C8 9814   0.612   2.729  15.243 -0.0440 -0.4058  0.0704
  659TMC3    O1 9815   0.488   2.278  15.134 -0.9192 -0.3102 -0.2826
  659TMC3    O2 9816   0.614   2.850  15.226  0.3671  0.9554  0.0919
  660MPD2     C 9817   3.302   1.728  12.669  0.1860  0.2390  0.3397
  660MPD2    C1 9818   3.172   1.774  12.698  0.1838  0.0276  0.8789
  660MPD2    C2 9819   3.114   1.763  12.821  0.2024 -0.1221 -0.1442
  660MPD2    C3 9820   3.189   1.703  12.920 -0.0366  0.2224 -0.7697
  660MPD2    C4 9821   3.309   1.644  12.889  0.0169 -0.0912  0.5700
  660MPD2    C5 9822   3.369   1.664  12.770  0.0439  0.3087  0.6407
  660MPD2     H 9823   3.014   1.794  12.848  0.4971  0.5530  0.1706
  660MPD2    H1 9824   3.367   1.592  12.965  1.4566  1.4303  0.5030
  660MPD2    H2 9825   3.347   1.755  12.574 -1.1051 -1.9794 -0.8910
  660MPD2    H3 9826   3.471   1.635  12.748  0.0564  0.4682  0.4923
  660MPD2     N 9827   3.135   1.682  13.050 -0.2749 -0.0381  0.0296
  660MPD2    H5 9828   3.177   1.603  13.098 -1.7525  0.0955  1.5560
  660MPD2    N1 9829   3.090   1.808  12.587 -0.0283  0.2710 -0.4904
  660MPD2    H7 9830   3.143   1.807  12.501  0.9030  0.7905  0.0779
  661TMC3    C1 9831   2.897   1.832  12.453  0.4179  0.5065  0.4062
  661TMC3    C2 9832   2.950   1.745  12.358  0.3282 -0.1887  0.4489
  661TMC3    C3 9833   2.868   1.670  12.266  0.0942 -0.1495  0.0470
  661TMC3    C4 9834   2.756   1.854  12.445 -0.2990  0.5585  0.1185
  661TMC3    C5 9835   2.681   1.769  12.366 -0.2146 -0.2699  1.2549
  661TMC3    C6 9836   2.730   1.682  12.275  0.0113  0.3842 -0.7225
  661TMC3     C 9837   2.956   1.843  12.586 -0.8730 -0.4386  0.8487
  661TMC3     O 9838   2.881   1.877  12.681  0.2215 -0.6631  0.1689
  661TMC3     H 9839   3.056   1.720  12.359  0.0158 -1.5494 -1.7470
  661TMC3    H1 9840   2.708   1.920  12.516  0.4081  0.3928  0.7550
  661TMC3    H2 9841   2.666   1.624  12.209  1.6447  0.7033 -2.5749
  661TMC3    C7 9842   2.538   1.780  12.397  0.4969 -0.0721  0.0123
  661TMC3    C8 9843   2.935   1.581  12.167  0.3253  0.0579 -0.4833
  661TMC3    O1 9844   2.495   1.882  12.451  0.6533  0.5400  0.5456
  661TMC3    O2 9845   3.052   1.550  12.181 -0.4049  0.0732 -0.2097
  662MPD2     C 9846   3.195   1.294  16.947 -0.3392  0.9332  0.1161
  662MPD2    C1 9847   3.172   1.267  17.081 -0.1208 -1.0823  0.1876
  662MPD2    C2 9848   3.122   1.366  17.168 -0.1328 -0.5264 -0.1070
  662MPD2    C3 9849   3.084   1.487  17.121  0.0158 -0.4683  0.1351
  662MPD2    C4 9850   3.099   1.512  16.988  0.8007 -0.0432 -0.4576
  662MPD2    C5 9851   3.159   1.421  16.900 -0.5341  0.0837  0.3461
  662MPD2     H 9852   3.113   1.344  17.274 -1.7765 -2.2548 -0.6149
  662MPD2    H1 9853   3.075   1.609  16.945 -0.2530 -0.5049 -0.9062
  662MPD2    H2 9854   3.237   1.230  16.870 -0.2015 -0.3145  1.2253
  662MPD2    H3 9855   3.181   1.451  16.798 -1.7268  2.4254  0.7650
  662MPD2     N 9856   2.991   1.571  17.188  0.2273  0.5601  0.1413
  662MPD2    H5 9857   2.941   1.637  17.128  0.0328  0.3138  0.0309
  662MPD2    N1 9858   3.185   1.137  17.137 -0.3248 -0.5547  0.0348
  662MPD2    H7 9859   3.174   1.125  17.237  2.6602  0.2533  0.4427
  663TMC3    C1 9860   3.216   0.893  17.146  0.1294  0.3628 -0.6326
  663TMC3    C2 9861   3.130   0.878  17.248  0.4121  0.5953 -0.0209
  663TMC3    C3 9862   3.126   0.773  17.330 -0.2606 -0.4122 -0.5137
  663TMC3    C4 9863   3.291   0.790  17.102  0.2301  0.3166 -0.2024
  663TMC3    C5 9864   3.298   0.683  17.188  0.4591 -0.0498  0.3123
  663TMC3    C6 9865   3.214   0.670  17.301  0.5049 -0.1937 -0.3866
  663TMC3     C 9866   3.212   1.017  17.067  0.6472  0.8614 -0.6479
  663TMC3     O 9867   3.239   0.999  16.950 -0.1569 -0.3101  0.0671
  663TMC3     H 9868   3.074   0.969  17.261 -1.1161  0.0682 -2.8963
  663TMC3    H1 9869   3.359   0.796  17.017  0.6159 -2.7722 -0.1092
  663TMC3    H2 9870   3.255   0.612  17.383  4.6629  0.0124 -2.3073
  663TMC3    C7 9871   3.394   0.587  17.150  0.2750 -0.5764  0.7909
  663TMC3    C8 9872   3.105   0.810  17.472  0.3916  0.3479  0.1834
  663TMC3    O1 9873   3.500   0.615  17.091 -0.3262 -0.1991 -0.4059
  663TMC3    O2 9874   3.085   0.928  17.490  0.2551 -0.2486  0.5656
  664MPD2     C 9875   2.034   3.877  17.663 -0.8565  0.6959  0.4609
  664MPD2    C1 9876   1.991   3.998  17.713 -0.0263 -0.7123  0.0861
  664MPD2    C2 9877   1.920   3.997   0.086  0.4349  0.2980  0.5259
  664MPD2    C3 9878   1.883   3.885   0.151  0.4003 -0.1075  0.1951
  664MPD2    C4 9879   1.929   3.765   0.093 -0.7483 -0.4346 -0.7527
  664MPD2    C5 9880   1.998   3.765  17.725 -0.3558  0.4857  0.3116
  664MPD2     H 9881   1.898   4.091   0.135  1.4218  0.4347  0.7163
  664MPD2    H1 9882   1.882   3.676   0.133 -1.3468 -0.1953 -0.9186
  664MPD2    H2 9883   2.093   3.867  17.573  0.6086  2.9375  1.1861
  664MPD2    H3 9884   2.011   3.668  17.678  0.3242  0.3420  0.7951
  664MPD2     N 9885   1.815   3.896   0.270 -0.2591 -0.4877 -1.2686
  664MPD2    H5 9886   1.802   3.991   0.304  1.8548 -0.7300  0.2435
  664MPD2    N1 9887   2.023   4.118  17.649  0.1675  0.0015 -0.1488
  664MPD2    H7 9888   1.984   4.202  17.691  1.8331  0.6959  0.0101
  665TMC3    C1 9889   1.669   3.843   0.454  0.2191 -0.4066 -1.0302
  665TMC3    C2 9890   1.679   3.799   0.586  0.0107  0.8797  0.2110
  665TMC3    C3 9891   1.607   3.859   0.686 -0.0386  0.0349  0.1647
  665TMC3    C4 9892   1.594   3.952   0.430 -0.0760  0.2385 -0.2469
  665TMC3    C5 9893   1.511   4.005   0.528  0.0227  0.1876 -0.1384
  665TMC3    C6 9894   1.523   3.960   0.652  0.1067 -0.3854 -0.0639
  665TMC3     C 9895   1.761   3.797   0.348 -0.1392 -0.2820 -0.0756
  665TMC3     O 9896   1.790   3.680   0.355  0.1719  0.4264 -0.3716
  665TMC3     H 9897   1.745   3.716   0.607  0.6542  1.4420  0.4068
  665TMC3    H1 9898   1.599   4.003   0.334 -2.8245  0.6047 -0.1940
  665TMC3    H2 9899   1.449   3.996   0.722 -0.8845 -1.3931 -0.6007
  665TMC3    C7 9900   1.415   4.103   0.498 -0.5512 -0.3945  0.0838
  665TMC3    C8 9901   1.610   3.822   0.829  0.1281 -1.0095 -0.1882
  665TMC3    O1 9902   1.374   4.101   0.387 -1.0079  0.3664 -0.6000
  665TMC3    O2 9903   1.575   3.906   0.908 -0.1211  0.0204  0.5651
  666TMC3    C1 9904   4.458   4.165  10.022  0.0351 -0.1378 -0.0353
  666TMC3    C2 9905   4.549   4.121  10.116  0.0869  0.2535  0.0380
  666TMC3    C3 9906   4.674   4.182  10.106  0.1398  0.9170 -0.7650
  666TMC3    C4 9907   4.477   4.279   9.947 -0.8411  1.5498 -0.1691
  666TMC3    C5 9908   4.596   4.335   9.952 -0.8955 -0.1299  0.9240
  666TMC3    C6 9909   4.699   4.293  10.031 -0.4349 -0.7436 -0.2625
  666TMC3     C 9910   4.334   4.089  10.004 -0.0610  0.1687 -0.4691
  666TMC3     O 9911   4.240   4.142   9.943 -0.4943 -0.4446 -0.0840
  666TMC3     H 9912   4.514   4.044  10.184 -2.2509 -0.7287 -2.2860
  666TMC3    H1 9913   4.389   4.316   9.896 -1.5592  0.7117  0.4638
  666TMC3    H2 9914   0.062   4.329  10.021 -1.3220  1.6637 -0.5186
  666TMC3    C7 9915   4.625   4.470   9.894 -0.4496  0.0775 -0.0378
  666TMC3    C8 9916   0.035   4.134  10.203 -0.3176  0.3792 -0.8622
  666TMC3    O1 9917   0.005   4.504   9.909  0.3276  0.4139  0.0539
  666TMC3    O2 9918   0.000   4.033  10.262  0.4714 -0.1590 -0.9316
  667MPD2     C 9919   2.443   4.479  14.182  0.8907 -0.1065 -0.0755
  667MPD2    C1 9920   2.450   4.397  14.294 -0.8397 -0.9237 -0.2972
  667MPD2    C2 9921   2.408   4.269  14.270 -0.4330  0.5771 -0.0282
  667MPD2    C3 9922   2.337   4.220  14.159  0.6951  0.1723  0.3888
  667MPD2    C4 9923   2.320   4.318  14.056  0.9607 -0.4327  0.0091
  667MPD2    C5 9924   2.380   4.445  14.070  0.8664 -0.2659  0.0184
  667MPD2     H 9925   2.426   4.203  14.354 -1.4178  1.5985  0.9795
  667MPD2    H1 9926   2.272   4.289  13.963 -0.2667  0.4239  0.3786
  667MPD2    H2 9927   2.466   4.584  14.190  1.7088 -0.1902 -1.2789
  667MPD2    H3 9928   2.380   4.515  13.988  1.1231  0.6399  0.7838
  667MPD2     N 9929   2.273   4.094  14.140  0.4720  0.5425  0.6085
  667MPD2    H5 9930   2.210   4.092  14.061  0.8509 -2.1921  0.3658
  667MPD2    N1 9931   2.499   4.430  14.423  0.1269 -0.0937 -0.5440
  667MPD2    H7 9932   2.493   4.366  14.501  1.0824  0.1937 -0.2376
  668TMC3    C1 9933   2.545   4.571  14.596 -0.1068  0.0226 -0.5131
  668TMC3    C2 9934   2.616   4.685  14.633  0.1010 -0.3096 -0.1858
  668TMC3    C3 9935   2.604   4.731  14.762  0.2319  0.4046  0.0838
  668TMC3    C4 9936   2.466   4.498  14.685  0.3339  0.6129 -0.4163
  668TMC3    C5 9937   2.469   4.545  14.823  0.3573 -0.2187 -0.4529
  668TMC3    C6 9938   2.539   4.659  14.861  0.3928  0.2289  0.1982
  668TMC3     C 9939   2.546   4.554  14.454  0.5866  0.4725  0.0218
  668TMC3     O 9940   2.574   4.652  14.383 -0.4757  0.0548  0.3195
  668TMC3     H 9941   2.657   0.008  14.553  1.2431 -1.1010 -0.2042
  668TMC3    H1 9942   2.419   4.402  14.669 -0.8011  0.5538  3.2558
  668TMC3    H2 9943   2.544   4.689  14.965 -2.9523  1.3762  0.0244
  668TMC3    C7 9944   2.448   4.450  14.934 -0.2696 -0.0608 -0.3724
  668TMC3    C8 9945   2.649   0.132  14.789  0.0764 -0.0521 -0.5567
  668TMC3    O1 9946   2.466   4.489  15.050 -0.4032  0.3179 -0.0269
  668TMC3    O2 9947   2.602   0.199  14.882  0.2847  0.2639  0.0328
  669TMC3    C1 9948   0.462   4.131  14.941  0.5667  0.1208  0.6137
  669TMC3    C2 9949   0.371   4.177  14.849  0.5525 -0.2297  0.2243
  669TMC3    C3 9950   0.411   4.269  14.757  1.1819 -0.4147  0.2367
  669TMC3    C4 9951   0.579   4.194  14.966  0.2351  0.2549 -0.3099
  669TMC3    C5 9952   0.620   4.282  14.868  0.6545  0.0992 -0.6274
  669TMC3    C6 9953   0.540   4.314  14.763 -0.9634  0.1064 -0.1787
  669TMC3     C 9954   0.425   4.012  15.020  0.2377 -0.3891  0.3179
  669TMC3     O 9955   0.306   3.981  15.038  0.2723 -0.1378 -1.0022
  669TMC3     H 9956   0.269   4.142  14.836  0.6847 -0.7159  0.4801
  669TMC3    H1 9957   0.638   4.177  15.055 -0.3430 -0.2181 -0.0159
  669TMC3    H2 9958   0.582   4.381  14.689  1.1815 -0.0671  0.8807
  669TMC3    C7 9959   0.755   4.333  14.859  0.7077 -0.2042 -0.4473
  669TMC3    C8 9960   0.336   4.286  14.633 -0.2427 -0.7631 -0.8822
  669TMC3    O1 9961   0.818   4.330  14.751 -0.1214  0.9886 -0.5252
  669TMC3    O2 9962   0.241   4.210  14.622 -0.0363  0.8586  0.4005
  670MPD2     C 9963   3.353   1.907  13.243 -0.9562 -0.9477 -0.0319
  670MPD2    C1 9964   3.486   1.914  13.287 -0.6408  0.4001 -0.1486
  670MPD2    C2 9965   3.514   1.946  13.420 -0.9348  0.0524 -0.1280
  670MPD2    C3 9966   3.415   1.971  13.511 -0.0701 -0.3708  0.3093
  670MPD2    C4 9967   3.290   1.963  13.465 -0.2223 -0.7194  0.5123
  670MPD2    C5 9968   3.258   1.934  13.332  0.6392  0.2363 -0.7223
  670MPD2     H 9969   3.615   1.944  13.457 -1.1032  3.7854  0.6140
  670MPD2    H1 9970   3.209   1.979  13.535 -0.4562  1.0022 -0.1653
  670MPD2    H2 9971   3.317   1.852  13.156  0.9190  2.2403 -2.8230
  670MPD2    H3 9972   3.155   1.930  13.299  0.4182  0.9298 -0.1244
  670MPD2     N 9973   3.450   1.995  13.644  0.0183 -0.0838  0.8680
  670MPD2    H5 9974   3.548   2.007  13.667 -0.3687  0.0659  2.4376
  670MPD2    N1 9975   3.593   1.887  13.201  0.3650  0.3271 -0.4125
  670MPD2    H7 9976   3.687   1.897  13.238  1.2917 -2.3604 -2.0227
  671TMC3    C1 9977   3.415   2.028  13.873 -0.1869  0.0511  0.2598
  671TMC3    C2 9978   3.508   1.938  13.909 -0.4867  0.1964 -0.9475
  671TMC3    C3 9979   3.503   1.896  14.037 -0.7027  0.1069  0.3509
  671TMC3    C4 9980   3.331   2.078  13.964  0.2830 -0.1806 -0.6360
  671TMC3    C5 9981   3.327   2.033  14.088  0.3222 -0.2491  0.7195
  671TMC3    C6 9982   3.405   1.930  14.128  0.0747  0.7478 -0.1752
  671TMC3     C 9983   3.356   2.003  13.743 -1.0861  0.3735 -0.0705
  671TMC3     O 9984   3.234   1.979  13.754  0.2203 -0.5584 -0.3159
  671TMC3     H 9985   3.565   1.873  13.844  1.4205  1.8166 -0.9197
  671TMC3    H1 9986   3.251   2.143  13.931  0.5979 -0.5276 -2.0837
  671TMC3    H2 9987   3.374   1.878  14.219 -0.2684 -0.2716 -0.8735
  671TMC3    C7 9988   3.192   2.034  14.136 -0.3045  0.0823 -0.3363
  671TMC3    C8 9989   3.586   1.782  14.070  0.5130  0.4905  0.0486
  671TMC3    O1 9990   3.138   2.144  14.141 -0.2822  0.0876  0.4230
  671TMC3    O2 9991   3.640   1.709  13.983 -0.1958  0.2441  0.0810
  672MPD2     C 9992   3.744   2.381   0.668 -0.7184 -0.3266 -0.1066
  672MPD2    C1 9993   3.821   2.292   0.603  0.1235 -0.4448 -0.1072
  672MPD2    C2 9994   3.955   2.314   0.579  0.0197 -0.2725  0.4731
  672MPD2    C3 9995   4.010   2.440   0.613  0.2869  0.0934 -0.3180
  672MPD2    C4 9996   3.932   2.536   0.675 -0.1419 -0.6677 -0.1372
  672MPD2    C5 9997   3.804   2.497   0.716 -0.7257  0.0141  0.9694
  672MPD2     H 9998   4.011   2.243   0.520 -0.1982 -0.6777  0.7572
  672MPD2    H1 9999   3.971   2.631   0.710  1.4732 -0.6030 -2.0837
  672MPD2    H210000   3.643   2.355   0.699 -1.1860  0.0045 -1.3559
  672MPD2    H310001   3.748   2.567   0.777 -0.5447  0.4312  0.6613
  672MPD2     N10002   4.140   2.477   0.576  0.6830 -0.2189  0.0171
  672MPD2    H510003   4.160   2.576   0.583  2.1332 -0.4407 -1.1138
  672MPD2    N110004   3.752   2.171   0.565  0.1313  0.0179 -0.0729
  672MPD2    H710005   3.810   2.087   0.558  0.4262  0.3786 -1.9910
  673TMC3    C110006   3.574   2.014   0.529 -0.6453 -0.2046  0.6778
  673TMC3    C210007   3.659   1.914   0.487 -0.6088  0.3714  0.2453
  673TMC3    C310008   3.601   1.788   0.460 -0.3975 -0.0344 -0.5751
  673TMC3    C410009   3.438   1.983   0.531 -0.1235  0.5140 -0.4498
  673TMC3    C510010   3.387   1.868   0.476  0.0783 -0.5291 -0.1809
  673TMC3    C610011   3.467   1.762   0.447 -0.2341 -0.7329  0.6965
  673TMC3     C10012   3.619   2.158   0.541 -0.1202 -0.0461  0.5261
  673TMC3     O10013   3.540   2.247   0.517  0.0520  0.3712  0.0542
  673TMC3     H10014   3.759   1.936   0.452 -0.5348  0.6630  0.6351
  673TMC3    H110015   3.375   2.060   0.574 -1.5766 -0.6181 -0.5687
  673TMC3    H210016   3.434   1.675   0.391  1.2726 -0.0767 -1.2049
  673TMC3    C710017   3.266   1.881   0.409  0.3130 -0.5078  0.0872
  673TMC3    C810018   3.687   1.677   0.425  0.5418  0.4730 -0.0666
  673TMC3    O110019   3.216   1.786   0.346  0.4123  0.2368  0.3445
  673TMC3    O210020   3.637   1.567   0.386 -0.3848 -0.1980  0.7278
  674MPD2     C10021   3.126   2.511  17.487  0.0296  0.1213  0.8796
  674MPD2    C110022   3.055   2.398  17.525  0.1598 -0.6309  0.2093
  674MPD2    C210023   2.919   2.411  17.521 -0.3432 -0.0838  0.2767
  674MPD2    C310024   2.858   2.536  17.497  0.9536 -0.6232  0.0246
  674MPD2    C410025   2.931   2.645  17.452 -0.3500 -0.0022 -0.5095
  674MPD2    C510026   3.064   2.626  17.443  0.3517  0.1794  0.5197
  674MPD2     H10027   2.862   2.327  17.559 -1.0262  0.6420  0.8784
  674MPD2    H110028   2.880   2.734  17.415  0.2196 -0.3197 -2.0543
  674MPD2    H210029   3.233   2.510  17.477  0.1261 -2.8689  2.1776
  674MPD2    H310030   3.128   2.708  17.413 -0.4879  0.7243  0.2238
  674MPD2     N10031   2.722   2.550  17.534 -0.2099  0.0280 -0.2998
  674MPD2    H510032   2.670   2.467  17.562 -0.9250  1.1668  1.7958
  674MPD2    N110033   3.096   2.277  17.581 -0.5218 -0.0635  0.0429
  674MPD2    H710034   3.029   2.202  17.595 -0.3177  0.0118  1.3543
  675TMC3    C110035   3.241   2.118  17.670 -0.7568 -0.2222 -0.2108
  675TMC3    C210036   3.143   2.026  17.687 -0.2038  0.1316  0.4481
  675TMC3    C310037   3.170   1.906  17.746  0.7384  0.2921 -0.7653
  675TMC3    C410038   3.363   2.101  17.732  0.4281  0.0116 -0.1106
  675TMC3    C510039   3.388   1.973   0.033 -0.1731  0.0436  0.7831
  675TMC3    C610040   3.295   1.879   0.045 -0.4346 -0.4013 -0.7381
  675TMC3     C10041   3.226   2.249  17.613  0.7207  0.9962 -0.4231
  675TMC3     O10042   3.321   2.325  17.597 -0.0785 -0.4400  0.1425
  675TMC3     H10043   3.042   2.039  17.651  0.2747  0.8491 -0.6558
  675TMC3    H110044   3.441   2.176  17.729 -0.8920  1.4740  1.2808
  675TMC3    H210045   3.323   1.780   0.079  0.0238 -0.5528 -1.5513
  675TMC3    C710046   3.523   1.929   0.076  0.5205  0.7327  0.6613
  675TMC3    C810047   3.070   1.800  17.730  0.1662  0.5240 -0.2297
  675TMC3    O110048   3.534   1.811   0.101  0.1372  0.4202  0.6842
  675TMC3    O210049   3.013   1.775  17.628  0.1794  0.0871 -0.4204
  676MPD2     C10050   2.006   0.418  11.423  0.0418 -0.5329 -0.2268
  676MPD2    C110051   1.909   0.369  11.498  0.3063  0.1189  0.8928
  676MPD2    C210052   1.866   0.238  11.475 -0.6635  0.4339  0.3863
  676MPD2    C310053   1.921   0.160  11.375 -0.7380 -0.0694 -0.1498
  676MPD2    C410054   2.020   0.215  11.297 -0.2065 -0.6749  0.0578
  676MPD2    C510055   2.059   0.345  11.318  0.6975  0.1266  0.0477
  676MPD2     H10056   1.789   0.201  11.541 -0.6005 -0.6654 -0.1510
  676MPD2    H110057   2.076   0.163  11.221  1.3568 -0.5724  1.1551
  676MPD2    H210058   2.048   0.518  11.432 -1.4545  0.0264  0.4232
  676MPD2    H310059   2.150   0.380  11.271 -1.4026  1.4928 -2.9745
  676MPD2     N10060   1.880   0.024  11.342 -0.2250 -0.3885  0.6462
  676MPD2    H510061   1.919   4.712  11.263  1.1951  0.2936  0.9090
  676MPD2    N110062   1.856   0.435  11.607  0.3254  0.4927  0.2305
  676MPD2    H710063   1.785   0.390  11.664 -0.3648 -0.1699 -1.1547
  677TMC3    C110064   1.818   0.592  11.771 -0.6345  0.3910 -0.3316
  677TMC3    C210065   1.808   0.496  11.864  0.2122 -0.3253  0.0733
  677TMC3    C310066   1.761   0.533  11.989  0.3729 -0.1567 -0.2600
  677TMC3    C410067   1.765   0.721  11.794 -0.4916 -0.3767 -0.7758
  677TMC3    C510068   1.706   0.744  11.912  0.4417  0.3714 -0.4056
  677TMC3    C610069   1.708   0.657  12.020 -0.4184  0.0334  0.5947
  677TMC3     C10070   1.879   0.569  11.641 -0.0618  0.2432 -0.1847
  677TMC3     O10071   1.936   0.659  11.589 -0.1248 -0.0730  0.2652
  677TMC3     H10072   1.846   0.397  11.840  0.1661 -0.5846  1.0538
  677TMC3    H110073   1.778   0.798  11.719 -1.6980 -1.0297 -1.6503
  677TMC3    H210074   1.660   0.678  12.114 -0.7676 -0.2309  0.4747
  677TMC3    C710075   1.652   0.873  11.951 -0.5202 -0.2289  0.3449
  677TMC3    C810076   1.766   0.438  12.104 -0.0108 -0.9092  0.2683
  677TMC3    O110077   1.606   0.885  12.061  0.2978 -0.4078  0.0358
  677TMC3    O210078   1.709   0.471  12.205  0.8617  0.5212  0.0259
  678MPD2     C10079   2.838   4.496   1.473 -0.0306  0.0426 -0.4602
  678MPD2    C110080   2.775   4.482   1.349 -0.2767  0.8625  0.1921
  678MPD2    C210081   2.643   4.530   1.329 -0.5941 -0.4284 -0.0734
  678MPD2    C310082   2.586   4.601   1.432 -0.2582 -1.0202  0.6531
  678MPD2    C410083   2.647   4.605   1.555  0.1980 -0.3925 -0.5433
  678MPD2    C510084   2.773   4.561   1.572  0.0465 -0.1275  0.7574
  678MPD2     H10085   2.596   4.522   1.232 -1.0909  0.9632  0.0558
  678MPD2    H110086   2.606   4.649   1.646  2.1740 -1.5488  0.9198
  678MPD2    H210087   2.931   4.446   1.499 -1.5377 -3.2206 -1.3616
  678MPD2    H310088   2.813   4.575   1.672  0.3847  0.3887  0.5488
  678MPD2     N10089   2.457   4.651   1.408 -0.8573 -0.5464  0.1019
  678MPD2    H510090   2.408   4.636   1.320 -1.4247 -1.7252  0.6268
  678MPD2    N110091   2.835   4.419   1.238 -0.3184 -0.3635 -0.1560
  678MPD2    H710092   2.776   4.409   1.156  1.9457  2.0386 -2.1018
  679TMC3    C110093   3.177   4.162   1.022 -0.2402 -0.0589 -0.0536
  679TMC3    C210094   3.125   4.218   1.138  0.3286  0.3070  0.0902
  679TMC3    C310095   3.010   4.295   1.121  0.1485 -0.4361  0.1496
  679TMC3    C410096   3.128   4.194   0.898  0.6490  0.1302 -0.3637
  679TMC3    C510097   3.010   4.261   0.891 -0.2746 -0.0852 -0.3174
  679TMC3    C610098   2.947   4.312   1.000  0.1600  0.3319  0.0406
  679TMC3     C10099   3.322   4.131   1.016 -0.1023  0.2098  0.3929
  679TMC3     O10100   3.378   4.141   0.909  0.0588 -0.8697 -0.4234
  679TMC3     H10101   3.173   4.205   1.233 -1.2584  0.4136  0.9135
  679TMC3    H110102   3.183   4.160   0.811  1.4683  0.1582  0.1496
  679TMC3    H210103   2.856   4.370   0.991 -0.5902 -0.6628  1.1614
  679TMC3    C710104   2.959   4.310   0.765 -0.1159  0.5071  0.7586
  679TMC3    C810105   2.961   4.350   1.243 -0.1365  0.6563 -0.3327
  679TMC3    O110106   2.889   4.411   0.765  0.0098  0.3041 -0.5319
  679TMC3    O210107   3.041   4.354   1.334 -0.0702 -0.0453  0.3434
  680MPD2     C10108   2.939   3.541  13.529 -0.3757 -0.0831  0.0508
  680MPD2    C110109   3.026   3.563  13.638 -0.4922  0.3013 -0.5271
  680MPD2    C210110   3.064   3.689  13.672  0.3962 -0.1279  0.0906
  680MPD2    C310111   3.010   3.800  13.613 -0.1727  0.1718 -0.3860
  680MPD2    C410112   2.917   3.781  13.514 -0.5406 -0.1856 -0.1601
  680MPD2    C510113   2.887   3.650  13.475 -0.4977  0.1719  0.5735
  680MPD2     H10114   3.127   3.694  13.760 -0.3222  1.2302  0.5202
  680MPD2    H110115   2.870   3.867  13.469  0.9306  1.6510  1.8114
  680MPD2    H210116   2.911   3.442  13.492 -2.1480  1.2773 -2.2547
  680MPD2    H310117   2.808   3.633  13.404 -0.5743 -1.8023  1.1431
  680MPD2     N10118   3.037   3.927  13.658 -0.6136 -0.7387 -0.6921
  680MPD2    H510119   3.008   4.004  13.599  1.6128 -0.3905 -1.3307
  680MPD2    N110120   3.066   3.462  13.723  0.7107 -0.2702  0.1781
  680MPD2    H710121   3.138   3.487  13.790 -0.6382  0.4700  1.3504
  681TMC3    C110122   3.106   3.259  13.812  0.7741 -0.2432  0.7884
  681TMC3    C210123   3.044   3.229  13.937  0.2720 -0.4800 -0.0479
  681TMC3    C310124   3.137   3.226  14.040  0.4361  0.0541 -0.3224
  681TMC3    C410125   3.239   3.286  13.791  0.4739  0.0191  0.1146
  681TMC3    C510126   3.319   3.287  13.897 -0.1928  0.6581  0.0909
  681TMC3    C610127   3.273   3.253  14.024 -0.3335 -0.0551 -0.1608
  681TMC3     C10128   3.026   3.331  13.715 -0.3619 -0.4954 -1.0945
  681TMC3     O10129   2.921   3.286  13.674 -0.0823  0.3270  0.4529
  681TMC3     H10130   2.936   3.236  13.945  0.3473 -0.5064  1.0728
  681TMC3    H110131   3.268   3.336  13.699 -1.4243 -1.8586 -1.5121
  681TMC3    H210132   3.342   3.241  14.107 -2.3737 -0.2568  1.5400
  681TMC3    C710133   3.466   3.289  13.890 -0.0644 -0.2990 -0.8028
  681TMC3    C810134   3.075   3.204  14.170 -0.4167  0.1884  0.0807
  681TMC3    O110135   3.532   3.272  13.992  0.1188 -0.2124 -0.2738
  681TMC3    O210136   2.952   3.197  14.170  0.1715 -0.0641  0.3573
  682MPD2     C10137   0.018   0.702  10.565 -0.4279 -0.1258  0.3575
  682MPD2    C110138   0.089   0.587  10.534  0.8722 -0.1350 -0.2106
  682MPD2    C210139   0.120   0.497  10.633  0.1087 -0.1768  0.6191
  682MPD2    C310140   0.084   0.525  10.765 -0.1612  0.0716 -0.8329
  682MPD2    C410141   0.030   0.648  10.795  0.6038  0.6451  0.2662
  682MPD2    C510142   4.725   0.730  10.696 -0.2859  0.3669 -0.1907
  682MPD2     H10143   0.173   0.403  10.620 -1.4586 -0.8747 -0.7097
  682MPD2    H110144   4.736   0.673  10.896  0.8902  1.4568  0.1541
  682MPD2    H210145   4.731   0.776  10.490 -3.0732 -0.6141  0.7958
  682MPD2    H310146   4.669   0.816  10.731 -3.0596 -1.3176 -0.4750
  682MPD2     N10147   0.110   0.421  10.869  0.5619 -0.1784 -0.6011
  682MPD2    H510148   0.161   0.341  10.835  0.2446 -1.4319  1.8715
  682MPD2    N110149   0.109   0.541  10.400 -0.6222  0.2493 -0.6607
  682MPD2    H710150   0.143   0.446  10.396  0.1437  0.5586 -1.4590
  683TMC3    C110151   0.309   0.297  11.254 -0.5660  0.1932  0.0513
  683TMC3    C210152   0.374   0.208  11.175 -0.4199  0.0608  0.1994
  683TMC3    C310153   0.328   0.169  11.056 -0.4553  0.5131  0.4330
  683TMC3    C410154   0.196   0.365  11.206 -0.7793 -0.0900 -0.7095
  683TMC3    C510155   0.150   0.329  11.080  0.3265 -0.6291 -0.6455
  683TMC3    C610156   0.218   0.232  11.009 -0.3453 -0.0627 -0.3811
  683TMC3     C10157   0.360   0.332  11.382 -1.0833 -0.4301 -0.3647
  683TMC3     O10158   0.341   0.449  11.415  0.0370 -0.3931 -0.4945
  683TMC3     H10159   0.471   0.171  11.207 -1.1574 -0.8611  1.3888
  683TMC3    H110160   0.151   0.444  11.265 -1.0250 -1.0461  0.3858
  683TMC3    H210161   0.174   0.196  10.917 -0.7126 -2.4586  0.7385
  683TMC3    C710162   0.079   0.429  11.003 -0.1229 -1.1366  0.3215
  683TMC3    C810163   0.379   0.063  10.983 -0.1248 -0.1636  0.1017
  683TMC3    O110164   0.009   0.511  11.069 -0.0434 -0.0867 -0.3354
  683TMC3    O210165   0.308   0.019  10.891 -0.3015 -0.1200 -0.1957
  684MPD2     C10166   3.586   4.332  16.242 -0.4913 -0.1306 -0.5474
  684MPD2    C110167   3.515   4.403  16.145  0.6629 -0.1005 -0.2247
  684MPD2    C210168   3.489   4.534  16.183 -0.1002 -0.2460  0.6113
  684MPD2    C310169   3.522   4.599  16.304 -0.1048  0.2387  0.5484
  684MPD2    C410170   3.605   4.525  16.383 -0.2928  0.3272 -0.5194
  684MPD2    C510171   3.628   4.394  16.352  0.5132  0.0757 -0.0147
  684MPD2     H10172   3.450   4.592  16.100  1.9299  2.2401  1.3599
  684MPD2    H110173   3.655   4.570  16.469  0.2308  0.8667 -1.1035
  684MPD2    H210174   3.616   4.229  16.224  0.7262  0.3471 -1.1897
  684MPD2    H310175   3.688   4.341  16.424 -1.5618 -2.4177 -0.1073
  684MPD2     N10176   3.505   4.737  16.332 -0.0831  0.2303 -0.2915
  684MPD2    H510177   3.547   0.032  16.418  3.1247 -0.7539 -1.5011
  684MPD2    N110178   3.479   4.369  16.010  0.1074 -0.0320 -0.2173
  684MPD2    H710179   3.438   4.443  15.953  0.4461 -0.2410 -0.7306
  685TMC3    C110180   3.492   4.244  15.806 -0.6051  0.8528 -0.1285
  685TMC3    C210181   3.404   4.329  15.743  0.4896 -0.4980 -0.1624
  685TMC3    C310182   3.426   4.359  15.608 -0.1639  0.2030 -0.1135
  685TMC3    C410183   3.583   4.173  15.731 -0.2201  0.0465  0.7826
  685TMC3    C510184   3.599   4.192  15.597 -0.3643  0.4703 -0.1996
  685TMC3    C610185   3.519   4.291  15.534  0.3516 -0.4388 -0.2400
  685TMC3     C10186   3.513   4.246  15.953 -0.1022  0.9912 -0.2256
  685TMC3     O10187   3.583   4.156  16.000 -0.1807 -0.3017 -0.8715
  685TMC3     H10188   3.322   4.375  15.798  0.2192 -1.5775  0.3387
  685TMC3    H110189   3.642   4.101  15.787 -0.4974 -0.5281  0.3388
  685TMC3    H210190   3.540   4.324  15.433 -1.6845  2.0359  0.1588
  685TMC3    C710191   3.741   4.218  15.571  0.4964  0.0865  0.6362
  685TMC3    C810192   3.366   4.476  15.548  0.0364 -0.1054 -0.2866
  685TMC3    O110193   3.779   4.247  15.454 -0.5024  0.3203 -0.6027
  685TMC3    O210194   3.361   4.482  15.426 -0.2721  0.0157 -0.8849
  686MPD2     C10195   0.246   0.318  15.795  0.2065  0.0362 -0.5114
  686MPD2    C110196   0.310   0.205  15.826 -0.3115  0.4098 -0.5136
  686MPD2    C210197   0.439   0.178  15.774 -0.6847 -0.0893 -0.4616
  686MPD2    C310198   0.490   0.270  15.679  0.1945  0.1413 -0.4331
  686MPD2    C410199   0.419   0.383  15.652  0.5078  1.0835  0.1539
  686MPD2    C510200   0.301   0.407  15.710  0.1933  0.1930  0.3035
  686MPD2     H10201   0.499   0.096  15.812 -0.3369  0.7624  0.8129
  686MPD2    H110202   0.458   0.454  15.579  3.7612  1.5126  2.3228
  686MPD2    H210203   0.151   0.345  15.841  0.4989  0.8762 -0.3998
  686MPD2    H310204   0.252   0.499  15.679 -1.6078 -0.5945  0.8079
  686MPD2     N10205   0.603   0.244  15.615 -0.6509  0.7612 -0.5397
  686MPD2    H510206   0.653   0.324  15.576  1.3733  2.1477  4.8178
  686MPD2    N110207   0.230   0.107  15.878  0.1303  0.4085  0.2980
  686MPD2    H710208   0.135   0.140  15.889 -0.3654 -1.3124  1.2406
  687TMC3    C110209   0.627   4.738  15.625 -0.0860  0.7820 -0.3844
  687TMC3    C210210   0.503   4.701  15.578  0.3276  0.7096  0.3366
  687TMC3    C310211   0.474   4.566  15.578  0.4738 -0.6073 -0.6628
  687TMC3    C410212   0.715   4.648  15.661 -0.4559  0.4488  0.1239
  687TMC3    C510213   0.690   4.518  15.672  0.3752 -0.3998 -0.4951
  687TMC3    C610214   0.557   4.478  15.631  0.1159  0.6610 -0.3849
  687TMC3     C10215   0.675   0.130  15.594 -0.2756 -0.4507 -0.8970
  687TMC3     O10216   0.779   0.113  15.534  0.0999  0.0670 -0.5304
  687TMC3     H10217   0.447   0.044  15.534 -0.2828 -0.3709 -0.8373
  687TMC3    H110218   0.806   4.682  15.710 -1.1169 -0.1893  1.7880
  687TMC3    H210219   0.533   4.372  15.636 -0.2030  0.7262 -0.5523
  687TMC3    C710220   0.786   4.426  15.736  0.0467 -0.0199  0.1309
  687TMC3    C810221   0.336   4.519  15.562  0.2838 -0.3471  0.1937
  687TMC3    O110222   0.896   4.467  15.766  0.1981 -0.6521  0.1564
  687TMC3    O210223   0.318   4.411  15.617  0.0046 -0.1842 -0.1904
  688MPD2     C10224   4.012   3.538  17.109  0.1438  0.1934  0.3658
  688MPD2    C110225   4.088   3.454  17.190 -0.4719 -0.2326 -0.2847
  688MPD2    C210226   4.212   3.416  17.140 -0.2513  0.1986 -0.2490
  688MPD2    C310227   4.259   3.450  17.012  0.0445 -0.4023 -0.0299
  688MPD2    C410228   4.180   3.540  16.942 -1.4019  0.0049 -0.1540
  688MPD2    C510229   4.059   3.578  16.989  0.0913 -0.6517 -0.4348
  688MPD2     H10230   4.263   3.331  17.184  0.9217  0.6463 -0.7396
  688MPD2    H110231   4.213   3.581  16.847  1.9780 -1.9123  0.1814
  688MPD2    H210232   3.911   3.562  17.142  0.4884  2.4933 -0.2597
  688MPD2    H310233   3.991   3.638  16.930 -0.0471  0.0763  0.4655
  688MPD2     N10234   4.373   3.392  16.952 -0.5930  0.0475  0.1393
  688MPD2    H510235   4.398   3.430  16.862  2.0874  0.2566  0.9699
  688MPD2    N110236   4.044   3.418  17.321  0.4378  0.2354  0.6004
  688MPD2    H710237   4.104   3.380  17.393 -0.7263  1.7952  2.4115
  689TMC3    C110238   3.911   3.373  17.499  0.6718 -0.2177  0.4750
  689TMC3    C210239   4.013   3.403  17.592 -0.1225 -0.3880 -0.3980
  689TMC3    C310240   4.005   3.341  17.715  0.5167  0.4340 -0.3125
  689TMC3    C410241   3.829   3.269  17.524 -0.3474  0.1596  0.8320
  689TMC3    C510242   3.834   3.200  17.638 -0.3692  0.0449 -0.3235
  689TMC3    C610243   3.921   3.237  17.739  0.0613  0.8669  1.0863
  689TMC3     C10244   3.911   3.421  17.364 -0.1619 -0.0961 -0.5330
  689TMC3     O10245   3.806   3.447  17.306 -0.0967 -0.8709 -0.2715
  689TMC3     H10246   4.086   3.481  17.572  0.3704 -0.8508 -0.3935
  689TMC3    H110247   3.747   3.255  17.454 -1.7477  0.2190  2.4656
  689TMC3    H210248   3.920   3.186   0.083 -0.0311 -0.5972  0.3066
  689TMC3    C710249   3.741   3.093  17.660  0.2373 -0.3863 -0.3325
  689TMC3    C810250   4.067   3.404   0.077 -0.2510 -0.1893  0.7175
  689TMC3    O110251   3.718   3.067   0.028  0.1322  0.4380  0.1973
  689TMC3    O210252   4.057   3.343   0.183 -0.0807  0.6832  0.1065
  690MPD2     C10253   1.684   0.467  15.847  0.5203  0.2053 -0.1484
  690MPD2    C110254   1.616   0.458  15.727  0.0365  0.2631  0.2759
  690MPD2    C210255   1.675   0.507  15.610 -0.2873  0.1541 -0.1968
  690MPD2    C310256   1.804   0.564  15.617  0.2826 -0.0900 -0.0105
  690MPD2    C410257   1.871   0.561  15.742  0.3308 -0.4680  0.0320
  690MPD2    C510258   1.809   0.513  15.852 -0.8991 -0.2269 -0.0914
  690MPD2     H10259   1.632   0.508  15.511  1.6886 -2.4192 -1.0653
  690MPD2    H110260   1.971   0.603  15.746 -0.6548  1.7364  1.5394
  690MPD2    H210261   1.649   0.429  15.942 -0.0393  2.2442  0.4722
  690MPD2    H310262   1.870   0.503  15.941 -3.2172  1.0036  1.6251
  690MPD2     N10263   1.853   0.625  15.503  0.9174  0.0924 -0.5811
  690MPD2    H510264   1.790   0.637  15.424 -1.4325 -2.5498  0.8544
  690MPD2    N110265   1.489   0.393  15.718  0.1140 -0.5060  0.1482
  690MPD2    H710266   1.444   0.392  15.628 -0.5901 -1.9503  0.5242
  691TMC3    C110267   1.315   0.259  15.768 -0.4890  0.4635 -0.1467
  691TMC3    C210268   1.196   0.263  15.842 -0.5814  0.2971 -0.0315
  691TMC3    C310269   1.115   0.160  15.834  0.0761  0.0348 -0.4983
  691TMC3    C410270   1.341   0.156  15.689 -0.2709  0.8702  0.4666
  691TMC3    C510271   1.258   0.044  15.689  0.0450  0.5243  0.4989
  691TMC3    C610272   1.139   0.044  15.757 -0.0307 -0.0825 -0.1617
  691TMC3     C10273   1.420   0.340  15.823  0.3619  1.2189  0.1831
  691TMC3     O10274   1.438   0.347  15.944  0.5688  0.1233 -0.2081
  691TMC3     H10275   1.176   0.350  15.903  3.0986  0.2339  1.2519
  691TMC3    H110276   1.431   0.161  15.629 -0.9853  0.5068 -0.6243
  691TMC3    H210277   1.063   4.705  15.756 -0.1556  0.0423 -0.4394
  691TMC3    C710278   1.322   4.667  15.626  0.0711  0.8719  0.3322
  691TMC3    C810279   0.989   0.169  15.909  0.1503  0.2932 -0.2880
  691TMC3    O110280   1.433   4.670  15.574 -0.3672  0.0874  0.2478
  691TMC3    O210281   0.937   0.064  15.947 -0.3363  0.9100 -0.4460
  692TMC3    C110282   3.115   1.319  15.616  0.0730 -0.2607  0.3622
  692TMC3    C210283   3.243   1.362  15.651 -0.5981 -1.1402  0.5484
  692TMC3    C310284   3.330   1.269  15.702 -0.8799  0.1366  0.5908
  692TMC3    C410285   3.080   1.187  15.639  0.7532 -0.5167  0.1709
  692TMC3    C510286   3.163   1.104  15.702  0.1384  0.1773  0.3483
  692TMC3    C610287   3.288   1.141  15.737 -0.5589 -0.0174 -0.0215
  692TMC3     C10288   2.999   1.411  15.620  0.0143 -0.5108  0.1136
  692TMC3     O10289   2.889   1.352  15.621  0.1922  0.4100  0.1024
  692TMC3     H10290   3.271   1.454  15.601 -0.5869 -2.4273 -1.7954
  692TMC3    H110291   2.979   1.148  15.627  0.1083  0.2802  3.0214
  692TMC3    H210292   3.358   1.058  15.735  0.0464  0.4368  1.8602
  692TMC3    C710293   3.138   0.959  15.685 -0.2731  0.1418  0.3006
  692TMC3    C810294   3.420   1.325  15.797 -0.4392 -0.8919  0.2237
  692TMC3    O110295   3.066   0.913  15.596 -0.1254  0.5753 -0.1403
  692TMC3    O210296   3.471   1.243  15.875 -0.0198 -0.0739  0.2939
  693MPD2     C10297   2.242   3.991  10.670 -0.9052 -0.1254  0.1071
  693MPD2    C110298   2.242   3.891  10.760  0.1957  0.4171  0.4034
  693MPD2    C210299   2.360   3.841  10.811 -0.0128 -0.5089 -0.3182
  693MPD2    C310300   2.484   3.894  10.772  0.6668 -0.7764  0.2316
  693MPD2    C410301   2.481   3.998  10.684  0.3556 -0.3246  0.8109
  693MPD2    C510302   2.363   4.053  10.642  0.7342 -0.2187 -0.1471
  693MPD2     H10303   2.365   3.757  10.879  1.1819 -1.4073 -1.5062
  693MPD2    H110304   2.562   4.057  10.643  0.5849 -0.0330  1.6998
  693MPD2    H210305   2.153   4.047  10.647 -0.2036  0.4834 -1.1258
  693MPD2    H310306   2.361   4.139  10.577 -0.4600 -1.6511 -2.0129
  693MPD2     N10307   2.600   3.826  10.822 -1.0089 -0.2902  0.3095
  693MPD2    H510308   2.586   3.747  10.883  1.0192  0.0789  1.2225
  693MPD2    N110309   2.114   3.846  10.800 -0.1335  0.5350  0.2284
  693MPD2    H710310   2.032   3.888  10.759 -1.5466 -2.9640 -0.4914
  694TMC3    C110311   1.955   3.759  10.944 -0.0723  0.8372 -0.1888
  694TMC3    C210312   1.865   3.762  10.843 -0.9974 -0.0088  0.3734
  694TMC3    C310313   1.737   3.752  10.887  0.2665  0.1065  0.2955
  694TMC3    C410314   1.926   3.764  11.079  0.0469  0.0356 -0.0067
  694TMC3    C510315   1.801   3.765  11.114 -0.0210  0.4408 -0.1577
  694TMC3    C610316   1.697   3.753  11.019 -0.5434  0.7253  0.7112
  694TMC3     C10317   2.094   3.764  10.915  0.4233 -0.3572  0.6090
  694TMC3     O10318   2.167   3.731  11.013  0.1390  0.6700 -0.1159
  694TMC3     H10319   1.890   3.722  10.746  1.2778  0.1909  0.8774
  694TMC3    H110320   2.005   3.784  11.152  1.4263 -3.3461 -0.5983
  694TMC3    H210321   1.594   3.754  11.053 -0.6060 -0.5143  0.5459
  694TMC3    C710322   1.775   3.800  11.251 -0.0843 -0.4390  0.3419
  694TMC3    C810323   1.628   3.759  10.795  0.4488  0.3236 -0.1811
  694TMC3    O110324   1.866   3.823  11.327 -0.1395  0.7747  0.7429
  694TMC3    O210325   1.513   3.767  10.841 -0.4173  0.0353  0.1855
  695MPD2     C10326   3.560   1.149  13.541 -0.9870 -0.0930 -0.4017
  695MPD2    C110327   3.543   1.190  13.675 -0.6306  0.1966 -0.3529
  695MPD2    C210328   3.444   1.278  13.711 -0.0013  0.4534 -0.3498
  695MPD2    C310329   3.381   1.347  13.613  0.1013 -0.5750 -0.6118
  695MPD2    C410330   3.404   1.315  13.483  0.1673  0.0059  0.6974
  695MPD2    C510331   3.485   1.208  13.444  0.2241  0.2696  0.2247
  695MPD2     H10332   3.428   1.304  13.815 -0.7220  2.7566 -1.0564
  695MPD2    H110333   3.354   1.365  13.401  2.5949  1.5348  0.1416
  695MPD2    H210334   3.637   1.075  13.519  0.4606  0.9941  1.0338
  695MPD2    H310335   3.494   1.177  13.341  0.2660 -0.0412  0.3219
  695MPD2     N10336   3.286   1.440  13.649  0.1031  0.4249 -1.0793
  695MPD2    H510337   3.272   1.458  13.748 -1.5879 -1.5671 -0.9510
  695MPD2    N110338   3.610   1.133  13.785 -0.3385  0.4025  0.3437
  695MPD2    H710339   3.592   1.179  13.873  0.9506  0.7260  0.4250
  696TMC3    C110340   3.111   1.597  13.628 -0.3905  0.5973  0.6620
  696TMC3    C210341   3.052   1.535  13.735 -0.8430  0.6173 -0.0281
  696TMC3    C310342   2.956   1.603  13.805 -0.5318  0.6075  0.5450
  696TMC3    C410343   3.083   1.720  13.580  0.1791  0.0264  0.3912
  696TMC3    C510344   2.981   1.786  13.653  0.1879 -0.3180 -0.4149
  696TMC3    C610345   2.916   1.724  13.760 -0.9220  0.4941  0.1686
  696TMC3     C10346   3.219   1.520  13.562 -0.1732  0.1336 -0.2550
  696TMC3     O10347   3.249   1.556  13.451 -0.0037 -0.0416  0.6953
  696TMC3     H10348   3.072   1.432  13.762  1.5916  0.5694 -1.9521
  696TMC3    H110349   3.156   1.767  13.515 -2.6913  3.9095 -0.0287
  696TMC3    H210350   2.822   1.763  13.799 -2.0409 -2.4407  0.4272
  696TMC3    C710351   2.936   1.923  13.619  0.0502  0.0473  0.5198
  696TMC3    C810352   2.871   1.524  13.886  0.9407 -0.4795  0.6604
  696TMC3    O110353   2.945   1.955  13.504  0.0426  0.1790  0.6101
  696TMC3    O210354   2.855   1.413  13.836  0.1772  0.1453 -0.4755
  697MPD2     C10355   2.431   2.935  15.565 -0.1297 -0.0684  0.0025
  697MPD2    C110356   2.524   2.885  15.472 -0.9908  0.2081  0.0764
  697MPD2    C210357   2.577   2.981  15.384  0.0040  0.0150 -0.1803
  697MPD2    C310358   2.534   3.119  15.389  0.5844  0.0469 -0.7518
  697MPD2    C410359   2.467   3.164  15.502 -0.8321  0.8797  0.5314
  697MPD2    C510360   2.426   3.071  15.593 -0.2579 -0.1895  0.0516
  697MPD2     H10361   2.646   2.954  15.305  1.7196  0.4949  1.1624
  697MPD2    H110362   2.447   3.268  15.523 -0.5518  1.3576 -1.5882
  697MPD2    H210363   2.372   2.869  15.627  0.9722 -1.2092 -0.1625
  697MPD2    H310364   2.373   3.097  15.684  0.4489  1.3517  0.0165
  697MPD2     N10365   2.584   3.222  15.306  0.7150 -0.5683  0.3515
  697MPD2    H510366   2.574   3.318  15.337 -0.9086  0.2107 -2.6075
  697MPD2    N110367   2.560   2.750  15.465  0.4260  0.7257  0.0357
  697MPD2    H710368   2.612   2.713  15.386 -0.6937  2.0185 -1.2914
  698TMC3    C110369   2.685   3.323  15.119  0.2457 -0.2719  0.3356
  698TMC3    C210370   2.750   3.410  15.208  0.2970 -0.0118  0.3680
  698TMC3    C310371   2.832   3.506  15.156  0.0526  0.7410  0.1136
  698TMC3    C410372   2.716   3.326  14.983 -0.2778 -0.2667  0.4075
  698TMC3    C510373   2.806   3.416  14.948  0.3203 -0.3861 -0.0964
  698TMC3    C610374   2.863   3.507  15.027 -0.0292  0.4432  0.0870
  698TMC3     C10375   2.630   3.200  15.176 -0.1501  0.0509 -0.0412
  698TMC3     O10376   2.629   3.099  15.106 -0.9703 -0.2216  0.3609
  698TMC3     H10377   2.730   3.411  15.315  0.0496 -1.5012  0.3438
  698TMC3    H110378   2.672   3.258  14.911 -3.7582  0.2510  2.0273
  698TMC3    H210379   2.937   3.575  14.987  1.8903 -1.5980  0.1785
  698TMC3    C710380   2.841   3.429  14.806 -0.4648 -0.0985 -0.3279
  698TMC3    C810381   2.898   3.592  15.251  0.1439  0.0856 -0.0821
  698TMC3    O110382   2.760   3.385  14.724 -0.3122  0.1620 -0.8140
  698TMC3    O210383   2.900   3.551  15.368  0.2142  1.1567  0.0357
  699TMC3    C110384   2.954   1.659  13.200  0.2970 -0.0241 -0.2148
  699TMC3    C210385   3.003   1.543  13.241 -0.4779  0.1420  0.0442
  699TMC3    C310386   2.923   1.462  13.311  0.1103 -0.2644 -0.2795
  699TMC3    C410387   2.820   1.687  13.218  0.3074 -0.9612  0.0241
  699TMC3    C510388   2.747   1.595  13.283  0.3806 -0.2458 -0.0926
  699TMC3    C610389   2.796   1.487  13.337  0.9136  0.2136 -0.4098
  699TMC3     C10390   3.020   1.739  13.101 -0.5236  0.0295 -0.3076
  699TMC3     O10391   2.958   1.833  13.054 -0.0539 -0.5979  0.6960
  699TMC3     H10392   3.109   1.518  13.240 -0.8898 -1.6962  2.3534
  699TMC3    H110393   2.775   1.778  13.178  0.8424 -1.1705 -1.0630
  699TMC3    H210394   2.736   1.406  13.376  0.6881  0.7222  0.2927
  699TMC3    C710395   2.598   1.604  13.304  0.4678 -0.5937  0.4972
  699TMC3    C810396   2.971   1.339  13.367 -0.0467  0.2518 -0.2807
  699TMC3    O110397   2.544   1.526  13.383 -0.1526  0.2829  0.0448
  699TMC3    O210398   2.910   1.301  13.464 -0.0287 -0.5004  0.9788
  700TMC3    C110399   1.862   3.490  16.627 -0.0603 -0.5994 -0.4784
  700TMC3    C210400   1.926   3.383  16.575 -0.6884 -0.2367  0.6826
  700TMC3    C310401   1.966   3.281  16.660  0.7065  0.5187  0.0877
  700TMC3    C410402   1.855   3.502  16.765 -0.7918  0.3446 -0.2118
  700TMC3    C510403   1.893   3.403  16.850  0.3743 -0.5572  0.4263
  700TMC3    C610404   1.954   3.292  16.794 -0.1036 -0.2852 -0.3164
  700TMC3     C10405   1.813   3.596  16.534  0.4162 -0.6874 -0.1592
  700TMC3     O10406   1.791   3.567  16.416  0.3780 -0.1150 -0.0502
  700TMC3     H10407   1.931   3.379  16.466 -0.5414  1.0960  0.6342
  700TMC3    H110408   1.807   3.588  16.812  0.0540 -0.0586  1.3656
  700TMC3    H210409   1.999   3.215  16.855  0.8085  1.6646  1.4733
  700TMC3    C710410   1.952   3.444  16.977 -0.4886  0.5380  1.0305
  700TMC3    C810411   2.073   3.202  16.610 -0.3709 -0.3486 -0.7328
  700TMC3    O110412   2.075   3.426  16.983  0.1640  0.9382 -0.1949
  700TMC3    O210413   2.149   3.255  16.527  0.3527 -0.1640 -0.2981
  701TMC3    C110414   2.105   1.814  15.383  0.3751  0.4889  1.0392
  701TMC3    C210415   2.137   1.779  15.255  0.0110 -0.1744  0.4850
  701TMC3    C310416   2.192   1.865  15.171 -1.1768 -0.0226  0.5625
  701TMC3    C410417   2.145   1.944  15.419  0.0936  0.5867 -0.5452
  701TMC3    C510418   2.214   2.028  15.335 -0.0509  0.5418 -0.6222
  701TMC3    C610419   2.233   1.990  15.204  0.0942  0.1211  0.9120
  701TMC3     C10420   1.968   1.790  15.429  0.5059  0.3113 -0.3905
  701TMC3     O10421   1.919   1.879  15.498 -0.0811 -0.7423 -0.0470
  701TMC3     H10422   2.107   1.683  15.213 -2.3577  1.1901 -0.9270
  701TMC3    H110423   2.120   1.976  15.519  0.8072  0.1452 -0.2258
  701TMC3    H210424   2.272   2.067  15.139 -0.2728 -0.4709 -0.0181
  701TMC3    C710425   2.210   2.171  15.356  0.7414  0.1381 -0.7873
  701TMC3    C810426   2.180   1.846  15.027 -0.0994  0.2710  0.4580
  701TMC3    O110427   2.269   2.241  15.273 -0.0687 -0.0394  0.5763
  701TMC3    O210428   2.190   1.739  14.974 -0.1168 -0.0374  0.1361
  702MPD2     C10429   1.732   4.500  10.697 -0.2969  0.1805  0.0644
  702MPD2    C110430   1.818   4.526  10.798 -0.3675 -0.4215 -0.9352
  702MPD2    C210431   1.903   4.631  10.785 -0.8836 -0.2340  0.0097
  702MPD2    C310432   1.892   4.722  10.681 -0.2490  0.1697  0.1128
  702MPD2    C410433   1.812   4.689  10.575  0.0501  0.6478 -0.2097
  702MPD2    C510434   1.717   4.590  10.595  0.6167  0.3856  0.7305
  702MPD2     H10435   1.985   4.640  10.856 -1.3521 -2.7855  0.8941
  702MPD2    H110436   1.809   0.005  10.481 -1.7674 -1.9764 -1.6975
  702MPD2    H210437   1.667   4.414  10.704 -0.1446 -0.0357 -1.1006
  702MPD2    H310438   1.637   4.567  10.526  0.5492 -0.3769  1.0519
  702MPD2     N10439   1.967   0.105  10.660  0.7048 -0.7187 -0.1445
  702MPD2    H510440   1.939   0.167  10.585  0.1784  1.1364  1.5880
  702MPD2    N110441   1.808   4.449  10.916  0.4721  0.5223  0.7177
  702MPD2    H710442   1.737   4.376  10.917  1.2619 -0.2418  0.6482
  703TMC3    C110443   2.088   0.289  10.745  0.2135  0.1326  0.3022
  703TMC3    C210444   2.052   0.382  10.846  0.1904 -0.3938 -0.6160
  703TMC3    C310445   2.046   0.516  10.814  0.1553 -0.0614 -0.1809
  703TMC3    C410446   2.132   0.331  10.627 -0.1660  0.7515 -0.1763
  703TMC3    C510447   2.120   0.466  10.598 -0.2384  0.5605 -0.8747
  703TMC3    C610448   2.072   0.557  10.686  0.0594 -0.0057 -0.5183
  703TMC3     C10449   2.043   0.151  10.763  0.5266  0.2670  0.3393
  703TMC3     O10450   2.059   0.114  10.879  0.6490  0.0059 -0.3955
  703TMC3     H10451   2.015   0.342  10.940  0.9078 -1.8143 -0.9405
  703TMC3    H110452   2.181   0.266  10.556 -0.0036  1.0912 -0.3760
  703TMC3    H210453   2.080   0.661  10.657 -0.6268 -0.3138 -1.7988
  703TMC3    C710454   2.174   0.524  10.476  0.3862 -0.6601  0.3584
  703TMC3    C810455   1.962   0.596  10.899  0.1901  0.0178 -0.7783
  703TMC3    O110456   2.255   0.605  10.502 -0.4521 -0.5551 -0.1097
  703TMC3    O210457   2.005   0.703  10.945 -0.0390  0.0404  0.4901
  704TMC3    C110458   4.092   2.920  11.732 -0.0539 -0.1028 -0.2476
  704TMC3    C210459   4.064   2.922  11.599 -0.5114 -0.4218  0.5314
  704TMC3    C310460   4.103   2.809  11.526  0.2085 -0.3247  0.3382
  704TMC3    C410461   4.166   2.819  11.793  0.3393  0.2824 -0.3195
  704TMC3    C510462   4.217   2.722  11.708 -0.4308  0.1239  0.0400
  704TMC3    C610463   4.179   2.708  11.578  0.0055  0.7812  0.4617
  704TMC3     C10464   4.028   3.013  11.824  0.6455 -0.5176 -0.1906
  704TMC3     O10465   4.004   2.974  11.938  0.0783  0.4345 -0.1257
  704TMC3     H10466   3.989   2.985  11.554 -1.0236 -2.6129 -1.7209
  704TMC3    H110467   4.199   2.830  11.896  0.8850 -1.4027 -0.3216
  704TMC3    H210468   4.224   2.633  11.514 -1.4326 -0.8559  1.3883
  704TMC3    C710469   4.294   2.617  11.774 -0.6099 -0.2149 -0.8179
  704TMC3    C810470   4.051   2.786  11.398  0.3210 -0.6703  0.4867
  704TMC3    O110471   4.274   2.509  11.720  0.4417 -0.3514  0.8702
  704TMC3    O210472   4.030   2.889  11.334 -0.0114  0.0356 -0.0312
  705MPD2     C10473   3.450   0.866  16.533 -0.6141  0.4225  0.4998
  705MPD2    C110474   3.465   0.984  16.470  0.0679  0.3812  0.0806
  705MPD2    C210475   3.373   1.085  16.493 -0.2602  0.2720  0.0115
  705MPD2    C310476   3.254   1.054  16.555 -0.8642 -0.8325 -0.5586
  705MPD2    C410477   3.236   0.933  16.615  0.4202 -0.3010  0.1562
  705MPD2    C510478   3.339   0.847  16.612 -0.5146 -0.4732 -0.3784
  705MPD2     H10479   3.396   1.177  16.441 -0.1449  1.1983  1.7055
  705MPD2    H110480   3.152   0.906  16.679 -1.9751  2.0381 -2.0043
  705MPD2    H210481   3.512   0.777  16.522 -0.2319  0.7844 -0.2594
  705MPD2    H310482   3.319   0.753  16.661  0.4010 -0.5492 -0.1529
  705MPD2     N10483   3.144   1.146  16.567  0.5204 -0.5812 -0.3453
  705MPD2    H510484   3.054   1.109  16.595 -0.5343  1.1530 -1.4798
  705MPD2    N110485   3.569   1.007  16.371 -0.2672 -0.1677 -0.0779
  705MPD2    H710486   3.573   1.100  16.330  0.6237  0.4278  1.3441
  706TMC3    C110487   3.823   0.895  15.990 -0.5751  0.3829 -0.5437
  706TMC3    C210488   3.833   1.025  15.947  0.5253  0.0642 -0.6790
  706TMC3    C310489   3.765   1.117  16.017  0.2810  0.2739  0.2488
  706TMC3    C410490   3.765   0.858  16.105  0.3871  0.1117 -0.1971
  706TMC3    C510491   3.714   0.960  16.188 -0.5469 -0.3998  0.7357
  706TMC3    C610492   3.706   1.090  16.139 -0.7589  0.1671  0.1352
  706TMC3     C10493   3.890   0.784  15.934  0.2927  0.2448  0.2695
  706TMC3     O10494   3.889   0.682  16.001  0.0205 -0.6866 -0.3859
  706TMC3     H10495   3.891   1.051  15.860  1.0609  1.6889  0.1693
  706TMC3    H110496   3.756   0.758  16.147 -0.5604 -0.2744 -1.2968
  706TMC3    H210497   3.672   1.171  16.202  0.5098  0.4787  0.4228
  706TMC3    C710498   3.638   0.911  16.307  0.4351 -0.1635  0.1294
  706TMC3    C810499   3.793   1.254  15.987 -0.4599 -0.1896 -0.6367
  706TMC3    O110500   3.647   0.793  16.333  0.5800 -0.1993 -0.5595
  706TMC3    O210501   3.814   1.275  15.869 -0.7113 -0.6900 -0.2971
  707TMC3    C110502   1.220   0.144   1.499  0.3044 -0.8995 -0.0699
  707TMC3    C210503   1.285   0.062   1.589  1.0518 -0.0135 -0.1140
  707TMC3    C310504   1.367   0.116   1.684 -0.1255  0.5511 -0.4203
  707TMC3    C410505   1.228   0.283   1.511 -0.0537 -0.2719  0.9321
  707TMC3    C510506   1.313   0.331   1.602 -0.5704  0.1008  0.4790
  707TMC3    C610507   1.381   0.253   1.688  0.1116 -0.1106  0.3253
  707TMC3     C10508   1.154   0.078   1.392 -0.0108  0.3662  0.3130
  707TMC3     O10509   1.177   4.697   1.388 -0.2943 -0.2729 -0.4617
  707TMC3     H10510   1.288   4.692   1.583 -2.6553 -0.0366 -1.2660
  707TMC3    H110511   1.186   0.350   1.437 -1.2829 -0.8752  1.0827
  707TMC3    H210512   1.468   0.295   1.739 -0.0943 -1.8803  2.1379
  707TMC3    C710513   1.336   0.474   1.604 -0.0363 -0.1809 -0.3887
  707TMC3    C810514   1.411   0.036   1.799  0.2836  0.3472  0.3736
  707TMC3    O110515   1.339   0.531   1.498 -0.8153 -0.5549 -0.4765
  707TMC3    O210516   1.438   0.099   1.899  0.1030  0.0990  0.3876
  708MPD2     C10517   2.042   3.903  14.797 -0.5552  0.7494  0.3137
  708MPD2    C110518   2.082   4.031  14.769 -0.8086 -0.2222 -0.0821
  708MPD2    C210519   2.085   4.130  14.862 -0.0586 -0.4760 -0.5240
  708MPD2    C310520   2.044   4.100  14.994  0.7756  1.0549 -0.2896
  708MPD2    C410521   2.005   3.968  15.022  0.0753 -0.6870 -0.4061
  708MPD2    C510522   2.019   3.867  14.927  0.1695 -0.4811  0.5046
  708MPD2     H10523   2.118   4.228  14.829 -2.0037  1.0168  1.9555
  708MPD2    H110524   1.969   3.939  15.120 -3.8039  0.4397 -1.4978
  708MPD2    H210525   2.051   3.827  14.720  2.8481  0.7326  0.7170
  708MPD2    H310526   2.008   3.761  14.949 -0.0107 -0.7396 -0.8381
  708MPD2     N10527   2.037   4.201  15.093  0.7376 -0.8020  0.4414
  708MPD2    H510528   2.042   4.156  15.184 -2.2515  1.0397  1.5208
  708MPD2    N110529   2.100   4.061  14.630 -0.0266 -0.7903 -0.2078
  708MPD2    H710530   2.065   3.981  14.578  0.4076 -0.2018 -1.3978
  709TMC3    C110531   2.106   4.196  14.448 -0.7842 -0.2720 -0.3267
  709TMC3    C210532   2.105   4.320  14.390 -0.2356 -1.0106 -0.1343
  709TMC3    C310533   2.017   4.357  14.293 -0.1637 -0.3690  0.4717
  709TMC3    C410534   2.016   4.101  14.384 -0.1943 -0.5154  0.1230
  709TMC3    C510535   1.932   4.145  14.278 -0.7378 -0.1538  0.2893
  709TMC3    C610536   1.928   4.272  14.227 -0.3021  0.1897  0.4627
  709TMC3     C10537   2.160   4.172  14.576  0.3236 -0.6753 -0.0745
  709TMC3     O10538   2.208   4.267  14.634  0.3721  0.0480 -0.8239
  709TMC3     H10539   2.151   4.393  14.456 -0.2403 -0.3290 -0.8838
  709TMC3    H110540   2.004   4.001  14.425 -0.0104 -0.3869  0.4904
  709TMC3    H210541   1.844   4.305  14.167 -0.4822  2.9452  2.2404
  709TMC3    C710542   1.821   4.066  14.223  0.7220  0.1858  0.1523
  709TMC3    C810543   2.053   4.479  14.228 -0.6809  0.6079  0.3304
  709TMC3    O110544   1.792   4.085  14.100 -0.4381  0.2743  0.0316
  709TMC3    O210545   2.108   4.558  14.302 -0.6249 -0.5036 -0.6402
  710TMC3    C110546   2.637   0.222   0.358 -0.3845  0.0240 -0.6702
  710TMC3    C210547   2.725   0.315   0.317  0.0272  0.1397 -0.9934
  710TMC3    C310548   2.845   0.270   0.287  0.4802  0.0828 -0.3376
  710TMC3    C410549   2.668   0.098   0.382 -0.1457 -0.4880  0.4558
  710TMC3    C510550   2.792   0.054   0.351 -0.4662 -0.0230 -0.3886
  710TMC3    C610551   2.887   0.140   0.306 -0.6693  0.6519  0.5204
  710TMC3     C10552   2.510   0.265   0.402 -0.5147 -1.0508 -0.2744
  710TMC3     O10553   2.428   0.173   0.415  0.6126 -0.1356 -0.1145
  710TMC3     H10554   2.696   0.418   0.297  1.4897  0.9908  1.2679
  710TMC3    H110555   2.589   0.032   0.418 -0.4623 -0.9308 -1.0498
  710TMC3    H210556   2.984   0.106   0.270 -0.6912  1.8641 -0.6941
  710TMC3    C710557   2.815   4.654   0.384 -0.1152 -0.0550 -0.0238
  710TMC3    C810558   2.931   0.359   0.207 -1.3801 -0.9966  0.4260
  710TMC3    O110559   2.731   4.621   0.470  0.5020 -0.4783 -0.5302
  710TMC3    O210560   3.008   0.297   0.126 -0.1955  0.1446 -0.0052
  711TMC3    C110561   2.594   2.092  14.855  0.3305 -0.1657 -0.1947
  711TMC3    C210562   2.599   2.074  14.991  0.2846  0.3657 -0.1092
  711TMC3    C310563   2.709   2.111  15.061 -0.6744  0.9715 -0.5174
  711TMC3    C410564   2.710   2.122  14.790  0.0387  0.2568  0.8273
  711TMC3    C510565   2.823   2.152  14.860  0.3416  0.7563 -0.1397
  711TMC3    C610566   2.813   2.171  14.994  0.0882 -0.5322 -0.3589
  711TMC3     C10567   2.504   1.992  14.800 -0.1213  0.0877 -0.9056
  711TMC3     O10568   2.448   2.021  14.693  0.0293  0.0626  0.4331
  711TMC3     H10569   2.512   2.043  15.048  0.8373 -1.2978 -0.1577
  711TMC3    H110570   2.712   2.121  14.681  0.1349 -1.7076  0.8409
  711TMC3    H210571   2.898   2.219  15.041  0.6144 -1.4445 -0.3813
  711TMC3    C710572   2.939   2.068  14.837  0.2811  0.5325 -0.1331
  711TMC3    C810573   2.752   1.989  15.117  0.3827  0.2395 -0.6704
  711TMC3    O110574   3.028   2.074  14.918  0.4537 -0.0600 -0.5593
  711TMC3    O210575   2.680   1.889  15.099  0.6390 -0.0170  0.1665
  712MPD2     C10576   4.200   2.899  12.926 -0.3348  0.6908 -0.3882
  712MPD2    C110577   4.131   2.894  13.045  0.3816  0.3907  0.1815
  712MPD2    C210578   4.145   3.007  13.132  0.0230 -0.7468 -0.0854
  712MPD2    C310579   4.234   3.108  13.107 -0.4446  0.3067 -0.5964
  712MPD2    C410580   4.298   3.112  12.990 -0.2305  0.4545 -0.2697
  712MPD2    C510581   4.279   3.013  12.900  0.1427 -0.7078  0.3295
  712MPD2     H10582   4.088   3.007  13.224 -0.0532  0.4619 -0.1432
  712MPD2    H110583   4.356   3.202  12.970  0.0417  1.0440  3.2098
  712MPD2    H210584   4.186   2.819  12.855 -1.6863  2.4001 -2.0643
  712MPD2    H310585   4.337   3.015  12.809 -1.0529  0.7993 -0.3932
  712MPD2     N10586   4.260   3.213  13.201 -0.5524  0.4772 -0.0955
  712MPD2    H510587   4.324   3.288  13.173  2.7742 -1.4092  2.5088
  712MPD2    N110588   4.048   2.792  13.093  0.2985 -0.5751  0.0581
  712MPD2    H710589   3.996   2.806  13.179  1.2507 -1.0270  0.7045
  713TMC3    C110590   4.278   3.307  13.422  0.2529 -0.1485  0.7393
  713TMC3    C210591   4.411   3.294  13.416  0.0705  0.7573 -0.8097
  713TMC3    C310592   4.478   3.339  13.523 -0.1251  0.0179 -0.0776
  713TMC3    C410593   4.208   3.350  13.533  0.5567  0.5510  0.0727
  713TMC3    C510594   4.285   3.401  13.629  0.2426 -0.0770  0.4074
  713TMC3    C610595   4.423   3.408  13.626 -0.0857  0.7349 -0.0268
  713TMC3     C10596   4.202   3.227  13.323 -0.8160 -0.6633 -0.7066
  713TMC3     O10597   4.088   3.192  13.355 -0.2358 -0.3971 -0.3971
  713TMC3     H10598   4.463   3.241  13.337 -0.9829  0.1360 -1.0807
  713TMC3    H110599   4.100   3.343  13.534  0.6604 -0.9939 -0.0254
  713TMC3    H210600   4.483   3.444  13.710 -0.9902  0.3758  0.7720
  713TMC3    C710601   4.222   3.473  13.740 -0.0123 -0.0067  0.2679
  713TMC3    C810602   4.613   3.376  13.487  0.6631 -0.0723 -0.1341
  713TMC3    O110603   4.284   3.504  13.842 -0.2372  0.7211 -0.1670
  713TMC3    O210604   4.636   3.427  13.377  0.5092 -0.2720  0.8308
  714MPD2     C10605   1.833   1.475   1.583  0.0635 -0.0151  0.1151
  714MPD2    C110606   1.803   1.426   1.459 -0.0972  0.3852 -0.6024
  714MPD2    C210607   1.714   1.491   1.380 -0.1610 -0.1206 -0.1476
  714MPD2    C310608   1.662   1.619   1.418 -0.0734 -0.0599 -0.4198
  714MPD2    C410609   1.687   1.666   1.545  0.1550  0.7023 -0.1823
  714MPD2    C510610   1.776   1.593   1.629 -0.1257 -0.6513  0.5441
  714MPD2     H10611   1.692   1.449   1.282  2.9672  0.1463 -0.9647
  714MPD2    H110612   1.651   1.763   1.575  0.0257  0.7811 -0.5958
  714MPD2    H210613   1.895   1.422   1.654 -0.0990 -0.5381 -0.1329
  714MPD2    H310614   1.800   1.632   1.727  0.5618 -1.2378  0.6103
  714MPD2     N10615   1.582   1.691   1.326 -0.8903 -0.4391 -0.2088
  714MPD2    H510616   1.562   1.650   1.235  1.8534 -1.3062 -0.4004
  714MPD2    N110617   1.868   1.303   1.436  0.0902  0.5270  0.3707
  714MPD2    H710618   1.936   1.269   1.503  1.0089  0.5677 -0.5413
  715TMC3    C110619   1.965   1.143   1.284 -0.3334 -0.4326  0.1140
  715TMC3    C210620   1.955   1.039   1.194  0.1978 -1.1735  0.7211
  715TMC3    C310621   2.061   0.953   1.171 -0.8263 -0.0543 -0.3079
  715TMC3    C410622   2.088   1.177   1.332  0.0628 -0.3664 -0.3980
  715TMC3    C510623   2.195   1.098   1.296  0.0480  0.2831  0.3428
  715TMC3    C610624   2.187   0.991   1.215  0.1782 -0.3660 -0.2066
  715TMC3     C10625   1.853   1.224   1.325 -0.4395  0.9956  0.2177
  715TMC3     O10626   1.757   1.218   1.246 -0.2024  0.1087 -0.1547
  715TMC3     H10627   1.854   1.014   1.164  0.0606  0.0262  0.1887
  715TMC3    H110628   2.098   1.272   1.385 -3.0852  1.0572 -2.3406
  715TMC3    H210629   2.284   0.944   1.210 -0.2753 -1.5465  2.4703
  715TMC3    C710630   2.324   1.137   1.349 -0.2135  0.3866 -0.3755
  715TMC3    C810631   2.053   0.815   1.131  0.5333  0.5930 -0.3943
  715TMC3    O110632   2.420   1.118   1.272 -0.0703 -0.1856 -0.0375
  715TMC3    O210633   1.947   0.765   1.103 -0.5441  0.1691  0.5659
  716MPD2     C10634   1.074   0.150  10.202  0.4712 -0.7422 -0.2997
  716MPD2    C110635   1.044   0.161  10.067  0.1184 -0.8585 -0.1634
  716MPD2    C210636   1.093   0.064   9.990 -0.3703 -0.1167  0.3721
  716MPD2    C310637   1.170   4.692  10.041  0.1893 -0.0873 -0.2720
  716MPD2    C410638   1.200   4.687  10.174 -0.4568 -0.1124 -0.7079
  716MPD2    C510639   1.158   0.050  10.249  0.3761 -1.3093 -0.3003
  716MPD2     H10640   1.074   0.058   9.884 -2.7587  2.9776  0.6357
  716MPD2    H110641   1.252   4.599  10.211  2.1591  1.9386  0.4880
  716MPD2    H210642   1.024   0.218  10.270  0.5415 -1.8501  0.8685
  716MPD2    H310643   1.178   0.041  10.355 -1.0539 -1.3023 -0.0362
  716MPD2     N10644   1.206   4.597   9.944  0.4095  0.0484 -0.9134
  716MPD2    H510645   1.167   4.603   9.851  1.5589 -2.3181 -1.5742
  716MPD2    N110646   0.973   0.274  10.028 -0.1362 -0.1013  0.6413
  716MPD2    H710647   0.939   0.335  10.101 -0.1326  0.7947 -0.1076
  717TMC3    C110648   1.283   4.392   9.840 -0.6855  0.3652  0.1761
  717TMC3    C210649   1.287   4.457   9.718 -0.2635 -0.2627  0.0807
  717TMC3    C310650   1.264   4.388   9.605  0.0761 -0.6653 -0.1274
  717TMC3    C410651   1.276   4.255   9.841  0.8657  0.4924 -0.2646
  717TMC3    C510652   1.261   4.189   9.722  0.6697 -0.0965  0.6447
  717TMC3    C610653   1.250   4.256   9.604 -0.3962 -0.6041 -0.4193
  717TMC3     C10654   1.268   4.471   9.967  0.2148 -0.6124 -0.1088
  717TMC3     O10655   1.305   4.426  10.076 -0.1441  0.1418  0.1933
  717TMC3     H10656   1.308   4.564   9.725  3.1652 -1.0069  1.1958
  717TMC3    H110657   1.295   4.197   9.931  1.2368  1.3692  0.2140
  717TMC3    H210658   1.259   4.211   9.506  1.2990 -3.4090  1.0328
  717TMC3    C710659   1.257   4.043   9.728 -0.0348 -0.6747 -0.1053
  717TMC3    C810660   1.283   4.451   9.476  0.1388 -1.0206  0.6346
  717TMC3    O110661   1.287   3.989   9.835  0.5768 -0.6295  0.2933
  717TMC3    O210662   1.202   4.445   9.386  0.4258 -0.4089  0.0770
  718MPD2     C10663   0.656   2.425  12.960 -0.2995 -0.4112  0.7496
  718MPD2    C110664   0.690   2.391  12.833 -0.2634 -0.3402 -0.1482
  718MPD2    C210665   0.607   2.313  12.757  0.1628  0.6890  0.3566
  718MPD2    C310666   0.486   2.281  12.805 -0.8430 -0.4709  0.0196
  718MPD2    C410667   0.460   2.300  12.943 -0.7966  0.1876 -0.6474
  718MPD2    C510668   0.539   2.380  13.019 -0.0875  0.1528  0.5787
  718MPD2     H10669   0.632   2.289  12.655 -0.6222  1.3827 -0.0014
  718MPD2    H110670   0.370   2.269  12.995  0.1134 -0.6477  0.4148
  718MPD2    H210671   0.720   2.485  13.023 -1.2966  1.6013 -0.1798
  718MPD2    H310672   0.518   2.401  13.123 -2.3222  2.0508 -0.2414
  718MPD2     N10673   0.398   2.233  12.709 -0.0940 -0.6569  0.2343
  718MPD2    H510674   0.439   2.222  12.617 -1.6357  2.9770 -0.8650
  718MPD2    N110675   0.794   2.460  12.764  0.3878 -0.3529 -0.2719
  718MPD2    H710676   0.789   2.446  12.663  0.0276 -2.8679  0.1165
  719TMC3    C110677   0.911   2.632  12.688 -0.0682  0.3772 -0.3541
  719TMC3    C210678   0.936   2.550  12.582  0.5378  0.0662 -0.6378
  719TMC3    C310679   0.922   2.596  12.454 -0.2425  1.1330  0.1218
  719TMC3    C410680   0.877   2.764  12.661 -0.1254 -0.8427 -0.0240
  719TMC3    C510681   0.890   2.809  12.534  0.1687  0.6265  0.3942
  719TMC3    C610682   0.911   2.726  12.432  0.1704 -0.3800  0.2992
  719TMC3     C10683   0.856   2.575  12.803 -0.4193 -0.3260 -0.1638
  719TMC3     O10684   0.842   2.635  12.905  0.0159 -0.2554 -0.1662
  719TMC3     H10685   0.978   2.452  12.602  1.4903  0.6929  0.3866
  719TMC3    H110686   0.852   2.835  12.740  0.5329 -1.3435  0.6435
  719TMC3    H210687   0.896   2.767  12.333 -0.9110 -1.8676 -0.1543
  719TMC3    C710688   0.886   2.954  12.506 -0.7648  0.6247  0.0300
  719TMC3    C810689   0.851   2.495  12.377  0.3571 -0.6265  0.3927
  719TMC3    O110690   0.947   2.971  12.401 -0.1926  0.0100  0.0275
  719TMC3    O210691   0.828   2.391  12.436  0.5743 -0.2951  0.6784
  720MPD2     C10692   4.065   4.682  13.751 -0.1537  0.6328  0.1391
  720MPD2    C110693   4.159   0.012  13.685  0.0468  0.1791  0.1670
  720MPD2    C210694   4.291   4.738  13.729 -0.2427 -0.2630  0.7782
  720MPD2    C310695   4.327   4.666  13.841  0.3080 -0.0692  0.0287
  720MPD2    C410696   4.229   4.595  13.909 -0.2981 -0.7015  0.2956
  720MPD2    C510697   4.096   4.602  13.861 -0.2780  0.2529 -0.4445
  720MPD2     H10698   4.368   0.059  13.680 -1.2107  2.3598  2.4230
  720MPD2    H110699   4.254   4.537  13.998  0.9984  0.8491  0.9531
  720MPD2    H210700   3.959   4.685  13.725  0.4579  1.2401 -2.3289
  720MPD2    H310701   4.018   4.557  13.920  1.1032  0.9841  1.9709
  720MPD2     N10702   4.461   4.683  13.885 -0.5604  0.0280 -0.4552
  720MPD2    H510703   4.516   0.013  13.835  2.6101 -0.5935  2.1556
  720MPD2    N110704   4.122   0.100  13.578 -0.5743  0.0396  0.5107
  720MPD2    H710705   4.202   0.138  13.529 -0.0166 -0.1611  1.2589
  721TMC3    C110706   4.644   4.688  14.040 -0.3581  1.1074 -0.0752
  721TMC3    C210707   4.638   0.014  14.156 -0.2200 -0.3351 -0.1111
  721TMC3    C310708   4.720   0.125  14.181  0.5371 -0.2289 -0.7893
  721TMC3    C410709   0.006   4.712  13.943 -0.3374 -0.5749  0.4111
  721TMC3    C510710   0.084   0.088  13.964  0.3402  0.5201  0.2195
  721TMC3    C610711   0.071   0.159  14.078 -0.0171 -0.5184  0.3931
  721TMC3     C10712   4.511   4.631  14.003 -0.8726 -0.9392 -0.1105
  721TMC3     O10713   4.470   4.558  14.089 -0.1079  0.1178 -0.1679
  721TMC3     H10714   4.547   0.003  14.214  1.3122  0.4545  2.4887
  721TMC3    H110715   0.005   4.664  13.846  4.3271  0.7549 -0.3055
  721TMC3    H210716   0.127   0.250  14.094  0.7689 -1.0495  0.7161
  721TMC3    C710717   0.190   0.126  13.875 -0.1929  0.3954 -0.0424
  721TMC3    C810718   4.652   0.234  14.230  0.7483 -0.2598 -0.0498
  721TMC3    O110719   0.218   0.246  13.869  0.1537  0.3206 -0.4929
  721TMC3    O210720   4.629   0.319  14.147  0.1679 -0.2585 -0.5405
  722MPD2     C10721   3.145   3.305  13.290  0.8438 -0.0073 -0.7155
  722MPD2    C110722   3.146   3.440  13.268 -0.2031  0.2518 -0.2584
  722MPD2    C210723   3.057   3.503  13.179  0.1308 -0.5393  0.1257
  722MPD2    C310724   2.955   3.428  13.120  0.0886  0.2851  0.0732
  722MPD2    C410725   2.952   3.289  13.146 -0.4521 -0.0897 -0.4647
  722MPD2    C510726   3.045   3.235  13.231 -0.3474  0.7476  1.0047
  722MPD2     H10727   3.066   3.609  13.162  0.9795 -0.3815  1.5202
  722MPD2    H110728   2.871   3.221  13.121 -0.1744 -0.2495 -0.9084
  722MPD2    H210729   3.220   3.262  13.355 -0.4665 -0.7928  0.2856
  722MPD2    H310730   3.038   3.129  13.252  0.6992  0.3302 -0.6715
  722MPD2     N10731   2.858   3.498  13.040  0.0464 -0.1856 -0.0915
  722MPD2    H510732   2.865   3.599  13.055  1.1971 -0.3080  0.2573
  722MPD2    N110733   3.238   3.528  13.333  0.6868  1.3291  0.5651
  722MPD2    H710734   3.237   3.623  13.297 -2.3802  0.7653 -0.8549
  723TMC3    C110735   2.661   3.547  12.930 -0.0473 -0.3568  0.9228
  723TMC3    C210736   2.533   3.509  12.925 -0.5573  0.4070 -0.0604
  723TMC3    C310737   2.436   3.604  12.904  0.2148  0.1382  0.6811
  723TMC3    C410738   2.703   3.671  12.892 -0.4941 -0.0654  0.0090
  723TMC3    C510739   2.607   3.764  12.863 -0.2904 -0.0694 -0.2275
  723TMC3    C610740   2.475   3.729  12.872  0.2650  1.0469  0.3548
  723TMC3     C10741   2.754   3.442  12.981 -0.5402 -0.4422  0.4961
  723TMC3     O10742   2.723   3.323  12.966 -0.5545 -0.4140 -0.3748
  723TMC3     H10743   2.499   3.410  12.953  2.5206 -0.7825 -0.5310
  723TMC3    H110744   2.808   3.699  12.898 -0.3196 -0.5800 -0.6205
  723TMC3    H210745   2.395   3.802  12.873 -0.7251 -0.0486  0.2197
  723TMC3    C710746   2.642   3.896  12.809 -0.5939  0.6398  0.2469
  723TMC3    C810747   2.292   3.577  12.913 -0.5974 -0.0922  0.3889
  723TMC3    O110748   2.753   3.945  12.826 -0.0355  0.4011 -0.7285
  723TMC3    O210749   2.219   3.675  12.912 -0.0880  0.7152 -0.4699
  724TMC3    C110750   3.145   1.940  10.107  0.5319 -0.2675  0.8987
  724TMC3    C210751   3.044   2.014  10.063 -0.0506  0.3930  0.0910
  724TMC3    C310752   3.064   2.100   9.958 -0.0403 -0.1522  0.1529
  724TMC3    C410753   3.275   1.975  10.077  0.7543 -0.4352 -0.1249
  724TMC3    C510754   3.293   2.064   9.973 -0.7810  0.0220 -0.3484
  724TMC3    C610755   3.190   2.117   9.903  0.2172  0.3465 -0.6885
  724TMC3     C10756   3.117   1.820  10.181 -0.7647  0.6965  0.2424
  724TMC3     O10757   3.013   1.757  10.156 -0.3140 -0.4744  0.0919
  724TMC3     H10758   2.941   1.994  10.091  0.8180  0.4575  3.3089
  724TMC3    H110759   3.357   1.925  10.127  0.3825  0.1955  1.0944
  724TMC3    H210760   3.199   2.166   9.807 -1.7979  0.2542 -0.9229
  724TMC3    C710761   3.427   2.110   9.941 -0.3833 -0.0040 -0.3605
  724TMC3    C810762   2.947   2.140   9.887 -0.3875  0.7917  0.2697
  724TMC3    O110763   3.511   2.037   9.987  0.3862 -0.5815  0.1240
  724TMC3    O210764   2.837   2.078   9.892  0.2978  0.4560 -0.3423
  725TMC3    C110765   0.298   0.246  12.755  0.1160 -0.0114  0.1701
  725TMC3    C210766   0.187   0.282  12.678 -0.4099  0.1253 -0.0150
  725TMC3    C310767   0.120   0.177  12.613  0.0741 -0.4320 -0.1457
  725TMC3    C410768   0.340   0.117  12.768 -0.1420  0.1341  0.9812
  725TMC3    C510769   0.263   0.013  12.709 -0.5684  0.1386 -1.5962
  725TMC3    C610770   0.152   0.047  12.626  0.1157  0.6329 -0.2734
  725TMC3     C10771   0.361   0.351  12.841  0.1635  0.2470  0.4719
  725TMC3     O10772   0.300   0.459  12.854 -0.2661  0.2881 -0.0843
  725TMC3     H10773   0.163   0.387  12.665 -0.9446 -0.1160 -0.9721
  725TMC3    H110774   0.430   0.084  12.818 -1.2596 -1.2798  2.0873
  725TMC3    H210775   0.103   4.704  12.575  0.6660  0.5055 -0.5902
  725TMC3    C710776   0.335   4.623  12.690  0.3911 -0.6296  0.6326
  725TMC3    C810777   4.737   0.214  12.531 -0.0671  0.3517 -0.1648
  725TMC3    O110778   0.458   4.628  12.697 -0.1460  0.1234 -0.2799
  725TMC3    O210779   4.635   0.138  12.533 -0.0433 -0.3072  0.2000
  726MPD2     C10780   2.686   2.309  10.600 -0.1318  0.3405 -0.3662
  726MPD2    C110781   2.623   2.340  10.480  0.1879  0.5796 -0.3050
  726MPD2    C210782   2.518   2.255  10.452 -0.5883  0.0397  0.5315
  726MPD2    C310783   2.476   2.148  10.525  0.3860 -0.2004 -0.1536
  726MPD2    C410784   2.544   2.116  10.641  0.6822  1.4147  0.3104
  726MPD2    C510785   2.646   2.204  10.682 -0.4625 -0.2522 -0.7314
  726MPD2     H10786   2.459   2.282  10.365  1.0716  0.1559 -0.5595
  726MPD2    H110787   2.519   2.028  10.698  2.1854  0.2247 -0.8649
  726MPD2    H210788   2.768   2.365  10.642  1.9734 -2.3206 -0.9119
  726MPD2    H310789   2.691   2.197  10.780  2.4546 -1.8847 -2.2117
  726MPD2     N10790   2.370   2.068  10.485 -0.5507  0.3060 -0.6536
  726MPD2    H510791   2.362   1.980  10.535  1.0591 -0.1350 -1.1796
  726MPD2    N110792   2.648   2.451  10.401  0.0715  0.3691 -0.1641
  726MPD2    H710793   2.582   2.462  10.324  0.4275 -0.9845 -0.6600
  727TMC3    C110794   2.722   2.650  10.326 -0.5287  0.0648  0.5066
  727TMC3    C210795   2.832   2.718  10.285 -0.1307 -0.3254 -0.6106
  727TMC3    C310796   2.810   2.847  10.238 -0.7156 -0.3153  0.0902
  727TMC3    C410797   2.593   2.698  10.325  0.4595 -0.1221  0.2200
  727TMC3    C510798   2.582   2.832  10.293  0.4984  0.5109 -0.7343
  727TMC3    C610799   2.684   2.912  10.241 -0.0735  0.2874 -0.3278
  727TMC3     C10800   2.745   2.543  10.417  0.2264 -0.3061 -0.8098
  727TMC3     O10801   2.856   2.542  10.474  0.4115 -0.9239  0.8684
  727TMC3     H10802   2.928   2.669  10.273 -0.6842 -1.3786 -0.7858
  727TMC3    H110803   2.510   2.646  10.372  1.3764 -0.4734  1.4640
  727TMC3    H210804   2.673   3.015  10.208  1.5048  0.2289 -1.0594
  727TMC3    C710805   2.453   2.888  10.302 -0.2560 -0.1971  0.7103
  727TMC3    C810806   2.936   2.917  10.228 -0.2514 -0.1166 -0.5145
  727TMC3    O110807   2.454   3.008  10.289  0.4458  0.4729  0.6766
  727TMC3    O210808   3.032   2.846  10.204  0.0043  0.1058 -0.4070
  728TMC3    C110809   2.000   0.738  15.364 -0.4914  0.6339 -0.5936
  728TMC3    C210810   2.121   0.796  15.333 -0.2452 -0.4231  0.2596
  728TMC3    C310811   2.129   0.859  15.211  0.2575 -0.4750 -0.0679
  728TMC3    C410812   1.895   0.747  15.278  0.3173 -0.3620  1.0082
  728TMC3    C510813   1.909   0.832  15.167  0.0589 -0.4436  0.6957
  728TMC3    C610814   2.024   0.895  15.133 -0.7483 -0.0785  0.3872
  728TMC3     C10815   1.982   0.673  15.488 -0.2863 -0.2687 -0.0474
  728TMC3     O10816   2.078   0.646  15.555 -0.1785 -0.3956 -0.5876
  728TMC3     H10817   2.204   0.800  15.403 -0.4701 -1.5042  0.5888
  728TMC3    H110818   1.796   0.704  15.285  1.6537 -3.4724  1.0670
  728TMC3    H210819   2.027   0.959  15.046  2.8110  1.3385  1.5218
  728TMC3    C710820   1.801   0.855  15.073  0.5148 -0.0651  0.2875
  728TMC3    C810821   2.250   0.931  15.190 -0.2234  0.2974  0.9139
  728TMC3    O110822   1.690   0.865  15.127  0.8449 -0.2348  0.6710
  728TMC3    O210823   2.228   1.039  15.140  0.3777 -0.0671 -0.9111
  729MPD2     C10824   3.846   2.042  16.368 -0.1719  1.0946 -0.8687
  729MPD2    C110825   3.948   2.006  16.451  0.1818  0.2471  0.6035
  729MPD2    C210826   3.935   1.976  16.584 -0.2638  0.4100 -0.5196
  729MPD2    C310827   3.814   1.982  16.641 -0.2212  0.2429  0.2605
  729MPD2    C410828   3.711   2.013  16.561 -0.7286  0.1854 -0.3631
  729MPD2    C510829   3.723   2.037  16.425  0.1372  0.1188  0.0248
  729MPD2     H10830   4.023   1.964  16.645 -0.0777 -2.5074 -1.3304
  729MPD2    H110831   3.612   2.029  16.601 -0.7065  1.2575 -0.7472
  729MPD2    H210832   3.860   2.060  16.262 -2.2411  2.5474 -0.8792
  729MPD2    H310833   3.636   2.048  16.362  0.0575  1.2065  0.3374
  729MPD2     N10834   3.788   1.963  16.773 -0.4783 -0.2042  0.3833
  729MPD2    H510835   3.706   1.995  16.823 -2.9667 -3.8240 -1.4399
  729MPD2    N110836   4.082   2.006  16.389 -1.0290  0.9035 -0.0264
  729MPD2    H710837   4.089   2.048  16.296  1.0112 -1.3398 -0.9064
  730TMC3    C110838   3.859   1.944  17.003  0.2884  0.3274 -0.5169
  730TMC3    C210839   3.957   1.889  17.093  0.0373 -0.4148  0.3839
  730TMC3    C310840   3.994   1.960  17.201 -0.7859  0.0353 -0.4664
  730TMC3    C410841   3.802   2.068  17.027  0.6201 -0.3068 -0.7192
  730TMC3    C510842   3.853   2.136  17.132 -0.3708 -0.5733 -0.3280
  730TMC3    C610843   3.934   2.078  17.228 -0.5322 -0.3139  0.1335
  730TMC3     C10844   3.879   1.904  16.863  0.3315  0.2594 -0.1827
  730TMC3     O10845   3.977   1.832  16.846 -0.5021 -0.2926  0.4157
  730TMC3     H10846   3.995   1.790  17.068 -0.6277 -0.9025  1.3091
  730TMC3    H110847   3.745   2.116  16.949 -0.8672  0.6754  0.9887
  730TMC3    H210848   3.957   2.131  17.319 -0.1306 -2.2114  1.1408
  730TMC3    C710849   3.853   2.275  17.118 -0.7243 -0.0032  1.0189
  730TMC3    C810850   4.137   1.969  17.207  0.4125 -0.4517  0.3012
  730TMC3    O110851   3.876   2.313  17.002  0.2582  0.0814  0.1698
  730TMC3    O210852   4.200   1.890  17.140 -0.5096 -0.2634  0.1537
  731MPD2     C10853   4.544   4.289  12.545 -0.0568 -0.4458 -0.0432
  731MPD2    C110854   4.541   4.198  12.445  1.1040 -0.2654  0.4311
  731MPD2    C210855   4.458   4.085  12.448  0.1019 -0.0514 -0.2408
  731MPD2    C310856   4.390   4.067  12.563  0.1545 -0.6433 -0.7819
  731MPD2    C410857   4.384   4.164  12.664 -0.0506 -0.3119  1.1536
  731MPD2    C510858   4.468   4.268  12.654  0.8134  0.2387  0.1102
  731MPD2     H10859   4.445   4.013  12.369  0.6608 -0.3799 -0.0290
  731MPD2    H110860   4.321   4.150  12.750 -1.7164  0.7126  0.1121
  731MPD2    H210861   4.616   4.369  12.544  1.0440 -1.4151  1.8933
  731MPD2    H310862   4.466   4.341  12.734  2.2034  0.2402  0.1335
  731MPD2     N10863   4.309   3.955  12.576  0.1725 -0.0254 -0.9958
  731MPD2    H510864   4.309   3.883  12.504  0.5884  1.0578 -2.0878
  731MPD2    N110865   4.622   4.235  12.333  0.0241 -0.5227  0.7582
  731MPD2    H710866   4.654   4.331  12.334  1.5355 -1.0391  1.4869
  732TMC3    C110867   0.004   4.224  12.134  0.2513  0.0588  0.3901
  732TMC3    C210868   4.688   4.249  12.009 -0.2256 -0.5301 -0.3975
  732TMC3    C310869   0.007   4.347  11.937 -0.5686  0.2127  0.4700
  732TMC3    C410870   0.113   4.299  12.178 -0.5488  0.2146  0.2277
  732TMC3    C510871   0.169   4.391  12.094  0.0501 -0.1254 -0.3395
  732TMC3    C610872   0.115   4.422  11.975 -0.6834  0.1857 -0.3769
  732TMC3     C10873   4.655   4.158  12.229 -0.3703  0.7236  0.3642
  732TMC3     O10874   4.626   4.040  12.210 -0.6699  0.0625 -0.3827
  732TMC3     H10875   4.608   4.183  11.978 -1.8244  0.7212  1.0672
  732TMC3    H110876   0.138   4.302  12.284 -1.0930 -1.5486  0.3981
  732TMC3    H210877   0.141   4.512  11.921  2.1134  0.2464  1.0664
  732TMC3    C710878   0.248   4.491  12.164  0.7853  0.1765 -0.3672
  732TMC3    C810879   4.667   4.394  11.823  0.1352  0.1061  0.2055
  732TMC3    O110880   0.226   4.608  12.149  0.3275  0.0081  0.2461
  732TMC3    O210881   4.722   4.420  11.721  0.6275 -0.2425 -0.2329
  733TMC3    C110882   0.016   2.087  12.488  0.2362  0.4998 -0.1219
  733TMC3    C210883   0.079   2.096  12.612  0.3157 -0.7194  0.5434
  733TMC3    C310884   0.185   2.185  12.620  0.3616 -0.4577 -0.6327
  733TMC3    C410885   0.062   2.141  12.373  0.2908 -0.5476 -0.3078
  733TMC3    C510886   0.174   2.210  12.388 -0.2339 -0.1965  0.2268
  733TMC3    C610887   0.238   2.234  12.507  0.1903 -0.8226 -0.0870
  733TMC3     C10888   4.634   2.015  12.492  0.3462 -0.0882 -0.1988
  733TMC3     O10889   4.608   1.951  12.591 -0.1934 -0.1104 -0.2966
  733TMC3     H10890   0.046   2.055  12.706 -3.2501  2.8446  0.8630
  733TMC3    H110891   0.018   2.125  12.276 -1.6038  2.0565  0.1163
  733TMC3    H210892   0.295   2.326  12.513  2.3014 -1.9076 -3.5683
  733TMC3    C710893   0.237   2.249  12.261  0.6250 -0.0392 -0.0758
  733TMC3    C810894   0.263   2.213  12.740 -0.3233 -0.1412 -0.9929
  733TMC3    O110895   0.178   2.249  12.154  0.5466  0.2109 -0.1075
  733TMC3    O210896   0.211   2.187  12.846 -0.0681 -0.1289  0.2627
  734MPD2     C10897   2.452   0.283  12.215  0.8845 -0.5482 -0.3349
  734MPD2    C110898   2.387   0.218  12.117  0.8007 -0.3159  0.2962
  734MPD2    C210899   2.395   0.278  11.987 -0.1659  0.2775  0.0402
  734MPD2    C310900   2.473   0.391  11.960  0.0717 -0.3201  0.7081
  734MPD2    C410901   2.524   0.461  12.066 -0.2989 -0.0598 -0.0136
  734MPD2    C510902   2.525   0.394  12.187  0.3894  0.4396  0.5285
  734MPD2     H10903   2.346   0.238  11.899  0.2340  0.6346 -0.3445
  734MPD2    H110904   2.591   0.545  12.052 -0.5993  0.5837  2.3186
  734MPD2    H210905   2.460   0.236  12.312 -1.5441  0.5833  0.4075
  734MPD2    H310906   2.587   0.432  12.267  1.8134  0.3634 -0.5494
  734MPD2     N10907   2.485   0.426  11.826 -0.8990  0.3941 -0.1615
  734MPD2    H510908   2.429   0.362  11.771  1.9760 -2.4731  0.2295
  734MPD2    N110909   2.320   0.094  12.143 -0.1262 -0.0870  0.0908
  734MPD2    H710910   2.339   0.042  12.228 -2.8930 -0.4975  0.4596
  735TMC3    C110911   2.235   4.621  12.090 -0.6637 -0.5774 -0.3023
  735TMC3    C210912   2.174   4.557  11.981 -0.1830  0.0335  0.4467
  735TMC3    C310913   2.238   4.466  11.906  0.5233  0.4484  0.4665
  735TMC3    C410914   2.354   4.572  12.132  0.4128  0.7119 -0.1448
  735TMC3    C510915   2.410   4.474  12.054 -0.3819 -0.1918  0.6286
  735TMC3    C610916   2.361   4.415  11.939  0.2786  0.0093 -0.0206
  735TMC3     C10917   2.243   0.025  12.052  0.7671 -0.4060 -0.4236
  735TMC3     O10918   2.184   0.057  11.948  0.2884 -0.8039 -0.4374
  735TMC3     H10919   2.075   4.587  11.949 -0.5135  0.3844  1.8065
  735TMC3    H110920   2.412   4.611  12.215 -1.1680  0.2189  1.1833
  735TMC3    H210921   2.425   4.367  11.865  0.4185  1.2100 -0.6676
  735TMC3    C710922   2.549   4.493  12.048 -0.0935 -0.2585  0.4411
  735TMC3    C810923   2.206   4.452  11.763 -0.1133  0.1180  0.1132
  735TMC3    O110924   2.601   4.605  12.040 -0.1749 -0.2329  0.1049
  735TMC3    O210925   2.240   4.353  11.702  0.1364  0.4100  0.0475
  736MPD2     C10926   2.806   4.238  12.088  0.5466 -0.6635  0.7662
  736MPD2    C110927   2.755   4.354  12.033  0.4749  0.0762  0.1013
  736MPD2    C210928   2.842   4.449  11.985  0.3497 -0.2652  0.2349
  736MPD2    C310929   2.977   4.426  11.981 -0.1945  0.1167  0.5446
  736MPD2    C410930   3.023   4.314  12.046  0.4686  0.4766 -0.1533
  736MPD2    C510931   2.941   4.220  12.100 -0.9720  0.4177  0.5688
  736MPD2     H10932   2.808   4.548  11.956  1.9840  0.4826  0.8860
  736MPD2    H110933   3.130   4.295  12.053  0.5020 -0.1608 -2.3548
  736MPD2    H210934   2.739   4.159  12.120 -0.1298 -0.1095  0.7266
  736MPD2    H310935   2.982   4.128  12.140 -0.7085 -0.7349 -2.3684
  736MPD2     N10936   3.071   4.522  11.932 -0.0045  0.0863  0.4937
  736MPD2    H510937   3.168   4.495  11.933  0.5294  2.0128  1.7053
  736MPD2    N110938   2.615   4.377  12.054 -0.1289  0.0274 -0.1450
  736MPD2    H710939   2.561   4.301  12.096 -0.8539  0.9439  0.5708
  737TMC3    C110940   3.160   4.707  11.822 -0.3357  0.2824 -0.1387
  737TMC3    C210941   3.160   0.108  11.821  0.2371  0.1123  0.2308
  737TMC3    C310942   3.240   0.161  11.724 -0.4321 -0.3422 -0.0460
  737TMC3    C410943   3.232   4.628  11.732 -0.0759 -0.4602 -0.2059
  737TMC3    C510944   3.305   4.693  11.638  0.1296 -0.2716 -0.1443
  737TMC3    C610945   3.312   0.091  11.636 -0.6769 -0.2645 -0.1916
  737TMC3     C10946   3.041   4.651  11.887  0.2971  0.7208  0.1626
  737TMC3     O10947   2.949   4.727  11.885  0.5060  0.2968 -0.4729
  737TMC3     H10948   3.094   0.174  11.875  0.0201  0.1447 -0.0727
  737TMC3    H110949   3.230   4.519  11.738  2.6386 -0.4258  1.2650
  737TMC3    H210950   3.380   0.136  11.565 -3.8389  1.5552 -2.0334
  737TMC3    C710951   3.354   4.602  11.537 -0.4515 -0.1221  0.3945
  737TMC3    C810952   3.246   0.311  11.723  0.9131 -0.5741  0.3603
  737TMC3    O110953   3.368   4.487  11.560  0.1451  0.0720 -0.2418
  737TMC3    O210954   3.221   0.374  11.824 -0.4333  0.8469 -0.2335
  738MPD2     C10955   3.069   3.807  15.370 -0.7413 -0.3617  0.0518
  738MPD2    C110956   3.019   3.806  15.246  0.3287 -0.0625 -0.6629
  738MPD2    C210957   3.042   3.917  15.166  0.3983  0.8026  0.3203
  738MPD2    C310958   3.122   4.021  15.208  0.0574 -0.2640  0.2131
  738MPD2    C410959   3.174   4.021  15.341  0.2069 -0.0299  0.1721
  738MPD2    C510960   3.153   3.910  15.414 -0.3789 -0.3341 -0.4242
  738MPD2     H10961   2.991   3.914  15.071  2.2653 -0.3319 -0.6418
  738MPD2    H110962   3.231   4.103  15.384  0.8353 -0.0028 -0.7254
  738MPD2    H210963   3.031   3.733  15.440 -1.9286 -0.7858 -1.0390
  738MPD2    H310964   3.193   3.911  15.515  0.8914  0.6818 -0.9289
  738MPD2     N10965   3.162   4.127  15.124  0.3279 -0.0560  0.3071
  738MPD2    H510966   3.222   4.198  15.164  0.7853  0.0475 -0.5634
  738MPD2    N110967   2.948   3.702  15.190 -0.1533  0.6529  0.7007
  738MPD2    H710968   2.929   3.705  15.090  0.7578  0.3784  0.5203
  739TMC3    C110969   3.181   4.262  14.933  0.1894  0.0665  0.0487
  739TMC3    C210970   3.222   4.264  14.801  0.1868  0.1079  0.6044
  739TMC3    C310971   3.250   4.382  14.743 -0.4228 -0.5909 -0.5654
  739TMC3    C410972   3.174   4.380  15.005  0.2707  0.2656 -1.0196
  739TMC3    C510973   3.227   4.494  14.952  0.0072  0.3476  0.3515
  739TMC3    C610974   3.250   4.506  14.814  0.3934 -0.1347 -0.4366
  739TMC3     C10975   3.132   4.136  14.989  0.3673  0.1771  0.2012
  739TMC3     O10976   3.102   4.048  14.909  0.1417 -0.0961 -0.2928
  739TMC3     H10977   3.239   4.168  14.754  0.5513 -0.0754  1.1031
  739TMC3    H110978   3.144   4.374  15.109 -0.8691  2.1749 -1.2356
  739TMC3    H210979   3.279   4.601  14.771 -1.1583  0.3618 -0.3959
  739TMC3    C710980   3.220   4.617  15.036  0.2003  0.4765  0.2074
  739TMC3    C810981   3.275   4.378  14.598 -0.4713 -0.3275 -0.1201
  739TMC3    O110982   3.137   4.615  15.123  0.0099  0.0002 -0.0662
  739TMC3    O210983   3.268   4.277  14.533 -0.3977  0.0275  0.3693
  740TMC3    C110984   3.957   0.537  14.292  0.6429 -0.4475 -0.1550
  740TMC3    C210985   3.998   0.451  14.389  0.1482 -0.3261  0.1053
  740TMC3    C310986   4.095   0.361  14.374  0.3227 -0.4175 -0.2218
  740TMC3    C410987   4.025   0.537  14.172 -0.2418 -0.0368  0.1976
  740TMC3    C510988   4.122   0.439  14.157  0.8124 -0.3441 -0.1427
  740TMC3    C610989   4.162   0.354  14.257 -0.2721 -0.3621 -0.4925
  740TMC3     C10990   3.851   0.631  14.301 -0.3850 -0.1817  0.2689
  740TMC3     O10991   3.824   0.705  14.204  0.4163  0.1258  0.1112
  740TMC3     H10992   3.941   0.446  14.480 -0.2310  0.5850 -0.0797
  740TMC3    H110993   4.012   0.616  14.100 -2.0038 -0.1830  0.3501
  740TMC3    H210994   4.253   0.296  14.246  0.5585  0.5961  1.2058
  740TMC3    C710995   4.183   0.406  14.030  0.0288 -0.0558 -0.3381
  740TMC3    C810996   4.129   0.275  14.483 -0.1033  0.2701  0.5332
  740TMC3    O110997   4.250   0.300  14.028 -0.6653 -0.1884 -0.1882
  740TMC3    O210998   4.085   0.298  14.594  0.1080 -0.0514  0.4597
  741TMC3    C110999   3.671   4.665  13.495 -0.1138  0.0527  0.3221
  741TMC3    C211000   3.560   4.704  13.567  0.2699 -0.0356  0.1435
  741TMC3    C311001   3.549   4.661  13.700 -0.1226  0.0992 -0.4174
  741TMC3    C411002   3.751   4.565  13.540 -0.2111  0.2973  0.7578
  741TMC3    C511003   3.730   4.525  13.665 -0.4380 -0.9804  0.3986
  741TMC3    C611004   3.634   4.568  13.748 -0.0574 -0.1727  0.7262
  741TMC3     C11005   3.699   4.703  13.355  0.4438  0.7315 -0.7859
  741TMC3     O11006   3.791   4.650  13.293  0.0244  0.7856  0.6227
  741TMC3     H11007   3.490   0.044  13.539  1.3254  0.5687 -0.8089
  741TMC3    H111008   3.830   4.529  13.475 -0.8075  0.2992  0.0284
  741TMC3    H211009   3.607   4.528  13.846  0.9058  0.3007  1.1876
  741TMC3    C711010   3.783   4.400  13.703  0.2334  0.6860  0.1066
  741TMC3    C811011   3.433   4.699  13.771  0.5836  0.8780  0.3700
  741TMC3    O111012   3.802   4.379  13.822  0.3202 -0.6601 -0.5726
  741TMC3    O211013   3.382   4.615  13.843  0.0506 -1.5802  0.1667
  742TMC3    C111014   3.932   3.202  15.561 -0.0394  0.3077 -0.6292
  742TMC3    C211015   3.825   3.169  15.485 -0.8125  0.2691  0.4550
  742TMC3    C311016   3.845   3.066  15.396 -0.6288 -0.1680 -0.3699
  742TMC3    C411017   4.045   3.126  15.561  0.2689  0.0526  0.0662
  742TMC3    C511018   4.060   3.017  15.474  0.7006  0.3211 -0.5924
  742TMC3    C611019   3.958   2.983  15.391  0.4992 -0.6267 -0.3016
  742TMC3     C11020   3.902   3.249  15.698  0.0924  0.3947  0.1733
  742TMC3     O11021   3.986   3.234  15.785 -0.2495  0.1432 -0.2291
  742TMC3     H11022   3.769   3.258  15.459 -3.3413 -0.5167  3.1940
  742TMC3    H111023   4.136   3.168  15.603  0.4297 -1.5963  1.3519
  742TMC3    H211024   3.983   2.920  15.306  1.8307 -0.3421 -0.1154
  742TMC3    C711025   4.162   2.917  15.500 -0.3014 -0.4291  0.3338
  742TMC3    C811026   3.738   3.027  15.304  1.0984 -0.1307  0.0444
  742TMC3    O111027   4.172   2.817  15.434  0.0487  0.2620 -0.8092
  742TMC3    O211028   3.773   2.942  15.222  0.5237 -0.0506 -0.6636
  743MPD2     C11029   2.179   4.009   1.934  0.1492  0.3394 -0.5330
  743MPD2    C111030   2.129   3.938   1.823  0.4408  0.5594  0.5750
  743MPD2    C211031   2.233   3.886   1.743 -0.7545  0.0266  0.5329
  743MPD2    C311032   2.366   3.908   1.765 -0.4662  0.1981  0.1775
  743MPD2    C411033   2.406   3.982   1.872  0.2089  0.0171 -0.3862
  743MPD2    C511034   2.313   4.025   1.957  0.0961  0.1416  0.4796
  743MPD2     H11035   2.201   3.819   1.664  0.2030 -0.9021  0.9463
  743MPD2    H111036   2.508   4.009   1.893 -0.5314  1.7191  1.0189
  743MPD2    H211037   2.117   4.060   2.007  0.3502  0.4956 -0.4734
  743MPD2    H311038   2.348   4.068   2.050  0.5297 -1.0858  0.8738
  743MPD2     N11039   2.456   3.861   1.664  0.1051  1.0313  0.5461
  743MPD2    H511040   2.413   3.817   1.583 -0.1625 -1.0420  1.7906
  743MPD2    N111041   1.994   3.924   1.805  0.2552  0.2910 -0.2525
  743MPD2    H711042   1.935   3.957   1.880 -2.2864 -0.8634 -1.7171
  744TMC3    C111043   1.786   3.864   1.683  0.1839 -0.4577 -0.0963
  744TMC3    C211044   1.727   3.984   1.727 -1.3367 -0.6960 -0.6509
  744TMC3    C311045   1.618   4.030   1.652 -0.0856  1.0633  0.1567
  744TMC3    C411046   1.736   3.790   1.581 -0.0678  0.2586  0.0206
  744TMC3    C511047   1.630   3.839   1.512  0.0512 -0.1006 -0.3726
  744TMC3    C611048   1.573   3.960   1.543 -0.0787  0.3927  0.5761
  744TMC3     C11049   1.932   3.849   1.704 -0.5525 -0.8995 -0.8183
  744TMC3     O11050   1.985   3.782   1.615 -0.0443  0.3644 -0.2066
  744TMC3     H11051   1.784   4.059   1.779 -0.4149 -2.4966  0.9622
  744TMC3    H111052   1.786   3.699   1.552 -0.2657  0.0281  0.4070
  744TMC3    H211053   1.494   3.987   1.473  0.3166 -0.7090 -0.2913
  744TMC3    C711054   1.635   3.824   1.375  0.0487  0.7848 -1.1646
  744TMC3    C811055   1.578   4.165   1.665 -0.6915  0.1562  0.4951
  744TMC3    O111056   1.601   3.911   1.301 -0.2614  0.1644 -0.5264
  744TMC3    O211057   1.539   4.224   1.564  0.2572  0.1774  0.1939
  745TMC3    C111058   3.933   2.580  13.093 -0.1740  0.0436  0.3074
  745TMC3    C211059   3.903   2.601  13.222  0.0969 -0.7471  0.5335
  745TMC3    C311060   3.813   2.512  13.280  0.0971  0.5301  0.1770
  745TMC3    C411061   3.907   2.456  13.031 -0.3961  0.1536 -0.5668
  745TMC3    C511062   3.814   2.369  13.088  0.0569 -0.1095  0.1636
  745TMC3    C611063   3.762   2.399  13.215  0.1660  0.1123 -0.2966
  745TMC3     C11064   4.018   2.677  13.029 -0.2474  0.2397 -0.4068
  745TMC3     O11065   4.065   2.638  12.923 -0.2768 -0.0055 -0.7064
  745TMC3     H11066   3.935   2.689  13.277 -0.8622 -0.2762  0.3354
  745TMC3    H111067   3.952   2.447  12.933 -0.3045  2.7372 -0.7591
  745TMC3    H211068   3.707   2.320  13.264 -1.3054  1.6200  0.4894
  745TMC3    C711069   3.722   2.293  13.007  0.6446 -0.5183  0.0363
  745TMC3    C811070   3.769   2.522  13.421  1.1587 -0.0519 -0.5695
  745TMC3    O111071   3.628   2.236  13.063  0.0646 -0.0512 -0.4368
  745TMC3    O211072   3.675   2.445  13.458  0.0601 -0.0363 -0.0301
  746TMC3    C111073   1.745   4.576  11.340 -0.1559  0.1660 -0.5293
  746TMC3    C211074   1.832   4.513  11.257  0.2115  0.7706 -0.5935
  746TMC3    C311075   1.778   4.440  11.152  0.3282 -0.1138  0.8812
  746TMC3    C411076   1.614   4.574  11.317  0.1453  0.2859  0.3442
  746TMC3    C511077   1.563   4.503  11.211 -0.1193 -0.3426  0.3710
  746TMC3    C611078   1.648   4.438  11.123 -0.2427 -1.0636  0.5316
  746TMC3     C11079   1.781   4.694  11.404 -0.4092  0.1412 -0.0319
  746TMC3     O11080   1.716   4.718  11.509 -0.4636  0.5187  0.8257
  746TMC3     H11081   1.939   4.517  11.276  0.1780  2.7275 -0.7520
  746TMC3    H111082   1.550   4.646  11.367  1.2328  0.6511  1.2010
  746TMC3    H211083   1.608   4.370  11.048  0.3659  2.7663 -3.2304
  746TMC3    C711084   1.445   4.544  11.140  0.3808 -0.0638 -0.0400
  746TMC3    C811085   1.867   4.470  11.041  0.2464 -0.3681 -0.0248
  746TMC3    O111086   1.450   4.540  11.018 -0.0574 -0.5135 -0.1275
  746TMC3    O211087   1.958   4.548  11.067 -0.5037 -0.5128  0.3402
  747TMC3    C111088   3.734   0.126  10.537 -0.7881  0.8951 -0.3433
  747TMC3    C211089   3.662   0.042  10.627 -0.7993  0.6977  0.3406
  747TMC3    C311090   3.649   0.071  10.762  0.8344  0.4156  0.3168
  747TMC3    C411091   3.812   0.223  10.593  0.1024  0.2811  0.0154
  747TMC3    C511092   3.792   0.260  10.721  0.2605  0.1047  0.2267
  747TMC3    C611093   3.715   0.183  10.814  1.0917  0.4225  0.0888
  747TMC3     C11094   3.724   0.120  10.391  0.2242 -0.3792 -0.1310
  747TMC3     O11095   3.771   0.211  10.327  0.4823 -0.0151  0.0450
  747TMC3     H11096   3.599   4.703  10.586 -0.6545  0.5741  0.3519
  747TMC3    H111097   3.889   0.269  10.533 -0.0037 -1.4577 -1.4644
  747TMC3    H211098   3.710   0.217  10.917  2.1462 -2.1164  1.0081
  747TMC3    C711099   3.901   0.340  10.779  0.5905 -0.5775 -0.9419
  747TMC3    C811100   3.601   4.697  10.847 -0.2825  0.8127  0.6826
  747TMC3    O111101   3.926   0.324  10.896  0.0278 -0.6395 -0.1727
  747TMC3    O211102   3.601   4.592  10.788 -0.0310 -0.4794  0.5110
  748MPD2     C11103   1.098   1.123   1.562 -0.2826 -0.1318 -0.2732
  748MPD2    C111104   1.072   0.996   1.519  0.2757  0.2913  0.5925
  748MPD2    C211105   1.075   0.975   1.379 -0.3118  0.4206  0.0392
  748MPD2    C311106   1.109   1.072   1.289  0.2984 -1.4330 -0.0285
  748MPD2    C411107   1.135   1.199   1.342 -0.1538 -0.0588  0.3485
  748MPD2    C511108   1.131   1.224   1.477  1.0935 -0.5899 -0.8839
  748MPD2     H11109   1.038   0.879   1.344  0.1986 -0.6067  2.2812
  748MPD2    H111110   1.152   1.284   1.277 -1.2512  2.1239  2.9153
  748MPD2    H211111   1.105   1.145   1.668  1.6508 -0.2266 -0.3759
  748MPD2    H311112   1.171   1.318   1.511 -1.1866 -0.1256  0.4977
  748MPD2     N11113   1.112   1.042   1.156 -0.7039  0.3638  0.2628
  748MPD2    H511114   1.078   0.952   1.123 -0.4618 -0.0153  1.0284
  748MPD2    N111115   1.044   0.896   1.620  0.0519  0.2451 -0.4797
  748MPD2    H711116   1.039   0.926   1.716 -1.3103  1.0922 -0.8199
  749TMC3    C111117   1.177   1.085   0.925  0.3265 -0.2499 -0.0868
  749TMC3    C211118   1.071   1.019   0.878  0.7004  0.2167  0.0202
  749TMC3    C311119   1.032   1.040   0.747  0.6726 -0.0864 -0.0572
  749TMC3    C411120   1.251   1.157   0.839 -0.3583  0.4570 -0.5718
  749TMC3    C511121   1.210   1.187   0.712  0.4534 -0.0389 -0.3223
  749TMC3    C611122   1.095   1.131   0.664 -0.2673 -0.2140  0.2908
  749TMC3     C11123   1.184   1.123   1.063  0.1290  0.7800 -0.2461
  749TMC3     O11124   1.271   1.202   1.088  0.1835  0.2870  0.7785
  749TMC3     H11125   1.016   0.960   0.950 -1.5222  2.1371 -0.1057
  749TMC3    H111126   1.342   1.203   0.876 -0.4989 -0.4851  0.9872
  749TMC3    H211127   1.069   1.138   0.559 -1.2420  1.7062  0.6681
  749TMC3    C711128   1.269   1.302   0.653  0.1533 -0.2941  0.3276
  749TMC3    C811129   0.960   0.934   0.681 -0.6515 -0.2431 -0.3218
  749TMC3    O111130   1.369   1.336   0.707 -0.0855 -0.9139 -0.2882
  749TMC3    O211131   0.928   0.956   0.565 -0.4456  0.4614  0.4325
  750MPD2     C11132   1.574   1.690  10.974 -0.1394  0.5026 -0.2337
  750MPD2    C111133   1.451   1.651  11.022 -1.1893  0.5515  0.1056
  750MPD2    C211134   1.377   1.556  10.962 -0.2997  0.2672  0.4375
  750MPD2    C311135   1.407   1.513  10.837 -0.3789  0.0920 -0.1807
  750MPD2    C411136   1.524   1.553  10.773  0.3662 -0.1710  0.0576
  750MPD2    C511137   1.608   1.641  10.849 -0.2066 -0.6644 -0.1407
  750MPD2     H11138   1.279   1.531  11.002  0.0605 -0.6724  0.7446
  750MPD2    H111139   1.563   1.522  10.677 -1.7666  0.3517 -0.9890
  750MPD2    H211140   1.641   1.759  11.024  0.0129  0.1633  0.0326
  750MPD2    H311141   1.697   1.681  10.801  0.6214  0.3403  2.2620
  750MPD2     N11142   1.318   1.436  10.759  0.7974 -0.1190 -0.1431
  750MPD2    H511143   1.359   1.406  10.672 -1.4317 -4.4274  0.2879
  750MPD2    N111144   1.426   1.711  11.150 -0.2080  0.0317  0.4904
  750MPD2    H711145   1.493   1.784  11.175 -0.5587 -0.1160  1.8589
  751TMC3    C111146   1.140   1.297  10.693 -0.4673  0.3049 -0.2721
  751TMC3    C211147   1.027   1.234  10.728 -0.1133  0.4896  0.6506
  751TMC3    C311148   0.984   1.126  10.653 -0.8117  0.7130 -0.6124
  751TMC3    C411149   1.216   1.265  10.586  0.2803 -0.5080 -0.2592
  751TMC3    C511150   1.169   1.160  10.509 -0.0101  0.4788  0.7571
  751TMC3    C611151   1.055   1.090  10.547 -0.7009  0.0689 -0.5616
  751TMC3     C11152   1.199   1.377  10.796  0.6049 -0.2808 -0.3151
  751TMC3     O11153   1.134   1.398  10.899  0.6183  0.0405 -0.6903
  751TMC3     H11154   0.983   1.251  10.826  1.1867 -2.1035  1.7064
  751TMC3    H111155   1.313   1.308  10.567  0.8635 -0.8507  1.9075
  751TMC3    H211156   1.008   1.007  10.495  0.7660  0.1305 -2.0039
  751TMC3    C711157   1.277   1.086  10.441 -0.3084 -0.7742  0.4561
  751TMC3    C811158   0.908   1.026  10.719  0.2485  0.0572 -0.4557
  751TMC3    O111159   1.376   1.151  10.406 -0.5133 -0.3919  0.6370
  751TMC3    O211160   0.918   0.913  10.677  0.5153  0.2614  0.0134
  752TMC3    C111161   4.563   1.617  17.307 -0.0554 -0.4447  0.1189
  752TMC3    C211162   4.607   1.499  17.370  0.4378  0.1340  0.6132
  752TMC3    C311163   4.533   1.438  17.464  0.1284  0.8707 -0.0143
  752TMC3    C411164   4.453   1.678  17.348  0.9959  1.3262 -0.2226
  752TMC3    C511165   4.382   1.611  17.444 -0.2313  0.1398 -1.1227
  752TMC3    C611166   4.413   1.491  17.504 -0.5060  0.0337 -0.4590
  752TMC3     C11167   4.659   1.682  17.222  0.3949 -0.0793  0.2070
  752TMC3     O11168   0.044   1.681  17.250 -0.0595 -0.5604 -0.2304
  752TMC3     H11169   4.703   1.460  17.338 -0.0560  0.2261 -0.9912
  752TMC3    H111170   4.417   1.764  17.293 -3.0838  0.5273  1.1637
  752TMC3    H211171   4.358   1.452  17.589  1.0078 -1.3452 -0.1094
  752TMC3    C711172   4.261   1.690  17.489 -0.1115  0.1379  0.1771
  752TMC3    C811173   4.573   1.305  17.520 -0.8087  0.1860 -0.3081
  752TMC3    O111174   4.254   1.802  17.443 -0.4793 -0.2983  0.1343
  752TMC3    O211175   4.519   1.276  17.621  0.1835  0.5077  0.0358
  753TMC3    C111176   2.293   2.660  13.518  0.9638 -0.1979 -0.7271
  753TMC3    C211177   2.330   2.702  13.644 -0.1245 -0.1863 -0.7396
  753TMC3    C311178   2.392   2.606  13.730 -0.6120  1.0798  0.6856
  753TMC3    C411179   2.307   2.531  13.467  0.0140 -0.0297 -0.5110
  753TMC3    C511180   2.361   2.452  13.554  0.4169 -0.1706 -0.0006
  753TMC3    C611181   2.420   2.483  13.676  0.8250 -0.2184  0.9384
  753TMC3     C11182   2.207   2.745  13.440 -0.0641  0.1507 -0.1613
  753TMC3     O11183   2.127   2.684  13.367  0.9707 -0.4789  0.1099
  753TMC3     H11184   2.303   2.802  13.678 -3.3123 -1.4549  0.4636
  753TMC3    H111185   2.274   2.497  13.369  1.6186 -0.3420 -0.9421
  753TMC3    H211186   2.475   2.416  13.741  0.7831 -0.2531  0.9381
  753TMC3    C711187   2.389   2.320  13.501 -0.1826  0.0960 -0.2211
  753TMC3    C811188   2.479   2.644  13.841 -0.5499 -0.6833  0.4669
  753TMC3    O111189   2.398   2.315  13.381  0.4145 -0.3762  0.2227
  753TMC3    O211190   2.512   2.560  13.919  0.0898  0.1226  0.4566
  754MPD2     C11191   1.189   1.151  13.230  0.4625  0.9469  0.1921
  754MPD2    C111192   1.116   1.181  13.341  0.0824  0.4737  0.4093
  754MPD2    C211193   0.984   1.144  13.354 -0.4478  0.0353 -0.2282
  754MPD2    C311194   0.930   1.087  13.245 -0.0305  0.5678  0.2180
  754MPD2    C411195   1.006   1.043  13.139 -0.3139 -0.1697  1.0609
  754MPD2    C511196   1.134   1.073  13.135  0.3584 -0.4315 -0.5329
  754MPD2     H11197   0.920   1.169  13.438  0.7432  2.9767 -0.1819
  754MPD2    H111198   0.958   1.000  13.052 -0.2857  1.1249  0.4058
  754MPD2    H211199   1.289   1.186  13.210  1.1568 -0.1035  1.7867
  754MPD2    H311200   1.195   1.050  13.048  0.2871 -1.8328 -0.2157
  754MPD2     N11201   0.798   1.051  13.237  0.2169 -0.0680  0.2087
  754MPD2    H511202   0.777   0.994  13.156  0.6794  0.1948 -0.0942
  754MPD2    N111203   1.164   1.276  13.431 -0.4829  0.3129  0.1829
  754MPD2    H711204   1.244   1.330  13.401 -1.4731  1.0515 -1.1151
  755MPD2     C11205   4.466   1.237  13.379 -0.3147 -0.4657 -0.6224
  755MPD2    C111206   4.565   1.254  13.476  0.9852  0.3907 -0.0787
  755MPD2    C211207   4.693   1.204  13.462 -0.4492  0.5614  0.0814
  755MPD2    C311208   4.722   1.151  13.343 -0.3520  0.6691  0.5964
  755MPD2    C411209   4.636   1.152  13.239 -0.1479  0.0000 -0.9222
  755MPD2    C511210   4.503   1.190  13.256  0.0077 -0.4640 -0.0981
  755MPD2     H11211   0.023   1.210  13.546  1.1570  0.4480 -1.2302
  755MPD2    H111212   4.660   1.114  13.141  2.2512 -0.2531 -0.2601
  755MPD2    H211213   4.369   1.278  13.401 -0.4098 -1.4892  0.8606
  755MPD2    H311214   4.437   1.175  13.171  0.2002 -2.5137  0.0989
  755MPD2     N11215   0.110   1.093  13.319  0.1077  0.0830  0.5570
  755MPD2    H511216   0.126   1.047  13.230  1.5654  0.1315  0.7900
  755MPD2    N111217   4.547   1.330  13.595 -0.2288  0.3376 -0.0265
  755MPD2    H711218   4.618   1.319  13.667 -0.2945 -0.5939 -0.0985
  756MPD2     C11219   1.121   2.868   9.543  0.2693 -0.3081 -0.2391
  756MPD2    C111220   1.043   2.796   9.626 -0.4265  0.1384 -0.2366
  756MPD2    C211221   0.972   2.691   9.577  0.5731 -0.1297  0.5288
  756MPD2    C311222   0.988   2.654   9.449 -0.1573 -0.7421 -0.0906
  756MPD2    C411223   1.060   2.735   9.362 -0.5320 -0.3902 -0.1556
  756MPD2    C511224   1.125   2.842   9.407 -0.1872  0.1353 -0.7494
  756MPD2     H11225   0.910   2.623   9.635 -1.5764  0.2932 -1.3077
  756MPD2    H111226   1.048   2.724   9.255  0.4506 -0.8979 -0.2112
  756MPD2    H211227   1.176   2.953   9.582  1.8812 -1.8429  0.7992
  756MPD2    H311228   1.181   2.903   9.337  0.4289 -0.5962 -0.9005
  756MPD2     N11229   0.911   2.541   9.406  0.2237 -0.2464  0.0637
  756MPD2    H511230   0.846   2.499   9.471  1.1405 -0.4541  0.8460
  756MPD2    N111231   1.034   2.821   9.769 -0.2277  0.2059  0.0036
  756MPD2    H711232   0.972   2.757   9.816  1.6960 -0.4771  1.5920
  757MPD2     C11233   0.122   2.011   9.598 -0.2869 -0.4668  0.3495
  757MPD2    C111234   0.194   1.919   9.521  0.1490 -0.9112  0.0260
  757MPD2    C211235   0.300   1.958   9.446  0.0135  0.3622  0.3036
  757MPD2    C311236   0.348   2.086   9.458  0.0090 -0.2113  0.4915
  757MPD2    C411237   0.273   2.179   9.536  0.7722  0.1298  0.6565
  757MPD2    C511238   0.160   2.142   9.607  0.1307  1.0559 -0.3896
  757MPD2     H11239   0.343   1.885   9.378  0.2361  0.5568  0.2353
  757MPD2    H111240   0.296   2.285   9.534  0.0432  0.2638 -0.8186
  757MPD2    H211241   0.032   1.983   9.651 -1.3524  0.5911 -0.8994
  757MPD2    H311242   0.089   2.213   9.648  1.0646  0.1627  2.7471
  757MPD2     N11243   0.465   2.120   9.399  0.1576 -0.3392 -0.1254
  757MPD2    H511244   0.499   2.041   9.345 -1.8503 -0.1653 -1.6575
  757MPD2    N111245   0.128   1.793   9.516  0.1921 -1.5246 -0.1272
  757MPD2    H711246   0.042   1.793   9.571 -1.2433 -1.3058 -2.3883
  758MPD2     C11247   0.972   1.155  15.829 -0.0068  0.1486 -0.6420
  758MPD2    C111248   1.043   1.091  15.931 -0.1286 -0.4991 -0.2715
  758MPD2    C211249   1.017   1.118  16.064 -0.1875 -0.1801  0.1058
  758MPD2    C311250   0.916   1.204  16.101  0.5907  1.0633  0.3650
  758MPD2    C411251   0.847   1.271  15.999 -1.2279 -0.9489  0.7127
  758MPD2    C511252   0.872   1.242  15.861 -0.6138 -0.5766  0.0069
  758MPD2     H11253   1.085   1.078  16.139 -1.9426  0.8235  2.2466
  758MPD2    H111254   0.764   1.339  16.018  0.7418  1.5561  0.3732
  758MPD2    H211255   0.993   1.124  15.727  0.2830  2.1843 -1.2119
  758MPD2    H311256   0.816   1.291  15.782 -1.5515 -0.9646  0.4312
  758MPD2     N11257   0.894   1.234  16.239  0.1291  0.1301 -0.6771
  758MPD2    H511258   0.829   1.311  16.252 -1.3300 -1.3430  0.7341
  758MPD2    N111259   1.146   1.003  15.885 -0.4762  0.1593 -0.5751
  758MPD2    H711260   1.171   1.013  15.787  1.9597 -1.2346 -0.1149
  759MPD2     C11261   0.045   4.124   9.618  0.8367  0.0716 -0.4411
  759MPD2    C111262   4.652   4.151   9.589  0.6691  0.2258  0.3765
  759MPD2    C211263   4.616   4.283   9.563  0.5683  0.1338  0.1207
  759MPD2    C311264   4.713   4.378   9.546  0.7763 -0.9238 -0.2388
  759MPD2    C411265   0.112   4.356   9.574 -0.3687  0.0869 -0.0429
  759MPD2    C511266   0.137   4.224   9.610 -0.1697  0.0155 -0.9805
  759MPD2     H11267   4.514   4.307   9.534  0.4453 -0.1384  0.3275
  759MPD2    H111268   0.191   4.429   9.578  0.7656 -1.1016 -1.0365
  759MPD2    H211269   0.083   4.028   9.651 -3.0100 -1.0044  0.7370
  759MPD2    H311270   0.231   4.185   9.645  0.0860  3.0758  1.7131
  759MPD2     N11271   4.671   4.507   9.510  0.5270  0.5276 -0.1847
  759MPD2    H511272   4.572   4.520   9.490  0.9973 -0.0716 -2.9258
  759MPD2    N111273   4.540   4.062   9.598  0.1899 -0.3168 -0.3968
  759MPD2    H711274   4.445   4.095   9.604  0.9698  1.7037  0.8332
  760MPD2     C11275   4.204   1.353  11.647  0.2847  0.1375  0.6495
  760MPD2    C111276   4.330   1.408  11.651  0.1655  0.1869 -0.0534
  760MPD2    C211277   4.437   1.333  11.700 -0.6515 -0.7836  0.2704
  760MPD2    C311278   4.416   1.202  11.744  0.0549 -0.1569  0.5401
  760MPD2    C411279   4.283   1.149  11.744 -0.0053 -0.2635  0.4632
  760MPD2    C511280   4.183   1.226  11.698  0.2728  0.7799  0.2371
  760MPD2     H11281   4.534   1.383  11.695 -0.6838 -0.6906  0.6025
  760MPD2    H111282   4.262   1.050  11.783  0.0473  0.3118  1.9665
  760MPD2    H211283   4.119   1.405  11.604  1.1416  2.6231  1.9939
  760MPD2    H311284   4.087   1.177  11.690  0.2303  0.5228  2.3456
  760MPD2     N11285   4.519   1.120  11.796  0.4007  0.4443 -0.6000
  760MPD2    H511286   4.492   1.034  11.842 -1.7716  1.3125 -0.2521
  760MPD2    N111287   4.358   1.538  11.601 -0.4823 -0.0553  0.4147
  760MPD2    H711288   4.451   1.569  11.627 -0.3547  0.5358 -0.7837
  761MPD2     C11289   0.707   0.827  11.148 -0.5656  0.7053  0.6843
  761MPD2    C111290   0.795   0.779  11.059  0.3556  0.1047 -0.0639
  761MPD2    C211291   0.836   0.855  10.948  0.1480 -0.5186 -0.4228
  761MPD2    C311292   0.789   0.983  10.930 -0.0262 -0.7749  0.4186
  761MPD2    C411293   0.691   1.026  11.017  0.4975  0.7838  0.0316
  761MPD2    C511294   0.650   0.947  11.118 -1.0575 -0.3324  0.0559
  761MPD2     H11295   0.915   0.816  10.885 -0.8607 -2.6622 -0.3674
  761MPD2    H111296   0.651   1.127  11.010 -1.0407  0.1137 -0.8276
  761MPD2    H211297   0.672   0.771  11.234 -1.2668 -1.6403 -1.1226
  761MPD2    H311298   0.590   0.993  11.196 -0.4926  2.1799 -0.9868
  761MPD2     N11299   0.842   1.067  10.832  0.3229 -0.8502  0.5583
  761MPD2    H511300   0.828   1.166  10.846 -2.6648 -1.1576 -0.1089
  761MPD2    N111301   0.849   0.645  11.080 -0.0566  0.3674 -0.3312
  761MPD2    H711302   0.801   0.594  11.153  0.3233 -2.2520 -1.9122
  762MPD2     C11303   1.628   0.550  11.286 -0.0605  0.4592  0.3141
  762MPD2    C111304   1.575   0.492  11.174  0.3781 -0.2588 -0.3044
  762MPD2    C211305   1.651   0.494  11.059  0.0649  0.1528 -0.6349
  762MPD2    C311306   1.775   0.551  11.055  0.0926  0.4910  0.4975
  762MPD2    C411307   1.828   0.615  11.166  0.1566  0.6070  0.2369
  762MPD2    C511308   1.750   0.611  11.278 -0.2298  0.5275  0.2772
  762MPD2     H11309   1.618   0.440  10.971 -1.9489  0.1631  0.1260
  762MPD2    H111310   1.928   0.656  11.178 -0.4859  1.5372  2.3567
  762MPD2    H211311   1.567   0.558  11.375 -0.0661  1.4982  0.2157
  762MPD2    H311312   1.800   0.646  11.368 -0.6423  2.2265 -0.1445
  762MPD2     N11313   1.853   0.519  10.944  0.5629  0.3866  0.4087
  762MPD2    H511314   1.818   0.457  10.871  2.4747  1.5303 -1.4871
  762MPD2    N111315   1.439   0.441  11.186  0.3105  0.0784  0.0432
  762MPD2    H711316   1.387   0.445  11.273  1.2151  0.6915  0.5449
  763MPD2     C11317   3.083   1.219  16.035 -0.0667  0.0126 -0.0087
  763MPD2    C111318   2.954   1.268  16.010  0.2324  0.3645  0.4729
  763MPD2    C211319   2.923   1.396  16.058  0.5271 -0.3338  0.9483
  763MPD2    C311320   3.024   1.471  16.120  0.0085  0.0565 -0.9834
  763MPD2    C411321   3.151   1.411  16.145  0.3974 -0.4684 -0.6230
  763MPD2    C511322   3.175   1.281  16.114  0.0666  0.5661  0.0952
  763MPD2     H11323   2.830   1.449  16.039  0.0379 -0.8088  1.9739
  763MPD2    H111324   3.235   1.465  16.185 -0.1424 -0.2468  0.2048
  763MPD2    H211325   3.122   1.126  15.994 -1.8914 -1.2125  1.0376
  763MPD2    H311326   3.274   1.240  16.123 -0.5964 -1.1217 -0.3344
  763MPD2     N11327   3.013   1.611  16.144 -0.3691  0.2211 -0.1493
  763MPD2    H511328   3.102   1.659  16.157 -1.1197  1.1621  1.6286
  763MPD2    N111329   2.860   1.204  15.924 -0.2618 -0.3905  0.6079
  763MPD2    H711330   2.782   1.264  15.901 -1.7200 -1.6023  2.3897
  764MPD2     C11331   1.223   3.068  17.491  0.0020 -0.0276  0.0363
  764MPD2    C111332   1.140   2.969  17.448 -0.1969 -0.4266  0.5032
  764MPD2    C211333   1.122   2.851  17.519 -0.0353  0.0448  1.0438
  764MPD2    C311334   1.176   2.828  17.645  0.6015 -0.0894 -0.8506
  764MPD2    C411335   1.247   2.939  17.694 -0.5588 -1.2812 -0.1056
  764MPD2    C511336   1.270   3.055  17.625 -0.5712 -0.4485 -0.3761
  764MPD2     H11337   1.071   2.764  17.479  2.6988 -0.9980 -0.1882
  764MPD2    H111338   1.302   2.942   0.036  2.5288  1.0258 -1.9964
  764MPD2    H211339   1.245   3.164  17.445 -0.6652  1.3163  2.5162
  764MPD2    H311340   1.328   3.130  17.677 -0.6527 -0.6301 -0.0207
  764MPD2     N11341   1.139   2.710  17.713  0.2363  0.2619 -0.1275
  764MPD2    H511342   1.069   2.648  17.674 -1.5694  2.0432  0.2369
  764MPD2    N111343   1.073   2.976  17.324 -0.3725 -0.4807  0.2991
  764MPD2    H711344   1.011   2.898  17.307 -1.8101  0.6531  0.3218
  765MPD2     C11345   0.541   0.389  16.022 -0.3606  0.4853  0.3076
  765MPD2    C111346   0.616   0.483  15.953  0.0873  0.3555 -0.6230
  765MPD2    C211347   0.749   0.453  15.930 -0.0955 -0.5374 -0.4103
  765MPD2    C311348   0.805   0.332  15.967 -0.3992 -0.7188  0.6715
  765MPD2    C411349   0.730   0.240  16.030  0.7294 -0.3371 -0.1142
  765MPD2    C511350   0.601   0.270  16.058 -0.2533  0.6880 -0.2048
  765MPD2     H11351   0.801   0.515  15.859  1.8617 -0.3322  1.1981
  765MPD2    H111352   0.751   0.136  16.054 -0.4366 -0.0400  2.1409
  765MPD2    H211353   0.438   0.415  16.041 -0.4551  0.2207  0.1600
  765MPD2    H311354   0.535   0.199  16.106 -0.1143  0.3666 -0.4861
  765MPD2     N11355   0.932   0.296  15.906 -0.3849 -0.3686 -0.0275
  765MPD2    H511356   0.963   0.374  15.849 -0.4201 -2.2874 -2.6284
  765MPD2    N111357   0.544   0.597  15.914  0.7590  0.6013 -0.1776
  765MPD2    H711358   0.445   0.601  15.939  0.6041 -0.2115 -0.6553
  766MPD2     C11359   0.122   0.584  15.380  0.3341 -0.1367 -0.6661
  766MPD2    C111360   0.257   0.623  15.388  0.1989  0.4622 -0.5124
  766MPD2    C211361   0.331   0.583  15.274  0.4355  0.2089  0.0367
  766MPD2    C311362   0.282   0.520  15.163 -0.3833  0.0118  0.2134
  766MPD2    C411363   0.144   0.488  15.162  0.3259  0.9672  0.0753
  766MPD2    C511364   0.072   0.521  15.273 -0.3881  0.7548 -0.6254
  766MPD2     H11365   0.437   0.609  15.275  0.1772  1.0729  3.4484
  766MPD2    H111366   0.094   0.436  15.081 -1.7269  1.0553  1.2830
  766MPD2    H211367   0.053   0.601  15.461  0.7867 -0.7039 -0.1580
  766MPD2    H311368   4.704   0.502  15.264 -0.1727  0.7547 -3.2340
  766MPD2     N11369   0.352   0.510  15.043  0.0198 -0.0761 -0.2082
  766MPD2    H511370   0.300   0.486  14.958 -2.0771 -2.3597  1.7176
  766MPD2    N111371   0.313   0.708  15.489 -0.5713 -0.2527 -0.2951
  766MPD2    H711372   0.413   0.727  15.489 -0.4084 -1.1862  0.9213
  767MPD2     C11373   4.718   0.762  15.060  0.1397 -0.1484  0.3278
  767MPD2    C111374   0.106   0.795  15.000  0.0075  0.0418 -0.3645
  767MPD2    C211375   0.125   0.776  14.867 -0.1552  0.2137 -0.3119
  767MPD2    C311376   0.026   0.720  14.792 -0.1206 -0.7930 -0.1827
  767MPD2    C411377   4.643   0.688  14.851  0.1242  0.0113 -0.1355
  767MPD2    C511378   4.615   0.724  14.981  0.2964 -0.4373 -0.0506
  767MPD2     H11379   0.223   0.787  14.823  0.6345 -1.2109  1.1031
  767MPD2    H111380   4.557   0.651  14.797  0.1434  0.3283 -0.3880
  767MPD2    H211381   4.708   0.780  15.166 -2.5754 -0.9427  0.2274
  767MPD2    H311382   4.516   0.719  15.024 -0.3105  0.6624 -1.3342
  767MPD2     N11383   0.052   0.697  14.660 -0.2470  0.6677 -0.5625
  767MPD2    H511384   0.149   0.702  14.628 -0.7273 -0.2766 -2.1559
  767MPD2    N111385   0.202   0.842  15.089  0.1144  0.0527 -0.3919
  767MPD2    H711386   0.162   0.865  15.180 -0.4028  0.5507 -0.7465
  768MPD2     C11387   1.226   4.160  10.521  0.2867  0.1075  0.1336
  768MPD2    C111388   1.124   4.156  10.611 -0.4238  0.0699  0.6564
  768MPD2    C211389   1.121   4.070  10.710  0.4535  0.3353  0.2642
  768MPD2    C311390   1.238   4.001  10.731  0.3476  0.7974 -0.7740
  768MPD2    C411391   1.344   3.998  10.646 -0.9772 -0.4607  0.0161
  768MPD2    C511392   1.341   4.089  10.542  0.4432  0.2892 -0.5198
  768MPD2     H11393   1.044   4.074  10.786  0.9773 -2.1173  0.9455
  768MPD2    H111394   1.442   3.954  10.655 -0.6551  0.0769 -0.8577
  768MPD2    H211395   1.225   4.233  10.440 -0.6672  1.5591  1.4614
  768MPD2    H311396   1.433   4.117  10.490  0.3228 -1.3372 -1.6158
  768MPD2     N11397   1.261   3.944  10.859 -0.1408  0.8727 -0.2686
  768MPD2    H511398   1.354   3.911  10.881 -0.0761 -0.2055 -2.1630
  768MPD2    N111399   1.019   4.246  10.602 -0.2872 -0.4365  0.3782
  768MPD2    H711400   0.975   4.278  10.687 -0.7836 -2.7913  1.0030
  769MPD2     C11401   1.913   1.979  14.620  0.1535  0.4867  0.0206
  769MPD2    C111402   1.875   2.055  14.726  0.1012  0.4953 -0.2855
  769MPD2    C211403   1.938   2.039  14.851 -0.1420 -0.0414  0.2476
  769MPD2    C311404   2.042   1.951  14.858  0.0209 -0.6416  0.1378
  769MPD2    C411405   2.071   1.860  14.751 -0.2744  0.0335 -0.0346
  769MPD2    C511406   2.008   1.880  14.634 -0.0045 -0.1142  0.0208
  769MPD2     H11407   1.901   2.096  14.935 -2.2663 -1.1260  0.0672
  769MPD2    H111408   2.144   1.780  14.743  0.7992  1.1680 -1.5289
  769MPD2    H211409   1.864   1.995  14.524  0.5233 -0.4772 -0.3348
  769MPD2    H311410   2.033   1.824  14.545  1.1820 -2.1173  1.6215
  769MPD2     N11411   2.113   1.953  14.978  0.0434  0.6573 -0.8289
  769MPD2    H511412   2.080   2.024  15.042  1.3090  2.3252 -2.0295
  769MPD2    N111413   1.765   2.147  14.697 -0.9194 -0.3362  0.3751
  769MPD2    H711414   1.725   2.148  14.604  0.1633  3.2780 -0.0330
  770MPD2     C11415   1.190   1.712  15.100 -0.7096 -0.0716 -1.0040
  770MPD2    C111416   1.321   1.716  15.053  0.0125  0.0634  0.2056
  770MPD2    C211417   1.366   1.833  14.998 -0.2058 -0.2074 -0.4237
  770MPD2    C311418   1.289   1.947  14.982  0.2794 -0.3011  0.1871
  770MPD2    C411419   1.158   1.938  15.018 -0.1417 -0.3076 -0.0389
  770MPD2    C511420   1.106   1.815  15.069  0.8606 -0.5007 -0.0409
  770MPD2     H11421   1.468   1.839  14.963 -0.3344 -2.1879 -1.1286
  770MPD2    H111422   1.078   2.011  15.010  1.3058  1.4104  1.2246
  770MPD2    H211423   1.138   1.620  15.122  2.0624 -1.3403  0.0741
  770MPD2    H311424   0.999   1.803  15.082  0.8705  0.2018  0.7032
  770MPD2     N11425   1.346   2.060  14.926  0.5173  0.3821 -0.6223
  770MPD2    H511426   1.446   2.072  14.921  0.4481  0.6022 -1.6661
  770MPD2    N111427   1.407   1.606  15.067 -0.5094 -0.8365  0.1769
  770MPD2    H711428   1.370   1.525  15.116  0.5006 -1.0561  0.5726
  771MPD2     C11429   2.764   0.055  13.608  0.7186 -0.2847 -0.2330
  771MPD2    C111430   2.817   0.160  13.538  0.0310  0.1237  0.2362
  771MPD2    C211431   2.836   0.150  13.400  0.0262 -0.0452 -0.7806
  771MPD2    C311432   2.812   0.027  13.336 -0.5369  0.3715  0.4107
  771MPD2    C411433   2.760   4.663  13.405 -0.4871  0.1449  0.7869
  771MPD2    C511434   2.729   4.678  13.539 -0.1644  0.4487  0.0008
  771MPD2     H11435   2.872   0.234  13.343 -0.8269 -0.1946 -1.5501
  771MPD2    H111436   2.741   4.563  13.367  0.4346  0.3532 -0.2144
  771MPD2    H211437   2.737   0.069  13.712  1.0592 -1.2273 -0.0185
  771MPD2    H311438   2.667   4.605  13.590  2.3680 -0.5634  1.6216
  771MPD2     N11439   2.832   0.026  13.195  0.2247 -0.4502 -0.2406
  771MPD2    H511440   2.859   0.115  13.155  0.3035  0.1230  1.0863
  771MPD2    N111441   2.846   0.288  13.581 -0.3832 -0.4331  0.4676
  771MPD2    H711442   2.887   0.356  13.518  2.1361 -2.2179  0.1971
  772MPD2     C11443   2.563   0.897  14.084  0.0590 -0.5419  0.2661
  772MPD2    C111444   2.535   0.818  13.979  0.5107  0.0587  0.1808
  772MPD2    C211445   2.408   0.811  13.940  0.8555  0.0902  0.7496
  772MPD2    C311446   2.303   0.871  14.021 -0.0875  0.8258  0.1917
  772MPD2    C411447   2.334   0.926  14.139  0.9980  0.0170 -0.4393
  772MPD2    C511448   2.464   0.947  14.165 -0.1126 -0.0640 -0.4092
  772MPD2     H11449   2.380   0.751  13.854  0.3816  2.3299 -0.6476
  772MPD2    H111450   2.263   0.952  14.217  0.3985 -0.9391 -0.6690
  772MPD2    H211451   2.663   0.919  14.121  0.6355 -1.2493 -0.8806
  772MPD2    H311452   2.493   1.007  14.251  0.6621 -0.9194 -0.0737
  772MPD2     N11453   2.166   0.852  13.993 -0.0046 -0.0531 -0.3703
  772MPD2    H511454   2.098   0.873  14.065 -2.6855  0.4116 -3.0119
  772MPD2    N111455   2.639   0.753  13.910 -0.0513  0.0593  0.5902
  772MPD2    H711456   2.607   0.691  13.837 -1.8399  0.1072  1.3410
  773MPD2     C11457   1.781   1.681   0.504  0.1926  0.1764 -0.3088
  773MPD2    C111458   1.680   1.597   0.464 -0.9517 -0.5585  0.6728
  773MPD2    C211459   1.670   1.473   0.520  0.2574  0.2556  0.2489
  773MPD2    C311460   1.767   1.424   0.606 -0.1197  0.3644  1.1623
  773MPD2    C411461   1.867   1.507   0.649 -0.1372  0.1832 -0.1760
  773MPD2    C511462   1.874   1.637   0.599  0.6532  0.4703 -0.0135
  773MPD2     H11463   1.598   1.404   0.477  0.0618  0.1782  0.7042
  773MPD2    H111464   1.950   1.472   0.710 -0.7543  1.0934  1.1729
  773MPD2    H211465   1.805   1.780   0.467  0.6357 -0.5003 -1.8090
  773MPD2    H311466   1.954   1.706   0.620  0.7329 -0.0586  1.3939
  773MPD2     N11467   1.754   1.292   0.653 -0.0373  0.5705 -0.3144
  773MPD2    H511468   1.674   1.235   0.630  0.9869 -1.7054  1.7870
  773MPD2    N111469   1.584   1.638   0.363  0.0537 -0.6489 -0.7877
  773MPD2    H711470   1.524   1.571   0.316 -1.0816  1.2054 -1.9526
  774MPD2     C11471   0.454   0.964  13.703 -0.2711  0.3133  0.3280
  774MPD2    C111472   0.590   0.939  13.700  0.3377 -0.5122  0.0870
  774MPD2    C211473   0.676   1.049  13.706 -0.2082  0.3388  0.2965
  774MPD2    C311474   0.628   1.178  13.714 -0.3252  0.0989 -0.4754
  774MPD2    C411475   0.496   1.199  13.735 -0.3043  0.5653  0.1441
  774MPD2    C511476   0.407   1.090  13.720 -0.3175  0.0030  0.3740
  774MPD2     H11477   0.780   1.034  13.681 -0.3213  0.5998 -0.3349
  774MPD2    H111478   0.461   1.301  13.746  0.3227  0.8230 -0.1842
  774MPD2    H211479   0.382   0.883  13.702  0.7514 -0.6084  0.1665
  774MPD2    H311480   0.301   1.112  13.715 -0.6131 -1.6857 -0.9139
  774MPD2     N11481   0.725   1.275  13.691  0.5096 -0.2977  0.5412
  774MPD2    H511482   0.820   1.241  13.684  0.4358 -0.5556  0.7768
  774MPD2    N111483   0.631   0.808  13.679  0.0684  0.5975  0.0890
  774MPD2    H711484   0.553   0.753  13.645 -0.8310  2.6140 -1.0708
  775MPD2     C11485   2.298   1.738  15.647  0.1879 -0.5017  0.4111
  775MPD2    C111486   2.254   1.852  15.708  0.2321 -0.5518  0.1923
  775MPD2    C211487   2.327   1.970  15.700 -0.7278 -0.5513  0.0328
  775MPD2    C311488   2.446   1.968  15.624  0.7461  0.5656  0.1138
  775MPD2    C411489   2.485   1.855  15.559 -0.5330  1.5000  0.1921
  775MPD2    C511490   2.415   1.745  15.578 -0.3459  0.3681 -0.5724
  775MPD2     H11491   2.294   2.056  15.758  1.4424  0.5764 -0.4127
  775MPD2    H111492   2.575   1.829  15.505 -1.3909 -1.0806  0.0366
  775MPD2    H211493   2.251   1.640  15.652 -1.0770  0.0914  0.2693
  775MPD2    H311494   2.454   1.651  15.540 -2.3421 -0.1179 -1.4345
  775MPD2     N11495   2.523   2.078  15.601 -0.2183  0.4196  0.1753
  775MPD2    H511496   2.589   2.072  15.524  0.2180  0.7715  0.5221
  775MPD2    N111497   2.129   1.840  15.766 -0.4305 -0.1829  0.4488
  775MPD2    H711498   2.080   1.751  15.773  1.0464 -0.8018  2.7576
  776MPD2     C11499   1.578   2.269  11.633  1.2178 -0.5712  0.5919
  776MPD2    C111500   1.487   2.245  11.527 -0.0065  0.0935 -0.1211
  776MPD2    C211501   1.425   2.355  11.464 -0.3354  0.0089 -0.3494
  776MPD2    C311502   1.447   2.485  11.508  0.1984 -0.2880  0.0427
  776MPD2    C411503   1.550   2.507  11.607 -0.6661  0.7696 -0.0078
  776MPD2    C511504   1.613   2.396  11.662  0.3156 -0.5788 -0.1260
  776MPD2     H11505   1.352   2.345  11.385 -1.2909  3.0047  0.1357
  776MPD2    H111506   1.582   2.605  11.640 -0.0743  0.5707  0.0024
  776MPD2    H211507   1.623   2.186  11.688 -1.0506 -3.0382 -1.2791
  776MPD2    H311508   1.696   2.410  11.729  0.8694  1.8490 -1.3055
  776MPD2     N11509   1.367   2.590  11.465  0.7824  0.7596 -0.4764
  776MPD2    H511510   1.385   2.680  11.508 -1.6335  0.6746  0.7218
  776MPD2    N111511   1.440   2.115  11.490 -0.8064 -0.2800  0.6546
  776MPD2    H711512   1.360   2.114  11.428  0.0794 -0.1893 -0.4825
  777MPD2     C11513   1.120   4.500   0.563  0.4515  0.2314  0.2678
  777MPD2    C111514   1.214   4.504   0.658  0.0833 -0.2522  0.0834
  777MPD2    C211515   1.307   4.404   0.670  0.3005 -0.1089  0.0976
  777MPD2    C311516   1.300   4.303   0.581 -0.2210 -0.1192 -0.3532
  777MPD2    C411517   1.205   4.292   0.487 -0.7195 -0.2267  0.4035
  777MPD2    C511518   1.111   4.397   0.473  0.3985  0.9219 -0.1867
  777MPD2     H11519   1.385   4.395   0.745  1.9108  0.7020 -1.4807
  777MPD2    H111520   1.184   4.203   0.428 -0.6330  0.0484 -0.0452
  777MPD2    H211521   1.053   4.585   0.547  0.3224 -0.0903 -0.8878
  777MPD2    H311522   1.029   4.398   0.403  2.8584  0.1699 -3.0674
  777MPD2     N11523   1.389   4.194   0.592  0.2191 -0.2141 -0.7655
  777MPD2    H511524   1.452   4.196   0.672  0.4703 -2.5576 -0.9131
  777MPD2    N111525   1.227   4.622   0.738  0.6865 -0.1307  0.8353
  777MPD2    H711526   1.151   4.690   0.729  0.3504 -0.4539  1.2383
  778MPD2     C11527   2.775   0.404  14.766 -0.2903  0.1732  0.3170
  778MPD2    C111528   2.810   0.299  14.689  0.1851 -0.1736  0.6999
  778MPD2    C211529   2.913   0.316  14.595 -0.4940  0.3717 -0.0630
  778MPD2    C311530   2.980   0.434  14.588  0.4795 -0.1913  0.2610
  778MPD2    C411531   2.949   0.538  14.670 -0.6949  0.5962  0.1113
  778MPD2    C511532   2.856   0.523  14.760  0.0894  0.4569 -0.8342
  778MPD2     H11533   2.945   0.228  14.539  0.2040 -0.1317  1.1154
  778MPD2    H111534   3.009   0.629  14.669  0.4878 -0.1790 -0.2505
  778MPD2    H211535   2.694   0.402  14.837 -1.6291 -1.3696 -1.2383
  778MPD2    H311536   2.821   0.588  14.839  0.2667 -1.8124  1.1184
  778MPD2     N11537   3.084   0.437  14.485 -0.3081  0.4486 -0.3653
  778MPD2    H511538   3.107   0.349  14.440  0.2522  0.9958 -1.1310
  778MPD2    N111539   2.746   0.168  14.699 -0.6120  0.0954  0.2171
  778MPD2    H711540   2.773   0.104  14.625  0.6105  0.6468  0.2028
  779MPD2     C11541   2.666   3.968  13.658  0.1275  0.0398  0.6895
  779MPD2    C111542   2.706   3.967  13.790  0.1467  0.6433  0.4785
  779MPD2    C211543   2.715   4.088  13.857 -0.2491  0.0540  0.4995
  779MPD2    C311544   2.667   4.203  13.800 -0.3475  0.2733 -0.2365
  779MPD2    C411545   2.625   4.208  13.668  0.2344 -0.2555 -0.3803
  779MPD2    C511546   2.624   4.088  13.610 -0.0263 -0.1395  0.4722
  779MPD2     H11547   2.750   4.085  13.960  0.4367  0.3667  0.2759
  779MPD2    H111548   2.591   4.294  13.612  2.1995  0.5909 -0.3086
  779MPD2    H211549   2.644   3.881  13.597 -0.2777 -0.7075  1.9144
  779MPD2    H311550   2.597   4.084  13.505  1.7529  2.0912 -0.0537
  779MPD2     N11551   2.680   4.332  13.868  0.3352  0.6836 -0.0341
  779MPD2    H511552   2.713   4.323  13.963  0.2832  2.2886  0.1346
  779MPD2    N111553   2.740   3.842  13.853  0.4247 -0.7019 -0.1407
  779MPD2    H711554   2.791   3.844  13.942 -0.1384  2.2264  0.1388
  780MPD2     C11555   3.042   3.166   0.620  0.5774  0.3431  0.2704
  780MPD2    C111556   2.936   3.165   0.713  0.5049 -0.0345  0.4487
  780MPD2    C211557   2.809   3.187   0.662 -0.0214  0.6850 -0.1847
  780MPD2    C311558   2.792   3.209   0.526  0.0739 -0.4456  1.1434
  780MPD2    C411559   2.898   3.197   0.435  0.0756 -0.2211  0.3902
  780MPD2    C511560   3.022   3.175   0.490  0.0442 -0.4832  0.3063
  780MPD2     H11561   2.723   3.175   0.726 -0.8702 -2.3955 -1.9401
  780MPD2    H111562   2.888   3.210   0.328 -0.7614  0.1425  0.5122
  780MPD2    H211563   3.145   3.161   0.654  0.0690 -0.8735  1.6631
  780MPD2    H311564   3.115   3.162   0.437 -1.2027 -0.0395 -2.0061
  780MPD2     N11565   2.662   3.248   0.482 -0.1888 -0.0668 -0.3391
  780MPD2    H511566   2.594   3.280   0.551  1.2154 -2.2188  2.0368
  780MPD2    N111567   2.963   3.129   0.852 -0.6165 -0.1568  0.1066
  780MPD2    H711568   3.055   3.091   0.870 -0.0582  1.1765  0.0490
  781MPD2     C11569   3.730   0.742  11.558  0.2183 -0.4464  0.2505
  781MPD2    C111570   3.833   0.751  11.658  0.6184  0.3458  0.6389
  781MPD2    C211571   3.957   0.789  11.614  0.3812 -0.0917 -0.2783
  781MPD2    C311572   3.986   0.811  11.484 -0.2383  0.8714  0.0084
  781MPD2    C411573   3.883   0.803  11.393  0.5521 -0.7162  0.3851
  781MPD2    C511574   3.762   0.761  11.423 -0.9292  0.8652  0.6514
  781MPD2     H11575   4.029   0.787  11.695 -1.2020 -1.3850  1.0918
  781MPD2    H111576   3.913   0.810  11.289  1.8366 -0.6772  0.7534
  781MPD2    H211577   3.629   0.727  11.593  0.2663 -1.1633  0.0722
  781MPD2    H311578   3.698   0.736  11.339  1.4285  0.4871 -1.0365
  781MPD2     N11579   4.114   0.833  11.433  0.4633  0.2201  0.2219
  781MPD2    H511580   4.121   0.860  11.335  1.9976 -1.6271 -0.1902
  781MPD2    N111581   3.823   0.705  11.793  0.3586 -0.1135 -0.2044
  781MPD2    H711582   3.911   0.697  11.844  0.8334  0.9927 -0.8492
  782MPD2     C11583   1.727   1.420   9.894 -0.1829  0.9128 -0.0500
  782MPD2    C111584   1.814   1.360   9.982 -0.5738  0.0633  0.1880
  782MPD2    C211585   1.888   1.438  10.064  0.0349 -0.3604  0.4082
  782MPD2    C311586   1.860   1.573  10.076 -0.3086 -0.2901  0.1441
  782MPD2    C411587   1.767   1.631   9.989  0.4425 -0.3058 -0.0742
  782MPD2    C511588   1.703   1.549   9.897  0.2255  0.1312  0.3081
  782MPD2     H11589   1.961   1.388  10.127  0.0660 -1.3061 -0.3909
  782MPD2    H111590   1.741   1.735  10.004  1.7881  0.2192 -1.3885
  782MPD2    H211591   1.691   1.362   9.810  0.2772 -0.0188  0.3965
  782MPD2    H311592   1.621   1.583   9.835  1.2437  0.9787 -0.5810
  782MPD2     N11593   1.922   1.651  10.178  0.7064 -0.0690  0.3259
  782MPD2    H511594   1.978   1.597  10.243  0.8916  0.4546  0.5984
  782MPD2    N111595   1.849   1.223   9.982  0.4459 -0.3464  0.7006
  782MPD2    H711596   1.922   1.190  10.043  0.4328 -0.1329  0.8315
  783MPD2     C11597   1.332   0.722  10.450 -0.6867  0.5913 -0.3003
  783MPD2    C111598   1.346   0.844  10.396 -0.6618 -0.3995 -0.1162
  783MPD2    C211599   1.437   0.874  10.294  0.7273 -0.1212 -0.0686
  783MPD2    C311600   1.514   0.773  10.241  0.4261  0.0046  0.8096
  783MPD2    C411601   1.493   0.645  10.289  0.3985 -0.1007  0.1618
  783MPD2    C511602   1.403   0.618  10.391 -0.0731  0.2098  0.7543
  783MPD2     H11603   1.439   0.971  10.244 -0.7198  2.4117  4.7252
  783MPD2    H111604   1.559   0.564  10.261  3.3869  1.5423  2.4257
  783MPD2    H211605   1.259   0.703  10.528 -0.8958  2.3836 -0.0480
  783MPD2    H311606   1.398   0.519  10.434  1.6936 -0.0548  0.3571
  783MPD2     N11607   1.605   0.796  10.134  0.5363  0.0017 -0.3321
  783MPD2    H511608   1.610   0.890  10.096  1.1363  0.1805  0.2110
  783MPD2    N111609   1.269   0.950  10.459 -0.0551  0.1363 -0.3527
  783MPD2    H711610   1.193   0.919  10.518 -2.6840 -0.1843 -3.9354
  784MPD2     C11611   4.101   1.385   0.398  0.7395  0.5716  0.1169
  784MPD2    C111612   4.130   1.486   0.481  0.7560 -0.0939 -0.8241
  784MPD2    C211613   4.044   1.599   0.475  0.0476 -0.0630 -0.2151
  784MPD2    C311614   3.921   1.601   0.408 -0.0307  0.2669 -0.4820
  784MPD2    C411615   3.902   1.500   0.321 -0.1634  0.1549  0.2636
  784MPD2    C511616   3.985   1.395   0.323  0.0938  0.2428 -0.2311
  784MPD2     H11617   4.065   1.683   0.540 -0.5108  0.2992 -0.5168
  784MPD2    H111618   3.813   1.489   0.259 -0.3046  0.3504  0.4309
  784MPD2    H211619   4.160   1.297   0.377  0.6114 -0.4127  3.9693
  784MPD2    H311620   3.956   1.311   0.261  0.7698 -0.7744  0.8183
  784MPD2     N11621   3.825   1.707   0.431  0.5939 -0.2842  0.1678
  784MPD2    H511622   3.866   1.786   0.480 -0.4096  0.9469 -0.9652
  784MPD2    N111623   4.250   1.489   0.550 -0.1156 -0.0240 -0.1562
  784MPD2    H711624   4.274   1.580   0.588  0.0995 -0.4756  0.7903
  785MPD2     C11625   4.678   4.546  10.493 -0.2054 -0.1174 -0.3677
  785MPD2    C111626   4.626   4.657  10.432 -0.6258 -0.1384 -0.0880
  785MPD2    C211627   4.519   4.636  10.343  0.1174 -0.7195  0.2067
  785MPD2    C311628   4.474   4.507  10.316 -0.2106  0.3278  0.1780
  785MPD2    C411629   4.537   4.397  10.375  0.1621  0.0224 -0.6464
  785MPD2    C511630   4.640   4.421  10.465 -0.3591  0.3474  0.9820
  785MPD2     H11631   4.467   4.716  10.291 -2.2461 -2.5398 -0.2114
  785MPD2    H111632   4.516   4.291  10.366 -0.0863 -0.0122  0.2795
  785MPD2    H211633   0.011   4.558  10.573 -1.4542 -2.3898  1.0698
  785MPD2    H311634   4.696   4.336  10.502  1.4658  1.5690  1.0205
  785MPD2     N11635   4.361   4.495  10.227  0.1513 -0.6449  0.1750
  785MPD2    H511636   4.324   4.579  10.184  3.1238  1.4524  1.7478
  785MPD2    N111637   4.652   0.047  10.483  0.5570  0.4367 -0.1732
  785MPD2    H711638   4.714   0.050  10.564 -0.0445  4.7845  0.1079
  786MPD2     C11639   3.245   2.960  15.179 -0.0498 -0.1240 -0.4682
  786MPD2    C111640   3.359   2.931  15.110 -1.3083  0.4103 -0.5731
  786MPD2    C211641   3.478   2.964  15.170  0.1027  0.5685 -0.5208
  786MPD2    C311642   3.499   3.035  15.283  0.4814  0.7543  0.1083
  786MPD2    C411643   3.383   3.062  15.349  0.6485 -0.2739 -0.2257
  786MPD2    C511644   3.260   3.018  15.304 -0.6537 -0.7053  0.0849
  786MPD2     H11645   3.567   2.949  15.109  1.0213  1.9976  0.4498
  786MPD2    H111646   3.384   3.093  15.453 -0.9702 -2.3316  0.3961
  786MPD2    H211647   3.150   2.926  15.142 -0.9958  1.6417  0.3333
  786MPD2    H311648   3.174   3.024  15.370 -0.7687 -0.1926 -0.1122
  786MPD2     N11649   3.617   3.075  15.344  0.7108  0.1194 -0.1293
  786MPD2    H511650   3.619   3.121  15.434 -1.3529  0.1794 -0.1101
  786MPD2    N111651   3.364   2.855  14.991 -0.2279  0.4874  0.8229
  786MPD2    H711652   3.455   2.847  14.946 -0.7310 -1.4987  0.1721
  787MPD2     C11653   3.828   2.431  14.790 -0.1766 -0.7982  0.0742
  787MPD2    C111654   3.719   2.415  14.706  1.3926 -0.2193 -0.6086
  787MPD2    C211655   3.707   2.300  14.628 -0.2527 -0.1613 -0.6079
  787MPD2    C311656   3.801   2.199  14.637  0.0254 -0.1545  0.6178
  787MPD2    C411657   3.902   2.214  14.727 -0.1147 -0.3404  0.7384
  787MPD2    C511658   3.912   2.323  14.810 -0.0011 -0.0321 -0.5222
  787MPD2     H11659   3.628   2.285  14.555 -0.7066  2.6538 -0.7096
  787MPD2    H111660   3.967   2.131  14.750 -0.2245 -0.3668  0.9543
  787MPD2    H211661   3.842   2.519  14.851  1.0674 -0.6078 -0.4913
  787MPD2    H311662   3.976   2.326  14.897 -0.9085 -1.7923  0.2075
  787MPD2     N11663   3.788   2.093  14.551  0.0173 -0.1613  0.3700
  787MPD2    H511664   3.707   2.093  14.490  1.2147  1.4753 -1.2189
  787MPD2    N111665   3.620   2.513  14.710 -0.0984  0.4508  0.0429
  787MPD2    H711666   3.628   2.598  14.765  1.8865 -0.6089  1.3898
  788MPD2     C11667   0.616   1.510   0.857 -0.2671  0.7210  0.0266
  788MPD2    C111668   0.499   1.464   0.801 -0.2666 -1.1465  0.4191
  788MPD2    C211669   0.434   1.534   0.707 -0.0804 -0.3091  0.5478
  788MPD2    C311670   0.489   1.656   0.658  0.0338  0.3103 -0.2927
  788MPD2    C411671   0.601   1.713   0.716  0.3568  0.0088 -0.0998
  788MPD2    C511672   0.665   1.636   0.815  0.0334  0.4637 -0.8948
  788MPD2     H11673   0.349   1.492   0.655  1.0973  0.9712 -2.4104
  788MPD2    H111674   0.648   1.805   0.684  4.4533 -1.4476  1.7302
  788MPD2    H211675   0.668   1.455   0.934  0.4091  0.3764 -0.6744
  788MPD2    H311676   0.762   1.676   0.839 -1.2956  0.5137  4.4348
  788MPD2     N11677   0.419   1.726   0.556  0.0497 -0.3848  0.0618
  788MPD2    H511678   0.470   1.801   0.511  1.9661 -1.0092  1.1559
  788MPD2    N111679   0.452   1.338   0.838 -0.2215 -0.0480  0.0886
  788MPD2    H711680   0.510   1.274   0.892  1.5758 -1.2709 -3.2795
  789MPD2     C11681   0.577   1.041  16.618 -0.2893 -0.1182  0.9524
  789MPD2    C111682   0.536   1.044  16.755 -0.3625 -0.4221  0.6572
  789MPD2    C211683   0.440   1.138  16.793  0.5445  0.9685 -0.0471
  789MPD2    C311684   0.377   1.216  16.700 -0.4346 -0.9066  0.3940
  789MPD2    C411685   0.422   1.210  16.571  0.1410  0.7777  0.2552
  789MPD2    C511686   0.521   1.121  16.532  0.2290  0.5300 -0.6153
  789MPD2     H11687   0.417   1.148  16.899  1.6647  0.9423  0.2032
  789MPD2    H111688   0.375   1.273  16.496  2.2643 -1.0362 -2.5468
  789MPD2    H211689   0.651   0.966  16.589 -1.7770 -1.6347  1.0775
  789MPD2    H311690   0.537   1.108  16.426 -1.5309  0.5456 -0.8742
  789MPD2     N11691   0.279   1.308  16.739 -0.2240  0.2378  0.0530
  789MPD2    H511692   0.251   1.366  16.660 -0.6220 -0.8725 -0.6184
  789MPD2    N111693   0.579   0.952  16.855  0.1422  0.0025 -0.0253
  789MPD2    H711694   0.540   0.962  16.948 -0.7153  0.2851 -0.4060
  790MPD2     C11695   1.586   2.343  13.837  0.2437  0.8153  0.3425
  790MPD2    C111696   1.569   2.470  13.793 -0.0726  0.1841 -0.5592
  790MPD2    C211697   1.471   2.499  13.698 -0.3686  0.1010 -0.1360
  790MPD2    C311698   1.405   2.393  13.642 -0.1587  0.2670  0.0701
  790MPD2    C411699   1.417   2.267  13.695  0.2990 -0.4006 -0.3373
  790MPD2    C511700   1.509   2.241  13.794 -0.0676 -0.3698 -0.7074
  790MPD2     H11701   1.471   2.595  13.648  2.4154  1.0716  1.7681
  790MPD2    H111702   1.357   2.185  13.658  0.0538  0.3893 -1.7190
  790MPD2    H211703   1.648   2.326  13.923  0.2801  1.6324  0.4743
  790MPD2    H311704   1.511   2.144  13.842 -0.0763 -0.0984 -0.1571
  790MPD2     N11705   1.319   2.421  13.535 -0.6775 -0.8767 -0.6442
  790MPD2    H511706   1.331   2.518  13.507  0.3824 -1.0459 -0.7833
  790MPD2    N111707   1.648   2.579  13.855 -0.2934 -0.5005 -0.1661
  790MPD2    H711708   1.721   2.555  13.922  0.9467 -0.2688 -1.4198
  791MPD2     C11709   0.983   2.092  12.805 -0.6502  0.6902 -0.0507
  791MPD2    C111710   0.910   2.116  12.920 -0.2168  0.0510 -0.2086
  791MPD2    C211711   0.789   2.058  12.942  0.3575  0.7592 -0.2355
  791MPD2    C311712   0.736   1.973  12.847 -0.5123 -0.4371 -0.2628
  791MPD2    C411713   0.813   1.937  12.739 -0.1234 -0.5567  0.0128
  791MPD2    C511714   0.936   1.992  12.723 -0.4826 -0.6119 -0.4539
  791MPD2     H11715   0.731   2.103  13.022  0.5692  1.2567 -0.3598
  791MPD2    H111716   0.782   1.866  12.662 -2.9872  0.8909 -0.1488
  791MPD2    H211717   1.083   2.128  12.785 -0.2866  1.3465  2.9207
  791MPD2    H311718   0.989   1.949  12.639 -3.0202  1.3623 -3.0373
  791MPD2     N11719   0.605   1.924  12.876  0.3341 -0.0543  0.2652
  791MPD2    H511720   0.562   1.939  12.966  0.5871 -0.4851  0.4561
  791MPD2    N111721   0.969   2.220  13.007 -0.1885 -0.5485  0.8438
  791MPD2    H711722   1.060   2.255  12.977 -1.8860  1.7474 -1.6426
  792MPD2     C11723   1.735   2.155  10.876  0.4967 -0.6181 -0.0903
  792MPD2    C111724   1.611   2.204  10.916  0.9941 -0.6983 -0.0664
  792MPD2    C211725   1.495   2.142  10.859  0.2813  0.1824  0.6255
  792MPD2    C311726   1.500   2.040  10.766  0.3830 -0.5493 -0.2589
  792MPD2    C411727   1.626   2.005  10.719  0.4740  0.1555  0.1848
  792MPD2    C511728   1.738   2.069  10.770  0.5269  0.2532  0.0057
  792MPD2     H11729   1.403   2.188  10.893  0.8742  0.7457  1.4676
  792MPD2    H111730   1.631   1.929  10.642  0.4566  0.3417  0.0003
  792MPD2    H211731   1.829   2.193  10.913 -0.2448  0.3617  0.8059
  792MPD2    H311732   1.836   2.054  10.727 -0.9957 -4.2867 -1.8774
  792MPD2     N11733   1.391   1.977  10.707 -0.3921 -0.2723  0.0165
  792MPD2    H511734   1.412   1.897  10.649 -0.8751 -1.3411  1.3170
  792MPD2    N111735   1.594   2.311  11.004  0.0706 -0.0748 -0.2347
  792MPD2    H711736   1.504   2.355  11.016 -0.5093 -0.0312 -4.6165
  793MPD2     C11737   0.733   2.399  10.189 -0.4129 -0.2390 -0.1697
  793MPD2    C111738   0.866   2.418  10.225 -0.5123 -0.6317 -0.7908
  793MPD2    C211739   0.937   2.312  10.287 -0.2338  0.8195 -0.5141
  793MPD2    C311740   0.884   2.188  10.306 -0.2727  0.0535  0.2230
  793MPD2    C411741   0.755   2.167  10.261 -0.2056 -0.4838 -1.6564
  793MPD2    C511742   0.683   2.275  10.209 -0.1817 -0.1637 -0.3045
  793MPD2     H11743   1.040   2.334  10.313 -0.2121  1.1722 -0.8939
  793MPD2    H111744   0.703   2.073  10.276 -0.6006 -0.0118 -0.1108
  793MPD2    H211745   0.672   2.478  10.146 -1.4233 -1.8990 -1.7706
  793MPD2    H311746   0.577   2.258  10.197 -0.0078 -2.1854  0.9483
  793MPD2     N11747   0.958   2.089  10.368 -0.7278 -0.4289 -0.0773
  793MPD2    H511748   1.049   2.122  10.399 -0.2531  0.0524 -1.9800
  793MPD2    N111749   0.936   2.537  10.205  0.5174  0.0284  0.1558
  793MPD2    H711750   1.030   2.545  10.240  0.1500 -1.4492  1.4654
  794MPD2     C11751   1.328   2.194  17.485 -0.4401  0.1914 -0.0820
  794MPD2    C111752   1.329   2.070  17.445  0.0693  0.6325 -0.5387
  794MPD2    C211753   1.284   2.045  17.318 -0.1488  0.2968 -0.0175
  794MPD2    C311754   1.237   2.147  17.237 -0.1675  0.0901  0.5241
  794MPD2    C411755   1.248   2.282  17.284 -0.3920 -0.3797 -0.7403
  794MPD2    C511756   1.295   2.299  17.406  0.0356  0.0261 -0.3507
  794MPD2     H11757   1.277   1.944  17.279  0.5647 -0.7940  2.7187
  794MPD2    H111758   1.227   2.370  17.225 -0.0745 -0.0103 -0.2982
  794MPD2    H211759   1.358   2.220  17.586 -0.6378  0.6203 -0.1382
  794MPD2    H311760   1.305   2.397  17.452 -0.8359 -0.5505  1.0592
  794MPD2     N11761   1.175   2.128  17.114  0.3285 -0.5895  0.2690
  794MPD2    H511762   1.148   2.210  17.061 -0.0975 -0.5567  0.5361
  794MPD2    N111763   1.371   1.965  17.533  0.3487  0.1954 -0.1580
  794MPD2    H711764   1.359   1.868  17.504  0.0934  0.3869 -0.6929
  795MPD2     C11765   3.792   3.665  13.952  1.0195  0.5352 -0.0636
  795MPD2    C111766   3.766   3.614  13.830 -0.7486 -0.1828 -0.2022
  795MPD2    C211767   3.860   3.562  13.755  0.3335  0.6949 -0.5481
  795MPD2    C311768   3.994   3.555  13.801  0.5169 -0.2793 -0.0046
  795MPD2    C411769   4.024   3.590  13.934 -0.3114 -0.8254 -0.0993
  795MPD2    C511770   3.920   3.646  14.005  0.0809 -0.4360  0.4135
  795MPD2     H11771   3.834   3.524  13.656  0.8432  2.2609 -1.2763
  795MPD2    H111772   4.122   3.598  13.980  0.6076 -0.8065 -2.0737
  795MPD2    H211773   3.726   3.712  14.023  1.6330  1.9215 -0.4170
  795MPD2    H311774   3.931   3.679  14.108  0.4148 -3.8055  1.4350
  795MPD2     N11775   4.087   3.496  13.717  0.1105 -0.0482  0.4637
  795MPD2    H511776   4.052   3.476  13.624 -0.4273  1.9047  0.2398
  795MPD2    N111777   3.649   3.639  13.763 -0.9204  0.1723 -0.3620
  795MPD2    H711778   3.652   3.610  13.666 -0.7800 -1.6984  0.2072
  796MPD2     C11779   3.228   0.473  15.801  0.3785  0.1204  0.0147
  796MPD2    C111780   3.271   0.546  15.906 -0.7698 -0.2126 -0.2688
  796MPD2    C211781   3.264   0.684  15.895  0.7317 -0.0026 -0.4004
  796MPD2    C311782   3.206   0.746  15.780 -0.1523 -0.4066 -0.2976
  796MPD2    C411783   3.161   0.660  15.678  0.2047 -0.3960  0.4684
  796MPD2    C511784   3.176   0.527  15.690 -0.2506  0.6313 -0.2181
  796MPD2     H11785   3.295   0.753  15.973  2.1045 -0.3698 -0.6343
  796MPD2    H111786   3.118   0.690  15.584 -0.1447  2.8923  1.6790
  796MPD2    H211787   3.232   0.366  15.817 -2.9105 -0.1229 -0.8980
  796MPD2    H311788   3.135   0.469  15.608 -1.1994  0.0241  0.6924
  796MPD2     N11789   3.208   0.887  15.774 -0.3033  0.7088  0.0744
  796MPD2    H511790   3.277   0.930  15.835 -0.7262  1.7162 -0.1581
  796MPD2    N111791   3.311   0.476  16.022  0.2782  0.1012 -0.1575
  796MPD2    H711792   3.296   0.376  16.018  0.3800  0.0393  0.9383
  797MPD2     C11793   4.200   4.713  17.678 -0.2561  0.9867  0.0986
  797MPD2    C111794   4.230   0.106  17.653  0.0219  0.6570  0.1950
  797MPD2    C211795   4.159   0.179  17.565  0.0806 -0.4681 -0.0193
  797MPD2    C311796   4.038   0.128  17.517  0.2054  0.1513 -0.3390
  797MPD2    C411797   4.011   4.731  17.534 -0.4604 -0.0961 -0.1599
  797MPD2    C511798   4.093   4.660  17.618  0.0956 -0.6284 -0.3738
  797MPD2     H11799   4.193   0.275  17.526 -0.4895  0.1839  1.0930
  797MPD2    H111800   3.917   4.692  17.497  0.6031 -2.7759 -0.0593
  797MPD2    H211801   4.262   4.664   0.002 -2.1962 -0.8593  0.5049
  797MPD2    H311802   4.064   4.558  17.640 -1.8783 -0.4132 -1.9115
  797MPD2     N11803   3.939   0.214  17.467 -0.0675  0.0841 -0.1897
  797MPD2    H511804   3.867   0.166  17.415  0.2530 -0.3199 -0.2618
  797MPD2    N111805   4.334   0.175  17.717  0.1513  0.1220  0.2748
  797MPD2    H711806   4.372   0.257  17.671 -3.0040  0.6797 -1.3908
  798MPD2     C11807   4.163   0.879  17.557 -0.3891  0.3662 -0.9455
  798MPD2    C111808   4.121   0.749  17.565  0.2809 -0.8051  0.3569
  798MPD2    C211809   4.190   0.668  17.653  0.4501  0.5074 -0.5123
  798MPD2    C311810   4.310   0.705  17.710  0.5862 -0.3117 -0.0040
  798MPD2    C411811   4.348   0.842  17.706 -0.9405  0.3657 -0.0174
  798MPD2    C511812   4.268   0.925  17.639  0.6022  0.1959 -0.1941
  798MPD2     H11813   4.156   0.565  17.661 -1.0421  1.0580  0.2742
  798MPD2    H111814   4.431   0.875   0.015 -0.2158  0.3388 -0.9929
  798MPD2    H211815   4.113   0.947  17.490 -0.2949  1.5834  0.2141
  798MPD2    H311816   4.311   1.024  17.633  2.2642 -0.6843 -2.8109
  798MPD2     N11817   4.377   0.604   0.034  0.4181 -0.3137 -0.7069
  798MPD2    H511818   4.340   0.511   0.020  0.9073 -0.6991  0.5870
  798MPD2    N111819   4.011   0.692  17.505  0.3098 -0.2499 -0.0569
  798MPD2    H711820   3.992   0.595  17.525 -1.1865  0.4167  1.7435
  799MPD2     C11821   3.436   1.920  14.732 -0.3290  0.2480 -0.2190
  799MPD2    C111822   3.319   1.882  14.672 -0.4429 -0.5804 -0.0889
  799MPD2    C211823   3.242   1.980  14.609  0.0530  0.5103 -0.0828
  799MPD2    C311824   3.290   2.113  14.600  0.5530 -0.4745  0.2699
  799MPD2    C411825   3.410   2.145  14.661  0.0239 -0.3303  0.5428
  799MPD2    C511826   3.477   2.047  14.733 -0.6336 -0.1277  0.2020
  799MPD2     H11827   3.148   1.956  14.561  0.7066 -1.9891 -0.1276
  799MPD2    H111828   3.441   2.249  14.659 -1.3575  0.0679 -0.4570
  799MPD2    H211829   3.500   1.846  14.778  1.6718  0.1110 -3.2091
  799MPD2    H311830   3.565   2.078  14.788 -1.9419  0.8958  1.7288
  799MPD2     N11831   3.226   2.220  14.537 -0.1736 -0.0856  0.4495
  799MPD2    H511832   3.276   2.305  14.515  0.6564 -0.5144  0.6965
  799MPD2    N111833   3.292   1.741  14.641 -0.1210 -1.2902  0.7985
  799MPD2    H711834   3.227   1.732  14.564 -1.3546  1.4521  1.5119
  800MPD2     C11835   3.729   2.813  13.845 -0.5386 -0.2952  0.3587
  800MPD2    C111836   3.856   2.812  13.808 -0.4515  0.0861 -0.3617
  800MPD2    C211837   3.894   2.746  13.690 -0.4775  0.6721  0.3102
  800MPD2    C311838   3.806   2.687  13.606  0.2273 -0.2617  0.7815
  800MPD2    C411839   3.671   2.689  13.639  0.2718 -0.5747  0.1105
  800MPD2    C511840   3.635   2.752  13.760  0.0674 -0.2604 -0.4822
  800MPD2     H11841   3.999   2.746  13.662 -0.5038 -2.5270  0.1818
  800MPD2    H111842   3.591   2.648  13.579  0.5761 -0.5441 -0.3113
  800MPD2    H211843   3.687   2.858  13.934 -1.3583 -0.7980  0.2252
  800MPD2    H311844   3.531   2.761  13.786  0.5740 -1.9062  2.0680
  800MPD2     N11845   3.846   2.618  13.490  0.3008  0.6664  0.0009
  800MPD2    H511846   3.945   2.627  13.468  0.1860  0.9526 -0.3909
  800MPD2    N111847   3.952   2.870  13.891  0.1043 -0.0899 -0.1255
  800MPD2    H711848   3.918   2.904  13.981  0.1535  0.6258 -0.3808
  801MPD2     C11849   4.281   3.127  14.620  0.2615  0.6250  0.5659
  801MPD2    C111850   4.178   3.070  14.556 -0.0505 -0.0816  0.1570
  801MPD2    C211851   4.051   3.083  14.619  0.6747 -1.1262 -0.2827
  801MPD2    C311852   4.035   3.139  14.743 -0.5076  0.4933  0.3989
  801MPD2    C411853   4.140   3.181  14.810 -0.3607  0.1493  0.5794
  801MPD2    C511854   4.258   3.182  14.740 -0.5519 -0.0583  0.4869
  801MPD2     H11855   3.963   3.063  14.558  0.3502 -0.4596 -0.0395
  801MPD2    H111856   4.130   3.231  14.906  1.8757  2.6381 -0.5034
  801MPD2    H211857   4.378   3.163  14.588 -1.3854  3.0115 -1.7510
  801MPD2    H311858   4.345   3.230  14.783 -1.2208  0.1974  1.5621
  801MPD2     N11859   3.914   3.148  14.812  0.0445 -0.2454  0.4213
  801MPD2    H511860   3.906   3.200  14.898  0.5556  1.6745 -0.6912
  801MPD2    N111861   4.198   3.007  14.432  0.0100  0.3072  0.1549
  801MPD2    H711862   4.293   2.997  14.399 -0.4125 -0.7896 -0.7423
  802MPD2     C11863   2.756   4.100  17.346  0.1926  0.1869 -0.5650
  802MPD2    C111864   2.843   4.069  17.454  0.0276 -0.5019 -0.2438
  802MPD2    C211865   2.910   3.945  17.470  0.4395  0.4372  0.6159
  802MPD2    C311866   2.891   3.858  17.364 -0.1506 -0.3454  0.4297
  802MPD2    C411867   2.806   3.884  17.258 -0.1293  0.4353 -0.4918
  802MPD2    C511868   2.733   4.005  17.256 -0.4043  0.1906  0.9069
  802MPD2     H11869   2.988   3.934  17.543  2.0295 -0.1357 -1.1754
  802MPD2    H111870   2.791   3.809  17.181 -1.4545  0.3274 -0.1381
  802MPD2    H211871   2.689   4.185  17.345 -0.8976 -0.6782 -0.2766
  802MPD2    H311872   2.658   4.023  17.181 -0.0248  2.9644  1.1910
  802MPD2     N11873   2.975   3.744  17.367 -0.0912  0.0234 -0.2634
  802MPD2    H511874   3.042   3.751  17.443 -1.4598 -2.4811  1.1420
  802MPD2    N111875   2.856   4.162  17.564 -0.2354  0.5888 -0.3634
  802MPD2    H711876   2.898   4.119  17.646  0.6495  1.5760 -0.2972
  803MPD2     C11877   3.707   1.779  11.679  0.2363 -0.4282  0.8569
  803MPD2    C111878   3.812   1.819  11.594  0.0571  0.2732 -0.2204
  803MPD2    C211879   3.939   1.833  11.648  0.0955 -0.1965 -0.0240
  803MPD2    C311880   3.956   1.818  11.785 -0.7520  0.1327  0.4616
  803MPD2    C411881   3.849   1.791  11.867 -0.1280  0.1625  1.0283
  803MPD2    C511882   3.727   1.765  11.815 -0.2977  0.1883  0.3534
  803MPD2     H11883   4.026   1.838  11.583  1.0827 -0.8991  1.2304
  803MPD2    H111884   3.853   1.780  11.975 -0.7743 -2.1495  0.8212
  803MPD2    H211885   3.605   1.756  11.650  0.3853 -0.3631  0.2869
  803MPD2    H311886   3.646   1.727  11.878 -1.0062  2.7512  0.9752
  803MPD2     N11887   4.077   1.829  11.857 -0.0998  0.1742 -0.3931
  803MPD2    H511888   4.081   1.819  11.958  3.1638  0.0013 -0.5390
  803MPD2    N111889   3.798   1.840  11.453 -1.0814  0.2508  0.0840
  803MPD2    H711890   3.876   1.864  11.393 -1.1338 -1.0411 -0.5199
  804MPD2     C11891   3.596   3.677  16.904  0.0398 -0.1400  0.2229
  804MPD2    C111892   3.655   3.638  17.023  0.7424 -0.6699 -0.3922
  804MPD2    C211893   3.722   3.731  17.096 -0.5430 -0.3402  0.4203
  804MPD2    C311894   3.753   3.858  17.047  0.1692  0.4962 -0.1994
  804MPD2    C411895   3.706   3.894  16.919  0.1232 -0.0532  0.6581
  804MPD2    C511896   3.625   3.803  16.852 -0.5331 -0.3484  0.0250
  804MPD2     H11897   3.762   3.698  17.191 -0.2755  2.7155  1.3597
  804MPD2    H111898   3.730   3.988  16.871 -2.0036  2.1763  4.0097
  804MPD2    H211899   3.536   3.616  16.837  3.4425 -1.6589 -1.4671
  804MPD2    H311900   3.596   3.828  16.751 -0.3699 -0.4136 -0.0374
  804MPD2     N11901   3.845   3.935  17.119  0.0176 -0.0716  0.1893
  804MPD2    H511902   3.882   3.900  17.207  1.5015  0.6322 -0.1554
  804MPD2    N111903   3.644   3.511  17.087  0.2741 -0.4401 -0.2189
  804MPD2    H711904   3.697   3.492  17.171 -1.3858  0.4662  1.0345
  805MPD2     C11905   2.934   1.767  15.221  0.1004 -0.2608 -0.2218
  805MPD2    C111906   2.953   1.901  15.243  0.6275 -0.0854  0.4860
  805MPD2    C211907   3.073   1.934  15.313  0.8706 -0.6139 -0.1185
  805MPD2    C311908   3.158   1.831  15.358 -0.7547 -0.2644  0.0641
  805MPD2    C411909   3.128   1.704  15.329 -0.0649 -0.6692  0.3175
  805MPD2    C511910   3.018   1.669  15.262 -0.0182  0.2900  0.2101
  805MPD2     H11911   3.102   2.038  15.316 -2.5324  0.3236  0.2916
  805MPD2    H111912   3.198   1.626  15.357  2.6660  1.5453 -0.2852
  805MPD2    H211913   2.848   1.739  15.161  0.7118 -0.2955 -1.0837
  805MPD2    H311914   2.998   1.566  15.238  2.5226  0.1204 -1.2145
  805MPD2     N11915   3.271   1.872  15.428 -0.2952  0.1764 -0.9825
  805MPD2    H511916   3.289   1.970  15.447 -0.2027  0.2891 -1.6680
  805MPD2    N111917   2.862   2.001  15.192 -0.4416  0.0821 -0.2698
  805MPD2    H711918   2.890   2.094  15.221 -0.1387  0.6999 -2.5726
  806MPD2     C11919   2.751   1.437   0.206  0.0095 -0.6193 -0.1457
  806MPD2    C111920   2.838   1.498   0.294  0.1393 -1.0433 -0.2207
  806MPD2    C211921   2.932   1.594   0.256  0.8467 -0.2346  0.1013
  806MPD2    C311922   2.953   1.630   0.124  0.2589  0.4379 -0.6499
  806MPD2    C411923   2.867   1.568   0.035 -0.5853 -0.0505 -0.9086
  806MPD2    C511924   2.771   1.472   0.076 -0.0431 -0.6868 -0.6186
  806MPD2     H11925   2.999   1.641   0.328 -0.1900 -0.1000  0.9902
  806MPD2    H111926   2.892   1.582  17.681  0.1347  3.4944 -0.2678
  806MPD2    H211927   2.676   1.366   0.239 -1.2095  0.5332 -0.4041
  806MPD2    H311928   2.715   1.422  17.748 -0.4855  0.0037 -0.7452
  806MPD2     N11929   3.049   1.732   0.096  0.1153  1.2055 -0.3281
  806MPD2    H511930   3.104   1.754   0.179 -1.1358 -0.4314  0.9264
  806MPD2    N111931   2.822   1.463   0.430 -0.4836 -0.0896 -0.0815
  806MPD2    H711932   2.765   1.379   0.442  0.8360 -0.7038  1.7844
  807MPD2     C11933   2.711   0.822   0.810  0.8426 -0.7894 -0.3862
  807MPD2    C111934   2.828   0.878   0.870  0.1783 -0.4523  0.1668
  807MPD2    C211935   2.884   0.809   0.977  0.3865  0.0486 -0.6412
  807MPD2    C311936   2.819   0.698   1.038  0.2378 -0.1682 -0.6087
  807MPD2    C411937   2.701   0.663   0.984 -0.6461 -0.5526  0.9410
  807MPD2    C511938   2.653   0.712   0.864 -0.3165 -0.2260  1.0403
  807MPD2     H11939   2.971   0.854   1.024 -0.0874  0.4397 -0.1275
  807MPD2    H111940   2.634   0.591   1.029 -1.1370 -3.1993 -3.9930
  807MPD2    H211941   2.651   0.868   0.732 -0.3448  1.3739  1.8267
  807MPD2    H311942   2.559   0.688   0.815 -1.4406  0.5983  2.7929
  807MPD2     N11943   2.871   0.649   1.157  0.4643 -0.6009 -0.0246
  807MPD2    H511944   2.964   0.675   1.189  0.3676 -3.4025  2.5170
  807MPD2    N111945   2.881   1.006   0.827  0.4614 -0.0685  0.0259
  807MPD2    H711946   2.967   1.037   0.871  0.6914  1.5144 -1.5653
  808MPD2     C11947   3.470   3.196   9.615  0.1440 -0.4298  0.8360
  808MPD2    C111948   3.390   3.232   9.505  0.3797 -0.4952 -0.7459
  808MPD2    C211949   3.394   3.363   9.457  0.6634  0.0440 -0.2538
  808MPD2    C311950   3.461   3.462   9.526 -0.5164  0.0022 -0.2372
  808MPD2    C411951   3.519   3.427   9.643 -0.2612  0.5092  0.1060
  808MPD2    C511952   3.529   3.295   9.680  0.0307 -0.4379 -0.0017
  808MPD2     H11953   3.333   3.392   9.373 -0.6062 -1.7723  0.0572
  808MPD2    H111954   3.570   3.504   9.700 -1.5830 -0.8997  3.1625
  808MPD2    H211955   3.490   3.092   9.640  0.5942 -0.4266  0.4831
  808MPD2    H311956   3.598   3.274   9.761  1.7299 -1.4119 -1.7143
  808MPD2     N11957   3.455   3.595   9.486 -0.7325 -0.2436  0.0130
  808MPD2    H511958   3.512   3.659   9.541 -0.8954 -0.0509 -0.0434
  808MPD2    N111959   3.303   3.145   9.435  0.2087  0.4039 -0.2403
  808MPD2    H711960   3.232   3.190   9.378 -0.7422  1.7617  2.0098
  809MPD2     C11961   3.917   3.740   8.864 -0.3853 -0.4771  0.2715
  809MPD2    C111962   3.949   3.821   8.970  0.1887  0.7520  0.3651
  809MPD2    C211963   3.844   3.890   9.032  0.3394  0.4585  0.2401
  809MPD2    C311964   3.712   3.878   8.997 -0.1439  0.2268  0.3089
  809MPD2    C411965   3.687   3.806   8.886  0.1000  0.0250  0.0710
  809MPD2    C511966   3.789   3.739   8.821  0.0599 -0.4909  0.6690
  809MPD2     H11967   3.881   3.956   9.110 -0.7572  1.6325 -0.2299
  809MPD2    H111968   3.588   3.788   8.846 -0.0337  1.0929 -0.0738
  809MPD2    H211969   3.994   3.692   8.805  0.3030  2.1147 -0.9438
  809MPD2    H311970   3.770   3.679   8.733  0.1025 -0.2886  0.5232
  809MPD2     N11971   3.600   3.929   9.064 -0.1869  0.5778  0.4870
  809MPD2    H511972   3.509   3.919   9.021  1.1265 -1.7111 -1.7937
  809MPD2    N111973   4.082   3.833   9.008  0.2017 -0.0785 -0.0999
  809MPD2    H711974   4.093   3.908   9.075 -0.6859  1.4842 -1.6898
  810MPD2     C11975   3.507   2.225  10.262  0.2159 -0.5560 -0.0951
  810MPD2    C111976   3.426   2.333  10.285  0.4721 -0.0913  0.0689
  810MPD2    C211977   3.469   2.462  10.258 -1.0673 -0.2805 -0.0461
  810MPD2    C311978   3.595   2.484  10.205  0.1168  0.4728  0.4925
  810MPD2    C411979   3.675   2.374  10.187  0.2081  0.1021 -0.1240
  810MPD2    C511980   3.627   2.247  10.204 -0.0614 -0.4567  0.3141
  810MPD2     H11981   3.401   2.545  10.270 -1.6940 -0.7947 -0.0382
  810MPD2    H111982   3.772   2.378  10.138 -0.1479 -0.5382 -0.8863
  810MPD2    H211983   3.486   2.119  10.275  0.9429 -0.7230 -0.2901
  810MPD2    H311984   3.693   2.163  10.188  0.1663  0.1593 -1.9763
  810MPD2     N11985   3.655   2.613  10.173 -0.0477 -0.1930 -0.0890
  810MPD2    H511986   3.750   2.614  10.137 -0.0870 -1.7769 -0.2245
  810MPD2    N111987   3.299   2.316  10.345  0.1566  0.5862 -0.0910
  810MPD2    H711988   3.248   2.404  10.351  0.4765  0.6993  0.9123
  811MPD2     C11989   2.541   2.301   9.934  0.2732 -0.3566  0.1242
  811MPD2    C111990   2.641   2.368  10.005  0.0558 -0.4177  0.3832
  811MPD2    C211991   2.639   2.506   9.995 -0.4787  0.2750 -0.2081
  811MPD2    C311992   2.546   2.577   9.920  0.3652  0.2068 -0.7011
  811MPD2    C411993   2.457   2.512   9.844  0.3466  0.4966 -0.6846
  811MPD2    C511994   2.448   2.372   9.860  0.2119 -0.0003 -0.3112
  811MPD2     H11995   2.707   2.572  10.047 -0.4709  0.8860 -0.9820
  811MPD2    H111996   2.397   2.556   9.765  0.8520 -1.1228 -1.9536
  811MPD2    H211997   2.555   2.195   9.949 -1.3909 -0.6704 -0.5646
  811MPD2    H311998   2.375   2.323   9.797  0.9430 -0.3774 -0.8707
  811MPD2     N11999   2.547   2.719   9.940  0.8626  0.2342 -0.3747
  811MPD2    H512000   2.634   2.764   9.966  0.7587  0.8218 -1.0404
  811MPD2    N112001   2.730   2.293  10.081  0.5097  0.4225  0.0246
  811MPD2    H712002   2.702   2.196  10.095 -0.8284  1.0085  1.3151
  812MPD2     C12003   1.994   2.414  12.099  0.3056 -0.3219  0.6062
  812MPD2    C112004   1.933   2.472  12.212  0.5443 -0.3519 -0.4262
  812MPD2    C212005   1.974   2.431  12.341 -0.0795 -0.5516 -0.0731
  812MPD2    C312006   2.060   2.319  12.359 -0.4864 -0.2493  0.5309
  812MPD2    C412007   2.103   2.256  12.251 -0.4333 -0.2538  1.0549
  812MPD2    C512008   2.070   2.299  12.120  0.0801 -0.3200 -0.1555
  812MPD2     H12009   1.944   2.476  12.435  1.9328 -0.8407  0.6964
  812MPD2    H112010   2.162   2.165  12.245  0.5755  0.4644  0.1540
  812MPD2    H212011   1.965   2.461  12.006  2.1270 -1.2020 -0.4065
  812MPD2    H312012   2.101   2.242  12.033  0.1418 -1.2375  0.4756
  812MPD2     N12013   2.109   2.286  12.491  0.4196 -0.2748 -0.0980
  812MPD2    H512014   2.067   2.329  12.573  1.0276  3.1709 -1.5740
  812MPD2    N112015   1.858   2.592  12.187 -0.2249 -0.2250  0.4063
  812MPD2    H712016   1.803   2.598  12.102 -0.6177  0.3506  0.7040
  813MPD2     C12017   1.875   4.027  13.305  0.1111 -0.3677 -1.0026
  813MPD2    C112018   1.787   4.134  13.309 -0.1565 -0.1850 -0.0903
  813MPD2    C212019   1.653   4.104  13.328  1.0166 -0.0852  0.0832
  813MPD2    C312020   1.605   3.978  13.354  0.4627  0.0555 -0.6527
  813MPD2    C412021   1.686   3.869  13.338  0.5254  0.4483  0.6075
  813MPD2    C512022   1.823   3.900  13.326  0.8040 -0.4466  0.3225
  813MPD2     H12023   1.582   4.186  13.323  1.1534 -0.0393 -1.0669
  813MPD2    H112024   1.650   3.769  13.353 -0.0174  0.4344 -0.7979
  813MPD2    H212025   1.983   4.036  13.303  0.2701 -2.3835 -1.7275
  813MPD2    H312026   1.887   3.812  13.318 -0.8274 -1.6524  0.6252
  813MPD2     N12027   1.464   3.969  13.378  0.5445 -0.8268 -1.2193
  813MPD2    H512028   1.411   4.054  13.359  1.2113  0.0195  0.6820
  813MPD2    N112029   1.841   4.262  13.282 -0.2418 -0.1387  0.6541
  813MPD2    H712030   1.941   4.278  13.284 -0.4280  0.7714  2.8612
  814MPD2     C12031   1.648   0.975  12.645  0.4884  0.0592 -0.1201
  814MPD2    C112032   1.776   0.945  12.658  0.1768  0.1404  0.0363
  814MPD2    C212033   1.872   1.039  12.684  0.0930  0.2645 -0.3131
  814MPD2    C312034   1.841   1.169  12.716  0.7449 -0.1704  0.9437
  814MPD2    C412035   1.704   1.205  12.714  0.0239  0.0110 -0.4906
  814MPD2    C512036   1.615   1.105  12.677  0.4783  0.9004 -0.4547
  814MPD2     H12037   1.976   1.011  12.670 -0.0904 -1.7674  2.2283
  814MPD2    H112038   1.664   1.304  12.733 -0.9016  0.0188 -2.4974
  814MPD2    H212039   1.573   0.903  12.612 -0.7161  1.6506 -0.8682
  814MPD2    H312040   1.509   1.131  12.671  1.3010  4.4027  0.1301
  814MPD2     N12041   1.939   1.265  12.747  0.0907  0.0495 -0.1227
  814MPD2    H512042   1.897   1.354  12.773  0.7850  0.2982  0.1479
  814MPD2    N112043   1.810   0.814  12.630  0.2225  0.8043  0.4596
  814MPD2    H712044   1.907   0.786  12.632  0.8816  2.8496 -3.5522
  815MPD2     C12045   1.856   3.408  12.399 -0.2958 -0.3363 -0.4644
  815MPD2    C112046   1.852   3.454  12.275  0.4044 -0.5605 -0.3674
  815MPD2    C212047   1.724   3.496  12.223  0.0535  0.4161 -0.3215
  815MPD2    C312048   1.612   3.485  12.303 -0.9009 -0.0759 -1.1573
  815MPD2    C412049   1.627   3.435  12.429  0.1061 -0.0307  0.5366
  815MPD2    C512050   1.748   3.401  12.476 -0.1814  0.0435  0.0160
  815MPD2     H12051   1.722   3.518  12.117  0.1887  2.4646  0.1037
  815MPD2    H112052   1.546   3.456  12.498 -0.0574 -1.5017  0.7911
  815MPD2    H212053   1.951   3.359  12.420 -0.5540 -1.8297 -2.7930
  815MPD2    H312054   1.762   3.349  12.570 -2.5483  1.1049  0.9663
  815MPD2     N12055   1.490   3.524  12.243 -0.0457 -0.0149  0.8701
  815MPD2    H512056   1.498   3.562  12.149  0.5367 -2.1956  0.0496
  815MPD2    N112057   1.973   3.446  12.201  0.3386  0.3794 -0.2664
  815MPD2    H712058   2.056   3.406  12.244 -0.2723 -1.0755 -0.4474
  816MPD2     C12059   2.216   2.890  16.728  0.0127  1.6483 -0.7337
  816MPD2    C112060   2.215   3.019  16.677 -1.0218 -0.2737  0.3249
  816MPD2    C212061   2.336   3.068  16.636 -0.2911  0.5224  0.0573
  816MPD2    C312062   2.447   2.989  16.623 -0.4541  0.3397 -0.2339
  816MPD2    C412063   2.447   2.859  16.671 -0.3158  0.5876  0.9838
  816MPD2    C512064   2.331   2.812  16.722 -0.0613 -0.2363  0.5149
  816MPD2     H12065   2.342   3.171  16.605  0.1563  0.8962  1.4053
  816MPD2    H112066   2.534   2.795  16.673 -1.1895 -0.6277 -0.2888
  816MPD2    H212067   2.126   2.846  16.770  1.8542 -0.4365  1.0092
  816MPD2    H312068   2.327   2.711  16.761 -0.3938  0.0774  1.3072
  816MPD2     N12069   2.573   3.036  16.566  0.2877  0.3700  1.0645
  816MPD2    H512070   2.651   2.971  16.561  0.2429  0.5031 -1.3535
  816MPD2    N112071   2.092   3.091  16.678 -0.6005 -0.3958 -0.3077
  816MPD2    H712072   2.012   3.046  16.722 -0.1895  0.5888  1.4391
  817MPD2     C12073   1.482   0.151  10.172  0.0594 -0.3546  0.3477
  817MPD2    C112074   1.507   0.127  10.040  0.8599  0.1728 -0.1815
  817MPD2    C212075   1.452   0.213   9.950 -0.0855  0.3160  0.5275
  817MPD2    C312076   1.385   0.327   9.979  0.2608  0.4523 -0.0270
  817MPD2    C412077   1.367   0.352  10.118 -0.5254 -0.5948 -0.0369
  817MPD2    C512078   1.402   0.256  10.209 -0.3940  0.3319  0.2958
  817MPD2     H12079   1.466   0.192   9.844 -0.1773  0.5569  0.4683
  817MPD2    H112080   1.318   0.442  10.152  1.0124  0.2859 -0.1881
  817MPD2    H212081   1.512   0.081  10.249 -0.7165 -1.9517 -0.7906
  817MPD2    H312082   1.390   0.295  10.310 -0.2280  0.3687  0.3017
  817MPD2     N12083   1.334   0.420   9.876  0.5066  0.1907 -1.1299
  817MPD2    H512084   1.349   0.397   9.778 -2.4063 -0.5537 -1.3867
  817MPD2    N112085   1.561   0.012   9.982  0.0158  0.4306 -0.3145
  817MPD2    H712086   1.564   0.021   9.881  3.3309 -1.5423 -0.3932
  818MPD2     C12087   4.493   0.209   9.783 -0.2303  0.5184  1.1024
  818MPD2    C112088   4.609   0.153   9.828  0.4909 -0.7806  0.1030
  818MPD2    C212089   4.618   0.014   9.851 -0.1749 -0.2440  0.3276
  818MPD2    C312090   4.511   4.678   9.817 -0.4304 -0.2473 -0.3387
  818MPD2    C412091   4.396   4.731   9.766 -0.4040 -0.8983  0.3964
  818MPD2    C512092   4.389   0.126   9.745  0.6494  0.1782  0.0653
  818MPD2     H12093   4.712   4.711   9.888 -0.1520  0.9918  1.6649
  818MPD2    H112094   4.318   4.670   9.721 -0.9801 -0.6970  1.1362
  818MPD2    H212095   4.476   0.315   9.765 -0.6887  0.3573  0.5916
  818MPD2    H312096   4.294   0.160   9.705  0.2135  0.1458  1.0842
  818MPD2     N12097   4.513   4.536   9.842  0.1085  0.2228 -0.8886
  818MPD2    H512098   4.430   4.484   9.815  1.7090 -1.8081 -1.9566
  818MPD2    N112099   4.724   0.237   9.867 -0.8452 -1.0548 -0.0975
  818MPD2    H712100   0.074   0.199   9.900  0.0462  2.5136  1.5979
  819MPD2     C12101   3.781   1.925  15.378  0.5462  0.3559 -0.5432
  819MPD2    C112102   3.798   1.790  15.380  0.1808  0.5496  0.4192
  819MPD2    C212103   3.876   1.732  15.483  0.0986  0.3548  0.3088
  819MPD2    C312104   3.935   1.804  15.582 -0.5541 -0.4082 -0.2594
  819MPD2    C412105   3.919   1.947  15.575 -0.4283 -0.0215 -0.0280
  819MPD2    C512106   3.839   2.004  15.478  0.2006  0.0451 -0.7917
  819MPD2     H12107   3.878   1.624  15.487  2.9562  0.5276  3.6281
  819MPD2    H112108   3.970   2.006  15.651  0.7028  0.0828 -0.8645
  819MPD2    H212109   3.724   1.960  15.293  0.1731  0.0959 -0.4020
  819MPD2    H312110   3.829   2.112  15.473 -0.1362  0.0103 -0.8683
  819MPD2     N12111   3.990   1.726  15.690  0.5984 -0.4989 -0.2891
  819MPD2    H512112   4.003   1.626  15.679  1.6251 -0.4674  0.5534
  819MPD2    N112113   3.712   1.719  15.295 -0.6443 -0.4861  0.2794
  819MPD2    H712114   3.650   1.767  15.231  1.7965  0.8974 -1.0362
  820MPD2     C12115   2.864   1.721  14.744  0.3014 -0.0089  0.5027
  820MPD2    C112116   2.949   1.822  14.794  0.7689 -0.3016 -0.2191
  820MPD2    C212117   3.051   1.790  14.875 -0.5983  0.1677  0.8604
  820MPD2    C312118   3.083   1.651  14.893 -0.9151 -0.0753 -0.4663
  820MPD2    C412119   2.997   1.559  14.850 -0.1376 -0.2405 -0.0679
  820MPD2    C512120   2.889   1.591  14.768 -0.4703  0.4468 -0.0463
  820MPD2     H12121   3.127   1.858  14.912  0.1068  0.2172 -0.6751
  820MPD2    H112122   3.038   1.459  14.846 -1.9356 -0.9708 -0.1727
  820MPD2    H212123   2.777   1.740  14.684 -0.6086 -2.6683  1.0099
  820MPD2    H312124   2.832   1.505  14.735 -0.3079  0.4358 -0.2951
  820MPD2     N12125   3.197   1.595  14.959  0.2820  0.2222  0.6656
  820MPD2    H512126   3.190   1.494  14.969  0.5033  0.1356 -0.0550
  820MPD2    N112127   2.896   1.953  14.765 -0.0924  0.5959 -0.3508
  820MPD2    H712128   2.825   1.961  14.694 -1.5794 -2.5408  0.7981
  821MPD2     C12129   3.592   2.134  12.786  0.9999  0.7151 -0.4017
  821MPD2    C112130   3.706   2.215  12.774  0.2588  0.2976  0.0408
  821MPD2    C212131   3.755   2.248  12.649  0.0368  0.4671 -0.5814
  821MPD2    C312132   3.706   2.189  12.536  0.3214 -0.1563  0.6548
  821MPD2    C412133   3.598   2.105  12.548  0.0037 -0.4598 -0.2210
  821MPD2    C512134   3.538   2.082  12.670  0.6014  0.1905 -1.0311
  821MPD2     H12135   3.825   2.330  12.651  1.7745 -1.0714  1.3068
  821MPD2    H112136   3.549   2.059  12.463 -0.1406 -0.0432 -0.3681
  821MPD2    H212137   3.548   2.103  12.880  0.2820 -1.1768 -1.3677
  821MPD2    H312138   3.449   2.019  12.675  0.5538  0.1675 -2.0400
  821MPD2     N12139   3.747   2.228  12.403 -0.3788 -0.0498  0.0631
  821MPD2    H512140   3.694   2.191  12.325 -1.2489 -0.1205  0.6930
  821MPD2    N112141   3.762   2.289  12.876 -0.1629  0.4162 -0.4477
  821MPD2    H712142   3.843   2.347  12.853  0.2692  1.4082  3.5561
  822MPD2     C12143   4.550   3.104  15.586 -0.5619 -0.2014  0.6495
  822MPD2    C112144   4.518   3.064  15.711 -0.3382  0.2896 -0.2013
  822MPD2    C212145   4.426   3.142  15.786  0.0985 -0.1643  0.2854
  822MPD2    C312146   4.362   3.250  15.731  0.5039 -0.0709  0.7533
  822MPD2    C412147   4.396   3.286  15.602  0.1431  0.1337  0.2018
  822MPD2    C512148   4.492   3.220  15.533 -0.2562 -0.8520 -0.0151
  822MPD2     H12149   4.385   3.104  15.879 -0.5243  2.5378  1.1153
  822MPD2    H112150   4.359   3.374  15.550  0.8065 -0.2788 -0.9665
  822MPD2    H212151   4.609   3.040  15.522  0.8746  3.5880 -1.8439
  822MPD2    H312152   4.513   3.261  15.435 -1.5069 -1.6331 -0.6090
  822MPD2     N12153   4.281   3.328  15.818  0.0460 -0.0103  0.2437
  822MPD2    H512154   4.259   3.290  15.909  3.7799 -1.5732  0.4721
  822MPD2    N112155   4.572   2.944  15.765  0.0270 -0.3053 -0.7379
  822MPD2    H712156   4.533   2.903  15.850  0.2463  0.1439 -0.4191
  823MPD2     C12157   3.792   3.540  16.511 -0.1453  0.4859 -0.2411
  823MPD2    C112158   3.890   3.475  16.440  0.2531 -0.3209  0.0045
  823MPD2    C212159   3.965   3.382  16.515  0.7192  0.1624 -0.4736
  823MPD2    C312160   3.938   3.359  16.658  0.5873 -0.0823  0.1847
  823MPD2    C412161   3.840   3.426  16.719  0.5744  0.3126  0.3301
  823MPD2    C512162   3.767   3.516  16.642  0.5611  0.3190  0.0900
  823MPD2     H12163   4.037   3.322  16.461 -0.4927 -2.1259  0.4487
  823MPD2    H112164   3.806   3.417  16.822 -0.4148 -1.3613 -0.1505
  823MPD2    H212165   3.720   3.597  16.455 -1.8986 -0.3856  1.1302
  823MPD2    H312166   3.688   3.578  16.684  1.0092  0.3572  0.8867
  823MPD2     N12167   4.009   3.259  16.729 -0.0954  0.3754 -0.2302
  823MPD2    H512168   3.989   3.253  16.828  1.8596  1.1656  0.2008
  823MPD2    N112169   3.915   3.510  16.305  0.5610 -0.1150 -0.3971
  823MPD2    H712170   3.867   3.586  16.257 -1.3184 -0.4371  1.0131
  824MPD2     C12171   0.312   2.169  15.984 -0.6227  0.0539 -0.9856
  824MPD2    C112172   0.290   2.237  15.870 -0.2265  0.5402  0.0974
  824MPD2    C212173   0.328   2.200  15.743  0.7462 -0.5243 -0.2766
  824MPD2    C312174   0.371   2.065  15.729 -0.3140 -0.0003  0.0255
  824MPD2    C412175   0.390   1.994  15.847 -0.2709 -0.4038 -0.6891
  824MPD2    C512176   0.362   2.043  15.969  0.1080  0.8431  0.6756
  824MPD2     H12177   0.318   2.257  15.651 -1.6253 -0.1611  0.2074
  824MPD2    H112178   0.420   1.890  15.843  1.0776 -0.1118  2.0963
  824MPD2    H212179   0.307   2.211  16.083  0.2103 -1.5016 -0.2755
  824MPD2    H312180   0.377   1.984  16.059 -1.1494  2.1057  1.7063
  824MPD2     N12181   0.423   2.021  15.602 -0.4742  0.6100  0.0084
  824MPD2    H512182   0.423   2.093  15.529  0.0354  0.0269 -0.5720
  824MPD2    N112183   0.234   2.368  15.894 -0.1648 -0.6316 -0.7103
  824MPD2    H712184   0.226   2.401  15.989 -0.4982  0.3785 -1.0890
  825MPD2     C12185   0.992   2.298  15.080 -0.2645 -0.3503  0.1019
  825MPD2    C112186   0.926   2.296  15.197 -0.1596 -0.1771 -0.7934
  825MPD2    C212187   0.921   2.419  15.271 -0.7597  0.1544 -0.7484
  825MPD2    C312188   0.974   2.540  15.222 -1.0021 -0.2899 -0.0695
  825MPD2    C412189   1.038   2.539  15.097 -0.4141 -0.9236 -0.0617
  825MPD2    C512190   1.051   2.414  15.036  0.1943 -0.1211 -0.1936
  825MPD2     H12191   0.868   2.411  15.365 -1.2728 -0.5873 -1.0961
  825MPD2    H112192   1.089   2.628  15.063 -2.5412  0.6345  0.7763
  825MPD2    H212193   1.004   2.204  15.027  0.2349 -1.1414  1.6286
  825MPD2    H312194   1.121   2.402  14.953 -0.0455  0.4894 -0.4857
  825MPD2     N12195   0.960   2.661  15.291 -0.5996  0.0313  0.0079
  825MPD2    H512196   0.992   2.745  15.244  0.4825  0.0500  0.7623
  825MPD2    N112197   0.864   2.177  15.242 -0.3293 -0.9307 -0.2613
  825MPD2    H712198   0.868   2.102  15.174  0.0371 -1.6642  0.5817
  826MPD2     C12199   4.718   1.656  13.816  0.2185 -0.2256  0.6055
  826MPD2    C112200   4.675   1.717  13.703 -0.0865 -0.2182  0.3463
  826MPD2    C212201   4.644   1.851  13.705 -0.3695 -0.0593  1.2218
  826MPD2    C312202   4.641   1.914  13.828 -0.4412 -0.0107 -0.2999
  826MPD2    C412203   4.687   1.848  13.941  0.1591 -0.4561  0.5349
  826MPD2    C512204   4.724   1.713  13.934  0.6703  0.5901 -0.0265
  826MPD2     H12205   4.610   1.910  13.620 -0.6443 -2.0408 -0.0494
  826MPD2    H112206   4.689   1.897  14.037 -1.3294 -0.2975  0.4924
  826MPD2    H212207   0.023   1.557  13.808 -0.4326 -0.7739  3.8164
  826MPD2    H312208   0.018   1.657  14.021  3.1512 -0.6756 -1.7855
  826MPD2     N12209   4.610   2.056  13.844 -0.5031  0.1116  0.3236
  826MPD2    H512210   4.611   2.088  13.941  2.0484  0.3341  0.2151
  826MPD2    N112211   4.690   1.643  13.587  0.5392  0.0859 -0.5320
  826MPD2    H712212   4.734   1.551  13.590 -0.3168 -0.3350 -0.6597
  827MPD2     C12213   0.692   3.741  10.140  0.0158  0.0061  0.3933
  827MPD2    C112214   0.706   3.604  10.159  0.2360 -0.1710  0.1777
  827MPD2    C212215   0.655   3.513  10.072 -0.2714  0.6547 -0.2515
  827MPD2    C312216   0.595   3.561   9.952  0.1779 -0.0951  1.1658
  827MPD2    C412217   0.590   3.694   9.924  0.5355  0.2009  0.4258
  827MPD2    C512218   0.631   3.782  10.020  0.0239  0.1432 -0.2514
  827MPD2     H12219   0.666   3.406  10.082 -0.2526  0.5697 -1.2151
  827MPD2    H112220   0.534   3.738   9.841  0.3133 -1.0275 -0.0738
  827MPD2    H212221   0.733   3.819  10.203  0.7961  0.7058 -0.9918
  827MPD2    H312222   0.619   3.886   9.993  1.1379  0.2412 -0.4003
  827MPD2     N12223   0.551   3.465   9.861  0.4501 -0.0631  0.3207
  827MPD2    H512224   0.524   3.372   9.894  1.1457  0.0273  1.1241
  827MPD2    N112225   0.788   3.559  10.264 -0.6119 -1.0674  0.3071
  827MPD2    H712226   0.831   3.627  10.326  2.6367 -2.6679 -0.1779
  828MPD2     C12227   4.556   2.956  11.841 -0.4217  0.2232  0.3583
  828MPD2    C112228   4.488   3.068  11.802  0.1105  0.4580 -0.2714
  828MPD2    C212229   4.519   3.111  11.677 -0.1108 -0.2124  0.1111
  828MPD2    C312230   4.600   3.050  11.586 -0.0430  0.2701  0.4842
  828MPD2    C412231   4.675   2.945  11.631 -0.1479 -0.7334 -0.3432
  828MPD2    C512232   4.651   2.903  11.760  0.9933  0.4941 -0.2410
  828MPD2     H12233   4.470   3.205  11.655  0.4292  0.0870  0.1963
  828MPD2    H112234   0.013   2.898  11.570 -0.7529 -1.9525 -0.1503
  828MPD2    H212235   4.541   2.919  11.941  1.6273 -2.4327 -0.3201
  828MPD2    H312236   4.713   2.826  11.805 -0.6857 -0.5898  0.2002
  828MPD2     N12237   4.624   3.105  11.461 -0.0437 -0.1783 -0.2777
  828MPD2    H512238   4.688   3.049  11.405  1.0645 -0.1766  0.9676
  828MPD2    N112239   4.391   3.137  11.878  0.6000 -0.0240  0.3696
  828MPD2    H712240   4.359   3.218  11.825  2.9738 -0.5582 -1.8364
  829MPD2     C12241   4.063   3.860  11.664 -0.5325 -0.5937 -0.1312
  829MPD2    C112242   3.991   3.836  11.776 -0.5944 -0.1996 -0.9235
  829MPD2    C212243   4.032   3.741  11.870  0.4113  0.7934  0.8850
  829MPD2    C312244   4.150   3.673  11.855  0.3439 -0.5618  0.3861
  829MPD2    C412245   4.220   3.695  11.737  0.3415 -0.2715  0.3105
  829MPD2    C512246   4.182   3.790  11.650 -0.7426 -0.2388  0.0242
  829MPD2     H12247   3.966   3.729  11.955  0.5582  1.3661  1.0809
  829MPD2    H112248   4.319   3.652  11.722  0.0211 -0.6641 -0.6359
  829MPD2    H212249   4.043   3.936  11.590  3.2428  0.7744  0.2376
  829MPD2    H312250   4.254   3.803  11.570 -0.3812 -0.2945  0.3408
  829MPD2     N12251   4.178   3.557  11.929  0.0788 -0.4073  0.2147
  829MPD2    H512252   4.245   3.498  11.881 -1.3242 -2.3020  0.5974
  829MPD2    N112253   3.866   3.906  11.801  0.0750 -0.1174 -0.1306
  829MPD2    H712254   3.823   3.887  11.891  0.8013 -0.9920  0.0312
  830MPD2     C12255   4.032   1.146  15.657  0.1340 -0.9827  0.0997
  830MPD2    C112256   4.134   1.188  15.745  0.0189  0.2106  0.1782
  830MPD2    C212257   4.267   1.155  15.727  0.6630  0.3108  0.1024
  830MPD2    C312258   4.304   1.087  15.613 -0.1965  0.2462 -0.2751
  830MPD2    C412259   4.208   1.043  15.531  0.5645 -0.0472 -0.5519
  830MPD2    C512260   4.080   1.070  15.558  0.0612  0.1057  0.0997
  830MPD2     H12261   4.346   1.188  15.795 -0.9149  1.8901  1.1724
  830MPD2    H112262   4.236   0.973  15.453  0.4094  1.2148 -1.7330
  830MPD2    H212263   3.928   1.169  15.676  0.7359  0.5949  1.4735
  830MPD2    H312264   4.013   1.018  15.490  0.5890 -2.3587  1.4753
  830MPD2     N12265   4.447   1.060  15.578  0.8561  0.0198 -0.2241
  830MPD2    H512266   4.465   1.030  15.483  1.3938 -1.5643  0.3808
  830MPD2    N112267   4.087   1.282  15.834  0.2209  0.4811  0.2890
  830MPD2    H712268   3.988   1.296  15.818  0.2112 -0.1937 -0.2428
  831MPD2     C12269   4.573   3.492  16.212 -0.0890  0.2128 -0.2329
  831MPD2    C112270   4.566   3.380  16.130  0.5722  0.4311  0.1970
  831MPD2    C212271   4.471   3.281  16.152 -0.2436 -0.3982  0.2700
  831MPD2    C312272   4.375   3.294  16.253 -0.4824  0.2559 -0.4103
  831MPD2    C412273   4.386   3.402  16.342 -0.0455 -0.0782 -0.0841
  831MPD2    C512274   4.483   3.498  16.317  0.2392  0.2892 -0.0286
  831MPD2     H12275   4.466   3.201  16.079  0.9055  0.5552 -0.8615
  831MPD2    H112276   4.322   3.409  16.429  0.3246 -1.6636  0.3030
  831MPD2    H212277   4.642   3.575  16.200 -0.7805  0.8951  0.4510
  831MPD2    H312278   4.486   3.589  16.377  2.2026 -0.6096  1.2336
  831MPD2     N12279   4.271   3.198  16.269  0.2902 -0.5854  0.1766
  831MPD2    H512280   4.217   3.196  16.355  0.6293 -0.0011  0.3978
  831MPD2    N112281   4.670   3.370  16.033  0.5279 -0.2726  0.0978
  831MPD2    H712282   4.727   3.452  16.010 -0.9068  0.1648 -1.9165
  832MPD2     C12283   2.836   4.078  16.961 -0.1560  0.3514 -0.4934
  832MPD2    C112284   2.830   4.216  16.985 -0.1000  0.5775  0.9156
  832MPD2    C212285   2.704   4.279  16.969  0.2722 -0.4317 -1.0927
  832MPD2    C312286   2.602   4.215  16.906  0.0012 -0.0308  0.4781
  832MPD2    C412287   2.610   4.079  16.887 -0.4956 -0.0271  0.5915
  832MPD2    C512288   2.727   4.013  16.913  0.9107  0.1695 -0.0088
  832MPD2     H12289   2.693   4.387  16.968 -0.0222 -0.4652 -2.1014
  832MPD2    H112290   2.526   4.016  16.861 -0.9352  0.0403  1.8493
  832MPD2    H212291   2.929   4.026  16.977 -0.8823  0.0259  2.5805
  832MPD2    H312292   2.733   3.904  16.912 -2.9345 -0.0304 -0.6012
  832MPD2     N12293   2.479   4.273  16.866  0.3606  0.0746  0.2119
  832MPD2    H512294   2.412   4.211  16.821 -1.7172  1.9204  0.7739
  832MPD2    N112295   2.942   4.262  17.067  0.0151 -0.2676 -0.4762
  832MPD2    H712296   3.018   4.199  17.089  0.4294  0.4931  0.2590
  833MPD2     C12297   4.723   0.780  12.517 -0.1799 -0.6116 -0.2981
  833MPD2    C112298   0.049   0.885  12.458  0.5050  0.1949  0.6294
  833MPD2    C212299   0.180   0.860  12.418  1.0791  0.8696 -0.4444
  833MPD2    C312300   0.250   0.750  12.460 -0.0032  0.3572  0.2872
  833MPD2    C412301   0.189   0.659  12.545  1.3783  0.3397 -0.2381
  833MPD2    C512302   0.056   0.677  12.574  0.2199 -0.2658 -0.2930
  833MPD2     H12303   0.228   0.937  12.358 -0.5169  0.9754 -1.5949
  833MPD2    H112304   0.242   0.579  12.595  0.7204 -2.4008 -3.9735
  833MPD2    H212305   4.618   0.788  12.543  0.4774  2.3958  1.5038
  833MPD2    H312306   0.013   0.600  12.636 -0.2300 -0.6534 -1.0837
  833MPD2     N12307   0.376   0.729  12.408  0.7281  0.6459 -0.2456
  833MPD2    H512308   0.426   0.646  12.436  1.9443  1.3059 -0.4753
  833MPD2    N112309   4.712   1.003  12.435  0.2517  0.0038 -0.0993
  833MPD2    H712310   4.615   1.011  12.463  0.5648 -1.4020  1.3831
  834MPD2     C12311   0.556   0.139  11.644  0.4631 -0.7640  0.1640
  834MPD2    C112312   0.507   0.255  11.581 -0.4894 -0.2523 -0.1085
  834MPD2    C212313   0.510   0.374  11.651  0.0481  0.0325  1.3733
  834MPD2    C312314   0.553   0.371  11.788 -0.2054 -0.0079  0.8242
  834MPD2    C412315   0.601   0.254  11.841 -0.9003 -0.2753 -0.1517
  834MPD2    C512316   0.605   0.144  11.771 -0.8925  0.0125 -0.7949
  834MPD2     H12317   0.470   0.461  11.599  1.9389  0.1504  0.0910
  834MPD2    H112318   0.661   0.251  11.932  0.5802 -0.8737 -1.1421
  834MPD2    H212319   0.555   0.037  11.607  1.1692 -0.4884 -0.6040
  834MPD2    H312320   0.631   0.051  11.820  0.1668  1.1575  0.8022
  834MPD2     N12321   0.558   0.494  11.864  0.6767  0.7068  0.2784
  834MPD2    H512322   0.516   0.581  11.832  0.9662  0.8608  0.3222
  834MPD2    N112323   0.439   0.240  11.453 -0.7239  0.9201 -0.2545
  834MPD2    H712324   0.451   0.149  11.409 -0.3607 -0.5638  2.9078
  835MPD2     C12325   0.455   2.697  10.845 -0.2159 -0.5291 -0.2487
  835MPD2    C112326   0.376   2.804  10.884  0.1334  0.6226 -0.0481
  835MPD2    C212327   0.403   2.868  11.001 -0.1321 -0.5862  0.2206
  835MPD2    C312328   0.501   2.819  11.092  0.0771 -0.4848 -0.1249
  835MPD2    C412329   0.573   2.708  11.058 -0.2136 -0.0116 -0.0457
  835MPD2    C512330   0.549   2.652  10.936 -0.8634  0.3340 -0.8286
  835MPD2     H12331   0.358   2.962  11.031  0.2795  0.0493 -1.1233
  835MPD2    H112332   0.640   2.655  11.123  0.2327  0.4321 -0.1428
  835MPD2    H212333   0.441   2.641  10.753 -0.6427  0.0956 -0.5634
  835MPD2    H312334   0.610   2.566  10.912  0.5519  0.8376  0.9986
  835MPD2     N12335   0.504   2.857  11.234 -0.5584 -0.2747 -0.0951
  835MPD2    H512336   0.575   2.813  11.292  0.9911 -0.2179 -1.9571
  835MPD2    N112337   0.270   2.858  10.801  0.6433  0.0671 -0.8647
  835MPD2    H712338   0.219   2.937  10.839  2.2620  0.2525  0.8840
  836MPD2     C12339   0.035   3.408  11.634  0.2981  0.1623  0.2731
  836MPD2    C112340   0.101   3.304  11.708  0.2945  0.8411  0.1883
  836MPD2    C212341   0.060   3.287  11.837 -0.6670  0.4395 -0.3532
  836MPD2    C312342   4.700   3.374  11.896 -0.5037 -0.1799  0.2635
  836MPD2    C412343   4.645   3.477  11.823  0.1709 -0.1218  0.3628
  836MPD2    C512344   4.679   3.494  11.691  0.9811  0.5210  0.0683
  836MPD2     H12345   0.097   3.207  11.900 -2.9998 -0.1916  0.2314
  836MPD2    H112346   4.551   3.524  11.849  1.7057  3.0022  0.2902
  836MPD2    H212347   0.059   3.417  11.529  1.6822 -0.8629  0.4993
  836MPD2    H312348   4.633   3.560  11.618 -3.4856 -0.6002  1.8843
  836MPD2     N12349   4.647   3.365  12.027 -0.0327  0.0732 -0.3568
  836MPD2    H512350   4.574   3.433  12.047  0.6480  0.4522  0.8464
  836MPD2    N112351   0.186   3.212  11.643  0.5450  0.8729  0.6351
  836MPD2    H712352   0.199   3.230  11.544 -1.2446 -0.2256  0.1810
  837MPD2     C12353   2.899   3.429   9.990  0.0366  0.2829 -0.2562
  837MPD2    C112354   2.787   3.436   9.912  0.9593  0.3987 -0.7784
  837MPD2    C212355   2.737   3.553   9.865 -0.1796  0.6888 -0.1047
  837MPD2    C312356   2.782   3.670   9.925  0.4956  0.7042 -0.0191
  837MPD2    C412357   2.896   3.662  10.004 -0.4157 -0.6890  0.3533
  837MPD2    C512358   2.959   3.548  10.030 -1.2399  0.2630  0.3763
  837MPD2     H12359   2.647   3.562   9.804 -0.0334  0.6434 -0.3277
  837MPD2    H112360   2.949   3.753  10.030 -0.2927 -0.3823 -0.9681
  837MPD2    H212361   2.941   3.335  10.023  0.6444  1.3999  2.1539
  837MPD2    H312362   3.055   3.542  10.080 -1.4195 -0.9907  0.5786
  837MPD2     N12363   2.705   3.785   9.898 -0.7093 -0.4293 -0.7120
  837MPD2    H512364   2.621   3.770   9.843 -0.3680  0.1764 -1.4101
  837MPD2    N112365   2.698   3.321   9.898 -0.3508  0.6858  0.0496
  837MPD2    H712366   2.604   3.335   9.861 -1.2491 -1.1124  1.6367
  838MPD2     C12367   1.484   0.919  11.039  0.2446 -0.4548 -0.6490
  838MPD2    C112368   1.417   1.022  11.110  0.5559 -0.2629 -0.1330
  838MPD2    C212369   1.321   0.988  11.204 -0.6803 -0.1154  1.0335
  838MPD2    C312370   1.296   0.855  11.227 -0.0671 -0.1305  0.2130
  838MPD2    C412371   1.342   0.753  11.147 -0.0279  0.4410  0.0616
  838MPD2    C512372   1.444   0.791  11.058  0.6298 -0.4337 -0.2472
  838MPD2     H12373   1.275   1.056  11.274 -1.5460 -1.4053  1.7195
  838MPD2    H112374   1.303   0.652  11.150  0.4011  0.3368  2.1205
  838MPD2    H212375   1.564   0.929  10.966  0.1710 -2.4318 -0.9947
  838MPD2    H312376   1.490   0.724  10.985 -0.1016 -1.1599 -0.0487
  838MPD2     N12377   1.202   0.834  11.341 -0.0826 -0.0619  1.0097
  838MPD2    H512378   1.166   0.916  11.388 -2.0610 -0.8050  0.7760
  838MPD2    N112379   1.471   1.155  11.090  0.4274  0.5988  0.5416
  838MPD2    H712380   1.565   1.161  11.052  0.5693  0.7456  0.9220
  839MPD2     C12381   1.664   1.177  11.986  0.1406 -0.8249 -0.0481
  839MPD2    C112382   1.658   1.104  11.866 -0.4355 -0.1778 -0.0079
  839MPD2    C212383   1.660   1.170  11.746  0.2075  0.2234 -0.2529
  839MPD2    C312384   1.667   1.301  11.736 -0.3994  0.0880  0.6283
  839MPD2    C412385   1.681   1.376  11.856  0.2860 -0.0981 -0.0159
  839MPD2    C512386   1.678   1.312  11.979 -0.5478  0.4118  0.1308
  839MPD2     H12387   1.641   1.107  11.660  3.2840 -0.3078 -0.5433
  839MPD2    H112388   1.687   1.484  11.850  0.5167 -0.2282 -2.2424
  839MPD2    H212389   1.673   1.126  12.081  0.0905 -0.1261  0.3320
  839MPD2    H312390   1.693   1.375  12.066 -0.3008 -0.4455  0.7114
  839MPD2     N12391   1.664   1.377  11.609  0.5571 -0.8261 -0.0806
  839MPD2    H512392   1.661   1.478  11.615 -2.1569 -0.9870  1.6682
  839MPD2    N112393   1.667   0.961  11.848  0.0632  0.0956  0.0286
  839MPD2    H712394   1.674   0.927  11.753 -0.9419 -1.8120  0.6505
  840MPD2     C12395   1.436   3.667  10.314  0.5845  0.4006  0.2205
  840MPD2    C112396   1.385   3.639  10.442 -0.3819 -0.0798 -0.0751
  840MPD2    C212397   1.447   3.677  10.555  0.1761  0.4675 -0.2432
  840MPD2    C312398   1.571   3.736  10.542  0.2798  0.4391  0.3862
  840MPD2    C412399   1.629   3.759  10.417  0.3551  0.2893 -1.1764
  840MPD2    C512400   1.560   3.720  10.303  0.0348  0.3069 -0.0603
  840MPD2     H12401   1.409   3.662  10.656 -0.3104 -1.4824 -0.7237
  840MPD2    H112402   1.726   3.804  10.396 -0.0437  2.3550  1.4587
  840MPD2    H212403   1.373   3.652  10.228 -1.3978 -2.4791  2.1654
  840MPD2    H312404   1.612   3.718  10.208 -0.2266 -0.7079 -0.1840
  840MPD2     N12405   1.659   3.766  10.657 -0.4022  1.1666  0.5264
  840MPD2    H512406   1.755   3.794  10.639 -0.3718 -1.0436 -2.7071
  840MPD2    N112407   1.258   3.570  10.449  0.1657  0.2448 -0.4232
  840MPD2    H712408   1.210   3.563  10.360 -2.7644 -1.8632  1.3194
  841MPD2     C12409   1.632   3.540  13.630  0.3608 -0.3463 -0.4811
  841MPD2    C112410   1.629   3.473  13.747 -0.6731 -0.8097  0.2450
  841MPD2    C212411   1.719   3.513  13.839 -0.3928  0.3775 -0.0995
  841MPD2    C312412   1.801   3.619  13.828  0.7969 -0.2687  0.8154
  841MPD2    C412413   1.802   3.681  13.708  0.0964 -0.1656 -1.0087
  841MPD2    C512414   1.719   3.641  13.610 -1.2323 -0.2134  0.1238
  841MPD2     H12415   1.709   3.469  13.938 -0.3815  0.7503  0.0654
  841MPD2    H112416   1.861   3.771  13.693  0.6358 -0.3315  0.1039
  841MPD2    H212417   1.573   3.512  13.544  0.2102 -0.1204 -0.4540
  841MPD2    H312418   1.718   3.691  13.514 -0.1553 -0.1047  0.1664
  841MPD2     N12419   1.885   3.662  13.934 -0.3981  0.3698  0.3405
  841MPD2    H512420   1.866   3.619  14.024  0.4606 -0.7773 -0.0305
  841MPD2    N112421   1.547   3.362  13.762 -0.4153 -0.7118 -0.3902
  841MPD2    H712422   1.561   3.311  13.849 -0.3618  0.2132  0.1436
  842MPD2     C12423   1.800   4.457  16.799 -0.3495  0.1384  0.5200
  842MPD2    C112424   1.885   4.553  16.840 -0.1491  0.5483  0.8333
  842MPD2    C212425   1.974   4.533  16.942  0.6067 -0.5840  0.4570
  842MPD2    C312426   1.973   4.405  16.994 -0.2212  0.1443  0.1769
  842MPD2    C412427   1.892   4.310  16.954 -0.7661  0.3678  0.4581
  842MPD2    C512428   1.800   4.331  16.858  0.4227 -0.4547 -0.0743
  842MPD2     H12429   2.051   4.609  16.956 -0.4439  0.7403 -0.8544
  842MPD2    H112430   1.878   4.215  17.004 -1.7205 -0.4230 -1.3117
  842MPD2    H212431   1.728   4.471  16.719  0.3030  1.5921  0.1880
  842MPD2    H312432   1.728   4.260  16.818 -0.3913 -0.1165  0.7943
  842MPD2     N12433   2.061   4.372  17.101 -0.4740  0.1511 -0.3863
  842MPD2    H512434   2.045   4.279  17.139 -0.2128  1.2437  2.4407
  842MPD2    N112435   1.878   4.666  16.761  0.3367 -0.5189 -0.3219
  842MPD2    H712436   1.807   4.667  16.690 -0.7216 -2.2143  0.7207
  843MPD2     C12437   3.754   0.573   0.039  0.2832 -0.0848  1.2950
  843MPD2    C112438   3.868   0.512   0.084  0.4485  0.0531 -0.1934
  843MPD2    C212439   3.963   0.593   0.147 -0.0347 -0.2574  0.2084
  843MPD2    C312440   3.947   0.730   0.144  0.6914  0.0634  0.8530
  843MPD2    C412441   3.836   0.788   0.089 -0.5833  0.6076  0.0462
  843MPD2    C512442   3.729   0.708   0.051  0.1252  0.6139 -0.4746
  843MPD2     H12443   4.055   0.554   0.189  0.1652 -1.4217 -1.3230
  843MPD2    H112444   3.826   0.895   0.095 -0.8095  0.7740 -3.1962
  843MPD2    H212445   3.678   0.513  17.741  0.4471 -0.5255  1.5749
  843MPD2    H312446   3.644   0.760   0.009 -1.6484 -2.1554 -0.3092
  843MPD2     N12447   4.043   0.816   0.206  0.5831  0.0316 -0.5102
  843MPD2    H512448   4.033   0.917   0.198 -3.2405 -0.1777  1.6938
  843MPD2    N112449   3.881   0.371   0.074  0.5823  0.6736 -0.4035
  843MPD2    H712450   3.799   0.317   0.049  1.6911 -0.4516 -1.6404
  844MPD2     C12451   2.516   3.832  16.288  0.1979 -0.2781  0.9108
  844MPD2    C112452   2.560   3.953  16.233 -0.4974  0.1006 -0.0727
  844MPD2    C212453   2.641   4.036  16.315 -0.1097  0.4388 -0.4881
  844MPD2    C312454   2.664   3.999  16.448 -0.3686  0.3540  0.1141
  844MPD2    C412455   2.627   3.878  16.500  0.2366 -0.5177 -0.3626
  844MPD2    C512456   2.554   3.796  16.413  0.1134  0.1311  0.0085
  844MPD2     H12457   2.685   4.125  16.272  0.6147  0.7662  0.9104
  844MPD2    H112458   2.631   3.846  16.603 -2.8908  0.6469  0.1202
  844MPD2    H212459   2.450   3.766  16.233  0.9349  0.5879 -1.0445
  844MPD2    H312460   2.523   3.699  16.452 -1.2220  0.3644 -0.4746
  844MPD2     N12461   2.740   4.082  16.539 -0.8201  0.5421 -0.1439
  844MPD2    H512462   2.773   4.046  16.628  0.1284 -1.1666 -1.2028
  844MPD2    N112463   2.540   3.984  16.098  0.4269 -0.8013 -0.1705
  844MPD2    H712464   2.588   4.063  16.058 -0.2757 -0.6672 -0.7414
  845MPD2     C12465   3.011   0.230  17.081  0.4194 -0.1705 -0.0952
  845MPD2    C112466   2.910   0.135  17.096  0.4404 -0.0534  0.7751
  845MPD2    C212467   2.909   0.030  17.010 -0.7074 -0.1182  0.1797
  845MPD2    C312468   3.003   0.015  16.908 -0.1147  0.2823  0.1914
  845MPD2    C412469   3.098   0.116  16.892 -0.3908 -0.5245 -0.0008
  845MPD2    C512470   3.097   0.218  16.977  0.1017 -0.1251  1.0394
  845MPD2     H12471   2.827   4.700  17.029 -1.8897  1.1064 -0.5345
  845MPD2    H112472   3.168   0.111  16.809  0.6734 -0.1832  0.8837
  845MPD2    H212473   3.022   0.321  17.138 -0.1893  0.9822 -1.8066
  845MPD2    H312474   3.157   0.307  16.964 -1.2042  0.7496  0.9900
  845MPD2     N12475   3.017   4.640  16.828 -0.1515 -0.0199  0.2608
  845MPD2    H512476   3.106   4.626  16.780  0.4070  1.3020  0.9170
  845MPD2    N112477   2.799   0.144  17.190 -0.2257  0.2102 -0.4071
  845MPD2    H712478   2.737   0.064  17.188  0.1874 -0.1551  1.8444
  846MPD2     C12479   4.259   0.415  13.521 -0.7468 -0.7660 -0.0578
  846MPD2    C112480   4.155   0.499  13.551 -0.2465  0.3225  0.4646
  846MPD2    C212481   4.134   0.527  13.687 -0.9990  0.4042 -0.2230
  846MPD2    C312482   4.201   0.465  13.787  0.1215  0.3036 -0.2182
  846MPD2    C412483   4.309   0.384  13.754  0.4141 -0.2354 -1.2658
  846MPD2    C512484   4.339   0.367  13.625 -0.1472 -0.3857 -0.5589
  846MPD2     H12485   4.063   0.599  13.724 -0.6953  0.0773  0.9974
  846MPD2    H112486   4.362   0.336  13.835 -1.0271 -0.6874 -0.5796
  846MPD2    H212487   4.299   0.399  13.421 -2.0930  0.1154 -0.7288
  846MPD2    H312488   4.425   0.302  13.613 -0.4171 -0.5743 -1.4856
  846MPD2     N12489   4.150   0.485  13.920 -0.5000 -0.2584 -0.5679
  846MPD2    H512490   4.070   0.548  13.927 -0.3892  0.1117 -2.7966
  846MPD2    N112491   4.084   0.577  13.460 -0.6532  0.1691  0.6198
  846MPD2    H712492   4.018   0.644  13.498 -0.8798 -0.1423  0.7670
  847MPD2     C12493   4.380   1.509  14.435  0.5447 -0.2383 -1.2390
  847MPD2    C112494   4.474   1.584  14.505 -0.2217  0.9135  0.9091
  847MPD2    C212495   4.592   1.520  14.558  0.0469 -0.6726  0.3954
  847MPD2    C312496   4.613   1.387  14.537  0.2645  0.4352  0.4488
  847MPD2    C412497   4.514   1.316  14.466  0.4087  0.7825 -0.8359
  847MPD2    C512498   4.400   1.375  14.423 -0.6294  0.7959  0.2171
  847MPD2     H12499   4.662   1.578  14.617 -0.2112  0.9772 -0.9222
  847MPD2    H112500   4.517   1.209  14.452  0.8871  0.7466 -0.4451
  847MPD2    H212501   4.285   1.543  14.394 -0.2481 -0.3742  0.4876
  847MPD2    H312502   4.326   1.313  14.375 -0.1883  1.0926 -0.8312
  847MPD2     N12503   4.727   1.333  14.595  0.0131 -0.3054 -0.1296
  847MPD2    H512504   0.047   1.396  14.650  1.2967 -0.4727 -1.2885
  847MPD2    N112505   4.457   1.722  14.524  0.1304  0.1495  0.1695
  847MPD2    H712506   4.523   1.771  14.583  0.9069 -0.3252 -0.2995
  848MPD2     C12507   2.310   0.044  16.305 -0.1929 -0.1512  0.2730
  848MPD2    C112508   2.316   0.074  16.439 -0.4024 -0.1454 -0.2551
  848MPD2    C212509   2.366   0.200  16.485  0.8224 -0.2593  0.0820
  848MPD2    C312510   2.408   0.291  16.394 -0.2958 -0.5778 -0.0771
  848MPD2    C412511   2.409   0.255  16.259 -0.7374  0.2710 -0.2833
  848MPD2    C512512   2.350   0.137  16.219 -0.4309  0.0590  0.5452
  848MPD2     H12513   2.360   0.219  16.591  0.6172  2.0446 -0.3416
  848MPD2    H112514   2.434   0.333  16.188 -0.2303  0.2059 -0.1734
  848MPD2    H212515   2.279   4.689  16.257 -0.1852  0.1541 -0.3258
  848MPD2    H312516   2.330   0.124  16.113  0.5884 -1.8312  0.5741
  848MPD2     N12517   2.457   0.418  16.439 -0.1036 -0.0424  0.1051
  848MPD2    H512518   2.469   0.487  16.366  5.1234 -0.5310  0.4757
  848MPD2    N112519   2.268   4.719  16.542 -0.2468 -0.3566  0.3701
  848MPD2    H712520   2.275   0.008  16.640 -0.2526  2.7206 -0.4984
  849MPD2     C12521   1.705   3.887  14.508 -0.7967 -0.0689  0.1629
  849MPD2    C112522   1.733   3.998  14.436  0.5055 -0.2622  0.1317
  849MPD2    C212523   1.747   4.117  14.505  0.4183  0.4979 -1.0888
  849MPD2    C312524   1.741   4.123  14.641 -0.0490  0.4964  0.2620
  849MPD2    C412525   1.717   4.007  14.709  0.2152 -0.3401  0.0099
  849MPD2    C512526   1.699   3.889  14.647  0.2765 -0.5858 -0.3532
  849MPD2     H12527   1.756   4.206  14.444  0.0102  1.5111  0.3198
  849MPD2    H112528   1.693   4.013  14.815  0.6656  0.4045  0.0670
  849MPD2    H212529   1.697   3.796  14.450  0.0921  1.0502 -1.6956
  849MPD2    H312530   1.679   3.801  14.706 -0.2164  1.1109  1.9824
  849MPD2     N12531   1.777   4.237  14.716  0.2761 -0.2047 -0.4681
  849MPD2    H512532   1.800   4.210  14.811 -2.4788  0.3546  0.3552
  849MPD2    N112533   1.755   3.976  14.297 -0.0358 -1.1710  0.0820
  849MPD2    H712534   1.693   3.907  14.258 -0.9537 -0.5624  0.4641
  850MPD2     C12535   4.723   2.331  14.983  0.1937 -0.3340  0.2778
  850MPD2    C112536   0.064   2.293  15.092 -0.6831 -0.0098  0.2970
  850MPD2    C212537   0.201   2.313  15.078 -0.4068 -0.8438  0.2581
  850MPD2    C312538   0.258   2.377  14.967  0.5574 -0.4711 -0.4723
  850MPD2    C412539   0.174   2.422  14.869 -0.1841 -0.5331  0.0033
  850MPD2    C512540   0.041   2.393  14.876 -0.6076  0.2878  0.0873
  850MPD2     H12541   0.248   2.285  15.171 -1.4486  1.2361  1.3918
  850MPD2    H112542   0.217   2.470  14.782  0.2533 -0.0699  0.4824
  850MPD2    H212543   4.616   2.317  14.985  0.1282 -0.1909 -1.4862
  850MPD2    H312544   4.713   2.417  14.794 -0.6154 -3.0153 -0.8415
  850MPD2     N12545   0.401   2.398  14.956  0.4262 -0.4068  0.4634
  850MPD2    H512546   0.437   2.444  14.873  1.6776 -1.2182  0.5634
  850MPD2    N112547   0.006   2.244  15.209  0.4343  0.3085  0.2310
  850MPD2    H712548   0.056   2.187  15.275  1.0257 -2.5094 -2.6753
  851MPD2     C12549   0.108   1.844  15.917  0.6120  1.0723 -0.3836
  851MPD2    C112550   0.060   1.844  15.789 -0.3455 -0.0366  0.4147
  851MPD2    C212551   0.065   1.730  15.709 -0.3321  0.5152  0.3518
  851MPD2    C312552   0.123   1.621  15.758 -0.1923 -0.3148  0.1692
  851MPD2    C412553   0.170   1.615  15.889  0.5391  0.2593 -0.3000
  851MPD2    C512554   0.166   1.725  15.964 -0.3100 -0.1822 -0.5395
  851MPD2     H12555   0.036   1.723  15.605 -1.1269  2.8775  0.4308
  851MPD2    H112556   0.224   1.533  15.936 -0.3084  0.1265  0.4318
  851MPD2    H212557   0.102   1.939  15.969  0.9617 -0.0755  1.7371
  851MPD2    H312558   0.214   1.730  16.061  1.9468 -2.3860 -1.5449
  851MPD2     N12559   0.122   1.511  15.673 -1.0741  0.3424  0.0345
  851MPD2    H512560   0.075   1.518  15.583  1.0367 -2.1189 -1.2823
  851MPD2    N112561   0.014   1.970  15.728 -0.1900 -0.5689  0.1201
  851MPD2    H712562   0.029   2.055  15.782  1.5517 -1.3901  0.9324
  852MPD2     C12563   3.949   0.134   9.733  0.3404  0.2556 -0.5040
  852MPD2    C112564   3.939   0.161   9.869  0.4025  0.1292  0.2182
  852MPD2    C212565   3.905   0.288   9.912 -0.6243 -0.9290 -0.5597
  852MPD2    C312566   3.893   0.389   9.825 -0.3905 -0.0316 -0.1675
  852MPD2    C412567   3.890   0.362   9.688 -0.1861 -0.5000 -0.5757
  852MPD2    C512568   3.919   0.238   9.646 -0.1654 -0.2704  0.4356
  852MPD2     H12569   3.900   0.312  10.018 -1.2752 -2.3057 -0.2901
  852MPD2    H112570   3.864   0.439   9.615  0.5000  1.1023  0.8712
  852MPD2    H212571   3.965   0.031   9.702 -0.8285  0.2852 -1.2361
  852MPD2    H312572   3.905   0.216   9.541 -0.4266  2.3089 -0.0715
  852MPD2     N12573   3.881   0.521   9.878  0.1363  0.1104 -0.8895
  852MPD2    H512574   3.906   0.530   9.976  0.1255  0.6372 -0.9348
  852MPD2    N112575   3.966   0.063   9.977  0.0744  0.3685  0.3023
  852MPD2    H712576   3.980   0.103  10.069  2.6351  2.8624 -1.1606
  853MPD2     C12577   1.664   4.465  12.723  0.0829  0.6191  0.3661
  853MPD2    C112578   1.575   4.557  12.682 -0.1470 -0.2728 -0.5793
  853MPD2    C212579   1.558   4.579  12.546  0.4480  0.4472  0.4002
  853MPD2    C312580   1.631   4.505  12.460  0.3695  0.2853 -0.2419
  853MPD2    C412581   1.708   4.405  12.505  0.2019 -0.4404  0.9621
  853MPD2    C512582   1.733   4.386  12.638  0.5926  0.4583 -0.1332
  853MPD2     H12583   1.480   4.648  12.515 -0.2868 -0.2547  0.6972
  853MPD2    H112584   1.780   4.348  12.447 -1.4223 -0.4790 -1.0423
  853MPD2    H212585   1.672   4.446  12.830  0.6752  0.9252  0.3720
  853MPD2    H312586   1.800   4.314  12.682  2.2072  1.3083 -1.2024
  853MPD2     N12587   1.640   4.523  12.324 -0.4568 -0.9854  0.5240
  853MPD2    H512588   1.685   4.452  12.267 -2.3098  0.2649 -2.5215
  853MPD2    N112589   1.502   4.627  12.782  0.3101  0.2933  0.0626
  853MPD2    H712590   1.518   4.595  12.877 -2.4153  2.4739  1.2663
  854MPD2     C12591   2.857   4.668  12.350  0.5707  0.1836  0.1995
  854MPD2    C112592   2.917   0.046  12.393  0.5255  0.3642  0.3052
  854MPD2    C212593   3.014   0.037  12.494  0.0715 -0.6585  0.2800
  854MPD2    C312594   3.037   4.648  12.553  0.4338 -0.1500  0.6092
  854MPD2    C412595   2.974   4.533  12.510 -0.2061 -0.4863  0.1976
  854MPD2    C512596   2.886   4.545  12.402  0.0459 -0.1676 -0.5221
  854MPD2     H12597   3.063   0.119  12.545  0.5245 -2.6318  3.0216
  854MPD2    H112598   2.995   4.433  12.548 -0.2122  0.4571  2.6790
  854MPD2    H212599   2.780   4.691  12.277  0.0986  0.6462  0.8381
  854MPD2    H312600   2.838   4.455  12.364  0.4156  0.7664 -3.2005
  854MPD2     N12601   3.121   4.631  12.665  0.3429  0.6130  0.6944
  854MPD2    H512602   3.134   4.542  12.711 -0.7128  0.0778 -0.0467
  854MPD2    N112603   2.881   0.170  12.330 -0.2511  0.4633  1.1780
  854MPD2    H712604   2.829   0.162  12.243 -0.3300 -0.0293  1.2712
  855MPD2     C12605   3.159   0.046  13.609  0.4784 -0.0704  0.2963
  855MPD2    C112606   3.176   4.649  13.562 -0.4180 -0.6807  0.6172
  855MPD2    C212607   3.210   4.635  13.428 -0.7331 -0.3331 -0.5903
  855MPD2    C312608   3.248   0.005  13.358  0.6706  0.0143 -0.8448
  855MPD2    C412609   3.227   0.129  13.403  0.2647  0.7152 -0.1508
  855MPD2    C512610   3.176   0.148  13.527  0.0781 -0.2069 -0.2942
  855MPD2     H12611   3.239   4.539  13.386  2.8041 -0.3323  1.8027
  855MPD2    H112612   3.259   0.217  13.349 -1.5733  2.0729  0.9340
  855MPD2    H212613   3.126   0.070  13.709 -1.3434  1.9851 -0.8028
  855MPD2    H312614   3.156   0.250  13.557  0.0871 -0.0336 -0.8798
  855MPD2     N12615   3.289   4.732  13.231  0.2449 -0.4565 -0.1063
  855MPD2    H512616   3.273   0.079  13.179  0.1945 -1.6514 -2.0568
  855MPD2    N112617   3.144   4.549  13.648  0.0444  0.4020 -0.0284
  855MPD2    H712618   3.145   4.573  13.747 -0.2466  2.1443 -0.4476
  856MPD2     C12619   0.704   0.428  14.004  0.4008 -0.3567  0.2854
  856MPD2    C112620   0.714   0.567  13.999 -0.2543 -0.4283  0.7655
  856MPD2    C212621   0.598   0.641  13.985 -0.2005  0.0391  0.1140
  856MPD2    C312622   0.469   0.582  13.977 -0.8285  0.5741  0.0098
  856MPD2    C412623   0.469   0.445  13.958 -0.6310 -0.3112  0.1424
  856MPD2    C512624   0.583   0.374  13.977 -0.3704 -0.2298 -0.0165
  856MPD2     H12625   0.604   0.749  13.986 -2.9895  0.2188 -0.5673
  856MPD2    H112626   0.375   0.391  13.956 -0.3299 -0.8238 -0.2211
  856MPD2    H212627   0.788   0.360  14.015  1.6966  0.8833 -1.8638
  856MPD2    H312628   0.573   0.267  13.973  0.5281 -0.3194  0.0404
  856MPD2     N12629   0.343   0.644  13.971 -0.1602 -0.4020 -0.0969
  856MPD2    H512630   0.272   0.580  13.936 -0.4121 -0.3707  0.3471
  856MPD2    N112631   0.828   0.640  14.013 -0.0085  0.6662 -0.3340
  856MPD2    H712632   0.821   0.741  14.008 -1.6698  0.6525  2.0234
  857MPD2     C12633   1.913   3.237  12.869 -0.0284 -0.3804  0.2099
  857MPD2    C112634   2.031   3.175  12.888 -0.3954  1.0821 -0.6634
  857MPD2    C212635   2.140   3.247  12.926  0.2312  0.4844  0.2773
  857MPD2    C312636   2.142   3.383  12.912 -0.2665  0.4113 -1.1567
  857MPD2    C412637   2.029   3.451  12.871  0.7552  1.0127  0.7405
  857MPD2    C512638   1.913   3.371  12.859  0.6622  0.2368  0.1807
  857MPD2     H12639   2.233   3.201  12.956  0.1369  0.7273  0.9276
  857MPD2    H112640   2.020   3.559  12.879 -0.2382  0.9202  0.8191
  857MPD2    H212641   1.815   3.190  12.874 -0.6126  0.5273 -2.9294
  857MPD2    H312642   1.816   3.413  12.837  1.3405  1.1604 -1.0532
  857MPD2     N12643   2.268   3.445  12.926  0.9984 -0.7751 -0.8805
  857MPD2    H512644   2.344   3.378  12.938  0.3265 -1.1623  1.2048
  857MPD2    N112645   2.038   3.029  12.876 -0.4225  0.9298 -0.0427
  857MPD2    H712646   1.953   2.988  12.841 -0.1947  1.1796 -0.8962
  858MPD2     C12647   3.059   2.474  16.287 -0.3635 -0.0138 -0.3157
  858MPD2    C112648   3.023   2.357  16.350 -0.3335  0.3184 -0.4368
  858MPD2    C212649   2.995   2.355  16.484  0.0971 -0.0532 -0.5604
  858MPD2    C312650   3.014   2.473  16.554 -0.2171  0.3160  0.0645
  858MPD2    C412651   3.045   2.589  16.489  0.3556 -0.3410  0.8153
  858MPD2    C512652   3.059   2.589  16.353  0.0120 -0.2563 -0.9366
  858MPD2     H12653   2.941   2.276  16.536 -0.5781 -1.1116 -2.9026
  858MPD2    H112654   3.052   2.685  16.540 -0.0815  0.3978 -0.5196
  858MPD2    H212655   3.068   2.480  16.179  0.9032  1.6915 -0.1061
  858MPD2    H312656   3.077   2.689  16.314 -0.9354  0.4506  0.4356
  858MPD2     N12657   2.998   2.478  16.697 -0.2175  0.4643  0.1833
  858MPD2    H512658   2.992   2.569  16.740 -0.8985  0.0696  0.9414
  858MPD2    N112659   3.009   2.245  16.270  0.4870 -0.0175  0.3347
  858MPD2    H712660   3.028   2.256  16.171 -0.3298 -0.2446  0.1456
  859MPD2     C12661   1.432   4.211  14.950  0.0464  0.1246 -0.1952
  859MPD2    C112662   1.538   4.210  15.047 -0.3492 -0.6574 -0.0229
  859MPD2    C212663   1.589   4.088  15.087 -0.2236  0.6543 -0.0655
  859MPD2    C312664   1.553   3.970  15.027  0.2643  0.2127 -0.1359
  859MPD2    C412665   1.460   3.974  14.930  0.1793 -0.3667  0.0698
  859MPD2    C512666   1.406   4.091  14.892  0.8643  0.5400  0.2658
  859MPD2     H12667   1.669   4.089  15.161 -1.0656  0.0450  0.8535
  859MPD2    H112668   1.440   3.889  14.866 -0.1406 -0.0967 -0.1891
  859MPD2    H212669   1.383   4.300  14.910  1.3143  1.1415  0.5044
  859MPD2    H312670   1.329   4.094  14.816  1.7029  0.3823 -0.5856
  859MPD2     N12671   1.613   3.839  15.057 -0.1891 -0.1959 -0.2547
  859MPD2    H512672   1.580   3.760  15.002 -0.2913 -1.1626  1.1973
  859MPD2    N112673   1.585   4.336  15.076  0.4750  0.0041  0.2944
  859MPD2    H712674   1.535   4.413  15.032 -1.9064 -0.7681  1.6781
  860MPD2     C12675   4.450   4.430  11.611 -0.7538 -0.4807  0.0000
  860MPD2    C112676   4.427   4.436  11.747 -0.1318 -0.4200  0.6111
  860MPD2    C212677   4.299   4.443  11.796 -0.1228  0.8187  1.3641
  860MPD2    C312678   4.195   4.451  11.703 -0.2717 -0.3823 -0.0046
  860MPD2    C412679   4.213   4.447  11.565  0.3154 -0.2234 -0.8740
  860MPD2    C512680   4.341   4.435  11.526  0.1083 -0.2200 -0.1407
  860MPD2     H12681   4.276   4.453  11.902  0.2077 -1.8936  1.6883
  860MPD2    H112682   4.133   4.457  11.493 -0.6057  0.4245  0.2443
  860MPD2    H212683   4.549   4.429  11.568 -1.8434  1.3623 -2.5655
  860MPD2    H312684   4.366   4.446  11.421  0.5312  1.3090  0.1247
  860MPD2     N12685   4.068   4.448  11.769  0.4748  0.3004  0.0626
  860MPD2    H512686   4.066   4.424  11.867 -1.4847 -0.4727 -0.1575
  860MPD2    N112687   4.531   4.416  11.847 -0.1554 -0.2204  0.4127
  860MPD2    H712688   4.497   4.423  11.943 -0.7358  1.7005  0.0505
  861MPD2     C12689   1.975   2.626  11.007 -0.0605  0.1715 -0.3052
  861MPD2    C112690   2.014   2.714  11.103 -0.7924 -0.0531  0.1662
  861MPD2    C212691   1.956   2.841  11.102 -0.1079 -0.6284 -0.0694
  861MPD2    C312692   1.871   2.885  11.005  0.2780  0.8159 -0.7105
  861MPD2    C412693   1.843   2.797  10.903  0.3801  0.3780  0.0861
  861MPD2    C512694   1.892   2.667  10.905  0.1389 -0.6779  0.3226
  861MPD2     H12695   1.983   2.906  11.184 -1.6641 -1.1323  0.8637
  861MPD2    H112696   1.795   2.825  10.810 -0.9027  2.2731  1.3149
  861MPD2    H212697   2.003   2.521  11.004  1.8882  0.6755  0.0887
  861MPD2    H312698   1.867   2.601  10.823  3.5910  1.3368 -2.3556
  861MPD2     N12699   1.816   3.012  10.996 -0.2871 -0.3328  0.4742
  861MPD2    H512700   1.773   3.038  10.909  0.8120  0.9674  0.3073
  861MPD2    N112701   2.097   2.679  11.214 -0.5806 -0.7671 -0.1213
  861MPD2    H712702   2.120   2.745  11.287  0.8770  0.4740 -1.6964
  862MPD2     C12703   2.310   3.151  10.704  0.2384  0.3268 -0.0937
  862MPD2    C112704   2.180   3.110  10.728 -0.8095  0.8387  0.2827
  862MPD2    C212705   2.144   2.981  10.696 -0.2793  0.4645  0.0561
  862MPD2    C312706   2.236   2.891  10.645  0.0577  0.1816  0.0285
  862MPD2    C412707   2.369   2.936  10.622  0.0533  0.3648 -0.8634
  862MPD2    C512708   2.396   3.065  10.647  0.5104  0.1992  0.2279
  862MPD2     H12709   2.041   2.951  10.711 -0.2415  0.6561  0.7374
  862MPD2    H112710   2.451   2.874  10.588 -0.4129 -1.2855  1.0125
  862MPD2    H212711   2.351   3.247  10.735 -0.8048 -0.2117  2.9614
  862MPD2    H312712   2.496   3.095  10.617  0.4213  1.2107  0.9314
  862MPD2     N12713   2.183   2.765  10.611 -0.0083  0.7277  0.3065
  862MPD2    H512714   2.085   2.751  10.632 -0.4374  3.7748  0.3425
  862MPD2    N112715   2.082   3.193  10.786 -0.6979  0.1511  0.3426
  862MPD2    H712716   1.998   3.145  10.817 -0.5206 -0.7791 -0.6480
  863MPD2     C12717   1.087   0.716  16.782 -0.1454 -0.2603 -0.1586
  863MPD2    C112718   1.106   0.850  16.817 -0.9344  0.0200  0.3238
  863MPD2    C212719   1.226   0.883  16.883  0.1202 -0.2317 -0.2808
  863MPD2    C312720   1.323   0.785  16.913  0.7122 -0.8923 -0.2119
  863MPD2    C412721   1.295   0.652  16.886  0.7419  0.4536 -0.2153
  863MPD2    C512722   1.184   0.621  16.808  0.3083 -0.4328  0.0481
  863MPD2     H12723   1.255   0.987  16.886  0.7580 -0.4193  0.1033
  863MPD2    H112724   1.373   0.585  16.918  0.4172  0.3184  0.2906
  863MPD2    H212725   0.996   0.679  16.736 -0.9182  1.5942 -0.1346
  863MPD2    H312726   1.178   0.521  16.768  0.5948 -0.4510  0.0523
  863MPD2     N12727   1.443   0.808  16.986  0.0759 -0.4754 -0.0464
  863MPD2    H512728   1.469   0.720  17.030 -1.4279 -0.1375  1.5504
  863MPD2    N112729   1.001   0.941  16.786  0.5251 -0.3951  0.4067
  863MPD2    H712730   0.915   0.907  16.745  1.3225  0.1126 -1.6761
  864MPD2     C12731   1.553   2.230  17.108  0.4221 -0.2164 -0.9694
  864MPD2    C112732   1.660   2.170  17.054 -0.6751 -0.3678  0.0852
  864MPD2    C212733   1.745   2.243  16.978 -0.2879 -0.7086 -0.0405
  864MPD2    C312734   1.727   2.382  16.968 -0.0331  0.2524  0.4320
  864MPD2    C412735   1.615   2.437  17.026  0.1508  0.6031 -0.7669
  864MPD2    C512736   1.530   2.362  17.090 -0.7148 -0.4384 -0.0139
  864MPD2     H12737   1.833   2.199  16.932  0.0095  2.0216 -2.0291
  864MPD2    H112738   1.593   2.543  17.024 -2.1593  0.1795  1.8666
  864MPD2    H212739   1.478   2.178  17.166  0.6069  0.1460 -0.4049
  864MPD2    H312740   1.454   2.419  17.142  1.0340  0.1283  1.9130
  864MPD2     N12741   1.824   2.466  16.900  0.2368 -0.2134  0.4414
  864MPD2    H512742   1.797   2.561  16.878  0.2815 -0.7052 -1.8251
  864MPD2    N112743   1.667   2.028  17.073  0.1034 -0.4224  1.3287
  864MPD2    H712744   1.592   1.978  17.120 -0.4050 -0.1312  0.8284
  865MPD2     C12745   1.717   2.491  15.946  0.7206 -0.3784 -0.2916
  865MPD2    C112746   1.737   2.392  16.042  0.5756  0.2194  0.1164
  865MPD2    C212747   1.775   2.435  16.171  0.2431  0.3304  0.1556
  865MPD2    C312748   1.795   2.565  16.201 -0.4594  0.4965 -0.0338
  865MPD2    C412749   1.768   2.659  16.108  0.5918 -0.2512  0.0177
  865MPD2    C512750   1.725   2.622  15.984  0.4460  0.0157 -0.6991
  865MPD2     H12751   1.792   2.360  16.248  2.1734  0.0735 -0.5179
  865MPD2    H112752   1.763   2.763  16.139 -2.6723 -0.7111  0.9696
  865MPD2    H212753   1.694   2.465  15.844 -0.8421  1.1904 -0.3416
  865MPD2    H312754   1.703   2.701  15.914 -4.3491 -2.5364 -2.0473
  865MPD2     N12755   1.849   2.605  16.325  0.3088  0.9417  0.1216
  865MPD2    H512756   1.876   2.703  16.334  1.3135  0.6186  0.6597
  865MPD2    N112757   1.727   2.254  16.006  0.3894  0.2253 -0.0117
  865MPD2    H712758   1.700   2.232  15.911  0.9573 -0.1841 -0.0712
  866MPD2     C12759   3.023   3.226  12.036 -0.2535 -0.4297  0.0412
  866MPD2    C112760   3.060   3.261  11.904 -0.2412  0.3483 -0.8417
  866MPD2    C212761   2.955   3.267  11.812  0.3435 -1.0083  0.4322
  866MPD2    C312762   2.818   3.247  11.841 -0.3330  0.1549 -0.1357
  866MPD2    C412763   2.794   3.223  11.970  0.3552 -0.4462 -0.1795
  866MPD2    C512764   2.888   3.208  12.068  0.2993 -0.0948  1.3115
  866MPD2     H12765   2.990   3.263  11.709  2.4257 -0.6289  1.1257
  866MPD2    H112766   2.689   3.207  11.991  0.4459  2.4947  2.4865
  866MPD2    H212767   3.101   3.204  12.107 -0.9001 -1.1857  0.5242
  866MPD2    H312768   2.867   3.194  12.174 -1.6741 -1.6195  0.7279
  866MPD2     N12769   2.714   3.260  11.742  0.3403 -0.2225  0.0455
  866MPD2    H512770   2.619   3.258  11.778 -0.3542  2.2943 -1.6162
  866MPD2    N112771   3.197   3.276  11.877 -1.1052 -0.0080  0.7553
  866MPD2    H712772   3.260   3.285  11.956  0.3642 -1.4181 -0.2299
  867MPD2     C12773   0.740   2.495  16.503 -0.0812  0.5914  0.1664
  867MPD2    C112774   0.795   2.459  16.627 -0.5786 -0.0641  0.3362
  867MPD2    C212775   0.818   2.568  16.718 -0.2010 -0.2737 -0.2898
  867MPD2    C312776   0.767   2.690  16.698 -0.1819  0.5699 -0.5498
  867MPD2    C412777   0.691   2.714  16.581 -0.0764 -0.3691 -0.0323
  867MPD2    C512778   0.681   2.620  16.481 -0.9485 -0.3026  0.3811
  867MPD2     H12779   0.873   2.545  16.808  1.2985  1.7183 -0.7124
  867MPD2    H112780   0.639   2.806  16.557  1.5367  0.5547 -0.0244
  867MPD2    H212781   0.715   2.414  16.435 -1.1751  1.0124  0.0812
  867MPD2    H312782   0.631   2.639  16.387  0.0915 -0.2896 -0.1755
  867MPD2     N12783   0.775   2.800  16.791  0.1511  0.1534  0.2277
  867MPD2    H512784   0.726   2.881  16.755 -0.9131 -1.0353 -1.0286
  867MPD2    N112785   0.833   2.327  16.656 -0.2178  0.3037  0.1799
  867MPD2    H712786   0.830   2.260  16.579  0.5523  1.6261 -0.9875
  868MPD2     C12787   2.347   1.811  13.132 -0.6672 -0.6416 -0.0455
  868MPD2    C112788   2.397   1.729  13.232  0.2573 -0.2754  0.1149
  868MPD2    C212789   2.317   1.705  13.343  0.3928 -0.3618 -0.2037
  868MPD2    C312790   2.190   1.754  13.345 -0.2177  0.9030 -0.7259
  868MPD2    C412791   2.136   1.815  13.236  1.0917  0.1951 -0.1180
  868MPD2    C512792   2.217   1.848  13.131 -0.6092 -0.4903 -0.6360
  868MPD2     H12793   2.349   1.649  13.430 -2.2465 -1.1955  0.2286
  868MPD2    H112794   2.031   1.842  13.236  1.5252  1.8593  0.4533
  868MPD2    H212795   2.410   1.832  13.046 -0.8132 -0.2854 -0.0649
  868MPD2    H312796   2.183   1.890  13.037 -0.1083  0.9409 -0.1795
  868MPD2     N12797   2.111   1.741  13.463 -0.3670 -0.4390 -0.5563
  868MPD2    H512798   2.155   1.694  13.542  2.1050  2.4333 -0.2053
  868MPD2    N112799   2.536   1.697  13.226 -0.3111  0.2477  0.5707
  868MPD2    H712800   2.590   1.746  13.155 -0.4994 -1.6475 -0.8708
  869MPD2     C12801   3.713   3.688   0.164 -0.0927 -0.0122 -0.0069
  869MPD2    C112802   3.711   3.824   0.185  0.3271  0.0284 -0.1213
  869MPD2    C212803   3.802   3.875   0.277 -0.2223  0.6944  0.3426
  869MPD2    C312804   3.887   3.795   0.351  0.2906 -0.4269 -0.2732
  869MPD2    C412805   3.885   3.660   0.328  1.1868 -0.0839  0.1305
  869MPD2    C512806   3.800   3.614   0.227  0.6580  0.2539 -0.3548
  869MPD2     H12807   3.774   3.974   0.312 -1.1043  1.3274 -2.1153
  869MPD2    H112808   3.938   3.593   0.395  1.1787  1.4954  1.6983
  869MPD2    H212809   3.635   3.636   0.109 -2.8296  2.6971  1.3246
  869MPD2    H312810   3.797   3.507   0.213  2.8176  0.3706 -1.7718
  869MPD2     N12811   3.964   3.838   0.457  0.1136 -0.2543 -0.0702
  869MPD2    H512812   4.016   3.766   0.506  0.2741  0.6398  1.0700
  869MPD2    N112813   3.608   3.897   0.120 -0.4320  0.1560 -0.5601
  869MPD2    H712814   3.538   3.851   0.063 -1.4525 -0.3928  1.1380
  870MPD2     C12815   4.113   2.855   1.227 -0.1295 -0.4004  0.9180
  870MPD2    C112816   4.015   2.781   1.177  0.2559  0.4882 -0.4990
  870MPD2    C212817   3.885   2.833   1.161  0.5236  0.4644 -0.0613
  870MPD2    C312818   3.855   2.956   1.212  0.3276  0.2943  0.3221
  870MPD2    C412819   3.956   3.035   1.258  0.8881  0.6241 -0.7854
  870MPD2    C512820   4.083   2.980   1.267 -0.1996 -0.1649  0.2197
  870MPD2     H12821   3.805   2.772   1.122 -0.4079  2.1142 -0.6922
  870MPD2    H112822   3.943   3.137   1.292  1.5099  0.2790  0.4944
  870MPD2    H212823   4.215   2.816   1.223  0.5963  1.3560  2.5629
  870MPD2    H312824   4.166   3.037   1.308 -1.4349  1.6491  0.2118
  870MPD2     N12825   3.721   3.005   1.192  0.3329 -0.5944  0.5238
  870MPD2    H512826   3.654   2.943   1.149  0.8214  0.8287 -2.2735
  870MPD2    N112827   4.050   2.651   1.139  0.2279  0.3549 -0.6552
  870MPD2    H712828   4.149   2.627   1.148  0.1520  0.4234  0.2974
  871MPD2     C12829   4.449   2.835  16.350 -0.1064 -0.3127 -0.4748
  871MPD2    C112830   4.416   2.774  16.467  0.0207 -0.0684 -0.2414
  871MPD2    C212831   4.390   2.634  16.462 -0.2193  0.8586 -0.4109
  871MPD2    C312832   4.411   2.560  16.349  0.2314  0.8313 -0.4712
  871MPD2    C412833   4.456   2.625  16.235 -0.1811 -0.3593 -0.2187
  871MPD2    C512834   4.465   2.764  16.232 -0.3348  0.3566 -0.0181
  871MPD2     H12835   4.358   2.585  16.553  0.3608 -2.5382 -2.0460
  871MPD2    H112836   4.463   2.572  16.140  0.3768 -0.4164 -0.1420
  871MPD2    H212837   4.464   2.942  16.337 -2.6373  0.1094  0.0735
  871MPD2    H312838   4.515   2.818  16.152 -2.1558 -0.6426 -1.8247
  871MPD2     N12839   4.392   2.419  16.363  0.1702 -0.1365 -0.0255
  871MPD2    H512840   4.356   2.393  16.454  1.7115  0.3284  0.7105
  871MPD2    N112841   4.388   2.854  16.580  0.5374  0.4845 -0.1800
  871MPD2    H712842   4.401   2.954  16.571 -2.9558  0.9360 -0.2360
  872MPD2     C12843   0.597   0.036  13.570  0.0074  0.1225 -0.2440
  872MPD2    C112844   0.549   0.152  13.618  0.0576  0.4240 -0.0709
  872MPD2    C212845   0.447   0.147  13.709  0.1654 -0.1468  0.3264
  872MPD2    C312846   0.375   0.032  13.744  0.3764 -0.5634 -0.3968
  872MPD2    C412847   0.424   4.652  13.692  0.1347 -0.2647  0.9896
  872MPD2    C512848   0.540   4.655  13.615  0.2348  0.2157  0.2233
  872MPD2     H12849   0.407   0.245  13.733 -4.6943 -1.7833 -1.2778
  872MPD2    H112850   0.388   4.556  13.726  2.1589 -1.3000  0.2319
  872MPD2    H212851   0.685   0.027  13.508  0.1839  2.9028 -0.3704
  872MPD2    H312852   0.569   4.555  13.585 -0.3232 -0.3747  1.6409
  872MPD2     N12853   0.258   0.021  13.808 -0.1747  0.4305  0.8772
  872MPD2    H512854   0.218   4.666  13.818 -0.0071  0.2757  0.1496
  872MPD2    N112855   0.603   0.281  13.598 -0.3713 -0.6436 -0.8929
  872MPD2    H712856   0.570   0.359  13.654  2.6679 -0.3176  0.4059
  873MPD2     C12857   1.934   4.260   1.454 -0.3213  0.1267  0.0470
  873MPD2    C112858   1.937   4.347   1.348 -0.3548  0.0382 -0.4692
  873MPD2    C212859   1.897   4.305   1.227  0.0463  0.2041 -1.0524
  873MPD2    C312860   1.852   4.175   1.205 -0.0700  0.1104 -0.4538
  873MPD2    C412861   1.861   4.083   1.306 -0.8782  0.1713 -0.3531
  873MPD2    C512862   1.902   4.130   1.427  0.5191 -0.4831  0.2330
  873MPD2     H12863   1.916   4.368   1.140  0.1989  2.3624  0.5551
  873MPD2    H112864   1.851   3.977   1.282 -2.7339  0.1227  0.6005
  873MPD2    H212865   1.975   4.283   1.552 -1.1528 -0.6099  0.5570
  873MPD2    H312866   1.913   4.057   1.506  2.9226 -0.9805 -0.5575
  873MPD2     N12867   1.824   4.119   1.077 -0.4972 -0.1698  0.0706
  873MPD2    H512868   1.825   4.018   1.068  0.5163 -0.1392 -0.2560
  873MPD2    N112869   1.994   4.477   1.367  0.2952  0.0652 -0.0392
  873MPD2    H712870   2.025   4.495   1.462  0.8472 -2.2101  0.2168
  874MPD2     C12871   2.165   0.454  16.114 -0.3879 -0.2817  0.4874
  874MPD2    C112872   2.146   0.495  16.242  0.3041 -0.0720 -0.2882
  874MPD2    C212873   2.183   0.618  16.291  0.0117  0.5006 -0.4559
  874MPD2    C312874   2.249   0.705  16.207  0.0808  0.1376 -0.5530
  874MPD2    C412875   2.259   0.667  16.072 -0.3513  0.0963 -1.0528
  874MPD2    C512876   2.214   0.544  16.023  0.1623 -0.1529 -0.5689
  874MPD2     H12877   2.154   0.641  16.393 -0.1309 -1.0524 -0.1407
  874MPD2    H112878   2.304   0.732  15.998  1.5561 -1.6493 -1.4330
  874MPD2    H212879   2.141   0.352  16.085  0.1442 -0.0233 -0.8834
  874MPD2    H312880   2.238   0.526  15.919  0.3988  1.6009 -0.8253
  874MPD2     N12881   2.297   0.832  16.246 -0.2314  0.5163  0.8653
  874MPD2    H512882   2.299   0.899  16.170 -0.4284 -0.8945 -0.3697
  874MPD2    N112883   2.087   0.396  16.322 -0.8254  0.1519 -0.4735
  874MPD2    H712884   2.066   0.307  16.279  0.7903 -1.6293  2.4044
  875MPD2     C12885   3.167   3.529  14.423  0.0218  0.4083  0.1868
  875MPD2    C112886   3.032   3.528  14.429  0.6062 -0.6907 -0.2822
  875MPD2    C212887   2.963   3.497  14.546 -0.6493 -0.2953 -0.4116
  875MPD2    C312888   3.035   3.482  14.660 -0.3808  0.5553  0.3793
  875MPD2    C412889   3.173   3.489  14.660  0.2383 -0.6321 -0.2511
  875MPD2    C512890   3.235   3.496  14.536 -0.4107  0.6993  0.4472
  875MPD2     H12891   2.856   3.488  14.535 -0.7876  0.8440  0.1207
  875MPD2    H112892   3.233   3.456  14.744  0.2617 -0.6356 -0.2693
  875MPD2    H212893   3.221   3.536  14.329 -1.3395 -1.2883 -0.7201
  875MPD2    H312894   3.342   3.476  14.532 -1.2070 -3.1978 -1.5982
  875MPD2     N12895   2.972   3.461  14.782 -0.4812 -0.0375 -0.1063
  875MPD2    H512896   3.030   3.473  14.865  0.9216  1.1176 -1.2660
  875MPD2    N112897   2.952   3.541  14.313 -0.8785  0.0920 -1.0501
  875MPD2    H712898   2.852   3.536  14.325 -0.7907  1.8121  0.4940
  876MPD2     C12899   1.579   4.262  15.832 -0.0630  0.3802  0.0326
  876MPD2    C112900   1.713   4.281  15.866 -0.3648  0.2060  0.2060
  876MPD2    C212901   1.786   4.176  15.915  0.1733  0.2378 -0.3687
  876MPD2    C312902   1.728   4.050  15.925 -0.0840 -0.8601 -0.4572
  876MPD2    C412903   1.594   4.032  15.891  0.5281 -1.0183  0.2359
  876MPD2    C512904   1.526   4.139  15.841 -0.9079 -0.1324  0.0100
  876MPD2     H12905   1.895   4.180  15.917  0.1968 -0.8239  0.3899
  876MPD2    H112906   1.531   3.944  15.892  1.2389 -1.5290  0.0682
  876MPD2    H212907   1.517   4.344  15.798 -0.1687  0.5345  0.6157
  876MPD2    H312908   1.419   4.141  15.826 -0.6490 -1.0084 -2.0314
  876MPD2     N12909   1.811   3.941  15.951 -0.2681 -0.1331 -0.5800
  876MPD2    H512910   1.907   3.955  15.921  0.0703  2.5129  1.7018
  876MPD2    N112911   1.769   4.412  15.840 -0.0753  0.8370 -0.3100
  876MPD2    H712912   1.717   4.476  15.781 -1.5126  0.9419  1.0651
  877MPD2     C12913   1.657   0.232  15.408 -0.4008  0.3978  0.1285
  877MPD2    C112914   1.794   0.249  15.432 -0.7144  0.8758 -0.2996
  877MPD2    C212915   1.870   0.321  15.342 -0.3486 -0.4582  0.1220
  877MPD2    C312916   1.815   0.376  15.227  0.0251  0.7030 -0.2909
  877MPD2    C412917   1.675   0.360  15.208 -0.1353  0.5482  0.2277
  877MPD2    C512918   1.605   0.298  15.305  0.5165 -0.0467 -0.6561
  877MPD2     H12919   1.977   0.325  15.359 -0.5075  2.0353  0.5275
  877MPD2    H112920   1.625   0.394  15.119 -0.8290  0.7751  0.7017
  877MPD2    H212921   1.598   0.178  15.480 -1.8564  3.3316  1.1408
  877MPD2    H312922   1.499   0.280  15.289  0.0614  1.4886  0.6247
  877MPD2     N12923   1.889   0.431  15.119  0.1357  0.2015  0.1006
  877MPD2    H512924   1.847   0.427  15.027 -2.4006 -0.6165  1.2980
  877MPD2    N112925   1.860   0.194  15.550 -0.1463  0.2952 -0.0748
  877MPD2    H712926   1.961   0.197  15.538 -0.1573  2.2479  0.3429
  878MPD2     C12927   2.120   0.058  13.851  0.4506 -0.1701 -0.0990
  878MPD2    C112928   2.067   4.684  13.795 -0.2106 -0.3455  0.3555
  878MPD2    C212929   2.037   4.572  13.876  0.7909  0.2919 -0.6439
  878MPD2    C312930   2.058   4.588  14.012  0.1848 -0.7960  0.0444
  878MPD2    C412931   2.110   4.707  14.062 -0.0050  0.0640  1.0058
  878MPD2    C512932   2.145   0.070  13.979 -0.5230  0.4010  0.6081
  878MPD2     H12933   1.982   4.487  13.837  0.9365  0.0867 -0.3965
  878MPD2    H112934   2.105   4.736  14.166  2.4197  4.7576 -0.1592
  878MPD2    H212935   2.146   0.144  13.790 -1.8294  1.4589  1.1998
  878MPD2    H312936   2.186   0.164  14.015  0.8411 -0.4461  1.2470
  878MPD2     N12937   2.021   4.483  14.095  0.3846  0.4544 -0.6936
  878MPD2    H512938   1.990   4.396  14.052  2.6894 -1.1391  0.8107
  878MPD2    N112939   2.032   4.689  13.655 -0.5906  0.2257  0.2526
  878MPD2    H712940   2.064   0.034  13.607 -1.8942  1.0348  0.8033
  879MPD2     C12941   2.157   0.929  17.252  0.5947  0.3688  0.7547
  879MPD2    C112942   2.096   0.824  17.314  0.5701 -0.6478  0.0532
  879MPD2    C212943   2.015   0.740  17.241 -0.3164 -0.1043 -0.2949
  879MPD2    C312944   1.987   0.769  17.114 -0.7854  0.0620  0.3110
  879MPD2    C412945   2.056   0.876  17.056  0.6256 -0.5579  0.3786
  879MPD2    C512946   2.145   0.951  17.122  0.5144  0.2947  0.1878
  879MPD2     H12947   1.987   0.648  17.291 -1.3662 -0.9892 -2.5324
  879MPD2    H112948   2.029   0.913  16.957 -0.7389  1.7580  1.6035
  879MPD2    H212949   2.229   0.992  17.301  0.6634  2.0774 -1.5645
  879MPD2    H312950   2.187   1.045  17.089 -1.1785  0.8498 -0.4184
  879MPD2     N12951   1.901   0.691  17.032  0.0775 -0.2442  0.3821
  879MPD2    H512952   1.894   0.722  16.936  0.9728  0.8009  0.6513
  879MPD2    N112953   2.121   0.801  17.448 -0.0614 -0.1122  0.3458
  879MPD2    H712954   2.173   0.874  17.497  0.7796 -0.3531 -0.1917
  880MPD2     C12955   2.923   2.201   0.199 -0.1235 -0.4065  0.1330
  880MPD2    C112956   3.036   2.275   0.241 -0.0010  0.2190 -0.1571
  880MPD2    C212957   3.130   2.205   0.321 -0.0773  0.3492 -0.6783
  880MPD2    C312958   3.122   2.073   0.339  0.4960  0.2269 -0.5830
  880MPD2    C412959   3.014   2.001   0.297  0.9378  0.2638  0.6094
  880MPD2    C512960   2.918   2.061   0.224 -0.2811  0.0956 -0.7386
  880MPD2     H12961   3.218   2.254   0.362 -0.0593  0.9542 -1.4352
  880MPD2    H112962   3.001   1.893   0.303  0.0646  0.4506  2.1798
  880MPD2    H212963   2.847   2.246   0.136 -1.9533  2.7493  4.5834
  880MPD2    H312964   2.842   2.010   0.165 -2.3406  0.5738  1.5030
  880MPD2     N12965   3.236   2.012   0.397 -0.0866 -0.0872 -0.3724
  880MPD2    H512966   3.298   2.079   0.440  1.0228 -2.5071  1.8119
  880MPD2    N112967   3.055   2.413   0.226 -0.0559  0.1885 -0.2463
  880MPD2    H712968   3.131   2.448   0.283 -2.8403  0.8059  3.0977
  881MPD2     C12969   3.022   3.029  17.254  0.9505  0.3163 -0.5044
  881MPD2    C112970   3.130   3.065  17.327 -0.2496 -0.4269  0.1574
  881MPD2    C212971   3.132   3.027  17.461 -0.0189  0.0259 -0.6238
  881MPD2    C312972   3.011   2.993  17.529  0.5089  0.3683  0.0099
  881MPD2    C412973   2.895   2.999  17.455 -0.0470 -0.0687 -0.3564
  881MPD2    C512974   2.905   3.001  17.317 -0.0625  0.0720 -0.1081
  881MPD2     H12975   3.226   3.025  17.516 -0.5075  0.0203  0.2206
  881MPD2    H112976   2.800   2.986  17.507 -0.2318  2.4890 -0.0796
  881MPD2    H212977   3.026   3.031  17.146 -0.0088  0.1675 -0.5377
  881MPD2    H312978   2.819   2.981  17.255  0.4857  1.3962 -1.3029
  881MPD2     N12979   3.003   2.946  17.660 -0.6077 -0.1067  0.6046
  881MPD2    H512980   2.913   2.909  17.686 -0.6778  0.0374  0.5689
  881MPD2    N112981   3.249   3.079  17.257  0.4917 -0.2599 -0.0648
  881MPD2    H712982   3.249   3.076  17.156  1.1420  0.4599 -0.0896
  882MPD2     C12983   2.020   0.344  14.334  0.5258 -0.4168 -0.3369
  882MPD2    C112984   1.965   0.343  14.460  0.0232  0.1544  0.1790
  882MPD2    C212985   1.875   0.244  14.494  0.5452  0.0839  0.1974
  882MPD2    C312986   1.825   0.163  14.399 -0.9812  0.4122  0.7805
  882MPD2    C412987   1.867   0.170  14.267 -0.1176 -1.0381 -0.0940
  882MPD2    C512988   1.970   0.255  14.242  0.3462 -0.3255 -0.1129
  882MPD2     H12989   1.838   0.232  14.595  2.0695 -0.4403  0.6983
  882MPD2    H112990   1.822   0.101  14.196 -1.2917 -2.0928  1.6824
  882MPD2    H212991   2.100   0.411  14.307  1.2070 -0.6212  1.1315
  882MPD2    H312992   2.008   0.268  14.142  0.4164 -0.2392 -0.0750
  882MPD2     N12993   1.728   0.070  14.423 -1.1557 -0.0565 -0.1971
  882MPD2    H512994   1.678   0.037  14.340 -0.3982  0.7219 -0.9659
  882MPD2    N112995   2.014   0.434  14.553  0.0199  0.1831 -0.4819
  882MPD2    H712996   2.105   0.473  14.529 -0.8964  1.3809 -2.0411
  883MPD2     C12997   3.818   0.270  16.257  0.3667  0.0376  0.4470
  883MPD2    C112998   3.833   0.401  16.218  0.0351  0.4024  0.2073
  883MPD2    C212999   3.935   0.470  16.286 -0.0978  0.3647  0.2080
  883MPD2    C313000   3.995   0.416  16.397  0.2443  0.6113  0.0810
  883MPD2    C413001   3.982   0.283  16.428  0.8956  0.2922 -0.1432
  883MPD2    C513002   3.888   0.210  16.360  0.4114 -0.7830  0.4020
  883MPD2     H13003   3.950   0.575  16.264  0.9054  0.1551 -0.1165
  883MPD2    H113004   4.032   0.224  16.503  2.5174 -0.8608 -2.1314
  883MPD2    H213005   3.748   0.195  16.223  1.7443 -1.3917  0.7029
  883MPD2    H313006   3.868   0.107  16.385  0.4247 -1.3091 -1.8063
  883MPD2     N13007   4.074   0.515  16.466 -0.0310  0.1120 -0.0325
  883MPD2    H513008   4.069   0.610  16.431  2.3398 -0.4201 -1.8364
  883MPD2    N113009   3.765   0.458  16.107 -0.2153 -0.1083  0.6741
  883MPD2    H713010   3.799   0.546  16.067  0.1196 -0.6584 -0.2638
  884MPD2     C13011   1.247   0.962  15.229  0.4405  0.1160 -0.4489
  884MPD2    C113012   1.213   1.071  15.146 -0.5998 -0.0906  0.6864
  884MPD2    C213013   1.079   1.076  15.119 -0.0782 -0.3986 -0.7635
  884MPD2    C313014   0.989   0.984  15.171 -0.7347  0.0974 -0.0701
  884MPD2    C413015   1.029   0.878  15.251  0.2043 -0.1860 -0.4417
  884MPD2    C513016   1.164   0.866  15.272 -0.0186  0.0764 -0.7208
  884MPD2     H13017   1.034   1.156  15.062 -0.8009 -0.3185 -0.0862
  884MPD2    H113018   0.971   0.801  15.301  0.4011  0.6110  1.0285
  884MPD2    H213019   1.350   0.958  15.263  0.1513  0.9880  0.5237
  884MPD2    H313020   1.204   0.787  15.334  0.4374  0.8517 -0.0355
  884MPD2     N13021   0.849   1.014  15.165 -0.4456  0.0984 -0.6697
  884MPD2    H513022   0.822   1.097  15.114  0.1650  1.6173  1.4775
  884MPD2    N113023   1.315   1.156  15.087  0.7059 -0.0393  0.1567
  884MPD2    H713024   1.285   1.209  15.006 -1.7976 -1.4137  0.1579
  885MPD2     C13025   3.493   1.004   0.176 -0.2582  0.3781  0.0373
  885MPD2    C113026   3.621   1.063   0.177  0.1246  0.6329  0.5907
  885MPD2    C213027   3.660   1.129   0.064 -0.1320 -0.3335  0.6778
  885MPD2    C313028   3.576   1.131  17.703  0.0940  0.3170  0.0253
  885MPD2    C413029   3.451   1.074  17.704  0.1320  0.1520 -0.1924
  885MPD2    C513030   3.414   1.008   0.066  0.1232 -0.2759  0.2638
  885MPD2     H13031   3.753   1.185   0.054 -1.0138  1.1260  0.6037
  885MPD2    H113032   3.375   1.104  17.633  0.5024 -1.9218 -1.4871
  885MPD2    H213033   3.449   0.970   0.269  0.2637 -0.6640 -0.0941
  885MPD2    H313034   3.314   0.969   0.077 -0.8085  2.0692  0.2068
  885MPD2     N13035   3.618   1.225  17.607 -0.5181  0.0021 -0.4023
  885MPD2    H513036   3.698   1.282  17.632 -1.1087  1.3646 -1.5890
  885MPD2    N113037   3.688   1.056   0.297  0.7925 -0.3322  0.3653
  885MPD2    H713038   3.636   1.033   0.380 -0.1253  0.5745  0.0366
  886MPD2     C13039   0.360   4.192  15.338  0.2478 -0.4061  0.3967
  886MPD2    C113040   0.495   4.210  15.327  0.0169  0.1884 -0.2820
  886MPD2    C213041   0.544   4.318  15.261 -0.0173  0.4554 -0.4079
  886MPD2    C313042   0.462   4.421  15.216 -0.7113 -0.2159 -0.3174
  886MPD2    C413043   0.328   4.407  15.231 -0.1581 -0.0507 -0.0617
  886MPD2    C513044   0.273   4.291  15.292 -0.7614  0.3034  0.2821
  886MPD2     H13045   0.650   4.333  15.246  0.6734 -4.6868 -0.4710
  886MPD2    H113046   0.256   4.483  15.204 -0.8787 -0.5997  0.2858
  886MPD2    H213047   0.320   4.094  15.364  0.4156 -0.4399  0.5298
  886MPD2    H313048   0.165   4.286  15.300 -0.7825  2.1524  1.2985
  886MPD2     N13049   0.513   4.542  15.171 -0.2697 -0.0042  0.3389
  886MPD2    H513050   0.439   4.604  15.139 -0.3537 -0.9571 -1.3049
  886MPD2    N113051   0.584   4.116  15.377 -0.5458  0.0529  0.4755
  886MPD2    H713052   0.679   4.138  15.352 -1.0199  1.8324  0.1915
  887MPD2     C13053   1.282   4.161  15.514 -0.3013 -0.5044 -0.6764
  887MPD2    C113054   1.154   4.216  15.547 -0.3317 -0.1387  0.4287
  887MPD2    C213055   1.143   4.350  15.572  0.2718 -1.2039 -0.6302
  887MPD2    C313056   1.252   4.430  15.571  0.0066  0.4759  0.0749
  887MPD2    C413057   1.377   4.382  15.527  0.5726 -0.1037  0.0161
  887MPD2    C513058   1.389   4.249  15.495  0.1926 -0.2686 -0.0723
  887MPD2     H13059   1.047   4.377  15.614  1.6506  0.2119  1.5925
  887MPD2    H113060   1.462   4.447  15.513  1.1871 -1.1542 -1.1154
  887MPD2    H213061   1.290   4.056  15.486  0.5838 -0.2114 -1.5373
  887MPD2    H313062   1.489   4.214  15.473 -0.2606 -1.8067  0.3672
  887MPD2     N13063   1.226   4.566  15.610 -0.5221 -0.9940 -0.2588
  887MPD2    H513064   1.132   4.594  15.636  0.7227  2.0188  1.0903
  887MPD2    N113065   1.039   4.143  15.551  0.3497 -0.2063  0.0240
  887MPD2    H713066   0.956   4.201  15.549  1.7399  1.6817 -2.3819
  888MPD2     C13067   2.879   4.435  14.680  0.4449  0.3839  0.7543
  888MPD2    C113068   2.861   4.480  14.808  0.1445  0.9746  0.1179
  888MPD2    C213069   2.896   4.604  14.842  0.0236 -0.8379 -0.2210
  888MPD2    C313070   2.968   4.680  14.751 -0.1399  0.1262 -0.1600
  888MPD2    C413071   2.981   4.642  14.618 -0.4477  0.8618  0.1108
  888MPD2    C513072   2.931   4.517  14.589 -0.3033 -0.2018 -0.1006
  888MPD2     H13073   2.893   4.647  14.941  2.3389  0.0946 -0.5474
  888MPD2    H113074   3.033   4.701  14.542  1.0300  0.6085  0.9270
  888MPD2    H213075   2.843   4.339  14.646  0.6268  0.4965  0.2293
  888MPD2    H313076   2.951   4.483  14.489 -0.8246 -0.1480 -0.2270
  888MPD2     N13077   3.035   0.054  14.802  0.6969  0.4422  0.0607
  888MPD2    H513078   2.997   0.085  14.891 -2.9098 -0.1575 -1.2604
  888MPD2    N113079   2.809   4.403  14.912  0.2991  0.2574  1.0316
  888MPD2    H713080   2.780   4.454  14.995 -0.9305  0.1023  0.7014
  889MPD2     C13081   2.407   4.103  12.602  0.0959  0.0119  0.3681
  889MPD2    C113082   2.522   4.078  12.678  0.6153  0.6462 -0.1700
  889MPD2    C213083   2.587   4.187  12.731 -0.0233  0.3737  0.1268
  889MPD2    C313084   2.559   4.312  12.688 -0.0318  0.5597  0.8288
  889MPD2    C413085   2.447   4.338  12.606 -0.1063  0.0873 -0.2741
  889MPD2    C513086   2.377   4.228  12.557 -0.7182 -0.6400  0.6239
  889MPD2     H13087   2.671   4.169  12.797 -0.5839  0.2761  0.8124
  889MPD2    H113088   2.423   4.429  12.552 -0.2061 -0.0311 -0.4286
  889MPD2    H213089   2.351   4.023  12.555 -1.8462  2.0255 -0.7663
  889MPD2    H313090   2.305   4.249  12.479 -0.0641  1.2831  0.5480
  889MPD2     N13091   2.660   4.408  12.731  0.9497 -0.4157  0.1777
  889MPD2    H513092   2.734   4.378  12.793 -1.1981 -0.0888  2.8802
  889MPD2    N113093   2.536   3.944  12.739  0.0200 -0.7573  0.2992
  889MPD2    H713094   2.471   3.868  12.723 -1.8944  0.8915  0.2711
  890MPD2     C13095   1.616   1.030  14.632  0.0916  0.2276 -0.8687
  890MPD2    C113096   1.753   1.012  14.621  0.6189 -0.4593 -0.4446
  890MPD2    C213097   1.825   0.956  14.724  0.9266 -0.0380 -0.0838
  890MPD2    C313098   1.767   0.910  14.834 -0.1054 -0.1514  0.2429
  890MPD2    C413099   1.631   0.912  14.847 -0.1824 -0.6425 -0.1001
  890MPD2    C513100   1.563   0.974  14.746  0.6760  0.0648 -1.0875
  890MPD2     H13101   1.933   0.952  14.717  0.8976 -1.2025  0.1148
  890MPD2    H113102   1.575   0.866  14.928  0.4074 -0.0164  0.6563
  890MPD2    H213103   1.574   1.091  14.554 -0.8480  0.4044 -0.2258
  890MPD2    H313104   1.458   0.983  14.769  1.1350  1.4534  0.4574
  890MPD2     N13105   1.849   0.867  14.940 -0.3592  0.2262  0.2894
  890MPD2    H513106   1.947   0.887  14.923 -0.6618  0.8166 -0.7524
  890MPD2    N113107   1.817   1.073  14.513 -0.3109 -0.4418 -0.8173
  890MPD2    H713108   1.757   1.141  14.466 -1.9659 -1.2127  0.1751
  891MPD2     C13109   0.166   4.537  16.291 -0.7277 -0.5538 -0.0428
  891MPD2    C113110   0.078   4.473  16.371  0.3128  0.1039 -0.6747
  891MPD2    C213111   0.119   4.404  16.482  0.1020 -0.4671 -0.3894
  891MPD2    C313112   0.254   4.400  16.514  0.0976 -0.6698  0.7601
  891MPD2    C413113   0.343   4.464  16.430 -0.3075 -0.5489 -0.0651
  891MPD2    C513114   0.297   4.533  16.322 -0.3539  0.3953 -0.1280
  891MPD2     H13115   0.052   4.354  16.551 -2.1665  0.7548 -1.7211
  891MPD2    H113116   0.451   4.462  16.439 -0.3872 -0.9912  0.7726
  891MPD2    H213117   0.126   4.580  16.199  2.9051  0.4953 -1.1351
  891MPD2    H313118   0.362   4.571  16.243  1.3282 -1.4791  0.3797
  891MPD2     N13119   0.289   4.339  16.635  0.1672  0.3984  0.0083
  891MPD2    H513120   0.212   4.291  16.681  0.5743 -0.6512 -0.4198
  891MPD2    N113121   4.678   4.480  16.330  0.1560 -0.5964  0.4941
  891MPD2    H713122   4.661   4.523  16.240 -3.1902  0.7915  1.7838
  892MPD2     C13123   1.081   0.647  14.450 -0.0410 -0.0151 -0.1565
  892MPD2    C113124   1.014   0.552  14.527 -0.3544 -0.2544  0.5467
  892MPD2    C213125   1.082   0.426  14.537 -0.3342 -0.2068 -0.4925
  892MPD2    C313126   1.203   0.400  14.469 -0.1760  0.1874  0.6624
  892MPD2    C413127   1.263   0.503  14.398  0.3651  0.2318  0.3136
  892MPD2    C513128   1.204   0.620  14.393 -0.0661  0.1896  0.0876
  892MPD2     H13129   1.041   0.349  14.600  0.3145  0.6742  0.9985
  892MPD2    H113130   1.358   0.511  14.346  1.6961  0.1533  2.6944
  892MPD2    H213131   1.051   0.751  14.446  0.8076  0.2359  0.0180
  892MPD2    H313132   1.254   0.704  14.346  0.7592  1.1746  2.7262
  892MPD2     N13133   1.286   0.284  14.477 -0.3971  0.1750  0.2065
  892MPD2    H513134   1.383   0.303  14.456 -0.8888  2.1385 -0.2315
  892MPD2    N113135   0.901   0.588  14.598 -0.0434  0.8252 -0.2009
  892MPD2    H713136   0.862   0.680  14.580 -0.4956  0.8709  0.9803
  893MPD2     C13137   2.795   3.386   1.331  0.1305  0.0020  0.2197
  893MPD2    C113138   2.779   3.421   1.198 -0.0856 -0.7402  0.5976
  893MPD2    C213139   2.653   3.433   1.147  0.8548 -0.0268  0.2322
  893MPD2    C313140   2.545   3.418   1.238  0.3070  0.1550 -0.4145
  893MPD2    C413141   2.558   3.385   1.373  0.2059  0.2963  0.1347
  893MPD2    C513142   2.688   3.373   1.418 -0.7044  0.0357  0.7558
  893MPD2     H13143   2.622   3.447   1.044  1.9779 -0.9683 -0.2441
  893MPD2    H113144   2.473   3.387   1.440 -1.9165 -2.8301 -2.4638
  893MPD2    H213145   2.888   3.344   1.367 -1.0201 -2.6173  0.1357
  893MPD2    H313146   2.710   3.331   1.515  2.0226  0.2945  0.2474
  893MPD2     N13147   2.411   3.444   1.195  0.0852  0.0222  1.1226
  893MPD2    H513148   2.341   3.438   1.269  0.3548 -0.9763  1.2982
  893MPD2    N113149   2.890   3.441   1.113  0.2708 -0.1748 -0.5778
  893MPD2    H713150   2.981   3.421   1.153 -0.9636  1.4320  3.0617
  894MPD2     C13151   0.908   1.329   0.932  0.2277 -0.2074  0.0845
  894MPD2    C113152   0.899   1.373   1.064  0.1070  0.3108  0.5661
  894MPD2    C213153   1.000   1.460   1.105 -0.1572  0.3526  0.1129
  894MPD2    C313154   1.084   1.521   1.012 -0.4081  0.1885 -0.0808
  894MPD2    C413155   1.079   1.481   0.881 -0.3091  0.0818 -0.2156
  894MPD2    C513156   0.992   1.385   0.843 -0.4473 -0.5429 -0.1056
  894MPD2     H13157   0.992   1.496   1.207 -0.4557  2.6145 -0.7023
  894MPD2    H113158   1.139   1.524   0.801  2.4988 -1.3169  1.1176
  894MPD2    H213159   0.834   1.257   0.899 -0.0865 -0.2864  0.9679
  894MPD2    H313160   0.985   1.359   0.739  0.7414 -0.4278 -0.2150
  894MPD2     N13161   1.164   1.627   1.061 -0.1655  0.7766  0.3161
  894MPD2    H513162   1.157   1.649   1.160 -0.6402  0.7512  0.2915
  894MPD2    N113163   0.820   1.316   1.159 -0.2579  0.0660  0.1481
  894MPD2    H713164   0.820   1.351   1.254 -0.7770 -0.3767  0.3140
  895MPD2     C13165   4.725   4.626  13.503  0.6914  1.3573  0.7208
  895MPD2    C113166   4.722   4.492  13.536  0.3591 -0.8080 -0.2241
  895MPD2    C213167   0.100   4.424  13.547 -0.1593 -0.0937  0.1424
  895MPD2    C313168   0.218   4.474  13.492  0.2257  0.5118  0.5122
  895MPD2    C413169   0.214   4.601  13.431 -0.0867  0.3929  0.0445
  895MPD2    C513170   0.102   4.680  13.451 -0.4605  0.1705 -0.5039
  895MPD2     H13171   0.089   4.318  13.569 -0.4237 -0.5955 -2.4248
  895MPD2    H113172   0.304   4.644  13.389 -0.3399  1.3645  0.4981
  895MPD2    H213173   4.636   4.687  13.495  0.8019  1.3416 -0.6430
  895MPD2    H313174   0.097   0.046  13.422 -1.0538  0.3859  0.3836
  895MPD2     N13175   0.325   4.388  13.478  0.2421 -0.6511 -0.2791
  895MPD2    H513176   0.404   4.417  13.422  0.5512 -0.1333  0.4218
  895MPD2    N113177   4.603   4.427  13.552  0.2027 -0.1520 -0.1418
  895MPD2    H713178   4.606   4.329  13.579 -0.9504 -0.6713 -1.9061
  896MPD2     C13179   3.014   1.885   1.422  0.2055 -0.2191  0.1130
  896MPD2    C113180   2.919   1.902   1.325 -0.1128 -0.3362  0.2855
  896MPD2    C213181   2.799   1.836   1.342 -0.8667  0.0001  0.0569
  896MPD2    C313182   2.770   1.765   1.457 -0.5823  0.0635 -0.2842
  896MPD2    C413183   2.872   1.758   1.550  0.1833 -0.0571  0.1449
  896MPD2    C513184   2.988   1.819   1.540 -0.4192 -0.1018  0.4912
  896MPD2     H13185   2.725   1.831   1.263 -0.7903 -0.8072  0.0435
  896MPD2    H113186   2.855   1.693   1.635 -0.3784 -1.4068 -0.9930
  896MPD2    H213187   3.105   1.944   1.417  0.0623  0.2015  2.4325
  896MPD2    H313188   3.062   1.814   1.619 -0.5127 -0.0386  0.5826
  896MPD2     N13189   2.639   1.702   1.477  0.1758  0.7379  0.4656
  896MPD2    H513190   2.584   1.683   1.395  0.2351 -1.5438  0.9479
  896MPD2    N113191   2.953   1.969   1.207  0.0743 -0.2740 -0.1323
  896MPD2    H713192   3.048   2.005   1.200  0.2269 -0.7523 -0.5545
  897MPD2     C13193   3.536   3.889  10.492  0.2702  0.2486 -0.4941
  897MPD2    C113194   3.415   3.926  10.448  0.8533 -0.0687 -0.1873
  897MPD2    C213195   3.300   3.868  10.510  0.7870 -0.5697 -0.4561
  897MPD2    C313196   3.311   3.810  10.630  0.3487  0.0512  0.3837
  897MPD2    C413197   3.442   3.780  10.674  0.2565 -0.3396  0.2728
  897MPD2    C513198   3.551   3.808  10.605 -0.8020  0.8711  0.4453
  897MPD2     H13199   3.199   3.894  10.477 -0.6891 -2.3403  2.7041
  897MPD2    H113200   3.453   3.734  10.771 -2.9067  0.1635  0.8977
  897MPD2    H213201   3.627   3.906  10.436  0.7869  0.7507  0.5063
  897MPD2    H313202   3.648   3.778  10.643 -0.9909 -2.2542 -1.5235
  897MPD2     N13203   3.196   3.777  10.697 -0.4484  0.2395  0.1399
  897MPD2    H513204   3.115   3.809  10.647  1.8702  1.6810 -2.6762
  897MPD2    N113205   3.404   3.994  10.326  0.5705 -0.0451 -0.5110
  897MPD2    H713206   3.493   4.021  10.285 -0.6309  0.8949 -2.4980
  898MPD2     C13207   4.595   4.443  17.747 -0.0180 -0.1641 -0.1196
  898MPD2    C113208   4.732   4.406  17.746  0.5055  0.0363  0.0418
  898MPD2    C213209   0.089   4.499  17.708 -0.2896  0.2893  0.6858
  898MPD2    C313210   0.050   4.625  17.664  0.0498  0.8228  0.0829
  898MPD2    C413211   4.655   4.658  17.654  0.1081 -0.7800 -0.1358
  898MPD2    C513212   4.566   4.575  17.714  0.4990  0.4392 -0.7371
  898MPD2     H13213   0.196   4.480  17.705 -0.1450  1.4835 -1.6014
  898MPD2    H113214   4.619   0.020  17.634  2.4040  0.1633  0.4030
  898MPD2    H213215   4.515   4.381   0.033  0.5525 -0.3169  0.8704
  898MPD2    H313216   4.463   4.609  17.715  0.8492  1.5352 -2.1842
  898MPD2     N13217   0.153   4.704  17.619 -0.4774 -0.1416 -0.1979
  898MPD2    H513218   0.248   4.674  17.635 -0.2836  0.8669  0.5125
  898MPD2    N113219   0.042   4.281   0.034  0.1534 -0.1259  0.3239
  898MPD2    H713220   0.141   4.273   0.054  0.5276  0.3423 -1.2919
  899MPD2     C13221   1.615   0.435  17.485 -0.7844  0.0559 -0.1179
  899MPD2    C113222   1.616   0.571  17.509 -0.1512  0.1540 -0.4717
  899MPD2    C213223   1.541   0.616  17.613  0.2713  0.8040  0.1411
  899MPD2    C313224   1.470   0.532  17.698  0.3879 -0.0422  0.3998
  899MPD2    C413225   1.466   0.399  17.662  0.5055  0.4081 -0.3110
  899MPD2    C513226   1.542   0.345  17.562  1.0718 -0.0889  0.0959
  899MPD2     H13227   1.537   0.722  17.631 -1.3457  0.4978  1.5327
  899MPD2    H113228   1.397   0.334  17.716  2.5402 -1.4916  0.0081
  899MPD2    H213229   1.676   0.387  17.410 -0.7261  0.7271 -0.5000
  899MPD2    H313230   1.538   0.239  17.539  0.5324  0.3109 -1.6550
  899MPD2     N13231   1.403   0.589   0.055  0.2498  0.3393 -0.3236
  899MPD2    H513232   1.403   0.690   0.064 -0.6175  0.3314 -0.2468
  899MPD2    N113233   1.671   0.655  17.412  0.0014 -0.1381  0.1641
  899MPD2    H713234   1.686   0.609  17.323 -2.0761  1.7731 -1.1871
  900MPD2     C13235   1.218   2.310  12.326 -0.3047 -0.1050  0.0682
  900MPD2    C113236   1.148   2.196  12.293 -0.1800 -0.0884  0.1098
  900MPD2    C213237   1.054   2.196  12.195  0.1878  0.5104  0.7204
  900MPD2    C313238   1.024   2.309  12.126 -0.2636 -0.4447  0.0654
  900MPD2    C413239   1.090   2.427  12.160  0.8222 -0.0591  0.2718
  900MPD2    C513240   1.177   2.429  12.264  0.5566 -0.0655 -0.2571
  900MPD2     H13241   0.997   2.106  12.175 -1.0056  1.1863  1.0324
  900MPD2    H113242   1.066   2.522  12.114  1.4243  0.2310  0.5593
  900MPD2    H213243   1.283   2.311  12.412  1.9181 -0.7160 -1.6184
  900MPD2    H313244   1.219   2.525  12.289 -0.7405  0.1708  1.0454
  900MPD2     N13245   0.921   2.302  12.023 -0.1037 -0.5023 -0.3085
  900MPD2    H513246   0.879   2.210  12.016  0.3516 -0.5748 -2.1076
  900MPD2    N113247   1.183   2.085  12.374 -0.2455  0.5176  0.5439
  900MPD2    H713248   1.248   2.088  12.451  0.0756  0.8005  0.2649
  901MPD2     C13249   0.949   1.116  12.792 -0.0064  0.3131  0.1792
  901MPD2    C113250   1.069   1.103  12.725  0.1234 -0.9425 -0.1160
  901MPD2    C213251   1.125   1.222  12.684  0.1300  0.1829  0.0079
  901MPD2    C313252   1.061   1.348  12.703  0.0447  0.1954  0.3418
  901MPD2    C413253   0.940   1.348  12.761  0.4079  0.0369 -0.4673
  901MPD2    C513254   0.883   1.238  12.813  0.6721  0.1245  0.0654
  901MPD2     H13255   1.222   1.228  12.637  0.2271  0.6916  0.2813
  901MPD2    H113256   0.897   1.446  12.780 -1.2434 -0.9332  0.7492
  901MPD2    H213257   0.892   1.043  12.848  0.5783 -0.7785 -0.6483
  901MPD2    H313258   0.795   1.245  12.876 -0.9447 -1.1450 -2.0515
  901MPD2     N13259   1.118   1.459  12.639 -0.2896  0.2363 -0.3236
  901MPD2    H513260   1.217   1.458  12.614 -0.3443  0.3042 -0.5423
  901MPD2    N113261   1.129   0.976  12.723 -0.0081  0.3078 -0.1246
  901MPD2    H713262   1.082   0.900  12.771 -0.4651 -0.6102 -2.0012
  902MPD2     C13263   0.163   4.308  12.614 -0.4677 -0.7429  0.0997
  902MPD2    C113264   0.278   4.386  12.638  0.1500 -0.1776 -0.3608
  902MPD2    C213265   0.403   4.341  12.612  1.1961 -0.6171 -0.4798
  902MPD2    C313266   0.427   4.212  12.570  0.2773  0.6418 -0.0379
  902MPD2    C413267   0.313   4.136  12.539  0.3416 -0.2405 -0.2755
  902MPD2    C513268   0.190   4.178  12.567  0.2096 -0.2158 -0.1474
  902MPD2     H13269   0.489   4.402  12.637  1.3151 -1.4494  1.1506
  902MPD2    H113270   0.326   4.040  12.489  1.4860  0.5133 -1.4282
  902MPD2    H213271   0.062   4.343  12.631 -0.3266  0.7489 -2.1501
  902MPD2    H313272   0.109   4.113  12.536 -0.0037  0.2396 -0.5479
  902MPD2     N13273   0.550   4.155  12.554  0.2330  0.4674  0.2289
  902MPD2    H513274   0.561   4.068  12.504 -0.8778  0.3061  0.2653
  902MPD2    N113275   0.248   4.517  12.684  0.5120 -0.2399 -0.2439
  902MPD2    H713276   0.152   4.531  12.715  0.9245  1.0438  0.4312
  903MPD2     C13277   0.658   4.661  12.415  0.2215  0.4019 -0.5133
  903MPD2    C113278   0.682   4.528  12.376 -0.1749 -0.0342  0.3887
  903MPD2    C213279   0.578   4.451  12.316  0.0625 -0.2423  0.6905
  903MPD2    C313280   0.455   4.511  12.287  0.4462  0.4495  0.3428
  903MPD2    C413281   0.441   4.644  12.324  0.2184  0.2742 -0.3026
  903MPD2    C513282   0.535   4.715  12.388 -0.2238 -0.3572 -1.0665
  903MPD2     H13283   0.597   4.346  12.298  1.1520  0.0446  0.1454
  903MPD2    H113284   0.347   4.697  12.311 -0.5987 -1.3743 -1.0504
  903MPD2    H213285   0.728   4.720  12.472 -2.3212  2.2756  0.6708
  903MPD2    H313286   0.512   0.078  12.419 -0.0345 -0.8346  0.6495
  903MPD2     N13287   0.359   4.433  12.219  0.1485 -0.9204  0.4235
  903MPD2    H513288   0.373   4.336  12.195  2.3759 -0.2428 -0.9938
  903MPD2    N113289   0.805   4.463  12.403  0.0975  0.0408 -0.0827
  903MPD2    H713290   0.867   4.505  12.472 -1.4645 -1.8084  2.4319
  904MPD2     C13291   4.488   3.552  14.110 -0.1041 -0.1805 -0.4810
  904MPD2    C113292   4.582   3.651  14.131 -0.1120 -0.0087  0.0586
  904MPD2    C213293   4.717   3.619  14.158  0.2775  0.0047 -0.2849
  904MPD2    C313294   0.019   3.484  14.147 -0.7564 -0.1602 -0.1566
  904MPD2    C413295   4.657   3.382  14.125 -0.4068 -0.1377  0.1176
  904MPD2    C513296   4.528   3.416  14.114  0.0388  0.2089 -1.1389
  904MPD2     H13297   0.052   3.696  14.176 -1.0100  0.9302  1.0711
  904MPD2    H113298   4.677   3.277  14.108 -3.0115 -0.5442 -0.5050
  904MPD2    H213299   4.386   3.581  14.087 -0.3597 -1.3777 -0.8815
  904MPD2    H313300   4.456   3.341  14.086  1.5563 -1.9133  0.6986
  904MPD2     N13301   0.158   3.465  14.155 -0.0377 -0.0120  0.0275
  904MPD2    H513302   0.221   3.544  14.151 -1.1920  0.9210  0.4287
  904MPD2    N113303   4.537   3.779  14.137 -0.0178 -0.6034  0.6063
  904MPD2    H713304   4.439   3.782  14.108  0.2821  0.2425 -0.3327
  905MPD2     C13305   4.504   3.794  13.545  0.0290  0.3133 -0.6063
  905MPD2    C113306   4.574   3.902  13.584  0.3716 -0.1628 -0.0577
  905MPD2    C213307   4.678   3.953  13.509 -0.3634  0.2182 -0.0146
  905MPD2    C313308   4.706   3.887  13.391 -0.6583  0.0140 -0.5388
  905MPD2    C413309   4.639   3.772  13.354 -0.1394 -0.3536 -0.2315
  905MPD2    C513310   4.530   3.731  13.428  0.1713 -0.1942  0.1547
  905MPD2     H13311   4.732   4.042  13.539 -0.8902  1.4295 -2.5918
  905MPD2    H113312   4.653   3.720  13.260  3.4412  1.9441 -0.9906
  905MPD2    H213313   4.419   3.758  13.602  0.0787 -0.1613 -0.8317
  905MPD2    H313314   4.476   3.644  13.391 -1.8537  0.3470  1.8479
  905MPD2     N13315   0.072   3.931  13.305  0.1423 -0.1650 -0.2660
  905MPD2    H513316   0.105   3.867  13.234  0.2214  0.5644 -0.8902
  905MPD2    N113317   4.535   3.953  13.709  0.6575  0.0821  0.5184
  905MPD2    H713318   4.460   3.907  13.760 -0.8175  1.4241 -0.4258
  906MPD2     C13319   1.655   3.876  11.525 -0.7957  0.1435 -0.4008
  906MPD2    C113320   1.604   3.788  11.427  0.0751 -0.0010 -1.0138
  906MPD2    C213321   1.501   3.710  11.465  0.4246 -0.1270 -0.0723
  906MPD2    C313322   1.433   3.715  11.583  0.1938  0.3832  0.1031
  906MPD2    C413323   1.480   3.802  11.675  0.3519 -0.0608  0.4969
  906MPD2    C513324   1.598   3.879  11.650 -0.1184  0.2611  0.7768
  906MPD2     H13325   1.478   3.635  11.390  0.8383 -0.8104  0.4872
  906MPD2    H113326   1.434   3.797  11.773 -1.3377 -1.1263 -0.3717
  906MPD2    H213327   1.731   3.948  11.497  2.2762 -2.1549  2.1174
  906MPD2    H313328   1.641   3.943  11.726 -0.2372  0.8645  0.3353
  906MPD2     N13329   1.320   3.635  11.613  0.1812 -0.2769 -0.2014
  906MPD2    H513330   1.268   3.663  11.695 -0.5415  1.0918 -1.1119
  906MPD2    N113331   1.643   3.780  11.289  0.4291  0.0725  0.0715
  906MPD2    H713332   1.578   3.746  11.218 -0.7438  1.8928  0.2725
  907MPD2     C13333   1.159   3.062  15.986  0.2626  0.3419 -0.2519
  907MPD2    C113334   1.121   2.938  15.944 -0.0451  1.0431 -0.1862
  907MPD2    C213335   1.168   2.825  16.014  0.8196  0.3429  0.2295
  907MPD2    C313336   1.259   2.833  16.121  0.0201  0.8955 -0.1536
  907MPD2    C413337   1.285   2.965  16.165 -0.3322 -0.9807  0.4482
  907MPD2    C513338   1.240   3.069  16.093  1.1262  0.4462 -0.3182
  907MPD2     H13339   1.129   2.729  15.983 -2.5242  2.0453 -0.8445
  907MPD2    H113340   1.353   2.990  16.246  3.3669 -0.7261 -2.7512
  907MPD2    H213341   1.125   3.156  15.943  1.1636  0.1866 -1.3157
  907MPD2    H313342   1.273   3.170  16.114 -1.9722  1.5315 -0.6427
  907MPD2     N13343   1.309   2.718  16.175 -0.6879 -0.4204  0.5949
  907MPD2    H513344   1.299   2.633  16.121  1.3546 -0.4996  0.3249
  907MPD2    N113345   1.034   2.919  15.831  0.4799  0.2486 -0.6798
  907MPD2    H713346   1.015   2.819  15.828 -1.5267  0.5439  1.8433
  908MPD2     C13347   3.003   3.556   9.562 -0.5522 -0.0417 -0.5043
  908MPD2    C113348   3.086   3.511   9.665  0.0679 -1.1350  0.8034
  908MPD2    C213349   3.154   3.607   9.743  0.5654 -0.0524 -0.5628
  908MPD2    C313350   3.136   3.744   9.712  0.2621 -0.2645 -0.2929
  908MPD2    C413351   3.055   3.784   9.601 -0.0349  0.1357 -0.6986
  908MPD2    C513352   2.994   3.683   9.533  0.1173  0.6410 -0.1769
  908MPD2     H13353   3.215   3.579   9.827  0.3798 -0.1857 -0.4720
  908MPD2    H113354   3.019   3.885   9.587  1.6188  0.7454 -0.6282
  908MPD2    H213355   2.949   3.499   9.487 -0.8686 -1.1791  0.5936
  908MPD2    H313356   2.940   3.709   9.442  0.2714  1.7433  0.0420
  908MPD2     N13357   3.197   3.838   9.797  0.0234 -0.1874  0.1255
  908MPD2    H513358   3.239   3.795   9.878 -0.6120  0.9838  1.0687
  908MPD2    N113359   3.095   3.376   9.700  0.2985  0.8177 -0.5456
  908MPD2    H713360   3.029   3.316   9.651  0.9780 -0.3207 -0.0370
  909MPD2     C13361   3.654   1.402  11.741  0.5825  0.2932 -0.0260
  909MPD2    C113362   3.607   1.422  11.616 -0.3699  0.8483 -0.5742
  909MPD2    C213363   3.491   1.490  11.600  0.7917 -0.5572  0.4477
  909MPD2    C313364   3.419   1.528  11.709  0.8165 -0.0615  0.3325
  909MPD2    C413365   3.480   1.525  11.831 -0.9527  0.4858  0.1007
  909MPD2    C513366   3.590   1.460  11.848 -0.5332  0.4365  0.1341
  909MPD2     H13367   3.458   1.501  11.497 -1.1498 -3.8991  0.7173
  909MPD2    H113368   3.436   1.551  11.926  1.0893 -1.9717  1.7039
  909MPD2    H213369   3.745   1.347  11.762  0.4690  0.5837  1.2200
  909MPD2    H313370   3.627   1.463  11.950  0.6859 -1.6650 -0.2443
  909MPD2     N13371   3.303   1.598  11.680 -0.4402 -0.3905 -0.3678
  909MPD2    H513372   3.283   1.600  11.580  0.3836  0.7341 -0.5116
  909MPD2    N113373   3.680   1.391  11.502 -0.2103 -0.1262 -0.2271
  909MPD2    H713374   3.663   1.438  11.414  1.8726  1.9742  0.4993
  910MPD2     C13375   0.610   3.745  16.287  0.6163  0.1106 -0.9445
  910MPD2    C113376   0.584   3.629  16.212  0.2520  0.4764  0.2324
  910MPD2    C213377   0.548   3.648  16.083  0.1734 -0.2506 -0.6686
  910MPD2    C313378   0.505   3.774  16.036  0.2455 -0.5980  0.1122
  910MPD2    C413379   0.519   3.884  16.120 -0.6541 -0.5407 -0.7014
  910MPD2    C513380   0.588   3.866  16.239 -0.8754 -0.0896  0.0872
  910MPD2     H13381   0.524   3.565  16.018 -0.8875  0.4834 -1.2105
  910MPD2    H113382   0.499   3.987  16.095 -0.0571 -0.1755  0.3087
  910MPD2    H213383   0.651   3.739  16.387 -0.2489 -1.0722 -0.6562
  910MPD2    H313384   0.613   3.948  16.305  1.8364 -0.3771 -0.6059
  910MPD2     N13385   0.424   3.775  15.917 -0.4402  0.1134 -0.5791
  910MPD2    H513386   0.419   3.686  15.869  0.0286  0.8693 -2.0002
  910MPD2    N113387   0.594   3.500  16.264 -0.6518 -0.4809  0.1236
  910MPD2    H713388   0.574   3.421  16.203 -1.4738  0.5560 -0.9600
  911MPD2     C13389   3.020   4.162  16.236 -0.0136  0.1960  0.1827
  911MPD2    C113390   3.101   4.247  16.314 -0.4936 -0.4990  0.0485
  911MPD2    C213391   3.071   4.385  16.323  0.2210 -1.2034  0.4990
  911MPD2    C313392   2.957   4.433  16.263  0.2891 -0.1954 -0.0028
  911MPD2    C413393   2.873   4.344  16.199  0.9340  0.3232 -0.0325
  911MPD2    C513394   2.912   4.215  16.171 -0.0016  0.4767 -0.0423
  911MPD2     H13395   3.129   4.454  16.384 -1.0444  0.8454 -0.6139
  911MPD2    H113396   2.783   4.372  16.144  0.2507 -3.2500 -0.7407
  911MPD2    H213397   3.035   4.055  16.228 -2.0142 -0.1582  1.0634
  911MPD2    H313398   2.837   4.155  16.120 -0.4104  1.3671 -0.4802
  911MPD2     N13399   2.916   4.563  16.252  0.6908 -0.7109 -0.1650
  911MPD2    H513400   2.829   4.587  16.207  0.4829 -0.7117  0.2333
  911MPD2    N113401   3.210   4.186  16.378  0.0758 -0.4238  0.2514
  911MPD2    H713402   3.222   4.087  16.358  0.5996  0.4624 -3.8217
  912MPD2     C13403   2.611   4.719  15.692 -0.1880 -0.6583  0.1716
  912MPD2    C113404   2.621   4.663  15.818 -0.4115  0.0246 -0.0496
  912MPD2    C213405   2.630   4.528  15.833 -0.5534 -0.2854 -0.2585
  912MPD2    C313406   2.624   4.449  15.722  0.2159  0.1559 -0.6735
  912MPD2    C413407   2.610   4.505  15.596  0.1588  0.3469  0.1854
  912MPD2    C513408   2.609   4.644  15.583 -0.0236 -0.5445  0.0107
  912MPD2     H13409   2.637   4.479  15.929  1.4070 -0.9092 -0.7265
  912MPD2    H113410   2.600   4.437  15.512 -1.8191 -1.0346  1.5467
  912MPD2    H213411   2.601   0.088  15.681 -1.0700 -0.7025  0.5379
  912MPD2    H313412   2.575   4.687  15.490  0.9185 -0.0849 -0.1285
  912MPD2     N13413   2.618   4.310  15.744 -0.1787  1.0811  0.1317
  912MPD2    H513414   2.599   4.280  15.839 -1.5559  4.5328  0.9379
  912MPD2    N113415   2.633   0.011  15.925  0.4677  0.1170  0.2645
  912MPD2    H713416   2.636   0.110  15.906 -2.2155  0.0536 -0.4916
  913MPD2     C13417   2.933   0.361   9.864 -0.1348  0.5538  0.2802
  913MPD2    C113418   2.993   0.418   9.970  0.1700  0.2582  0.4865
  913MPD2    C213419   2.981   0.556   9.997 -0.2853  0.8251  0.4533
  913MPD2    C313420   2.918   0.641   9.901  0.3932 -0.1448 -0.1457
  913MPD2    C413421   2.869   0.579   9.788  0.7879  0.1332  0.2431
  913MPD2    C513422   2.871   0.445   9.779  0.2599 -0.4376  0.3969
  913MPD2     H13423   3.031   0.599  10.083  0.2472  1.2284 -0.0592
  913MPD2    H113424   2.822   0.645   9.716  0.6852 -1.3781 -1.0926
  913MPD2    H213425   2.926   0.254   9.848  0.2450  0.2007  2.4278
  913MPD2    H313426   2.816   0.395   9.700  2.9376  0.3671 -1.9489
  913MPD2     N13427   2.923   0.780   9.890  0.0331  0.4613 -0.1705
  913MPD2    H513428   2.883   0.825   9.808  1.7056 -0.0445 -1.2815
  913MPD2    N113429   3.068   0.323  10.047  0.3454  0.0152  0.3775
  913MPD2    H713430   3.072   0.226  10.017 -0.8176  0.8636 -2.4953
  914MPD2     C13431   1.378   0.449  11.954 -0.2319  0.4017  0.8013
  914MPD2    C113432   1.295   0.554  11.977 -0.2182 -0.6098  0.5316
  914MPD2    C213433   1.278   0.592  12.110 -0.6446  0.0751 -0.2706
  914MPD2    C313434   1.331   0.520  12.212  0.3837  0.1166 -0.2038
  914MPD2    C413435   1.413   0.422  12.187 -0.2186 -0.7370 -0.5477
  914MPD2    C513436   1.431   0.381  12.056  0.5898  0.1132  0.6264
  914MPD2     H13437   1.214   0.671  12.146 -0.3116 -0.8370  2.3643
  914MPD2    H113438   1.478   0.379  12.262  0.2695  1.2481  0.1716
  914MPD2    H213439   1.396   0.422  11.851 -1.2028  3.3395 -0.1165
  914MPD2    H313440   1.489   0.292  12.032  1.1411  0.6628 -0.1011
  914MPD2     N13441   1.295   0.564  12.346 -0.1731  0.2481  0.2469
  914MPD2    H513442   1.227   0.639  12.356  0.7976  1.6351 -3.5907
  914MPD2    N113443   1.221   0.614  11.868 -0.3873  0.1717 -0.6281
  914MPD2    H713444   1.257   0.586  11.777 -1.9960  0.9201 -1.5013
  915MPD2     C13445   4.123   0.500  15.586  0.1339  0.4098 -0.3728
  915MPD2    C113446   4.073   0.607  15.516 -1.1252 -0.4266  0.4161
  915MPD2    C213447   4.017   0.715  15.584 -0.9260 -0.1136 -0.0500
  915MPD2    C313448   4.000   0.705  15.729  0.3902  0.5473  0.2714
  915MPD2    C413449   4.062   0.594  15.791 -0.5916  0.6058 -0.8104
  915MPD2    C513450   4.115   0.496  15.720 -0.2400 -0.0367  0.4051
  915MPD2     H13451   3.973   0.801  15.535  0.2052 -0.7133 -2.0745
  915MPD2    H113452   4.051   0.575  15.897 -1.3395 -0.2778 -1.0507
  915MPD2    H213453   4.160   0.410  15.538 -0.1164 -0.3933  0.9306
  915MPD2    H313454   4.139   0.405  15.773 -0.7191 -0.1843  0.3720
  915MPD2     N13455   3.927   0.803  15.799  0.0745  0.5339  0.1982
  915MPD2    H513456   3.891   0.883  15.747  0.8290  0.7121 -0.0583
  915MPD2    N113457   4.079   0.604  15.376 -0.4326 -0.2686  0.0072
  915MPD2    H713458   4.099   0.515  15.331 -1.2302  0.5832 -2.0594
  916MPD2     C13459   2.054   3.701  15.409 -0.0104 -0.1097 -1.5847
  916MPD2    C113460   2.034   3.596  15.497  0.1261 -0.1752 -0.3414
  916MPD2    C213461   2.042   3.471  15.441 -0.2327  0.0618 -0.5417
  916MPD2    C313462   2.088   3.450  15.312  0.0033  0.6984  0.3692
  916MPD2    C413463   2.114   3.557  15.229 -0.0887 -0.0459  1.1198
  916MPD2    C513464   2.090   3.681  15.277  0.0864  0.4102  0.9535
  916MPD2     H13465   2.028   3.383  15.503  0.1035  0.2828 -0.1498
  916MPD2    H113466   2.167   3.557  15.134  1.4471  1.2036  1.9774
  916MPD2    H213467   2.044   3.803  15.445  1.5770 -0.8466  0.8971
  916MPD2    H313468   2.099   3.774  15.221  0.5670  1.2172  2.3831
  916MPD2     N13469   2.090   3.318  15.272  0.3608 -0.3387 -0.4006
  916MPD2    H513470   2.046   3.246  15.328 -1.8532 -0.9640 -2.9812
  916MPD2    N113471   2.014   3.623  15.633  1.0115 -0.0305  0.8082
  916MPD2    H713472   2.015   3.722  15.656 -0.7536 -0.4468  2.6762
  917MPD2     C13473   2.091   0.963  11.357 -0.0360  0.2862 -0.2917
  917MPD2    C113474   2.096   1.098  11.391  0.1507  0.4102 -0.4388
  917MPD2    C213475   2.124   1.191  11.295 -0.3875 -0.3249 -0.1646
  917MPD2    C313476   2.147   1.153  11.167  0.0299 -0.0428 -0.4742
  917MPD2    C413477   2.139   1.023  11.131 -0.1310  0.2357  0.5837
  917MPD2    C513478   2.111   0.928  11.224 -0.2805  0.0380  0.4796
  917MPD2     H13479   2.126   1.296  11.322 -1.1439 -0.2092 -0.5521
  917MPD2    H113480   2.140   0.988  11.028  1.7243 -2.3841  1.4948
  917MPD2    H213481   2.060   0.889  11.430  0.8903 -0.8365 -1.0460
  917MPD2    H313482   2.090   0.827  11.192  1.7261 -0.3669  0.3925
  917MPD2     N13483   2.187   1.241  11.064 -0.3492  0.2491  0.1429
  917MPD2    H513484   2.211   1.209  10.971  2.3165  1.1449  0.5191
  917MPD2    N113485   2.064   1.129  11.522 -0.0220  0.3243  0.1218
  917MPD2    H713486   2.056   1.048  11.583  0.3014  0.0713 -0.1664
  918MPD2     C13487   2.245   1.779  12.344 -0.0529 -0.4711  0.5039
  918MPD2    C113488   2.327   1.679  12.301  0.1148 -0.0164 -0.6426
  918MPD2    C213489   2.280   1.574  12.228  0.4494  0.3202  0.2906
  918MPD2    C313490   2.160   1.585  12.166 -0.0793  0.4386 -0.3080
  918MPD2    C413491   2.078   1.691  12.203 -0.0256 -0.1174 -0.0771
  918MPD2    C513492   2.116   1.780  12.299  0.6034 -0.0138 -0.0796
  918MPD2     H13493   2.340   1.485  12.215 -2.6127 -1.6398 -0.5932
  918MPD2    H113494   1.984   1.700  12.149 -0.2356  0.3638  0.3651
  918MPD2    H213495   2.276   1.854  12.415 -0.5957  0.0529  0.1838
  918MPD2    H313496   2.062   1.861  12.345  1.5884  0.4069  0.3301
  918MPD2     N13497   2.119   1.480  12.075  0.0931 -0.2092  0.1134
  918MPD2    H513498   2.185   1.404  12.069 -0.8919 -1.0516 -0.0332
  918MPD2    N113499   2.468   1.679  12.329  0.3994 -0.2999 -0.7563
  918MPD2    H713500   2.515   1.597  12.291  3.1015  1.3597 -0.9656
  919MPD2     C13501   3.323   0.592  11.619  0.4754  0.1798 -0.7568
  919MPD2    C113502   3.276   0.490  11.545  0.4190 -0.1818  0.1745
  919MPD2    C213503   3.241   0.501  11.414 -0.0443  0.0015  0.4949
  919MPD2    C313504   3.272   0.615  11.343  0.3515 -0.8708 -1.2614
  919MPD2    C413505   3.330   0.717  11.415 -0.3508 -0.5587  0.5548
  919MPD2    C513506   3.361   0.702  11.548  0.0883  0.5351 -0.6260
  919MPD2     H13507   3.203   0.411  11.369  3.1503  0.8954 -3.9891
  919MPD2    H113508   3.352   0.813  11.368  1.3046 -0.9769  0.4897
  919MPD2    H213509   3.341   0.585  11.726  1.2840 -3.1749 -1.1108
  919MPD2    H313510   3.387   0.791  11.604 -3.3247  0.6289  0.7711
  919MPD2     N13511   3.257   0.624  11.202 -0.2407  0.4658  0.1977
  919MPD2    H513512   3.292   0.702  11.148 -0.7046  1.1530  0.8997
  919MPD2    N113513   3.269   0.357  11.594 -0.1769 -0.0800  0.1460
  919MPD2    H713514   3.272   0.287  11.520 -1.0410  0.2238 -0.1719
  920MPD2     C13515   2.972   1.178  10.388 -0.7261 -0.3041  0.9155
  920MPD2    C113516   2.883   1.079  10.397 -0.3500  0.9323  0.0270
  920MPD2    C213517   2.901   0.974  10.488  0.2154  0.6055 -0.1636
  920MPD2    C313518   3.008   0.977  10.575  0.1370  0.4831 -0.4022
  920MPD2    C413519   3.099   1.078  10.569 -0.2016 -0.1444  0.7821
  920MPD2    C513520   3.078   1.176  10.473  0.4066  0.6304  0.2686
  920MPD2     H13521   2.843   0.884  10.470  3.0444 -0.9807 -1.3342
  920MPD2    H113522   3.185   1.076  10.634 -0.8772  1.8592  1.7419
  920MPD2    H213523   2.963   1.253  10.311  0.9185 -1.5614 -0.4960
  920MPD2    H313524   3.157   1.248  10.451  0.4032  0.6553  0.3376
  920MPD2     N13525   3.021   0.861  10.658 -0.6163  0.1983 -0.3984
  920MPD2    H513526   2.966   0.778  10.641  0.2634 -0.3108 -0.6950
  920MPD2    N113527   2.781   1.068  10.298  0.2485  0.5994 -0.0351
  920MPD2    H713528   2.735   0.979  10.285  1.5001  0.0704 -0.8238
  921MPD2     C13529   3.960   4.619  16.764  0.3699  0.0621 -0.5824
  921MPD2    C113530   3.975   4.533  16.650  0.3912  0.0503  0.4613
  921MPD2    C213531   3.885   4.430  16.641  0.1407  0.3933  0.7177
  921MPD2    C313532   3.772   4.423  16.718  0.4402  0.0666 -0.3887
  921MPD2    C413533   3.750   4.523  16.815 -0.0832  1.2350 -0.5219
  921MPD2    C513534   3.850   4.613  16.842  0.0069 -0.2528 -0.1337
  921MPD2     H13535   3.907   4.349  16.572  1.5989  2.3438 -1.0826
  921MPD2    H113536   3.683   4.511  16.899  2.1824 -0.6037  1.0205
  921MPD2    H213537   4.030   4.700  16.780 -2.9081  2.7498  0.3136
  921MPD2    H313538   3.837   4.684  16.923 -2.0856 -0.5458 -0.2046
  921MPD2     N13539   3.683   4.312  16.717  0.0290 -0.3214 -1.1079
  921MPD2    H513540   3.605   4.325  16.781  1.9094  1.1245  0.9126
  921MPD2    N113541   4.086   4.543  16.565  0.3845 -0.3371  0.1564
  921MPD2    H713542   4.151   4.618  16.585  0.6891 -0.8676  1.1172
  922MPD2     C13543   4.550   2.290  17.243 -0.2882 -0.7695 -0.2621
  922MPD2    C113544   4.461   2.316  17.346 -0.8016 -0.0919  0.4418
  922MPD2    C213545   4.346   2.237  17.355 -0.4951  0.7760  0.3749
  922MPD2    C313546   4.308   2.140  17.262  0.4671  0.0781 -0.0276
  922MPD2    C413547   4.399   2.120  17.163  0.9395 -0.2623 -0.0103
  922MPD2    C513548   4.515   2.193  17.154  0.7164 -0.1295 -0.1757
  922MPD2     H13549   4.272   2.254  17.432  0.7051  0.2067  1.6634
  922MPD2    H113550   4.375   2.045  17.088 -1.2201  1.3160 -0.9119
  922MPD2    H213551   4.651   2.326  17.231 -1.1420  1.9334  0.4722
  922MPD2    H313552   4.588   2.164  17.079  2.5798  0.8964  1.2451
  922MPD2     N13553   4.184   2.081  17.268 -0.0933 -0.5873  0.1520
  922MPD2    H513554   4.128   2.119  17.343 -0.6243  0.2367 -0.6695
  922MPD2    N113555   4.498   2.405  17.444  0.1584  0.0680  0.1744
  922MPD2    H713556   4.455   2.403  17.536  0.2100  1.1383  0.2280
  923MPD2     C13557   1.423   0.153   9.262 -0.0278  0.6252 -0.3338
  923MPD2    C113558   1.301   0.094   9.280 -0.2804 -0.1094  0.2676
  923MPD2    C213559   1.292   4.721   9.359  0.6089 -0.0873 -0.4723
  923MPD2    C313560   1.402   4.660   9.407 -0.1165 -0.0228 -0.5538
  923MPD2    C413561   1.526   4.719   9.393  0.0883 -1.5391 -0.4270
  923MPD2    C513562   1.530   0.094   9.323  0.4271  0.2036  0.0441
  923MPD2     H13563   1.192   4.690   9.388 -0.4460  1.6332 -2.2623
  923MPD2    H113564   1.616   4.679   9.437  0.2681  0.4183  1.0067
  923MPD2    H213565   1.439   0.241   9.200  2.1560 -1.2961 -2.4368
  923MPD2    H313566   1.630   0.136   9.332  0.5371 -0.5907  2.4421
  923MPD2     N13567   1.389   4.539   9.478  0.3260  0.1204  0.0181
  923MPD2    H513568   1.469   4.511   9.534 -0.7650  0.8462  1.9270
  923MPD2    N113569   1.193   0.161   9.219 -0.4332  0.3002  0.1393
  923MPD2    H713570   1.225   0.235   9.157 -1.0066 -0.8370 -1.4916
  924MPD2     C13571   1.303   1.744  16.240  0.4196 -0.0652  0.1807
  924MPD2    C113572   1.237   1.848  16.183 -0.0487  0.4016  0.2024
  924MPD2    C213573   1.294   1.971  16.178  0.0716  0.6810  0.0427
  924MPD2    C313574   1.402   2.001  16.267  0.6032 -0.0825  0.4695
  924MPD2    C413575   1.463   1.899  16.333  0.1145 -0.6496 -0.5261
  924MPD2    C513576   1.414   1.774  16.313  0.3223  0.0648 -0.0320
  924MPD2     H13577   1.253   2.054  16.121  0.9484  0.1380 -1.3627
  924MPD2    H113578   1.554   1.905  16.390 -0.6084 -1.9391  0.7640
  924MPD2    H213579   1.266   1.642  16.238 -2.2144  0.9101 -1.6077
  924MPD2    H313580   1.461   1.690  16.364  2.9753  1.5019 -0.1637
  924MPD2     N13581   1.453   2.135  16.281  0.4387 -0.3080 -0.5484
  924MPD2    H513582   1.515   2.150  16.360 -0.2164 -0.7082  0.0339
  924MPD2    N113583   1.110   1.822  16.123  0.2468  0.0339  0.6502
  924MPD2    H713584   1.098   1.725  16.097  1.0304 -0.2095  1.2253
  925MPD2     C13585   4.491   0.431  14.394 -0.2174  0.9196  0.3699
  925MPD2    C113586   4.546   0.314  14.446  0.0169  0.0033 -0.1823
  925MPD2    C213587   4.530   0.290  14.585 -0.0485 -1.0544  0.5817
  925MPD2    C313588   4.456   0.371  14.668 -0.1681  0.0623  0.5057
  925MPD2    C413589   4.403   0.489  14.617 -0.1668  0.6653  0.2617
  925MPD2    C513590   4.422   0.510  14.485  0.6467  0.2574  0.0587
  925MPD2     H13591   4.575   0.206  14.637 -1.5728 -2.0654  0.2458
  925MPD2    H113592   4.340   0.558  14.672  0.6000  1.9939 -0.5113
  925MPD2    H213593   4.486   0.454  14.288  0.5099  0.0909  0.1515
  925MPD2    H313594   4.374   0.595  14.437  0.1744 -0.0002  0.0776
  925MPD2     N13595   4.459   0.341  14.802 -0.2623 -0.2175 -0.6623
  925MPD2    H513596   4.508   0.255  14.825 -1.1599 -0.4436  0.4185
  925MPD2    N113597   4.615   0.215  14.365  0.0860 -0.4089 -1.0845
  925MPD2    H713598   4.643   0.131  14.414  4.2548  1.4903 -0.1882
  926MPD2     C13599   3.735   3.192  13.798  0.8593  0.6987 -0.1094
  926MPD2    C113600   3.639   3.259  13.724 -0.9020 -0.6764 -0.5199
  926MPD2    C213601   3.672   3.295  13.594  0.2911  0.0776  0.4020
  926MPD2    C313602   3.789   3.246  13.538  0.3767 -0.1773 -0.6600
  926MPD2    C413603   3.882   3.182  13.617  0.8065 -0.6294  0.3931
  926MPD2    C513604   3.854   3.149  13.744 -0.8888 -0.4170  0.1672
  926MPD2     H13605   3.619   3.360  13.525  0.4861 -0.7692 -0.5502
  926MPD2    H113606   3.975   3.152  13.569  1.8142  1.9648  0.6995
  926MPD2    H213607   3.710   3.158  13.898  1.0167  0.0941 -0.2809
  926MPD2    H313608   3.931   3.100  13.803 -1.8120  0.1532  1.8360
  926MPD2     N13609   3.826   3.270  13.400 -0.6254 -0.0938  0.1587
  926MPD2    H513610   3.904   3.216  13.364  0.5446  1.6049  0.1526
  926MPD2    N113611   3.508   3.291  13.757  0.0271  0.3557  0.5058
  926MPD2    H713612   3.445   3.289  13.677  0.4493  1.9299  0.1166
  927MPD2     C13613   3.005   0.713   0.220  0.4786 -0.2026  0.3468
  927MPD2    C113614   2.977   0.593   0.154 -0.6344  0.5090 -0.2963
  927MPD2    C213615   3.008   0.581   0.017 -0.1900 -0.2936 -0.0488
  927MPD2    C313616   3.057   0.699  17.696 -0.1508 -1.0670 -0.0671
  927MPD2    C413617   3.091   0.811   0.021 -0.4514 -0.1606  0.3520
  927MPD2    C513618   3.063   0.815   0.157  0.0609 -0.0868  0.5783
  927MPD2     H13619   2.972   0.492  17.719  1.2057 -0.4754 -0.7428
  927MPD2    H113620   3.132   0.899  17.724 -0.6319  0.3894  1.1868
  927MPD2    H213621   2.974   0.726   0.323  1.5122 -0.9844  0.7538
  927MPD2    H313622   3.083   0.903   0.216 -0.7096 -1.4568  2.8647
  927MPD2     N13623   3.085   0.701  17.555  0.9672  0.2335  0.4377
  927MPD2    H513624   3.082   0.611  17.508 -1.0968  0.9733 -0.8794
  927MPD2    N113625   2.919   0.492   0.231  0.1644 -0.2246  0.2582
  927MPD2    H713626   2.877   0.522   0.318 -1.7113 -1.8409 -0.1002
  928MPD2     C13627   1.641   3.495   1.216  0.5062  0.6975  0.2303
  928MPD2    C113628   1.639   3.630   1.221  0.2281  0.2588 -0.6521
  928MPD2    C213629   1.641   3.698   1.098 -0.2449  0.1197 -0.3684
  928MPD2    C313630   1.630   3.633   0.976 -0.5504  0.2729 -0.2031
  928MPD2    C413631   1.635   3.498   0.972 -0.2023  0.6083 -0.0152
  928MPD2    C513632   1.651   3.433   1.096  0.4768  0.3934  0.4038
  928MPD2     H13633   1.640   3.806   1.099 -0.5465  0.1197 -0.7992
  928MPD2    H113634   1.647   3.448   0.877  2.1767  0.8158  0.1729
  928MPD2    H213635   1.640   3.435   1.307 -1.4254  2.2895  1.2757
  928MPD2    H313636   1.664   3.325   1.096 -0.0574  0.3268  1.1146
  928MPD2     N13637   1.634   3.690   0.849 -0.1181  0.6640 -0.0881
  928MPD2    H513638   1.622   3.637   0.763 -0.6960 -0.1455  0.4821
  928MPD2    N113639   1.638   3.688   1.352  0.2139  0.1351  0.2412
  928MPD2    H713640   1.639   3.623   1.430  0.3309 -0.4995 -0.3023
  929MPD2     C13641   0.389   4.149  10.561 -1.1681 -0.1224  0.5558
  929MPD2    C113642   0.355   4.047  10.477  0.3532 -0.1960 -0.6007
  929MPD2    C213643   0.269   4.075  10.368  0.3798 -0.5726  0.2949
  929MPD2    C313644   0.207   4.199  10.354 -0.6754 -0.5521 -0.0785
  929MPD2    C413645   0.239   4.299  10.446 -0.7386 -0.2805  0.8323
  929MPD2    C513646   0.332   4.273  10.542 -0.0796 -0.0356 -0.6024
  929MPD2     H13647   0.233   3.993  10.308 -0.5603  0.6994 -0.8737
  929MPD2    H113648   0.186   4.394  10.438  2.6573  1.4252 -1.1803
  929MPD2    H213649   0.455   4.122  10.643  1.0524  0.8931 -0.8848
  929MPD2    H313650   0.345   4.352  10.616 -3.2038  0.2942 -0.4247
  929MPD2     N13651   0.116   4.232  10.254 -0.5770  0.4652  0.1530
  929MPD2    H513652   0.091   4.328  10.234 -2.1786 -0.2762 -1.3929
  929MPD2    N113653   0.412   3.921  10.502  0.0629 -0.1376  0.5621
  929MPD2    H713654   0.457   3.905  10.591  0.8378  1.4011  0.4549
  930MPD2     C13655   2.910   1.942  14.182  0.2775  0.1892  0.1651
  930MPD2    C113656   3.007   1.868  14.118  0.1054 -0.3118 -0.0066
  930MPD2    C213657   2.969   1.748  14.062  0.1021 -0.3666  0.1537
  930MPD2    C313658   2.842   1.699  14.064 -0.0155 -0.0446 -0.6153
  930MPD2    C413659   2.747   1.765  14.136  0.2137  0.0291  0.1090
  930MPD2    C513660   2.786   1.884  14.195 -0.3609  0.1476 -0.0533
  930MPD2     H13661   3.045   1.684  14.017  1.6039  1.5064  0.0329
  930MPD2    H113662   2.644   1.734  14.142  0.5719 -1.1322  0.1888
  930MPD2    H213663   2.928   2.037  14.231  1.8646  0.4076 -0.8462
  930MPD2    H313664   2.717   1.950  14.247 -0.1839  1.4146 -1.4046
  930MPD2     N13665   2.802   1.578  13.995 -0.2410 -0.2121 -0.4793
  930MPD2    H513666   2.725   1.527  14.037 -0.4358  0.0989 -0.4660
  930MPD2    N113667   3.140   1.911  14.103  0.8941 -0.8679 -0.1637
  930MPD2    H713668   3.196   1.842  14.053  1.3287 -1.2864  0.9082
  931MPD2     C13669   3.079   4.412   0.273  0.3412  0.2753  0.4250
  931MPD2    C113670   2.990   4.470   0.359 -1.0115 -1.1277  0.0107
  931MPD2    C213671   2.964   4.418   0.485  0.9268 -0.4223  0.0640
  931MPD2    C313672   3.027   4.303   0.526 -0.1007 -0.8481 -0.2246
  931MPD2    C413673   3.120   4.252   0.438  0.2059  0.5692 -0.7618
  931MPD2    C513674   3.137   4.301   0.306 -0.2377 -0.4447  0.0259
  931MPD2     H13675   2.883   4.458   0.544  0.3093 -1.3195 -0.1883
  931MPD2    H113676   3.181   4.169   0.473 -1.0523  0.3240  0.8176
  931MPD2    H213677   3.084   4.447   0.170  3.5970 -1.0255  0.1380
  931MPD2    H313678   3.212   4.250   0.246 -0.2463 -0.5419  0.0971
  931MPD2     N13679   3.018   4.245   0.656 -0.2101  0.9289 -0.3055
  931MPD2    H513680   3.064   4.154   0.660 -0.8865  0.6575  1.2181
  931MPD2    N113681   2.924   4.588   0.319  0.0297  0.5085 -0.2584
  931MPD2    H713682   2.971   4.640   0.245 -1.3754  2.9644  0.5567
  932MPD2     C13683   0.551   4.612  10.856 -0.7833 -0.1540  0.5565
  932MPD2    C113684   0.550   4.641  10.989  0.2269  0.1143  0.7363
  932MPD2    C213685   0.639   4.572  11.072  0.2215 -0.0325  0.1815
  932MPD2    C313686   0.728   4.477  11.027 -0.2543 -0.3762  0.6949
  932MPD2    C413687   0.731   4.449  10.893 -0.6550  0.6200  0.0873
  932MPD2    C513688   0.654   4.531  10.817 -0.4862  0.5502 -0.3733
  932MPD2     H13689   0.631   4.597  11.177 -0.1146 -1.5586  0.5162
  932MPD2    H113690   0.789   4.378  10.835  1.0066 -0.1326  2.7102
  932MPD2    H213691   0.491   4.664  10.783  1.0879 -0.0684 -0.9358
  932MPD2    H313692   0.675   4.519  10.711 -0.1938 -1.9916 -0.0420
  932MPD2     N13693   0.819   4.411  11.114  0.8098 -0.5776 -0.1635
  932MPD2    H513694   0.897   4.373  11.062  0.9295 -1.3694  0.5774
  932MPD2    N113695   0.474   4.738  11.051 -0.2999 -0.3653 -0.4266
  932MPD2    H713696   0.487   0.022  11.149  3.5213 -0.1106 -1.0177
  933MPD2     C13697   1.545   4.325   1.985 -0.2933 -0.4117  0.6926
  933MPD2    C113698   1.541   4.326   1.845  0.3186 -0.7253  0.2129
  933MPD2    C213699   1.512   4.432   1.770  0.4376 -0.2951 -0.3148
  933MPD2    C313700   1.476   4.543   1.842 -0.1251 -0.1983 -0.3746
  933MPD2    C413701   1.488   4.551   1.982 -0.7124 -0.3611 -0.0633
  933MPD2    C513702   1.529   4.443   2.053  0.5760  0.2928 -0.0512
  933MPD2     H13703   1.502   4.424   1.663 -3.4288  1.4801 -0.0504
  933MPD2    H113704   1.455   4.639   2.036 -2.2647 -1.2004  0.3743
  933MPD2    H213705   1.584   4.241   2.041 -0.9945 -0.7536  0.6820
  933MPD2    H313706   1.531   4.449   2.162 -2.0669 -1.0620  0.0717
  933MPD2     N13707   1.417   4.645   1.767  0.3548  0.4689  0.2615
  933MPD2    H513708   1.404   4.613   1.671 -2.0371 -0.7165  0.9876
  933MPD2    N113709   1.581   4.199   1.794  0.2766  0.6716  0.0199
  933MPD2    H713710   1.617   4.134   1.862 -1.0805 -1.7534 -1.5699
  934MPD2     C13711   2.671   1.347   1.672 -0.0966 -0.5462 -0.2934
  934MPD2    C113712   2.676   1.324   1.536 -0.4432 -0.2050  0.0475
  934MPD2    C213713   2.562   1.277   1.470 -0.2747 -0.0743 -0.3762
  934MPD2    C313714   2.442   1.249   1.531 -0.0039 -0.2459  0.2993
  934MPD2    C413715   2.437   1.291   1.661  0.0981 -0.5714 -0.1033
  934MPD2    C513716   2.548   1.336   1.727 -1.0171 -0.3953  0.1114
  934MPD2     H13717   2.575   1.257   1.364  2.2077 -0.8451  0.0713
  934MPD2    H113718   2.344   1.297   1.716  0.7412 -1.7055  1.1132
  934MPD2    H213719   2.759   1.379   1.726 -0.8821  0.2292  0.5413
  934MPD2    H313720   2.536   1.363   1.832  3.6958 -2.4489  1.1667
  934MPD2     N13721   2.326   1.197   1.471 -0.3112  0.2277  0.3021
  934MPD2    H513722   2.239   1.198   1.523 -0.8963 -0.5520 -0.6522
  934MPD2    N113723   2.786   1.344   1.450 -0.0634  0.7837 -0.0093
  934MPD2    H713724   2.778   1.304   1.357 -3.0408 -0.3219  0.7519
  935MPD2     C13725   2.287   0.378   0.985 -0.4348 -0.1226  0.1763
  935MPD2    C113726   2.159   0.405   1.027  0.1440 -0.1906 -0.5242
  935MPD2    C213727   2.122   0.530   1.070  0.4704 -0.4609 -0.0422
  935MPD2    C313728   2.208   0.634   1.069 -0.8855  0.4438 -0.3581
  935MPD2    C413729   2.336   0.613   1.015  0.1092  1.0246 -0.2412
  935MPD2    C513730   2.369   0.485   0.973 -0.0618 -0.1611 -0.3929
  935MPD2     H13731   2.023   0.549   1.108  0.9317  2.9410 -0.5226
  935MPD2    H113732   2.402   0.698   1.000  0.2811  1.2935  2.0219
  935MPD2    H213733   2.321   0.283   0.945 -0.7644 -1.0214  2.0202
  935MPD2    H313734   2.463   0.471   0.921 -0.7164 -0.5325 -1.4672
  935MPD2     N13735   2.175   0.766   1.102  0.5780  0.0519 -0.1412
  935MPD2    H513736   2.253   0.831   1.101  0.2942  0.3978  0.5442
  935MPD2    N113737   2.057   0.317   1.011 -0.2489 -0.6155 -0.0597
  935MPD2    H713738   1.963   0.341   1.039  0.4744  2.4928 -0.3084
  936MPD2     C13739   0.410   2.450  12.104 -0.0260  0.7351 -0.6805
  936MPD2    C113740   0.448   2.384  12.223 -0.1873  0.1184  0.1713
  936MPD2    C213741   0.570   2.414  12.287 -0.6501  0.0882 -0.5831
  936MPD2    C313742   0.660   2.499  12.223  0.0258  0.0195  0.0231
  936MPD2    C413743   0.618   2.566  12.106  0.2227 -0.8597  0.0275
  936MPD2    C513744   0.493   2.543  12.049 -0.5827 -0.1322  0.3358
  936MPD2     H13745   0.588   2.372  12.385 -1.6836  1.6499  0.2607
  936MPD2    H113746   0.673   2.646  12.059  2.4017 -1.3585  1.7385
  936MPD2    H213747   0.311   2.442  12.062 -0.5665  3.2897  0.1046
  936MPD2    H313748   0.473   2.597  11.957 -0.1468  0.5951  0.6645
  936MPD2     N13749   0.783   2.548  12.273  0.1356 -0.6435  0.6736
  936MPD2    H513750   0.833   2.611  12.211  0.2563 -0.1821  1.2319
  936MPD2    N113751   0.367   2.290  12.289  0.2982 -0.1135 -0.0705
  936MPD2    H713752   0.404   2.247  12.373 -1.0867  0.3751  0.7898
  937MPD2     C13753   3.416   4.477  11.272  0.2066 -0.1007  0.1521
  937MPD2    C113754   3.436   4.611  11.298 -0.4893 -1.0272  0.0262
  937MPD2    C213755   3.472   4.690  11.195 -0.2120 -0.1420  0.2173
  937MPD2    C313756   3.499   4.643  11.067 -0.1873 -0.0962  0.2130
  937MPD2    C413757   3.495   4.507  11.049  0.5681 -0.3739  0.4190
  937MPD2    C513758   3.445   4.429  11.150 -0.2753  0.5429  0.4148
  937MPD2     H13759   3.492   0.057  11.215  1.3069 -0.9412  2.9249
  937MPD2    H113760   3.535   4.455  10.962 -0.8408 -1.5141  0.4443
  937MPD2    H213761   3.389   4.404  11.347 -1.8188  0.0629 -0.4112
  937MPD2    H313762   3.453   4.322  11.134 -0.3437  0.5164  0.5604
  937MPD2     N13763   3.568   4.729  10.976  0.4196  0.2696 -0.2443
  937MPD2    H513764   3.566   0.086  11.011  0.3709 -0.0148  0.5334
  937MPD2    N113765   3.385   4.667  11.417 -0.6729  0.4907 -0.4722
  937MPD2    H713766   3.374   0.029  11.409 -0.5210  0.6421  1.1579
  938MPD2     C13767   1.218   1.749   0.430  0.8752 -0.4951 -0.0519
  938MPD2    C113768   1.305   1.715   0.532  0.7207 -0.4510 -0.5332
  938MPD2    C213769   1.312   1.577   0.566 -0.9143  0.1214  0.5775
  938MPD2    C313770   1.229   1.483   0.502 -0.2874 -0.0784 -0.1157
  938MPD2    C413771   1.153   1.524   0.397 -0.3094  0.3359 -0.8249
  938MPD2    C513772   1.137   1.657   0.363  0.4256 -0.3486  0.1145
  938MPD2     H13773   1.376   1.548   0.649  0.8463  0.0599 -0.7857
  938MPD2    H113774   1.101   1.445   0.344 -0.1859 -1.3563  1.5814
  938MPD2    H213775   1.196   1.848   0.393 -1.5173 -0.7440  0.6905
  938MPD2    H313776   1.065   1.683   0.286 -1.6646  0.5190  2.3419
  938MPD2     N13777   1.202   1.354   0.549  0.2029 -0.4141  0.3781
  938MPD2    H513778   1.123   1.300   0.515  0.3671 -1.4353  1.6239
  938MPD2    N113779   1.391   1.793   0.604  0.4583  0.7073  0.0214
  938MPD2    H713780   1.460   1.748   0.663  0.6772  0.5799 -0.3286
  939MPD2     C13781   2.371   2.474   0.544  0.5072  0.0851  0.1069
  939MPD2    C113782   2.377   2.337   0.558 -0.4258 -0.1033  0.1011
  939MPD2    C213783   2.327   2.250   0.460 -0.6748  0.3062  0.4816
  939MPD2    C313784   2.279   2.310   0.341 -0.5444 -0.5278 -0.0800
  939MPD2    C413785   2.265   2.447   0.324  0.2242 -0.3078 -0.3472
  939MPD2    C513786   2.311   2.527   0.428  0.3296 -0.7629 -0.1636
  939MPD2     H13787   2.335   2.142   0.470 -3.0635  0.2529  1.6620
  939MPD2    H113788   2.211   2.501   0.247 -0.7429 -1.8687 -0.7669
  939MPD2    H213789   2.410   2.536   0.624 -0.4353  1.9534 -0.8626
  939MPD2    H313790   2.293   2.633   0.416  1.8652 -0.5545 -0.6313
  939MPD2     N13791   2.226   2.217   0.251  0.0364 -0.1023  0.1514
  939MPD2    H513792   2.225   2.120   0.281 -0.7316 -0.0400  0.3145
  939MPD2    N113793   2.438   2.287   0.680 -0.7721 -0.3598 -0.2064
  939MPD2    H713794   2.471   2.357   0.745  0.3018 -2.3678  1.4035
  940MPD2     C13795   0.860   3.209  12.922 -0.0720  0.4730 -0.8469
  940MPD2    C113796   0.905   3.082  12.938  0.3274  0.4374 -0.2376
  940MPD2    C213797   1.016   3.033  12.872  0.4867  0.6366 -0.1555
  940MPD2    C313798   1.087   3.119  12.786 -0.4512  0.3119  0.6044
  940MPD2    C413799   1.046   3.250  12.778 -0.0977 -0.0225 -0.5278
  940MPD2    C513800   0.935   3.292  12.840 -0.2753  0.2468  0.0273
  940MPD2     H13801   1.045   2.929  12.888 -1.3385  0.0747 -0.5008
  940MPD2    H113802   1.100   3.327  12.725  2.0632 -0.8710  0.4633
  940MPD2    H213803   0.781   3.255  12.980  0.2451 -1.5506  1.1446
  940MPD2    H313804   0.903   3.394  12.824 -2.2981 -0.3790  0.1010
  940MPD2     N13805   1.195   3.078  12.705 -0.3654 -0.1416  0.3363
  940MPD2    H513806   1.253   3.150  12.663  0.9859 -1.0010  0.7153
  940MPD2    N113807   0.831   2.987  13.011 -0.1245 -0.0545 -0.2690
  940MPD2    H713808   0.878   2.901  13.033  1.7851  1.3534  1.1169
  941MPD2     C13809   0.523   2.066  10.002  0.1966  0.4519 -0.7187
  941MPD2    C113810   0.386   2.092   9.997  0.1187  0.3984 -0.1513
  941MPD2    C213811   0.296   1.991  10.021 -0.1985 -1.1452 -0.0215
  941MPD2    C313812   0.348   1.860  10.040  0.0466 -0.5725  0.0830
  941MPD2    C413813   0.482   1.839  10.054 -0.5278  0.3816 -0.0909
  941MPD2    C513814   0.570   1.945  10.040 -0.4269 -0.4999  0.4250
  941MPD2     H13815   0.189   2.006  10.019 -0.3626 -2.5784 -3.2421
  941MPD2    H113816   0.529   1.742  10.066 -0.4964  0.4516  0.3448
  941MPD2    H213817   0.603   2.133   9.971 -0.8861  1.4964 -1.2213
  941MPD2    H313818   0.677   1.934  10.046 -0.3541  1.3429  2.9101
  941MPD2     N13819   0.276   1.748  10.082  0.5303 -0.0275  0.5620
  941MPD2    H513820   0.327   1.666  10.113  2.1353  0.0209 -1.9136
  941MPD2    N113821   0.335   2.218   9.974 -0.0997  0.0598  0.7691
  941MPD2    H713822   0.236   2.238   9.966  0.1075  0.3011 -1.3075
  942MPD2     C13823   4.496   4.609   9.094  0.3877 -0.6983  0.0545
  942MPD2    C113824   4.629   4.620   9.076 -0.2969 -0.4214  0.8336
  942MPD2    C213825   4.719   4.519   9.109 -0.6155 -0.1751  0.2244
  942MPD2    C313826   4.670   4.405   9.176 -0.3065 -0.1926  0.0604
  942MPD2    C413827   4.540   4.397   9.206  0.1309 -0.0137  0.1644
  942MPD2    C513828   4.457   4.501   9.170  0.6681  0.4651  0.6159
  942MPD2     H13829   0.087   4.532   9.091 -0.7792  0.5199 -0.2273
  942MPD2    H113830   4.508   4.312   9.265 -2.3532  0.8831  0.0873
  942MPD2    H213831   4.422   4.687   9.080  1.0850 -0.1282 -0.5225
  942MPD2    H313832   4.351   4.494   9.190  0.3091 -2.8546 -2.4281
  942MPD2     N13833   0.008   4.296   9.207 -0.3082 -0.0441 -0.2854
  942MPD2    H513834   4.706   4.213   9.250 -2.0018  0.4302 -1.0013
  942MPD2    N113835   4.688   0.004   9.026  0.2060 -0.3218 -0.2801
  942MPD2    H713836   0.051   0.014   9.027  0.0610  1.3634 -1.4236
  943MPD2     C13837   4.384   1.685  10.329  0.0680 -0.3779  0.2983
  943MPD2    C113838   4.260   1.729  10.299 -0.8091  0.6484  0.5479
  943MPD2    C213839   4.252   1.836  10.211 -0.7965 -0.7366 -0.0520
  943MPD2    C313840   4.364   1.905  10.175 -0.4088  0.5086  0.0584
  943MPD2    C413841   4.493   1.854  10.201  0.7101 -0.3586 -0.3554
  943MPD2    C513842   4.497   1.738  10.273  0.2534  0.3976 -0.8224
  943MPD2     H13843   4.158   1.873  10.172 -0.1610 -2.0760 -2.8478
  943MPD2    H113844   4.577   1.889  10.142 -0.0729  1.3853 -0.4185
  943MPD2    H213845   4.391   1.612  10.409 -0.7645 -1.3549 -0.5177
  943MPD2    H313846   4.594   1.698  10.302 -1.5356 -2.5506  1.0951
  943MPD2     N13847   4.366   2.024  10.086 -0.0752  0.2505 -0.4623
  943MPD2    H513848   4.449   2.038  10.030 -0.7129 -1.4387 -1.8325
  943MPD2    N113849   4.155   1.673  10.356 -0.2761  0.2340 -0.1445
  943MPD2    H713850   4.164   1.605  10.430  0.3747  0.6071  0.1111
  944MPD2     C13851   3.614   1.184  10.972 -0.3728  0.6178 -0.4607
  944MPD2    C113852   3.705   1.107  11.035 -0.1265  0.1641 -0.2633
  944MPD2    C213853   3.675   1.060  11.162  0.3173  0.2656  0.0949
  944MPD2    C313854   3.563   1.101  11.231 -0.0730  0.8983  0.5851
  944MPD2    C413855   3.465   1.165  11.153 -0.2043 -0.8176  0.6614
  944MPD2    C513856   3.493   1.205  11.025 -0.5369 -0.0536  0.6137
  944MPD2     H13857   3.739   0.996  11.221  2.9744  1.6723 -1.2287
  944MPD2    H113858   3.369   1.203  11.185 -0.5961 -1.6299  0.4530
  944MPD2    H213859   3.633   1.223  10.873 -1.4432  0.3140 -0.7864
  944MPD2    H313860   3.420   1.264  10.971  1.4892  1.2473 -0.7591
  944MPD2     N13861   3.553   1.078  11.364  0.7127  0.8611  0.3649
  944MPD2    H513862   3.637   1.042  11.409 -0.9947 -2.2872  1.0742
  944MPD2    N113863   3.831   1.096  10.967 -0.4878  0.2769 -0.0059
  944MPD2    H713864   3.845   1.144  10.878 -1.3594  1.3228  0.4174
    1TMC1    C113865   2.241   2.382  14.565 -0.8819  0.8595 -0.3091
    1TMC1    C213866   2.111   2.402  14.543  0.1346 -0.8817  0.0585
    1TMC1    C313867   2.041   2.317  14.465 -1.0456 -0.2733  0.9241
    1TMC1    C413868   2.304   2.268  14.522  0.0686  0.7071 -0.5768
    1TMC1    C513869   2.231   2.183  14.446  0.3768 -1.5232  0.3012
    1TMC1    C613870   2.105   2.209  14.413  0.4731  0.4521 -0.5560
    1TMC1     C13871   2.312   2.465  14.660  0.0620  0.3976  0.2197
    1TMC1     O13872   2.413   2.420  14.709 -0.1771 -0.3199 -0.1932
    1TMC1     H13873   2.055   2.480  14.593  2.2196  0.5603  0.1476
    1TMC1    H113874   2.409   2.253  14.543  0.4566  1.6405 -1.8771
    1TMC1    H213875   2.044   2.135  14.361 -0.4936  0.1974  0.9404
    1TMC1    C713876   2.304   2.082  14.367  0.3732 -0.7827  0.0700
    1TMC1    C813877   1.909   2.358  14.429 -0.0078  0.4767 -0.1960
    1TMC1    O113878   2.246   2.043  14.271 -0.1134 -0.3980 -0.0963
    1TMC1    O213879   1.822   2.282  14.400 -0.2732  0.2017 -0.4588
    1TMC1    O313880   2.320   1.991  14.470 -0.3572 -0.5697  0.3804
    1TMC1    H313881   2.362   2.021  14.553  2.9677  0.6400 -1.7201
    1TMC1    O513882   1.895   2.489  14.433 -0.1502  0.6513  0.3721
    1TMC1    H513883   1.966   2.550  14.462 -0.1323  1.4055 -1.2736
    2MPD2     C13884   2.427   2.910  14.869  0.0679 -0.5327 -0.3657
    2MPD2    C113885   2.340   2.938  14.764  0.3520  0.7622  0.4318
    2MPD2    C213886   2.283   2.833  14.698 -0.7804 -0.3109 -0.5406
    2MPD2    C313887   2.324   2.703  14.727  0.1795 -0.0872  0.1420
    2MPD2    C413888   2.414   2.679  14.827 -0.3598  0.4595 -1.1038
    2MPD2    C513889   2.465   2.782  14.897  0.2144  0.0605 -0.3181
    2MPD2     H13890   2.200   2.849  14.630  0.1101 -1.6812 -1.9397
    2MPD2    H113891   2.448   2.582  14.861 -0.2951  0.5325 -0.9609
    2MPD2    H213892   2.479   2.989  14.922  0.7317 -1.5749  0.5332
    2MPD2    H313893   2.538   2.781  14.977 -0.9021 -0.5036  0.6932
    2MPD2     N13894   2.266   2.590  14.657  0.6194  0.4838  0.5458
    2MPD2    H513895   2.181   2.612  14.607  1.8258  2.4951 -0.6141
    2MPD2    N113896   2.306   3.072  14.730 -0.1378 -0.1100 -0.3548
    2MPD2    H713897   2.344   3.144  14.789 -2.1292 -0.3308  1.1758
    3TMC2    C113898   2.233   3.245  14.596 -0.6437 -0.5846 -0.1174
    3TMC2    C213899   2.203   3.319  14.706 -0.0410  0.5409  0.4933
    3TMC2    C313900   2.208   3.452  14.682  0.3618 -0.9234  0.3863
    3TMC2    C413901   2.286   3.288  14.477  0.2833  0.2734 -0.2181
    3TMC2    C513902   2.303   3.424  14.472 -0.3773  0.5158  0.4409
    3TMC2    C613903   2.270   3.509  14.576  0.5542  0.1365  0.2999
    3TMC2     C13904   2.251   3.109  14.609  0.6602 -0.2028 -0.2352
    3TMC2     O13905   2.199   3.051  14.514  0.2153  0.4494 -0.5800
    3TMC2     H13906   2.150   3.273  14.789 -0.9303 -0.1910 -0.4853
    3TMC2    H113907   2.319   3.225  14.395  1.1749  0.3871  0.0550
    3TMC2    H213908   2.282   3.617  14.567  1.4867 -0.2348 -2.9143
    3TMC2    C713909   2.340   3.480  14.346  0.2911  0.1763  0.8155
    3TMC2    C813910   2.207   3.537  14.798  0.5394  0.5972 -0.3417
    3TMC2    O113911   2.407   3.582  14.351 -0.2132  0.1606 -0.1475
    3TMC2    O213912   2.102   3.555  14.864 -0.0094  0.1716 -0.6998
    3TMC2    O513913   2.336   3.561  14.830 -0.1995  0.4748  0.8991
    3TMC2    H513914   2.395   3.536  14.756 -2.2743 -2.7794  0.3608
    4TMC2    C113915   1.847   3.288  13.488 -0.4527 -0.1254 -0.4776
    4TMC2    C213916   1.783   3.165  13.483 -0.2272  0.9541 -0.3052
    4TMC2    C313917   1.814   3.080  13.586 -0.3375  0.1525 -0.2287
    4TMC2    C413918   1.929   3.329  13.591  0.4118 -0.7748 -0.6548
    4TMC2    C513919   1.938   3.248  13.700  0.1964 -0.0382 -0.3318
    4TMC2    C613920   1.883   3.120  13.697  0.1045  0.3511  0.1380
    4TMC2     C13921   1.822   3.372  13.379  0.5875  0.3254 -0.4809
    4TMC2     O13922   1.905   3.452  13.342  0.6965  0.3728 -0.5715
    4TMC2     H13923   1.719   3.139  13.399  1.6631  1.7258 -1.9959
    4TMC2    H113924   1.955   3.434  13.596 -0.9102 -0.4684 -0.2542
    4TMC2    H213925   1.897   3.049  13.777 -3.6534  1.0078  1.3987
    4TMC2    C713926   2.019   3.289  13.806 -0.4918 -0.2012 -0.0759
    4TMC2    C813927   1.749   2.950  13.573  0.2602  0.0158  0.1786
    4TMC2    O113928   2.008   3.227  13.908  0.3213  0.3546 -0.5974
    4TMC2    O213929   1.658   2.932  13.489  0.1691  0.2169 -0.5963
    4TMC2    O513930   1.858   2.871  13.588 -0.3490 -0.2869  0.1940
    4TMC2    H513931   1.935   2.893  13.645 -1.0757  3.5539 -0.3366
    5MPD2     C13932   1.492   3.619  13.071  0.5684 -0.0723  1.0440
    5MPD2    C113933   1.424   3.540  13.158  0.4553 -0.2562 -0.6814
    5MPD2    C213934   1.497   3.464  13.244  0.4873  0.0240 -0.6464
    5MPD2    C313935   1.632   3.456  13.238  0.6890  0.2987  0.2137
    5MPD2    C413936   1.702   3.541  13.150 -0.6238 -1.2873  0.2131
    5MPD2    C513937   1.628   3.619  13.069  0.1117  0.6202 -0.1077
    5MPD2     H13938   1.441   3.391  13.302  0.2145  0.3438 -0.5112
    5MPD2    H113939   1.809   3.532  13.136 -0.7059 -0.0651 -1.1913
    5MPD2    H213940   1.446   3.688  13.001  0.5362 -2.2843 -1.1197
    5MPD2    H313941   1.671   3.697  13.007  1.1514  0.3461  0.2725
    5MPD2     N13942   1.693   3.361  13.329  0.2975  0.2325  0.4583
    5MPD2    H513943   1.626   3.316  13.390  0.8806  2.7580  2.9879
    5MPD2    N113944   1.280   3.544  13.175  0.5719  0.6882  0.2436
    5MPD2    H713945   1.242   3.491  13.253 -1.3752  0.1305 -1.0892
    6MPD1     C13946   0.167   0.388  13.251  0.0817  1.0931 -0.5171
    6MPD1    C113947   0.100   0.301  13.166  0.3543  0.2015  0.7869
    6MPD1    C213948   0.174   0.187  13.129  0.6097 -0.2650 -0.1939
    6MPD1    C313949   0.299   0.151  13.181 -0.5226 -0.2146  0.4494
    6MPD1    C413950   0.347   0.231  13.278 -0.4847 -0.8678  0.8874
    6MPD1    C513951   0.287   0.351  13.306 -0.2419  0.0164  0.1101
    6MPD1     H13952   0.127   0.121  13.058  1.1083 -1.0166  0.1801
    6MPD1    H113953   0.450   0.212  13.309 -0.6314 -2.2559  0.5406
    6MPD1    H213954   0.136   0.487  13.281 -0.9387  0.8517 -0.7835
    6MPD1    H313955   0.335   0.414  13.380 -1.0726  1.4513 -0.5808
    6MPD1     N13956   0.374   0.038  13.158 -0.4797 -0.2428 -0.0776
    6MPD1    H513957   0.471   0.038  13.187 -0.2689  1.0794 -0.7810
    6MPD1    N113958   4.722   0.350  13.102 -0.2017 -0.4686  0.0713
    6MPD1    H613959   4.659   0.271  13.089 -1.3084  0.5756 -0.9567
    6MPD1    H713960   4.681   0.425  13.158 -2.3078 -0.6774 -1.1769
    7MPD2     C13961   0.706   4.189  13.474 -0.9121 -0.2505  0.7973
    7MPD2    C113962   0.739   4.180  13.341  0.2679  0.2276 -0.1368
    7MPD2    C213963   0.792   4.058  13.302  0.8501 -0.7753  0.2844
    7MPD2    C313964   0.790   3.942  13.374  0.4128  0.1965 -0.4010
    7MPD2    C413965   0.751   3.952  13.505  0.0696  0.0808  0.3151
    7MPD2    C513966   0.714   4.077  13.550 -0.0660 -0.7485 -0.2650
    7MPD2     H13967   0.820   4.063  13.197 -2.6713  2.7174 -0.5107
    7MPD2    H113968   0.741   3.868  13.572  2.7358 -1.4124 -1.1313
    7MPD2    H213969   0.670   4.280  13.520  1.5497  0.0741  2.0801
    7MPD2    H313970   0.684   4.076  13.654  0.6703 -1.2182 -0.0544
    7MPD2     N13971   0.825   3.820  13.317 -0.4922 -0.3445 -0.0476
    7MPD2    H513972   0.858   3.829  13.222  0.7893  0.0566  0.4418
    7MPD2    N113973   0.735   4.290  13.257  0.3737  0.6192  0.1158
    7MPD2    H713974   0.784   4.281  13.169 -0.3343  1.8198 -0.4017
    8TMC3    C113975   0.866   3.604  13.276  0.2580  0.2346 -0.1945
    8TMC3    C213976   1.002   3.599  13.249  0.0685 -1.1544 -0.4742
    8TMC3    C313977   1.048   3.591  13.119 -0.9787 -0.5243  0.4426
    8TMC3    C413978   0.781   3.583  13.171  0.3455  0.1477  0.2637
    8TMC3    C513979   0.827   3.593  13.050 -0.3720  0.1177 -0.1012
    8TMC3    C613980   0.962   3.600  13.017 -0.2546 -0.3973 -0.1642
    8TMC3     C13981   0.818   3.697  13.374 -0.2258  0.1118 -0.2283
    8TMC3     O13982   0.802   3.657  13.488  1.0390 -0.4582  0.9902
    8TMC3     H13983   1.067   3.624  13.333  2.1166  0.8366 -2.6199
    8TMC3    H113984   0.674   3.582  13.183  0.2708 -2.9867 -0.7035
    8TMC3    H213985   0.991   3.598  12.912 -0.2151 -0.6290 -0.1492
    8TMC3    C713986   0.759   3.693  12.964  0.4997 -0.1622  0.1318
    8TMC3    C813987   1.194   3.601  13.085 -0.3134 -0.1018 -0.4366
    8TMC3    O113988   0.823   3.792  12.943 -0.1942  0.1021 -0.4922
    8TMC3    O213989   1.221   3.629  12.967 -0.2962  0.4131 -0.6846
    9TMC3    C113990   0.421   4.569  13.069  0.0340 -0.1999 -0.1302
    9TMC3    C213991   0.388   4.465  12.991 -0.4008 -0.0837 -0.2137
    9TMC3    C313992   0.474   4.362  12.979 -0.3530  0.6485  0.5204
    9TMC3    C413993   0.523   4.558  13.167 -0.1714  0.6302 -0.2337
    9TMC3    C513994   0.605   4.450  13.148 -0.6568 -0.3735  0.0343
    9TMC3    C613995   0.584   4.358  13.050  0.3234  0.7039  0.6738
    9TMC3     C13996   0.329   4.671  13.083  0.1381  0.1524  0.0183
    9TMC3     O13997   0.218   4.647  13.043  0.7582 -0.1032  0.2312
    9TMC3     H13998   0.311   4.477  12.915 -2.8336 -0.7545  2.1766
    9TMC3    H113999   0.546   4.625  13.249 -0.8496  0.0026  0.4727
    9TMC3    H214000   0.659   4.281  13.034  0.4056  0.9296 -0.0290
    9TMC3    C714001   0.659   4.405  13.274  0.3312 -0.2619  0.0121
    9TMC3    C814002   0.411   4.232  12.967 -0.3194 -0.2170  0.3455
    9TMC3    O114003   0.591   4.435  13.371  0.3200  0.0088 -0.5298
    9TMC3    O214004   0.299   4.224  13.014 -0.3107 -0.1664  0.2944
   10MPD2     C14005   0.396   3.736  12.963 -0.1703 -0.1733  0.1036
   10MPD2    C114006   0.522   3.771  12.956 -0.2462  0.3847  0.0907
   10MPD2    C214007   0.554   3.903  12.941  0.0765  0.2291  0.2111
   10MPD2    C314008   0.457   3.999  12.929 -0.2211 -0.5941  0.6167
   10MPD2    C414009   0.321   3.959  12.931 -0.2659  0.2837 -0.7921
   10MPD2    C514010   0.290   3.824  12.947  0.3760  0.0137 -0.3209
   10MPD2     H14011   0.656   3.939  12.930  0.4537 -0.1949  2.2979
   10MPD2    H114012   0.242   4.030  12.909  0.8780  1.7778 -0.0819
   10MPD2    H214013   0.370   3.632  12.976  0.5979 -0.6641 -2.4403
   10MPD2    H314014   0.186   3.792  12.942  0.2462  0.5151 -0.8247
   10MPD2     N14015   0.498   4.137  12.932 -0.2171  0.1007 -0.1825
   10MPD2    H514016   0.596   4.158  12.915  0.1922 -1.3448  0.3380
   10MPD2    N114017   0.625   3.669  12.961  0.3062  0.2302 -0.1639
   10MPD2    H714018   0.587   3.579  12.991  2.4581 -0.5201  0.3193
   11MPD2     C14019   2.384   3.551  14.065  0.7548 -0.0399  0.5696
   11MPD2    C114020   2.294   3.462  14.109 -0.0687 -0.1918 -0.6039
   11MPD2    C214021   2.198   3.407  14.019 -0.9537  0.2089  0.4443
   11MPD2    C314022   2.190   3.446  13.884 -0.0178 -0.2163  0.5993
   11MPD2    C414023   2.277   3.551  13.853  0.8951  0.0501  0.0148
   11MPD2    C514024   2.371   3.598  13.937 -0.2595 -0.1913 -0.1925
   11MPD2     H14025   2.135   3.330  14.060 -0.2218 -0.3443  0.5366
   11MPD2    H114026   2.262   3.591  13.753 -1.1864 -1.5440 -0.2931
   11MPD2    H214027   2.466   3.596  14.119  0.9130 -0.0287  0.3200
   11MPD2    H314028   2.430   3.679  13.894 -0.3957 -0.3513 -0.6855
   11MPD2     N14029   2.090   3.403  13.788  0.1940 -0.0537 -0.0055
   11MPD2    H514030   2.090   3.448  13.697  0.9762 -0.2878 -0.1232
   11MPD2    N114031   2.278   3.419  14.242 -0.0715 -0.4653 -0.4392
   11MPD2    H714032   2.203   3.353  14.262  0.4059 -0.5521  0.9932
    1MPD1     C14033   4.180   4.019  16.540 -0.2261  0.6025 -0.1820
    1MPD1    C114034   4.128   4.057  16.658 -0.0291 -0.2735  0.1234
    1MPD1    C214035   4.175   4.168  16.722 -0.9030  0.0702  0.3524
    1MPD1    C314036   4.290   4.228  16.676  0.1700 -0.1230  0.7092
    1MPD1    C414037   4.338   4.189  16.555  0.3499  0.8389 -0.3266
    1MPD1    C514038   4.285   4.085  16.490 -0.2834 -0.4828 -0.1672
    1MPD1     H14039   4.125   4.198  16.814  1.0169 -1.1867  1.7851
    1MPD1    H114040   4.428   4.234  16.516  0.9306 -1.9467 -2.2261
    1MPD1    H214041   4.131   3.940  16.484  1.5699 -0.0716 -0.8280
    1MPD1    H314042   4.340   4.049  16.404 -1.6935 -2.3709 -0.2672
    1MPD1     N14043   4.355   4.340  16.735 -0.7453  0.3795  0.2774
    1MPD1    H514044   4.436   4.379  16.687 -1.4534  1.1417 -0.2978
    1MPD1    N114045   4.006   4.006  16.694 -0.5057 -0.3503  0.5109
    1MPD1    H614046   3.984   4.038  16.788 -2.6859 -0.3267  0.0101
    1MPD1    H714047   3.935   4.053  16.638 -0.2368  0.2780  0.6928
    2MPD1     C14048   4.425   0.451  17.455  0.5573 -0.2494 -0.5467
    2MPD1    C114049   4.521   0.356  17.485 -0.3391  0.6270  0.2488
    2MPD1    C214050   4.516   0.246  17.401 -0.2638  0.1087  0.2523
    2MPD1    C314051   4.431   0.226  17.296 -0.8260  0.5518 -0.1349
    2MPD1    C414052   4.334   0.315  17.269  0.4762 -0.4678  0.4443
    2MPD1    C514053   4.334   0.420  17.357  0.5567  0.4809 -0.5575
    2MPD1     H14054   4.581   0.164  17.429 -0.3529 -0.3292 -0.8156
    2MPD1    H114055   4.265   0.305  17.186 -0.3663 -0.0006  1.1005
    2MPD1    H214056   4.423   0.547  17.506 -1.3440 -0.2818 -0.5267
    2MPD1    H314057   4.268   0.503  17.334 -0.8145 -0.4518  0.0399
    2MPD1     N14058   4.463   0.114  17.211  0.8806 -0.3732  0.8169
    2MPD1    H514059   4.541   0.056  17.243  0.4640 -0.4524  1.6720
    2MPD1    N114060   4.598   0.360  17.602 -0.2514  0.1989 -0.0980
    2MPD1    H614061   4.685   0.307  17.597 -0.8737 -0.9910  2.1635
    2MPD1    H714062   4.619   0.454  17.636  0.4994 -0.1706  0.4668
    3TMC3    C114063   4.434   4.687  17.037  0.1704 -0.4729  0.7679
    3TMC3    C214064   4.571   4.663  17.031 -0.3028 -0.4430 -0.4354
    3TMC3    C314065   4.622   4.556  16.963 -0.4506 -0.3776 -0.2068
    3TMC3    C414066   4.345   4.597  16.982  0.0286 -0.0448  0.2097
    3TMC3    C514067   4.402   4.497  16.901 -0.2197 -0.8752 -0.1450
    3TMC3    C614068   4.534   4.476  16.885  0.7879 -0.4777  0.0745
    3TMC3     C14069   4.396   0.083  17.090  0.2639 -0.3722 -0.1020
    3TMC3     O14070   4.288   0.127  17.043 -0.1069 -0.2000 -0.3403
    3TMC3     H14071   4.640   4.730  17.081 -1.6081  0.0445  0.7070
    3TMC3    H114072   4.238   4.600  16.998  0.2720  2.1664  1.4570
    3TMC3    H214073   4.571   4.396  16.821  2.2627  1.3518 -1.3838
    3TMC3    C714074   4.317   4.395  16.852  0.4979 -0.2025 -0.1274
    3TMC3    C814075   0.023   4.547  16.935  0.0387 -0.5461 -0.0309
    3TMC3    O114076   4.209   4.385  16.912 -0.2426  0.6997 -0.3443
    3TMC3    O214077   0.045   4.493  16.827 -0.3109 -0.0367  0.1885
    4MPD1     C14078   0.503   4.662  17.000 -0.1192 -0.3239  0.0152
    4MPD1    C114079   0.438   4.702  17.116 -0.1456  0.7622  0.0980
    4MPD1    C214080   0.305   4.684  17.121 -0.0418  0.7447  0.7259
    4MPD1    C314081   0.240   4.627  17.016  0.4147 -0.0291  0.3868
    4MPD1    C414082   0.310   4.581  16.904  0.5580 -0.7923  0.4683
    4MPD1    C514083   0.439   4.604  16.896 -0.3289  0.4907 -0.2615
    4MPD1     H14084   0.248   4.710  17.210  0.3246  0.2653  1.1002
    4MPD1    H114085   0.259   4.532  16.823  0.3966 -0.9965  0.6917
    4MPD1    H214086   0.610   4.649  17.000 -0.2581 -1.4079  1.3391
    4MPD1    H314087   0.486   4.552  16.813  1.2061 -0.3970  1.1635
    4MPD1     N14088   0.102   4.611  17.027 -0.3000  0.2023  0.0901
    4MPD1    H514089   0.064   4.627  17.119 -0.3666  0.3983  0.0278
    4MPD1    N114090   0.510   0.012  17.226  0.3911 -0.1129  0.4274
    4MPD1    H614091   0.461   0.086  17.275 -1.2787 -2.0531  1.6649
    4MPD1    H714092   0.600   0.056  17.205  2.0344 -3.8783 -0.6243
    1TCq1    O114093   1.200   4.525  12.314  0.2580 -0.8345 -0.4985
    1TCq1    C114094   1.238   4.433  12.218  0.1334  0.1042 -0.1554
    1TCq1    O214095   1.296   4.334  12.247 -0.1648 -0.0112 -0.3104
    1TCq1    C214096   1.189   4.484  12.088  0.3525 -0.1535  0.0408
    1TCq1    C314097   1.260   4.451  11.978 -0.4113 -0.3622  0.5768
    1TCq1    C414098   1.202   4.437  11.861 -0.2830  0.2740  0.1604
    1TCq1    C514099   1.070   4.491  11.840 -0.2894 -0.4247  0.1796
    1TCq1    C614100   0.997   4.516  11.958 -0.0789 -0.3697 -0.6785
    1TCq1    C714101   1.056   4.522  12.075 -0.4268  0.0314  0.7385
    1TCq1    C814102   0.861   4.556  11.950 -0.5158 -0.4534 -0.0434
    1TCq1    O414103   0.828   4.634  12.036  0.3167 -0.2467 -0.0112
    1TCq1    C914104   1.290   4.430  11.741  0.4643  0.7614  0.9004
    1TCq1    O514105   1.407   4.400  11.757  0.7022  0.0302 -0.3518
    1TCq1    O614106   1.252   4.489  11.639 -0.5121  0.2893 -0.4132
    1TCq1    H114107   1.169   4.608  12.272  0.9459  0.1649  0.9862
    1TCq1    H214108   1.358   4.405  11.985 -0.7419 -0.5842  4.1240
    1TCq1    H314109   1.029   4.496  11.739 -2.0143  1.0759  0.9561
    1TCq1    H414110   0.999   4.543  12.164 -1.6293 -0.1183  0.0086
    2MPD1     C14111   0.399   4.536  11.745  0.0891  0.3227 -0.0278
    2MPD1    C114112   0.482   4.480  11.655 -0.1249  0.8198  0.3167
    2MPD1    C214113   0.613   4.478  11.688  0.7655  0.0361  0.0934
    2MPD1    C314114   0.656   4.510  11.815  0.7473  0.5449 -0.1740
    2MPD1    C414115   0.572   4.561  11.910 -0.1022 -0.7271 -0.6164
    2MPD1    C514116   0.445   4.581  11.868  0.0746  0.1462  0.5267
    2MPD1     H14117   0.694   4.458  11.619  0.8487  0.4088  0.0807
    2MPD1    H114118   0.598   4.595  12.010 -2.4044  0.2184 -0.3356
    2MPD1    H214119   0.297   4.558  11.716 -0.5508 -1.4468  0.8673
    2MPD1    H314120   0.374   4.638  11.927  0.4655  0.7351  0.4272
    2MPD1     N14121   0.793   4.505  11.841 -0.3278 -0.3526 -0.4654
    2MPD1    H514122   0.856   4.460  11.775  0.8481  0.8936 -0.2008
    2MPD1    N114123   0.442   4.457  11.520  0.0010 -1.2872  0.4533
    2MPD1    H614124   0.516   4.406  11.471  1.2130  1.9653 -1.1226
    2MPD1    H714125   0.348   4.423  11.503 -0.4905  0.5077 -0.3759
    1TMC1    C114126   2.555   4.133   1.197 -0.1878 -0.6461 -0.4625
    1TMC1    C214127   2.534   4.165   1.325  0.0985 -0.2975  0.1571
    1TMC1    C314128   2.404   4.176   1.371 -0.4004 -0.5102  0.3043
    1TMC1    C414129   2.453   4.131   1.109  0.2127 -0.0267 -0.1666
    1TMC1    C514130   2.322   4.152   1.154  0.3665 -0.1009 -0.4770
    1TMC1    C614131   2.298   4.177   1.287 -0.6248 -0.0379 -0.3667
    1TMC1     C14132   2.693   4.102   1.162 -0.2748 -0.1999  0.1556
    1TMC1     O14133   2.765   4.080   1.261 -0.0264  0.3927 -0.2431
    1TMC1     H14134   2.606   4.157   1.405  1.6335  1.8753 -1.0053
    1TMC1    H114135   2.466   4.111   1.003  0.2970 -0.5647 -0.0586
    1TMC1    H214136   2.195   4.180   1.321 -1.2152  0.0319 -2.1556
    1TMC1    C714137   2.216   4.139   1.062 -1.2204 -0.5548 -0.1797
    1TMC1    C814138   2.383   4.199   1.509 -0.3722  0.0689 -1.5029
    1TMC1    O114139   2.227   4.168   0.946 -0.7512  0.3798  0.4065
    1TMC1    O214140   2.470   4.242   1.582 -0.1258  0.2433  0.2191
    1TMC1    O314141   2.128   4.047   1.113 -0.2799 -0.2649 -0.4718
    1TMC1    H314142   2.156   4.013   1.201 -1.7193  0.3132  0.2115
    1TMC1    O514143   2.267   4.124   1.539 -0.2740 -0.1388 -0.0721
    1TMC1    H514144   2.239   4.069   1.463 -0.7286  0.9625 -0.7020
    2MPD1     C14145   3.009   3.853   0.854 -0.1131 -0.2090  0.1152
    2MPD1    C114146   2.923   3.922   0.779  0.1184  0.0608 -0.7327
    2MPD1    C214147   2.834   4.006   0.837 -0.5971  0.4782  0.1124
    2MPD1    C314148   2.820   4.006   0.978 -0.3726 -0.8768 -0.0535
    2MPD1    C414149   2.898   3.928   1.055 -0.4932  0.3719 -0.3288
    2MPD1    C514150   3.002   3.860   0.991  0.8030  0.0628 -0.3003
    2MPD1     H14151   2.774   4.071   0.773 -1.7271  0.8898  1.5949
    2MPD1    H114152   2.895   3.918   1.163  2.7268  0.7160 -0.2116
    2MPD1    H214153   3.094   3.804   0.809 -1.5173 -1.9817 -0.6443
    2MPD1    H314154   3.077   3.808   1.051  0.2053 -1.3406 -0.7563
    2MPD1     N14155   2.714   4.077   1.030  0.1433 -0.5517  0.2496
    2MPD1    H514156   2.650   4.121   0.965  0.4527  0.7542  0.8295
    2MPD1    N114157   2.943   3.934   0.642  0.0372  0.9935  0.8288
    2MPD1    H614158   2.976   3.842   0.612 -2.1007  1.5596 -3.2211
    2MPD1    H714159   2.853   3.951   0.598  1.0968  2.7430 -0.6343
    1MPD1     C14160   2.331   3.900  12.067  0.8036  0.4565 -0.5042
    1MPD1    C114161   2.292   3.970  11.953  0.0768 -0.1674  0.4553
    1MPD1    C214162   2.389   4.021  11.872  0.0754 -0.0182  0.6801
    1MPD1    C314163   2.520   3.981  11.887  0.7490 -0.1292 -0.5637
    1MPD1    C414164   2.551   3.905  12.001  1.0779 -0.4296  0.0800
    1MPD1    C514165   2.455   3.858  12.084  0.1392 -0.8641  0.0339
    1MPD1     H14166   2.364   4.063  11.775  0.9484  1.8043  1.2392
    1MPD1    H114167   2.653   3.876  12.023  0.9532 -0.7809  0.2107
    1MPD1    H214168   2.257   3.869  12.140  0.0015 -3.0638 -2.8064
    1MPD1    H314169   2.479   3.801  12.174 -0.2293  0.8590  1.2319
    1MPD1     N14170   2.614   4.044  11.806 -0.0016  0.1286 -0.3750
    1MPD1    H514171   2.591   4.130  11.756 -0.8564  2.0250  3.3328
    1MPD1    N114172   2.164   4.024  11.949 -0.4617 -0.2865  0.3271
    1MPD1    H614173   2.133   4.058  11.858 -1.2869 -2.9033 -0.3902
    1MPD1    H714174   2.096   3.957  11.985 -0.7431  0.2820  0.8539
    2MPD1     C14175   2.342   4.065  11.422  0.3302  0.3915  0.9768
    2MPD1    C114176   2.218   4.029  11.366  0.1470  0.9895 -0.1596
    2MPD1    C214177   2.176   4.101  11.256  0.0928 -0.7404  0.0132
    2MPD1    C314178   2.256   4.200  11.191  0.3165 -0.1358 -0.7300
    2MPD1    C414179   2.378   4.231  11.247  0.3913 -0.1968  0.0379
    2MPD1    C514180   2.418   4.160  11.356 -0.3697 -0.0668 -0.0376
    2MPD1     H14181   2.077   4.077  11.218  0.4624 -1.8328 -0.2484
    2MPD1    H114182   2.453   4.295  11.202 -0.9807  2.1935  1.1821
    2MPD1    H214183   2.373   4.020  11.516  1.1636  1.8685  1.4117
    2MPD1    H314184   2.521   4.168  11.389 -0.6240  0.5050  0.6340
    2MPD1     N14185   2.226   4.261  11.068  0.6271 -0.2688  0.2873
    2MPD1    H514186   2.305   4.306  11.024  0.7592  0.4309  1.2303
    2MPD1    N114187   2.129   3.933  11.429 -0.6456 -0.4452 -0.3334
    2MPD1    H614188   2.184   3.853  11.460  0.5169  1.0254  1.4216
    2MPD1    H714189   2.061   3.894  11.364 -1.2735 -0.1049  0.1155
    3MPD1     C14190   1.550   4.245  10.253  0.0455 -0.3951 -0.2334
    3MPD1    C114191   1.583   4.377  10.281 -0.5879 -0.0451  0.3335
    3MPD1    C214192   1.709   4.400  10.331 -0.3659 -0.0445 -0.6993
    3MPD1    C314193   1.792   4.295  10.374 -0.0725  0.8127  0.0612
    3MPD1    C414194   1.758   4.167  10.336  0.6951 -0.6621  0.0452
    3MPD1    C514195   1.639   4.145  10.273  0.4501 -0.8963 -0.0366
    3MPD1     H14196   1.744   4.502  10.336 -1.6436  0.4071 -0.8823
    3MPD1    H114197   1.822   4.080  10.338  1.1461 -0.3175  0.8081
    3MPD1    H214198   1.455   4.218  10.208  0.1358  0.7946 -1.1271
    3MPD1    H314199   1.615   4.042  10.251  0.2294 -0.7196 -0.6059
    3MPD1     N14200   1.896   4.334  10.457  0.3247 -0.2604 -0.5000
    3MPD1    H514201   1.902   4.433  10.479 -0.3279 -0.3451  0.0919
    3MPD1    N114202   1.488   4.478  10.282 -0.1007 -0.1478 -0.2662
    3MPD1    H614203   1.534   4.563  10.252  1.2368 -0.6572  0.3610
    3MPD1    H714204   1.418   4.454  10.212  0.3420  0.9500 -1.0857
    4MPD2     C14205   3.005   4.642  11.501  0.1383 -0.5630 -0.3140
    4MPD2    C114206   3.029   4.517  11.450 -0.5233  0.0058 -0.7342
    4MPD2    C214207   3.085   4.507  11.320 -0.0987 -0.2896 -0.2899
    4MPD2    C314208   3.101   4.612  11.236 -0.3972 -0.3664  0.3348
    4MPD2    C414209   3.072   4.736  11.287  0.4366  0.3752  0.0749
    4MPD2    C514210   3.036   0.009  11.417  0.4937  0.2780  0.3257
    4MPD2     H14211   3.113   4.409  11.285  1.9045  0.1205  0.1946
    4MPD2    H114212   3.085   0.082  11.220 -0.6744  0.4291 -0.0773
    4MPD2    H214213   2.976   4.660  11.604  0.5806  0.0736 -0.2963
    4MPD2    H314214   3.014   0.106  11.460 -0.3435 -0.0648  0.6765
    4MPD2     N14215   3.136   4.585  11.105  0.2800 -0.0642  0.4736
    4MPD2    H514216   3.144   4.486  11.088 -1.5537  0.2396 -2.0812
    4MPD2    N114217   3.011   4.401  11.522 -0.5066  0.3928  0.0065
    4MPD2    H714218   3.049   4.313  11.487 -0.2360  1.5533 -2.5960
    5TMC3    C114219   2.955   4.240  11.676  0.0058 -0.3941 -0.3287
    5TMC3    C214220   2.837   4.183  11.716 -0.6066 -0.0774  0.1405
    5TMC3    C314221   2.803   4.055  11.677 -0.4535 -0.0356 -0.2965
    5TMC3    C414222   3.054   4.172  11.609  0.0111 -0.2390 -0.3788
    5TMC3    C514223   3.015   4.050  11.560 -0.7478 -0.2734  0.7187
    5TMC3    C614224   2.896   3.987  11.606  0.0853  0.0484  0.5723
    5TMC3     C14225   2.948   4.382  11.638 -0.2139 -0.6515  0.4514
    5TMC3     O14226   2.861   4.460  11.678 -0.3774 -0.2621  0.0970
    5TMC3     H14227   2.761   4.244  11.763 -1.9057  0.1420 -2.2125
    5TMC3    H114228   3.150   4.210  11.575  0.6095 -1.9102 -0.5894
    5TMC3    H214229   2.871   3.882  11.610  0.2349 -0.1070 -2.8327
    5TMC3    C714230   3.026   4.054  11.417  0.3036 -1.1885 -0.2506
    5TMC3    C814231   2.730   3.988  11.775  0.4325 -0.5509  0.3214
    5TMC3    O114232   3.102   4.143  11.382  0.1491 -0.1512  0.1596
    5TMC3    O214233   2.779   3.884  11.812 -0.1198 -0.0436 -0.3665
    6TMC3    C114234   2.110   4.307  10.861  0.1722  0.0075 -0.7908
    6TMC3    C214235   2.042   4.249  10.760 -0.8619  0.1186  0.1399
    6TMC3    C314236   2.037   4.314  10.640  0.6721 -0.5043  0.2385
    6TMC3    C414237   2.175   4.425  10.841 -0.9218  0.7669 -0.7480
    6TMC3    C514238   2.177   4.488  10.722 -1.0295  0.2142 -0.2565
    6TMC3    C614239   2.110   4.433  10.615  0.5298 -0.3435  0.0321
    6TMC3     C14240   2.109   4.244  10.990  0.5391  0.6576  0.3014
    6TMC3     O14241   2.009   4.179  11.016  0.0954 -0.5387  0.2151
    6TMC3     H14242   1.989   4.156  10.775  2.7104 -2.1503 -1.3266
    6TMC3    H114243   2.214   4.471  10.931 -0.3503  0.5405 -0.8857
    6TMC3    H214244   2.115   4.488  10.522  0.2372  1.4735  1.0959
    6TMC3    C714245   2.295   4.568  10.695 -0.1573 -0.1448  0.4634
    6TMC3    C814246   1.960   4.245  10.533  0.4963 -0.6535 -0.3366
    6TMC3    O114247   2.365   4.539  10.600 -0.1672  0.0536  0.4484
    6TMC3    O214248   1.931   4.125  10.543 -0.2359 -0.0042 -0.5170
    7MPD2     C14249   2.764   4.103  10.976  0.5287 -0.2419 -0.1246
    7MPD2    C114250   2.891   4.138  11.008 -0.0336 -0.3770  0.6457
    7MPD2    C214251   2.947   4.101  11.133 -0.7000 -0.1684 -0.1361
    7MPD2    C314252   2.871   4.022  11.221 -0.0016  0.5542  0.2313
    7MPD2    C414253   2.736   3.984  11.184 -1.0149  0.8542  0.6631
    7MPD2    C514254   2.686   4.035  11.067  0.1644 -0.0352 -0.0221
    7MPD2     H14255   3.046   4.140  11.152 -0.2336 -0.5793 -1.7345
    7MPD2    H114256   2.666   3.940  11.254 -1.3448  0.5416  0.1338
    7MPD2    H214257   2.704   4.137  10.892 -0.2356 -1.0317  0.1042
    7MPD2    H314258   2.581   4.012  11.056  0.7935 -1.7450 -2.5784
    7MPD2     N14259   2.918   3.995  11.356  0.0830 -0.1970  0.0977
    7MPD2    H514260   2.857   3.948  11.422 -0.4602  1.4024  0.7144
    7MPD2    N114261   2.949   4.231  10.915  0.5959  0.2758  0.0209
    7MPD2    H714262   2.889   4.249  10.835  2.3572 -0.5885 -1.5010
    8TMC3    C114263   3.102   4.390  10.827  0.2171  0.6938 -0.2072
    8TMC3    C214264   2.992   4.439  10.754  0.0864 -0.5222  0.0286
    8TMC3    C314265   2.962   4.572  10.756 -0.0733  0.3440  0.3521
    8TMC3    C414266   3.183   4.488  10.887 -0.1574  0.9180 -1.3561
    8TMC3    C514267   3.143   4.618  10.879 -0.4229 -0.3728 -0.2902
    8TMC3    C614268   3.044   4.671  10.800  0.3412 -0.2134  0.5582
    8TMC3     C14269   3.072   4.289  10.930 -0.8156 -0.2087  0.1300
    8TMC3     O14270   3.151   4.279  11.023  0.1368  0.3528  0.0788
    8TMC3     H14271   2.912   4.375  10.717 -1.2907  1.3487 -0.2215
    8TMC3    H114272   3.266   4.457  10.949  0.3336  1.7760 -1.5794
    8TMC3    H214273   3.009   0.035  10.794 -1.5520 -0.9635 -1.1576
    8TMC3    C714274   3.154   4.681  11.006 -0.5164 -0.0221 -0.0522
    8TMC3    C814275   2.820   4.612  10.743  0.3999  0.1008  0.3140
    8TMC3    O114276   3.150   0.065  11.006  0.4737  0.0998 -0.0974
    8TMC3    O214277   2.755   4.527  10.684  0.1727  0.0583  0.0332
    9MPD2     C14278   2.645   0.156  10.868  0.7937 -0.0012  0.3626
    9MPD2    C114279   2.652   0.038  10.808 -0.3224 -0.2516  0.2751
    9MPD2    C214280   2.546   4.709  10.769  0.1059 -0.2094  0.0458
    9MPD2    C314281   2.424   0.006  10.814  0.4186 -0.8237  0.1049
    9MPD2    C414282   2.416   0.117  10.893  0.6041  0.5012  0.1433
    9MPD2    C514283   2.520   0.205  10.904  0.3353 -0.0292 -0.9213
    9MPD2     H14284   2.559   4.621  10.707 -4.2203  0.1268 -1.3599
    9MPD2    H114285   2.318   0.144  10.932  0.8528  1.1581  0.3195
    9MPD2    H214286   2.732   0.219  10.885 -0.8935  1.2972  4.1254
    9MPD2    H314287   2.503   0.287  10.973  0.5456 -1.0921  0.3953
    9MPD2     N14288   2.310   4.669  10.796 -0.3066 -0.8852  0.6356
    9MPD2    H514289   2.221   4.696  10.837 -0.9154 -1.0376 -0.6003
    9MPD2    N114290   2.784   0.000  10.793 -0.4580  0.0601  0.7497
    9MPD2    H714291   2.855   0.057  10.838  1.1543 -2.0757  0.9174
    1MPD1     C14292   1.451   1.734  15.823 -0.2274 -0.5213 -0.0833
    1MPD1    C114293   1.406   1.864  15.807 -0.7997  0.6341 -0.4749
    1MPD1    C214294   1.487   1.960  15.755  0.0305 -0.2156 -0.1813
    1MPD1    C314295   1.611   1.926  15.695  0.2820  0.0041  0.2937
    1MPD1    C414296   1.652   1.791  15.713 -0.9354  0.3686  0.2784
    1MPD1    C514297   1.573   1.697  15.780  0.4396  0.0366  0.0326
    1MPD1     H14298   1.451   2.061  15.743 -0.1562 -0.2802 -0.1584
    1MPD1    H114299   1.750   1.767  15.673 -1.4415 -0.4749 -0.4295
    1MPD1    H214300   1.384   1.657  15.861 -1.6234  1.2497  1.0490
    1MPD1    H314301   1.608   1.595  15.793  0.0542 -0.1125 -0.0986
    1MPD1     N14302   1.701   2.009  15.619  0.0984 -0.1538 -0.9668
    1MPD1    H514303   1.778   1.961  15.572  0.4730 -1.4717  0.9943
    1MPD1    N114304   1.270   1.884  15.828  0.3165  0.4446 -0.4385
    1MPD1    H614305   1.229   1.822  15.898  0.2943 -0.7206 -1.4727
    1MPD1    H714306   1.253   1.982  15.848  0.4049 -0.1701  2.6236
    2TMC2    C114307   1.775   2.424  15.407  0.0932 -0.0341  0.3436
    2TMC2    C214308   1.816   2.357  15.292  0.1917 -0.1879 -0.5186
    2TMC2    C314309   1.821   2.219  15.296 -0.6852  0.6466  0.3055
    2TMC2    C414310   1.756   2.353  15.526 -0.1585  0.0549  0.3896
    2TMC2    C514311   1.773   2.215  15.517  0.2030  0.2853  0.5438
    2TMC2    C614312   1.795   2.145  15.404 -1.1567  0.0042  0.1278
    2TMC2     C14313   1.765   2.568  15.406  0.4757 -0.3041  0.1940
    2TMC2     O14314   1.733   2.620  15.512 -0.0445 -0.0246  0.3449
    2TMC2     H14315   1.862   2.393  15.200 -1.1152 -0.5580 -1.3111
    2TMC2    H114316   1.725   2.406  15.615  1.9591  4.6754 -1.5922
    2TMC2    H214317   1.793   2.037  15.403 -0.8652 -0.0086  0.5390
    2TMC2    C714318   1.694   2.145  15.620  0.7574 -0.8697  0.1889
    2TMC2    C814319   1.892   2.155  15.184  0.3140 -0.1628  0.3809
    2TMC2    O114320   1.625   2.216  15.686  0.2397  0.1393 -0.0901
    2TMC2    O214321   1.978   2.214  15.119  0.1102 -0.1149 -0.2539
    2TMC2    O514322   1.841   2.036  15.159 -0.0926  0.1834  0.6574
    2TMC2    H514323   1.754   2.014  15.198 -0.7152 -0.5728 -1.1523
    3MPD1     C14324   1.685   3.018  15.191  0.4008 -0.0125  0.2372
    3MPD1    C114325   1.700   2.934  15.082 -0.6035  0.1350  0.5877
    3MPD1    C214326   1.718   2.804  15.115  0.8883  0.0475 -0.0622
    3MPD1    C314327   1.737   2.756  15.249  0.3481  0.2916 -0.3025
    3MPD1    C414328   1.724   2.847  15.352  0.1597  1.0034 -0.2269
    3MPD1    C514329   1.705   2.977  15.323  0.7756  0.8358 -0.0310
    3MPD1     H14330   1.734   2.736  15.032 -0.3493 -0.8907  0.4750
    3MPD1    H114331   1.736   2.824  15.457 -0.0993  1.0560 -0.1868
    3MPD1    H214332   1.661   3.122  15.171  0.3949 -0.4817 -2.1596
    3MPD1    H314333   1.694   3.046  15.406 -0.7676 -1.3090  1.5386
    3MPD1     N14334   1.763   2.621  15.277 -0.0557  0.4909 -0.3388
    3MPD1    H514335   1.758   2.555  15.200  0.1914 -0.7101  0.6664
    3MPD1    N114336   1.686   2.982  14.950 -0.4284  0.4691 -0.1988
    3MPD1    H614337   1.756   2.943  14.887  1.0842  1.1933  1.0196
    3MPD1    H714338   1.695   3.084  14.945  0.5939  0.3552 -0.7508
    1TMC1    C114339   4.461   2.210  13.242 -0.5317 -1.0174  0.5476
    1TMC1    C214340   4.501   2.134  13.141  0.6104 -0.3172  0.2143
    1TMC1    C314341   4.471   2.000  13.136 -0.5730 -0.8483 -0.2257
    1TMC1    C414342   4.399   2.155  13.354  0.4061  0.2188  0.1093
    1TMC1    C514343   4.377   2.020  13.350 -0.0525  0.6019  0.1650
    1TMC1    C614344   4.401   1.941  13.240  0.6354  0.8117  0.1231
    1TMC1     C14345   4.558   2.313  13.276 -0.4662  0.0563 -1.3622
    1TMC1     O14346   4.574   2.405  13.202 -0.0148 -0.3299  0.1404
    1TMC1     H14347   4.544   2.188  13.057 -1.9674  0.0869 -0.8385
    1TMC1    H114348   4.372   2.209  13.444  1.5575  1.2466 -0.1631
    1TMC1    H214349   4.373   1.837  13.243 -0.2916  1.1231  2.2017
    1TMC1    C714350   4.311   1.974  13.476  0.1250 -0.0348 -0.4295
    1TMC1    C814351   4.508   1.917  13.026 -0.5811  0.5182 -0.2380
    1TMC1    O114352   4.210   2.035  13.512 -0.4495  0.6631  0.5723
    1TMC1    O214353   4.441   1.820  12.993 -0.3031  0.0037  0.4597
    1TMC1    O314354   4.335   1.842  13.475  0.1321  0.6303 -0.2889
    1TMC1    H314355   4.426   1.832  13.438 -1.1378 -2.2312 -2.6456
    1TMC1    O514356   4.577   1.990  12.935  0.3323  0.2345  0.5726
    1TMC1    H514357   4.645   2.050  12.972  0.5718 -0.0184  0.5474
    2MPD2     C14358   0.010   2.490  13.421  0.0062 -0.4556 -0.6077
    2MPD2    C114359   4.718   2.367  13.467  0.8441  0.6441 -0.2441
    2MPD2    C214360   0.064   2.304  13.553 -0.5418  1.3848 -0.2766
    2MPD2    C314361   0.178   2.361  13.606  0.1997 -0.5420 -0.0434
    2MPD2    C414362   0.188   2.495  13.587 -0.2808 -0.4969  0.0611
    2MPD2    C514363   0.107   2.552  13.491 -0.7097  0.2171 -0.5043
    2MPD2     H14364   0.040   2.201  13.577  0.8815  0.8985 -0.9736
    2MPD2    H114365   0.271   2.559  13.616 -0.5316 -0.5338  0.8649
    2MPD2    H214366   4.677   2.540  13.356  0.1727  1.1267  0.4190
    2MPD2    H314367   0.134   2.654  13.467  2.0605 -0.9332 -2.2288
    2MPD2     N14368   0.263   2.277  13.684 -0.5555 -0.2900 -0.2255
    2MPD2    H514369   0.243   2.178  13.697  0.5148 -0.3742  0.7888
    2MPD2    N114370   4.619   2.290  13.396 -0.3432  0.0283  0.1773
    2MPD2    H714371   4.598   2.198  13.433  2.8779 -0.8688 -0.1640
    3TCq1    O114372   0.809   2.339  13.981 -0.5182 -0.0197 -0.1679
    3TCq1    C114373   0.720   2.309  14.073  0.8295  0.0634 -0.2531
    3TCq1    O214374   0.724   2.353  14.188 -0.0611  0.1401  0.1992
    3TCq1    C214375   0.615   2.233  14.002 -0.2064 -0.2811  0.1721
    3TCq1    C314376   0.537   2.165  14.090  0.3957  0.4159 -0.2367
    3TCq1    C414377   0.409   2.141  14.056 -0.3719 -0.2751 -0.3237
    3TCq1    C514378   0.366   2.173  13.929  0.3900  0.1760  0.0692
    3TCq1    C614379   0.454   2.238  13.840 -0.3139  0.4802  0.1166
    3TCq1    C714380   0.580   2.277  13.879 -0.9340  0.3994 -0.1092
    3TCq1    C814381   0.393   2.321  13.731 -0.0988 -0.2521  0.4106
    3TCq1    O414382   0.453   2.419  13.695  0.1698 -0.2744 -0.0105
    3TCq1    C914383   0.323   2.071  14.151  0.3493 -0.6104  0.6480
    3TCq1    O514384   0.199   2.060  14.116 -0.3847 -0.2650 -0.3960
    3TCq1    O614385   0.369   2.044  14.264 -0.0981  0.1978  1.3281
    3TCq1    H114386   0.810   2.276  13.906  2.1591  0.1753 -0.3025
    3TCq1    H214387   0.587   2.148  14.185 -0.7113 -2.5841 -0.1769
    3TCq1    H314388   0.262   2.156  13.904  0.0151  0.4707  1.4610
    3TCq1    H414389   0.653   2.318  13.810  1.2448 -1.5192  1.0690
    1MPD2     C14390   0.268   3.442  14.969  0.0213  0.0418 -0.4160
    1MPD2    C114391   0.222   3.338  14.890 -0.4485  0.8231 -0.9029
    1MPD2    C214392   0.229   3.212  14.944  0.4473  0.4691  0.1980
    1MPD2    C314393   0.290   3.188  15.063 -0.1143  0.1645  0.1116
    1MPD2    C414394   0.348   3.294  15.137  0.4415 -0.3711  0.4453
    1MPD2    C514395   0.321   3.418  15.091 -0.0413 -0.1036 -0.0176
    1MPD2     H14396   0.184   3.125  14.896 -1.4334  1.0250  0.9437
    1MPD2    H114397   0.400   3.288  15.231  0.1515  1.2909  0.6984
    1MPD2    H214398   0.256   3.542  14.928  0.5998 -0.1628 -1.0910
    1MPD2    H314399   0.345   3.500  15.157  1.7335 -0.9153  0.3371
    1MPD2     N14400   0.287   3.049  15.106  0.2752 -0.0712  0.1960
    1MPD2    H514401   0.253   2.974  15.046  0.2884 -0.0134  0.1152
    1MPD2    N114402   0.162   3.366  14.769  0.4565  0.2541  0.0473
    1MPD2    H714403   0.165   3.460  14.731  1.2195 -0.5967 -1.9676
    2TMC3    C114404   0.062   3.333  14.557 -0.5419 -0.1632 -0.8237
    2TMC3    C214405   0.039   3.228  14.474  0.6321  1.1636  0.6158
    2TMC3    C314406   4.645   3.202  14.437  0.8958  0.4884 -1.0872
    2TMC3    C414407   4.698   3.417  14.582  0.2397  0.2969  0.1940
    2TMC3    C514408   4.572   3.403  14.523  0.0200 -0.2132 -0.4886
    2TMC3    C614409   4.546   3.294  14.442  0.3628  0.4823 -0.9528
    2TMC3     C14410   0.123   3.275  14.676  0.6551 -0.3767  0.2462
    2TMC3     O14411   0.121   3.152  14.673  0.3124 -0.1175  0.5037
    2TMC3     H14412   0.116   3.157  14.444 -0.4165 -0.5706  1.9835
    2TMC3    H114413   4.718   3.502  14.647 -1.3466  0.2901  0.6846
    2TMC3    H214414   4.445   3.272  14.408 -0.3131 -0.5896  1.7587
    2TMC3    C714415   4.485   3.517  14.503 -0.4752  0.2574  0.3569
    2TMC3    C814416   4.597   3.067  14.440  0.2162 -0.3396  0.0529
    2TMC3    O114417   4.371   3.486  14.462  0.2431  0.3853  0.4588
    2TMC3    O214418   4.487   3.045  14.397  0.3174 -0.2346  0.0153
    3TCq1    O114419   0.166   4.451  14.934  0.4905  0.3112 -0.2236
    3TCq1    C114420   0.051   4.373  14.936  0.0564  0.3577  0.9185
    3TCq1    O214421   0.022   4.278  15.012  0.0762  0.3046 -0.0912
    3TCq1    C214422   4.720   4.404  14.813 -0.1307  0.1942 -0.3952
    3TCq1    C314423   4.738   4.527  14.765  0.4207 -0.2846  0.3435
    3TCq1    C414424   4.712   4.558  14.637 -0.5755 -0.7383 -0.1444
    3TCq1    C514425   4.664   4.461  14.556  0.1203  0.5067  0.7711
    3TCq1    C614426   4.651   4.329  14.606  0.6473  0.1192 -0.3299
    3TCq1    C714427   4.674   4.297  14.741  0.1027  0.2053 -0.9357
    3TCq1    C814428   4.568   4.233  14.529 -1.0151 -0.3325  0.1068
    3TCq1    O414429   4.502   4.282  14.439  0.2755 -0.2745 -0.1766
    3TCq1    C914430   4.737   4.692  14.597  0.1821 -0.5349 -0.2961
    3TCq1    O514431   4.727   4.717  14.472  0.0267  0.5358 -0.1805
    3TCq1    O614432   0.055   0.024  14.685  0.7862 -0.0387 -0.0082
    3TCq1    H114433   0.184   4.499  14.851  0.7667  1.4243  0.4752
    3TCq1    H214434   0.024   4.604  14.838 -0.3510 -0.1424  0.4487
    3TCq1    H314435   4.649   4.471  14.449 -1.2152 -1.4118  0.7835
    3TCq1    H414436   4.676   4.201  14.793  2.3178  0.9708  0.3860
    4MPD2     C14437   4.390   4.007  14.453  0.2822 -0.0577 -0.1372
    4MPD2    C114438   4.509   3.997  14.514 -0.6367  0.6023  0.2480
    4MPD2    C214439   4.556   3.871  14.537  0.0617 -0.0086  0.3500
    4MPD2    C314440   4.491   3.760  14.486  0.1848 -0.0312  0.0368
    4MPD2    C414441   4.373   3.766  14.416  0.0652  0.1914  0.1643
    4MPD2    C514442   4.324   3.895  14.408 -0.1825  0.1095 -0.2809
    4MPD2     H14443   4.650   3.856  14.588  1.4918 -0.8237 -2.4987
    4MPD2    H114444   4.322   3.686  14.363 -0.4103  0.4329  0.2543
    4MPD2    H214445   4.344   4.103  14.430 -0.5192 -0.5928 -0.7812
    4MPD2    H314446   4.232   3.909  14.352 -0.1763 -0.3925 -0.4231
    4MPD2     N14447   4.548   3.635  14.520 -0.1798  0.1520  0.1292
    4MPD2    H514448   4.641   3.646  14.559  0.4596 -0.5428 -1.1955
    4MPD2    N114449   4.573   4.105  14.574  0.0659  0.1106  0.4652
    4MPD2    H714450   4.643   4.080  14.643 -0.7579 -0.3309  1.1390
    5TMC2    C114451   0.149   2.720  15.080 -0.1900 -0.0419 -0.7182
    5TMC2    C214452   0.053   2.704  15.175 -0.0269  0.3918 -0.4103
    5TMC2    C314453   0.079   2.753  15.297 -1.3986 -0.3809 -0.1011
    5TMC2    C414454   0.258   2.800  15.109  0.0847  0.6342  0.4717
    5TMC2    C514455   0.280   2.859  15.237  0.0775  0.4388  0.6164
    5TMC2    C614456   0.189   2.830  15.334 -0.2675 -0.0188 -0.2322
    5TMC2     C14457   0.107   2.769  14.948 -0.6842  0.3347 -0.2599
    5TMC2     O14458   0.180   2.862  14.913  0.5625 -0.6683 -0.1918
    5TMC2     H14459   4.700   2.647  15.160 -0.4315  0.3987  2.1424
    5TMC2    H114460   0.340   2.808  15.038  1.2904 -2.4279  1.5233
    5TMC2    H214461   0.195   2.870  15.435  0.2291 -1.4432  0.3011
    5TMC2    C714462   0.318   2.998  15.233 -0.4262  0.2069 -0.0071
    5TMC2    C814463   0.009   2.683  15.393 -0.4459  0.0727 -0.1879
    5TMC2    O114464   0.325   3.062  15.340  0.0356  0.1986  0.3388
    5TMC2    O214465   0.042   2.568  15.415 -0.2618 -0.0805 -0.5690
    5TMC2    O514466   4.622   2.729  15.387  0.7071 -0.0516  0.1443
    5TMC2    H514467   4.618   2.820  15.349 -0.3235 -0.2547 -0.2481
    6MPD2     C14468   4.536   2.799  14.549  0.2325  1.0522 -0.4121
    6MPD2    C114469   4.637   2.881  14.601  0.6845  0.4224  0.2036
    6MPD2    C214470   4.707   2.854  14.712 -0.3836  0.3920 -0.5630
    6MPD2    C314471   4.675   2.738  14.776  0.0734  0.1132  0.7212
    6MPD2    C414472   4.563   2.665  14.740  0.5492  0.2996  0.3415
    6MPD2    C514473   4.502   2.693  14.622  0.0672 -0.7011  0.2936
    6MPD2     H14474   0.052   2.915  14.745 -1.0488  0.7713  0.3901
    6MPD2    H114475   4.534   2.576  14.795 -0.9828  0.3355 -0.4320
    6MPD2    H214476   4.492   2.817  14.452 -1.1013 -1.3596 -0.2605
    6MPD2    H314477   4.426   2.621  14.594 -1.0062 -0.5813  2.8339
    6MPD2     N14478   0.000   2.705  14.894 -0.0512 -0.2477 -0.1637
    6MPD2    H514479   4.698   2.629  14.947 -3.7107  1.6668 -0.2052
    6MPD2    N114480   4.674   3.002  14.533  0.0630  0.0266 -0.5774
    6MPD2    H714481   0.014   3.055  14.569  0.3059 -0.9440  0.3164
  945NH4     N114482   4.228   0.842  12.065  0.2847 -0.0611  0.2267
  945NH4     H214483   4.151   0.887  12.009  0.9693 -2.3315 -2.5339
  945NH4     H314484   4.301   0.811  11.997  1.3290  1.3292  0.7156
  945NH4     H414485   4.184   0.759  12.109 -1.7827 -1.1002 -3.7030
  945NH4     H514486   4.259   0.913  12.134 -0.5884  0.6940 -0.1439
  946SOD     NA14487   4.167   3.748  14.850  0.0570 -0.0094 -0.4752
  947SOD     NA14488   2.021   2.976  15.688  0.1631  0.0633 -0.1916
  948SOD     NA14489   2.805   1.948  12.948  0.2218 -0.3186  0.0512
  949SOD     NA14490   1.176   4.665  17.078 -0.3771 -0.2368  0.0513
  950SOD     NA14491   0.790   3.855   3.132  0.1983 -0.0728  0.2920
  951SOD     NA14492   0.702   2.410   3.104  0.3921 -0.6556  0.2415
  952SOD     NA14493   0.907   1.876  12.106 -0.3775  0.1527 -0.0882
  953SOL     OW14494   3.326   0.212  11.339 -0.3633  0.0275  0.2846
  953SOL    HW114495   3.383   0.287  11.319 -1.2751  0.3052 -1.3155
  953SOL    HW214496   3.266   0.208  11.264  0.3226 -2.9589 -0.0881
  954SOL     OW14497   3.462   3.151   4.561  0.8918  0.5683 -0.0231
  954SOL    HW114498   3.437   3.099   4.485 -0.8371  0.5768  0.5405
  954SOL    HW214499   3.436   3.240   4.537  1.6175  0.3115 -1.6989
  955SOL     OW14500   3.514   1.243   5.262  0.2150  0.0628 -0.4762
  955SOL    HW114501   3.585   1.303   5.242 -0.9756  1.7715  0.4510
  955SOL    HW214502   3.562   1.161   5.249 -0.2945 -0.3891  0.4919
  956SOL     OW14503   2.926   3.976  14.350 -0.0315  0.3006 -0.2953
  956SOL    HW114504   2.967   3.918  14.414 -0.1851 -0.5265 -0.9469
  956SOL    HW214505   2.970   4.060  14.361 -1.0962  0.6992  0.9108
  957SOL     OW14506   0.722   3.300   8.053 -0.6903 -0.2843 -0.4424
  957SOL    HW114507   0.628   3.322   8.052 -0.1928  1.9268  0.6759
  957SOL    HW214508   0.745   3.347   8.133 -0.7592  0.4706 -0.8634
  958SOL     OW14509   3.997   0.479   4.536 -0.2115 -0.0474 -0.9509
  958SOL    HW114510   3.992   0.501   4.443 -0.1321 -0.7376 -1.1140
  958SOL    HW214511   3.942   0.402   4.546  0.6797 -0.6524 -0.7492
  959SOL     OW14512   3.921   4.388  14.228  0.3949 -0.1728  0.4760
  959SOL    HW114513   3.872   4.470  14.241 -1.1308 -1.2876  1.7305
  959SOL    HW214514   3.883   4.339  14.300 -0.7593 -0.3310 -0.2426
  960SOL     OW14515   0.010   2.281   2.329 -0.4842  0.2962  0.0450
  960SOL    HW114516   4.680   2.314   2.271  1.3655 -2.0075 -3.4472
  960SOL    HW214517   0.012   2.352   2.393 -1.4343 -0.3595  0.8078
  961SOL     OW14518   1.899   2.207  13.926 -0.1662 -0.6278  0.3649
  961SOL    HW114519   1.982   2.160  13.938 -0.6652 -1.6910 -0.3170
  961SOL    HW214520   1.899   2.231  13.834  0.7965 -3.0398 -0.2664
  962SOL     OW14521   0.008   3.509   2.823  0.5198  0.4249  0.2687
  962SOL    HW114522   4.734   3.422   2.862  1.3889 -0.9661 -2.6042
  962SOL    HW214523   4.690   3.504   2.746  0.3367  1.2891  0.3400
  963SOL     OW14524   2.940   2.310   3.578  0.4475  0.3424  0.2106
  963SOL    HW114525   2.849   2.335   3.593  0.3493 -0.0293  0.2297
  963SOL    HW214526   2.931   2.216   3.593  1.4615  0.3512  0.8891
  964SOL     OW14527   4.239   2.995   0.469 -0.2216 -0.7603 -0.2638
  964SOL    HW114528   4.164   2.936   0.476 -0.3834 -0.2255  2.4044
  964SOL    HW214529   4.313   2.952   0.512 -1.4277 -1.8376  0.7048
  965SOL     OW14530   0.658   0.091  13.220 -0.0115  0.3884  0.0787
  965SOL    HW114531   0.704   0.136  13.291  0.5572 -0.1895  0.0798
  965SOL    HW214532   0.734   0.070  13.165 -0.4228 -1.5876  0.2820
  966SOL     OW14533   1.329   1.104   7.208  0.4290  0.3182  0.0619
  966SOL    HW114534   1.316   1.158   7.287  0.1171  0.2605  0.0526
  966SOL    HW214535   1.339   1.175   7.144 -0.4053  0.2421 -0.1530
  967SOL     OW14536   4.341   4.144   1.678  0.4083 -0.6186  0.1513
  967SOL    HW114537   4.334   4.050   1.666  0.4231 -0.7248  0.9939
  967SOL    HW214538   4.267   4.168   1.622 -0.1726 -0.8928  0.8034
  968SOL     OW14539   2.532   2.928  17.399 -0.2859  0.5958 -0.3360
  968SOL    HW114540   2.607   2.896  17.450 -0.8091  0.9078  0.6282
  968SOL    HW214541   2.558   3.014  17.366  2.3703 -0.1426 -0.2010
  969SOL     OW14542   2.927   3.160  12.897  0.3210 -0.2980  0.8202
  969SOL    HW114543   2.859   3.095  12.876  1.1179 -0.4337 -1.3316
  969SOL    HW214544   2.867   3.228  12.927  1.2494  1.2779 -0.9091
  970SOL     OW14545   0.934   1.932   6.059  0.1435  0.1381  0.4202
  970SOL    HW114546   0.848   1.965   6.033  0.3028  0.2571  0.0536
  970SOL    HW214547   0.899   1.860   6.113 -1.9305  2.4499  2.1237
  971SOL     OW14548   3.882   0.955   4.132  0.4163 -0.4219 -0.3814
  971SOL    HW114549   3.862   1.010   4.057  0.0628  2.6135  1.9337
  971SOL    HW214550   3.798   0.951   4.179  0.4639  1.8830 -0.1043
  972SOL     OW14551   2.956   4.103  13.408 -0.0151 -0.2530 -0.5740
  972SOL    HW114552   2.941   4.190  13.372  0.6399 -0.1453 -0.5876
  972SOL    HW214553   2.991   4.064  13.328 -0.8389  0.3733 -1.2436
  973SOL     OW14554   3.179   1.700   5.076  1.5776  0.1563  0.1027
  973SOL    HW114555   3.254   1.739   5.031  2.5257  0.1630  1.6877
  973SOL    HW214556   3.138   1.660   4.999  1.1487 -1.3521  1.1134
  974SOL     OW14557   1.963   4.399   3.027  0.0672 -0.5930 -0.2916
  974SOL    HW114558   1.946   4.310   2.997 -0.6791 -1.2792  2.1023
  974SOL    HW214559   1.909   4.402   3.107  1.0517 -0.4576  0.3726
  975SOL     OW14560   4.097   2.360   3.855  0.1306 -0.0617  0.3904
  975SOL    HW114561   4.182   2.322   3.832 -1.5350 -2.0439 -2.6002
  975SOL    HW214562   4.102   2.374   3.949  1.1049  2.6245 -0.0589
  976SOL     OW14563   0.758   2.503   3.994 -0.0481  0.3512 -0.1594
  976SOL    HW114564   0.678   2.551   3.973 -0.2220 -0.2375 -0.8812
  976SOL    HW214565   0.740   2.415   3.960  0.2987  1.5759 -3.5208
  977SOL     OW14566   3.611   1.012   8.217  0.3169 -0.0985 -0.0649
  977SOL    HW114567   3.634   0.974   8.302  1.2194 -0.4977 -0.4841
  977SOL    HW214568   3.700   1.041   8.197  0.0914 -0.8905 -2.2757
  978SOL     OW14569   0.010   1.789   9.123 -0.4230 -0.3554  0.6762
  978SOL    HW114570   0.008   1.849   9.198 -1.2922  1.6583 -0.9537
  978SOL    HW214571   0.098   1.753   9.110 -1.0727 -1.0824 -1.6407
  979SOL     OW14572   3.832   3.283   6.368  0.3228 -0.0176 -0.2356
  979SOL    HW114573   3.813   3.210   6.309 -0.2435 -1.4833  1.7592
  979SOL    HW214574   3.922   3.269   6.396  0.5649  0.9526 -0.5385
  980SOL     OW14575   4.402   4.166  11.299  0.0973  0.1985 -0.1824
  980SOL    HW114576   4.451   4.209  11.229  0.9426  1.1638  0.9990
  980SOL    HW214577   4.315   4.164  11.258 -0.3527 -2.6847  0.9352
  981SOL     OW14578   4.479   2.579   3.112  0.0583  0.0381 -0.4644
  981SOL    HW114579   4.459   2.670   3.134  0.6331 -0.5744  2.5221
  981SOL    HW214580   4.457   2.537   3.194 -2.7001  0.0312 -1.2183
  982SOL     OW14581   0.514   4.213   6.082 -0.3898 -0.2153 -0.2612
  982SOL    HW114582   0.432   4.165   6.093  0.8937 -2.1049  1.2255
  982SOL    HW214583   0.485   4.271   6.012 -2.7466 -1.5698 -0.4157
  983SOL     OW14584   2.004   3.676   8.166 -0.4105  0.3965 -0.1859
  983SOL    HW114585   2.020   3.624   8.087  1.3899  0.4380  0.1477
  983SOL    HW214586   2.017   3.607   8.230  1.4834  0.3360 -0.6471
  984SOL     OW14587   4.511   1.340   3.658  0.7492 -0.3735 -0.4767
  984SOL    HW114588   4.503   1.277   3.729 -2.7475 -0.8867 -1.3242
  984SOL    HW214589   4.574   1.396   3.703 -0.9495  0.8535  0.3588
  985SOL     OW14590   3.246   2.853   3.081 -0.3700 -0.0481 -0.0761
  985SOL    HW114591   3.315   2.811   3.133 -0.7464 -1.0567 -0.3920
  985SOL    HW214592   3.161   2.827   3.116 -0.0044 -1.3578 -0.1869
  986SOL     OW14593   4.002   1.779   9.407 -0.4378  0.2972 -0.0624
  986SOL    HW114594   3.976   1.729   9.330 -1.5013  1.4241 -0.4307
  986SOL    HW214595   4.093   1.757   9.426 -0.4871 -0.1812 -0.3913
  987SOL     OW14596   0.490   3.795   4.642 -0.2904  0.0093 -0.2822
  987SOL    HW114597   0.414   3.780   4.698 -0.2456 -0.6407 -0.3903
  987SOL    HW214598   0.489   3.891   4.636  2.2353  0.1160  1.3000
  988SOL     OW14599   4.513   0.506   2.323 -0.8207  0.2995 -0.2528
  988SOL    HW114600   4.463   0.548   2.393 -0.3774  2.3252 -1.1219
  988SOL    HW214601   4.601   0.496   2.359 -0.7762 -0.8999 -0.7217
  989SOL     OW14602   0.152   4.109   2.467  0.0169  0.2878  0.0658
  989SOL    HW114603   0.094   4.181   2.440  0.3417  0.0909 -1.1720
  989SOL    HW214604   0.101   4.031   2.446  1.4226 -0.4153 -0.7406
  990SOL     OW14605   1.606   1.136   6.707 -0.0349  0.5991 -0.7453
  990SOL    HW114606   1.694   1.119   6.740 -2.3354 -3.4491  3.2133
  990SOL    HW214607   1.568   1.200   6.768  0.0119 -1.0337  0.9790
  991SOL     OW14608   1.907   3.670  11.574 -0.2607  0.3791  0.3617
  991SOL    HW114609   1.941   3.720  11.647  0.3576  1.1017 -0.4185
  991SOL    HW214610   1.912   3.736  11.504 -2.0435 -1.0527 -1.1277
  992SOL     OW14611   4.087   1.555  12.453 -0.3482  0.2309 -0.0417
  992SOL    HW114612   4.178   1.527  12.461 -1.0851 -1.7735  1.3904
  992SOL    HW214613   4.067   1.573  12.545 -1.8010  0.1648 -0.3532
  993SOL     OW14614   4.656   2.595   8.799  0.0383 -0.5214  0.6086
  993SOL    HW114615   4.595   2.553   8.738  0.8333  1.8927 -1.8256
  993SOL    HW214616   4.651   2.541   8.878  2.9069 -2.0833 -0.2954
  994SOL     OW14617   4.512   2.815  17.079  0.2024 -0.0756 -0.1144
  994SOL    HW114618   4.573   2.747  17.105 -0.1447 -0.8717 -1.3753
  994SOL    HW214619   4.549   2.853  16.999  0.8692 -1.3325 -0.4008
  995SOL     OW14620   0.492   4.214  14.251 -0.3746  0.2554  0.2675
  995SOL    HW114621   0.434   4.278  14.293  1.7753  3.0629 -0.9855
  995SOL    HW214622   0.494   4.250  14.162 -2.3265  1.7572  0.8171
  996SOL     OW14623   3.309   0.427   8.866 -0.4498 -0.1944 -0.1118
  996SOL    HW114624   3.355   0.460   8.789  1.1376 -0.8677  0.5402
  996SOL    HW214625   3.306   0.335   8.840 -3.6016 -0.1616  0.1699
  997SOL     OW14626   0.125   1.984   3.674 -0.3133 -0.2367  0.4657
  997SOL    HW114627   0.091   1.894   3.680 -2.8342  0.5500 -2.0471
  997SOL    HW214628   0.146   1.992   3.582  1.0651  0.7822  0.8742
  998SOL     OW14629   2.018   3.157   8.006  0.1132 -0.7317  0.4573
  998SOL    HW114630   2.085   3.125   7.945  0.3117 -1.6368  1.1587
  998SOL    HW214631   1.950   3.193   7.949 -1.7624 -0.1867  3.0319
  999SOL     OW14632   1.727   1.114  17.582  0.0061  0.0323  0.0292
  999SOL    HW114633   1.693   1.028  17.559 -0.5643 -0.0197  1.0874
  999SOL    HW214634   1.652   1.167  17.609 -0.7110 -1.0090  0.0894
 1000SOL     OW14635   1.666   3.554   8.927  0.2777  0.7020  0.7510
 1000SOL    HW114636   1.603   3.483   8.934  2.0737 -0.5946  3.3360
 1000SOL    HW214637   1.743   3.516   8.885  0.4131  0.4886  1.2016
 1001SOL     OW14638   3.487   3.707  16.561 -0.6265  0.2533 -0.4126
 1001SOL    HW114639   3.424   3.758  16.612 -0.6906  0.5493 -0.7863
 1001SOL    HW214640   3.458   3.616  16.571 -0.0363  0.3217  1.9320
 1002SOL     OW14641   1.718   4.584   5.109  0.2271 -0.3509 -0.2008
 1002SOL    HW114642   1.751   4.538   5.186 -0.9872 -0.7292  0.0978
 1002SOL    HW214643   1.685   4.508   5.061 -0.4986 -0.0921 -0.1212
 1003SOL     OW14644   0.950   0.038   5.221  0.0566 -0.0993  0.4168
 1003SOL    HW114645   1.000   0.117   5.240 -1.4861  1.0666 -0.3955
 1003SOL    HW214646   1.025   4.732   5.182 -0.2611 -0.6935  0.4818
 1004SOL     OW14647   0.192   0.417   3.496  0.2663  0.0387  0.3696
 1004SOL    HW114648   0.104   0.453   3.486  0.1630  0.0653  1.3402
 1004SOL    HW214649   0.235   0.478   3.437 -0.6849  1.1355  0.8148
 1005SOL     OW14650   3.829   1.689   4.605 -0.6444 -0.0631  0.3913
 1005SOL    HW114651   3.794   1.613   4.558 -0.8452  0.2615  0.0172
 1005SOL    HW214652   3.829   1.660   4.696  0.4147  1.0330  0.7426
 1006SOL     OW14653   4.231   3.954   6.118  0.3833  0.1159 -0.0468
 1006SOL    HW114654   4.235   3.929   6.025  1.0276 -0.9186  0.2583
 1006SOL    HW214655   4.225   3.865   6.154 -0.8362  0.1801 -0.0921
 1007SOL     OW14656   2.391   4.660   6.681 -0.3789 -0.6399  0.0321
 1007SOL    HW114657   2.434   4.677   6.765  0.8945  0.2560 -0.7947
 1007SOL    HW214658   2.306   4.696   6.705 -0.4180  0.8652 -2.3996
 1008SOL     OW14659   0.124   0.323   3.015  0.0292  0.5453 -0.0718
 1008SOL    HW114660   0.113   0.413   3.047  1.2878  0.7159 -0.1341
 1008SOL    HW214661   0.218   0.311   3.028 -0.5536 -2.1172  1.7466
 1009SOL     OW14662   2.199   1.555   8.258 -0.3754  0.1106 -0.0962
 1009SOL    HW114663   2.286   1.515   8.259 -0.7003 -0.5999  0.0186
 1009SOL    HW214664   2.234   1.644   8.262 -1.7498  0.6789 -0.7215
 1010SOL     OW14665   1.493   2.491   4.531  0.4656  0.0474  0.2443
 1010SOL    HW114666   1.407   2.458   4.505  0.6510  0.2512 -0.6144
 1010SOL    HW214667   1.519   2.422   4.593 -1.2384 -0.2592  0.6336
 1011SOL     OW14668   2.855   2.626  11.002  0.2916 -0.0581  0.2039
 1011SOL    HW114669   2.827   2.648  10.914 -0.6386 -1.7443  0.0741
 1011SOL    HW214670   2.943   2.589  10.998 -0.0449 -0.9443  0.8504
 1012SOL     OW14671   2.513   1.010   8.228  0.3234 -0.0278  0.3770
 1012SOL    HW114672   2.566   0.946   8.276 -0.7175 -0.2927  1.1628
 1012SOL    HW214673   2.444   0.968   8.178  1.5608 -1.0395 -0.4880
 1013SOL     OW14674   0.305   0.095   2.346 -0.1289 -0.0815 -0.5740
 1013SOL    HW114675   0.352   0.121   2.425  0.0058 -0.1003 -0.6470
 1013SOL    HW214676   0.358   0.018   2.324  3.0579  2.1299 -0.5473
 1014SOL     OW14677   0.404   3.571  12.273 -0.1898 -0.3378  0.2687
 1014SOL    HW114678   0.316   3.566  12.237 -0.6500  0.5195  1.2729
 1014SOL    HW214679   0.447   3.508  12.215 -0.0941 -0.5892  0.6164
 1015SOL     OW14680   2.758   0.807   7.492  0.4733  0.1824 -0.4913
 1015SOL    HW114681   2.694   0.741   7.465 -0.5922  0.4901  1.2368
 1015SOL    HW214682   2.708   0.889   7.499  2.1467  1.0895  0.7485
 1016SOL     OW14683   0.590   4.144   5.804 -0.1951 -0.0132 -0.2286
 1016SOL    HW114684   0.644   4.112   5.876 -1.0782 -0.2764  0.3131
 1016SOL    HW214685   0.577   4.237   5.822 -1.6034 -0.4320  0.8971
 1017SOL     OW14686   1.555   0.006   2.659 -0.6107  0.0833  0.2259
 1017SOL    HW114687   1.572   4.732   2.752 -1.3700 -3.9188 -0.1973
 1017SOL    HW214688   1.635   0.052   2.635 -0.5692 -0.3750 -0.5154
 1018SOL     OW14689   4.249   3.263   3.477  0.0548 -0.0513 -0.0771
 1018SOL    HW114690   4.333   3.233   3.444  0.1369 -1.1542  1.1836
 1018SOL    HW214691   4.248   3.289   3.569  0.0210 -0.5463  0.0592
 1019SOL     OW14692   1.177   4.319  17.282  0.1610 -0.5785  0.2831
 1019SOL    HW114693   1.237   4.322  17.356  0.2215  2.0785  0.1227
 1019SOL    HW214694   1.110   4.386  17.293  1.0970  0.6560 -1.4386
 1020SOL     OW14695   3.549   0.163   2.789  0.4171 -0.0101  0.4727
 1020SOL    HW114696   3.525   0.249   2.755  0.0847 -1.0169 -1.8854
 1020SOL    HW214697   3.630   0.137   2.744  0.6690  0.2371  0.7872
 1021SOL     OW14698   4.269   3.876   1.694  0.0802 -0.1380 -0.2039
 1021SOL    HW114699   4.230   3.830   1.769 -0.7320  0.3607 -0.3271
 1021SOL    HW214700   4.195   3.883   1.635  0.7839 -1.4950 -1.2554
 1022SOL     OW14701   4.139   2.457   4.935 -0.4847  0.2379 -0.3936
 1022SOL    HW114702   4.106   2.539   4.971  0.9361  0.3109  0.7710
 1022SOL    HW214703   4.189   2.432   5.013 -0.8094 -0.0916 -0.2945
 1023SOL     OW14704   4.530   3.103   4.422  0.4654 -0.4365 -0.4474
 1023SOL    HW114705   4.586   3.126   4.496  0.6848  2.2716 -1.4626
 1023SOL    HW214706   4.502   3.184   4.380 -1.7906 -0.6091  0.6927
 1024SOL     OW14707   0.153   2.276  11.901  0.1944  0.1899  0.4079
 1024SOL    HW114708   0.160   2.251  11.993 -0.8824  0.9582  0.6891
 1024SOL    HW214709   0.091   2.349  11.905 -0.4703 -0.3236 -0.4177
 1025SOL     OW14710   3.266   1.501   5.247 -0.3705  0.2312 -0.2355
 1025SOL    HW114711   3.178   1.464   5.242  0.0840 -0.7399 -0.9867
 1025SOL    HW214712   3.265   1.543   5.161  1.1066 -1.6517 -1.1677
 1026SOL     OW14713   4.392   4.365   6.345  0.1616 -0.3333 -0.5787
 1026SOL    HW114714   4.404   4.280   6.302 -1.8327 -1.3920  0.9557
 1026SOL    HW214715   4.401   4.329   6.433 -1.0094  0.1200 -0.2778
 1027SOL     OW14716   0.463   0.509   1.125 -0.3198  0.1086  0.0797
 1027SOL    HW114717   0.374   0.539   1.104 -1.2027 -1.7103  1.1741
 1027SOL    HW214718   0.483   0.571   1.196  0.3951 -1.2160  1.0210
 1028SOL     OW14719   3.105   2.133   1.889 -0.0986 -0.5093 -0.2323
 1028SOL    HW114720   3.071   2.149   1.977  1.7226 -2.8512  0.9122
 1028SOL    HW214721   3.172   2.201   1.888  0.2024 -0.8332 -1.5269
 1029SOL     OW14722   0.467   2.661   1.518 -0.0695  0.2097 -0.1093
 1029SOL    HW114723   0.540   2.659   1.456  2.0925  2.0993  2.4087
 1029SOL    HW214724   0.404   2.616   1.462 -0.9676  3.2279 -1.5282
 1030SOL     OW14725   3.921   0.194   1.634  0.0253 -0.1346 -0.5383
 1030SOL    HW114726   4.004   0.241   1.623  0.6068 -0.8668  0.7061
 1030SOL    HW214727   3.866   0.271   1.616 -1.0312 -0.5661  0.8192
 1031SOL     OW14728   2.587   0.588   7.455 -0.2419  0.0179  0.0134
 1031SOL    HW114729   2.598   0.553   7.543  1.8027 -0.2497 -0.3457
 1031SOL    HW214730   2.649   0.538   7.403 -1.6105  0.3513 -1.9473
 1032SOL     OW14731   3.312   2.457   6.215 -0.0040 -0.2075  0.0667
 1032SOL    HW114732   3.227   2.416   6.233 -0.0252  0.6522  1.8840
 1032SOL    HW214733   3.369   2.411   6.275  0.0683  0.4071  0.4681
 1033SOL     OW14734   1.657   1.566   2.718 -0.2909 -0.7109  0.0062
 1033SOL    HW114735   1.594   1.494   2.729 -0.1228 -0.6034  1.7251
 1033SOL    HW214736   1.619   1.632   2.776 -1.8491 -0.0764 -1.7160
 1034SOL     OW14737   3.254   2.416   5.260 -0.0954  0.2641  0.1610
 1034SOL    HW114738   3.178   2.379   5.214 -0.6977 -1.8072  2.7912
 1034SOL    HW214739   3.238   2.508   5.241 -0.6358  0.0914 -0.2137
 1035SOL     OW14740   4.523   3.803   5.979 -0.6225 -0.2805 -0.3654
 1035SOL    HW114741   4.537   3.897   5.979  4.0878 -0.9950 -1.3338
 1035SOL    HW214742   4.554   3.791   6.069 -1.9610 -0.4792  0.0771
 1036SOL     OW14743   0.670   2.543   0.862 -0.3780  0.2223 -1.0550
 1036SOL    HW114744   0.674   2.533   0.766 -1.5753 -2.3755 -0.8236
 1036SOL    HW214745   0.604   2.475   0.875  1.3092 -0.7609  2.0972
 1037SOL     OW14746   0.236   3.390  17.136 -1.1197 -1.0851 -0.1458
 1037SOL    HW114747   0.310   3.417  17.191  0.5575 -0.6785 -2.5839
 1037SOL    HW214748   0.268   3.420  17.051  0.4308 -2.7348 -0.1511
 1038SOL     OW14749   3.141   4.345   7.592  0.3159 -0.1022  0.0578
 1038SOL    HW114750   3.179   4.259   7.575 -1.9775 -1.0073 -0.4096
 1038SOL    HW214751   3.222   4.393   7.611  2.0721 -2.5526 -1.2764
 1039SOL     OW14752   2.491   2.983   8.658 -0.3300  0.3084 -0.7982
 1039SOL    HW114753   2.559   2.923   8.628  0.7354  1.1910 -0.1652
 1039SOL    HW214754   2.429   2.964   8.588 -1.3811 -0.7599  0.4238
 1040SOL     OW14755   4.111   1.853   9.748 -0.4788  0.0270 -0.2151
 1040SOL    HW114756   4.128   1.785   9.814 -1.1302 -0.5412 -0.6246
 1040SOL    HW214757   4.148   1.832   9.663 -0.4024 -0.3486 -0.0933
 1041SOL     OW14758   1.800   4.128   2.257  0.3059  0.2138  0.1241
 1041SOL    HW114759   1.856   4.202   2.234  1.4129  0.1245  2.6403
 1041SOL    HW214760   1.721   4.172   2.290 -0.4836 -2.1366  1.3595
 1042SOL     OW14761   4.276   1.893   1.801  0.0388 -0.2213 -0.0226
 1042SOL    HW114762   4.208   1.863   1.860 -0.7949  0.8274 -0.4388
 1042SOL    HW214763   4.226   1.878   1.720 -2.5317 -0.3485  1.6012
 1043SOL     OW14764   3.051   2.454   4.621  0.2770  0.7560 -0.0511
 1043SOL    HW114765   2.973   2.460   4.676  0.3897  3.2365 -0.1421
 1043SOL    HW214766   3.028   2.530   4.567 -2.7618  1.9391  2.9051
 1044SOL     OW14767   0.014   0.977   3.796 -0.1462  0.3369 -0.5080
 1044SOL    HW114768   0.014   0.881   3.793  0.0174  0.3111  0.5181
 1044SOL    HW214769   4.660   0.989   3.772 -0.1181 -0.9825 -1.2577
 1045SOL     OW14770   3.905   3.742   5.863  0.5217 -0.1987 -0.0574
 1045SOL    HW114771   3.904   3.660   5.813  1.3774  1.1380 -2.2676
 1045SOL    HW214772   3.821   3.785   5.846 -0.3895 -0.7752  2.9738
 1046SOL     OW14773   4.291   3.213   5.446 -0.0377 -0.3319  0.1800
 1046SOL    HW114774   4.341   3.279   5.399 -0.5148  0.9329  1.4759
 1046SOL    HW214775   4.210   3.263   5.449  0.8140  1.0210  0.2485
 1047SOL     OW14776   4.207   2.928   5.511 -0.5468 -0.4273  0.6333
 1047SOL    HW114777   4.120   2.888   5.502  0.1243 -1.8773  0.5628
 1047SOL    HW214778   4.200   3.008   5.562 -1.0621 -1.0117  1.4733
 1048SOL     OW14779   4.040   1.334  15.222 -0.2916 -0.8588  0.5561
 1048SOL    HW114780   4.026   1.337  15.127 -1.5409  1.0550  0.7941
 1048SOL    HW214781   3.993   1.413  15.252 -1.3555 -0.6248 -1.7494
 1049SOL     OW14782   3.794   3.078   6.167  0.0188 -0.3961  0.5137
 1049SOL    HW114783   3.851   3.001   6.172 -1.1354 -1.3444 -1.0399
 1049SOL    HW214784   3.729   3.050   6.102 -0.6178  0.5560  0.7328
 1050SOL     OW14785   0.701   4.546   2.829  0.0052  0.1265  0.4356
 1050SOL    HW114786   0.742   4.580   2.749 -1.0370 -0.5027 -0.3712
 1050SOL    HW214787   0.779   4.519   2.876  0.1702  0.0321  0.1032
 1051SOL     OW14788   0.915   3.772   8.849  0.2114  0.3629  0.2445
 1051SOL    HW114789   0.878   3.732   8.770  0.5559 -1.4491  1.0233
 1051SOL    HW214790   1.004   3.741   8.833 -0.7449 -2.2134 -0.1309
 1052SOL     OW14791   2.733   3.186   4.346 -0.6771 -0.3663  0.2882
 1052SOL    HW114792   2.799   3.240   4.388  0.2154 -0.6661 -0.7222
 1052SOL    HW214793   2.786   3.107   4.346 -0.5361 -0.2628 -1.8619
 1053SOL     OW14794   3.721   0.837   7.997 -0.0969  0.1813 -0.4964
 1053SOL    HW114795   3.771   0.759   8.019 -1.3903 -0.9771 -1.6402
 1053SOL    HW214796   3.684   0.860   8.082  1.3563  3.4053 -0.7206
 1054SOL     OW14797   3.938   0.591   5.797 -0.7067  0.3634 -0.4982
 1054SOL    HW114798   3.911   0.551   5.714 -1.0055  0.9021 -0.6638
 1054SOL    HW214799   3.864   0.569   5.854  0.4718 -0.9620  0.5207
 1055SOL     OW14800   3.298   2.009  16.315  0.0230  0.1703 -0.0596
 1055SOL    HW114801   3.233   1.973  16.375 -0.3294 -1.6611 -1.5472
 1055SOL    HW214802   3.340   2.076  16.369  1.8984  0.0348 -1.3407
 1056SOL     OW14803   3.284   3.862   5.207  0.4553 -0.1457  0.5137
 1056SOL    HW114804   3.255   3.936   5.153 -0.2838 -1.4786 -0.8844
 1056SOL    HW214805   3.213   3.868   5.272 -0.1652  0.0190 -0.1836
 1057SOL     OW14806   2.043   2.399  14.937  0.6917 -0.6968 -0.2649
 1057SOL    HW114807   1.985   2.393  14.860 -0.1745  1.0342  0.2463
 1057SOL    HW214808   2.017   2.319  14.982 -2.3753  1.5963  2.0387
 1058SOL     OW14809   1.791   1.742  12.020 -0.0119  0.1443 -0.5267
 1058SOL    HW114810   1.848   1.686  11.968  0.7646  1.6261 -1.2876
 1058SOL    HW214811   1.835   1.825  11.999  3.4677 -1.4294  0.5960
 1059SOL     OW14812   4.354   2.305   7.445  0.4615 -0.1233 -0.0422
 1059SOL    HW114813   4.438   2.328   7.486  0.1669  0.6067  0.1494
 1059SOL    HW214814   4.378   2.225   7.397 -1.2604 -0.7500  0.1674
 1060SOL     OW14815   3.498   1.296   7.412  0.7337  0.2968 -0.0654
 1060SOL    HW114816   3.578   1.320   7.457  0.8232 -0.8378  0.4026
 1060SOL    HW214817   3.430   1.356   7.442  1.5516  0.6574  1.0825
 1061SOL     OW14818   0.248   1.717   6.572 -0.2084 -0.1262 -0.1875
 1061SOL    HW114819   0.259   1.624   6.594 -2.2419  0.0629  1.6528
 1061SOL    HW214820   0.296   1.757   6.644 -1.6466  1.3115 -0.0203
 1062SOL     OW14821   0.525   2.106  12.471 -0.0493 -0.0487 -0.1772
 1062SOL    HW114822   0.615   2.092  12.444  1.0970  0.3755  3.4402
 1062SOL    HW214823   0.515   2.040  12.540  0.3280 -0.0648 -0.1380
 1063SOL     OW14824   1.215   1.363  17.012  0.0470  0.6974 -0.0464
 1063SOL    HW114825   1.292   1.326  17.056 -0.3611 -1.6066 -1.2669
 1063SOL    HW214826   1.226   1.329  16.923 -1.4933 -0.6906  0.2995
 1064SOL     OW14827   2.667   3.263  14.439  0.1386  0.4817  0.4945
 1064SOL    HW114828   2.662   3.300  14.527  1.9277  0.5037  0.5801
 1064SOL    HW214829   2.668   3.170  14.462  1.2623  0.5426  0.7008
 1065SOL     OW14830   4.255   4.566  12.356 -0.1206  0.0520  0.4766
 1065SOL    HW114831   4.273   4.654  12.387  0.5947  0.0921 -0.0658
 1065SOL    HW214832   4.203   4.522  12.424  0.1455  0.0612  0.6863
 1066SOL     OW14833   0.601   0.424   8.256  0.9360  0.5493  0.6088
 1066SOL    HW114834   0.583   0.338   8.296  2.0175 -0.4514 -1.0517
 1066SOL    HW214835   0.666   0.397   8.192  3.4971  2.3161  2.4905
 1067SOL     OW14836   1.368   0.128   8.118 -0.3147 -0.3325 -0.3348
 1067SOL    HW114837   1.435   0.162   8.058 -1.4476  1.8206 -0.3651
 1067SOL    HW214838   1.324   0.058   8.069 -2.3203  1.0809 -0.5357
 1068SOL     OW14839   1.619   3.482   0.643 -0.9754  0.1378 -0.6448
 1068SOL    HW114840   1.608   3.471   0.549 -0.5020  0.3080 -0.7242
 1068SOL    HW214841   1.708   3.446   0.654 -0.2687  2.5140  1.3793
 1069SOL     OW14842   1.602   3.419   5.432 -0.3782  0.1252 -0.3525
 1069SOL    HW114843   1.627   3.478   5.502  3.2370 -1.0626 -0.6324
 1069SOL    HW214844   1.604   3.336   5.480 -0.1620  0.4260  0.1424
 1070SOL     OW14845   2.506   2.600   9.055  0.4356 -0.1924  0.5396
 1070SOL    HW114846   2.459   2.520   9.031  1.5155 -1.3507  2.2640
 1070SOL    HW214847   2.467   2.659   8.991 -1.0446 -0.2378  1.4158
 1071SOL     OW14848   1.246   1.417   3.024 -0.5904 -0.1717  0.7197
 1071SOL    HW114849   1.176   1.353   3.023  0.9184 -1.7952 -0.6435
 1071SOL    HW214850   1.240   1.451   3.114  1.0862  0.4188  0.6092
 1072SOL     OW14851   3.836   4.618   6.003 -0.1677  0.3768  0.5785
 1072SOL    HW114852   3.855   4.658   6.088 -0.0852  1.9992 -0.2148
 1072SOL    HW214853   3.921   4.579   5.981  0.8946  2.1185  1.5255
 1073SOL     OW14854   2.343   4.530   1.117  0.1162  0.1149 -0.1396
 1073SOL    HW114855   2.271   4.497   1.061  0.3263 -0.3316 -0.1507
 1073SOL    HW214856   2.422   4.495   1.077 -0.9696 -2.8430  0.2872
 1074SOL     OW14857   0.812   2.107   8.648 -0.3408  0.0161 -0.0276
 1074SOL    HW114858   0.786   2.028   8.599 -1.9731  0.0048  0.8537
 1074SOL    HW214859   0.726   2.146   8.666 -0.5793 -1.4030  1.9205
 1075SOL     OW14860   1.582   0.141   5.773 -0.6320  0.1251 -0.1458
 1075SOL    HW114861   1.601   0.047   5.771 -0.1525  0.1283  4.0913
 1075SOL    HW214862   1.555   0.160   5.683  2.6372 -2.6191 -1.7048
 1076SOL     OW14863   3.553   2.232   3.727 -0.0929 -0.0343  0.1594
 1076SOL    HW114864   3.646   2.250   3.738  0.0877 -1.1755  0.5207
 1076SOL    HW214865   3.525   2.320   3.751  0.1163  0.0616  0.0490
 1077SOL     OW14866   2.634   3.045  10.893  0.1330  0.0967 -0.0955
 1077SOL    HW114867   2.711   3.085  10.933 -0.5626 -0.3370  1.6743
 1077SOL    HW214868   2.663   2.958  10.865 -1.1478 -0.7081  1.0560
 1078SOL     OW14869   3.330   0.038   6.242 -0.8048 -0.2321 -0.1996
 1078SOL    HW114870   3.300   4.736   6.161 -1.2974  1.0678 -0.6562
 1078SOL    HW214871   3.404   0.089   6.210 -0.3053 -1.4046 -0.9376
 1079SOL     OW14872   0.534   3.290   3.788  0.3519  0.1551  0.4199
 1079SOL    HW114873   0.629   3.282   3.796  0.3495  0.8002  1.1029
 1079SOL    HW214874   0.518   3.254   3.700  1.1185  1.1741 -0.1324
 1080SOL     OW14875   3.456   1.770   9.603 -0.0821 -0.1204 -0.2383
 1080SOL    HW114876   3.471   1.680   9.631  3.0901  1.0512  1.8517
 1080SOL    HW214877   3.372   1.768   9.557 -0.4797 -1.2368  0.5417
 1081SOL     OW14878   4.109   0.488   7.584 -0.4842  0.1711 -0.1629
 1081SOL    HW114879   4.173   0.436   7.535 -1.5138 -0.8210 -0.4663
 1081SOL    HW214880   4.054   0.517   7.511 -1.2694 -1.1285 -0.0956
 1082SOL     OW14881   2.113   0.858  13.200 -0.1916  0.4778  0.0704
 1082SOL    HW114882   2.171   0.876  13.127 -1.5316 -0.1994 -1.1734
 1082SOL    HW214883   2.045   0.820  13.145 -1.1158 -0.9220  2.1493
 1083SOL     OW14884   1.912   0.314   8.202 -0.1682 -0.4180 -0.8272
 1083SOL    HW114885   1.887   0.222   8.216  0.1497 -0.6486 -1.7820
 1083SOL    HW214886   1.995   0.297   8.158 -0.2323 -0.9252 -0.7571
 1084SOL     OW14887   1.458   0.281   6.894 -0.5185 -0.1308  0.7797
 1084SOL    HW114888   1.397   0.355   6.888  1.0078  1.1344  0.9119
 1084SOL    HW214889   1.456   0.265   6.989 -0.3593  1.4179  1.0503
 1085SOL     OW14890   1.944   1.860   1.426 -0.3253  0.8471  0.0435
 1085SOL    HW114891   1.913   1.949   1.408 -0.2059  0.7062 -0.8517
 1085SOL    HW214892   1.866   1.805   1.439 -0.2616  0.4114 -1.4053
 1086SOL     OW14893   2.584   4.569   9.682  0.7663 -0.5572  0.0283
 1086SOL    HW114894   2.612   4.477   9.675  0.1400 -0.8264  1.1978
 1086SOL    HW214895   2.613   4.595   9.769  0.4254  2.4788 -0.7746
 1087SOL     OW14896   4.304   0.621  16.221  0.2751 -0.1876 -0.1814
 1087SOL    HW114897   4.350   0.699  16.190 -3.1930  2.5732  1.6098
 1087SOL    HW214898   4.215   0.654  16.237 -0.1976 -2.6538  2.3125
 1088SOL     OW14899   1.405   0.159   7.466 -0.3233 -0.1416  0.5697
 1088SOL    HW114900   1.394   0.172   7.560 -0.0227  0.8125  0.4762
 1088SOL    HW214901   1.401   0.247   7.429 -0.4449 -0.7503 -0.8833
 1089SOL     OW14902   2.432   0.070   2.690 -0.4156 -0.4560  0.1833
 1089SOL    HW114903   2.366   0.113   2.637 -0.3805 -1.4339 -0.6614
 1089SOL    HW214904   2.460   0.141   2.748 -1.2261  0.2264 -0.2646
 1090SOL     OW14905   2.923   3.036  15.234 -0.0249  0.3520  0.2486
 1090SOL    HW114906   2.928   3.078  15.320  0.5796  1.0228 -0.1127
 1090SOL    HW214907   2.953   3.108  15.179  0.3073  1.3376  1.7398
 1091SOL     OW14908   4.255   2.801   8.414 -0.0807 -0.3327  0.4869
 1091SOL    HW114909   4.205   2.793   8.495 -1.6855  4.1432 -0.0885
 1091SOL    HW214910   4.247   2.712   8.380 -1.5125  0.0210 -0.0903
 1092SOL     OW14911   4.307   4.383   4.786 -0.0579 -0.2889 -0.0951
 1092SOL    HW114912   4.396   4.414   4.807  0.2552 -0.3643 -1.3097
 1092SOL    HW214913   4.303   4.310   4.848 -0.2833  1.8794  2.4548
 1093SOL     OW14914   1.683   3.575   4.644 -0.1443 -0.4853  0.1635
 1093SOL    HW114915   1.666   3.532   4.727  0.0391 -1.2232 -0.1793
 1093SOL    HW214916   1.607   3.550   4.592 -1.6189  2.5701  0.8828
 1094SOL     OW14917   1.993   0.742   8.379 -0.3008  0.6891 -0.3323
 1094SOL    HW114918   1.957   0.653   8.379 -1.6452  1.2495  2.2663
 1094SOL    HW214919   1.964   0.779   8.295  0.3232  1.7302 -0.0836
 1095SOL     OW14920   2.835   0.505   8.868 -0.1496  0.1986 -0.1933
 1095SOL    HW114921   2.799   0.513   8.957 -0.0102  0.8421 -0.1933
 1095SOL    HW214922   2.926   0.477   8.880  0.3661  1.5219 -1.0530
 1096SOL     OW14923   3.934   1.973   3.252 -0.6103  0.8176  0.3586
 1096SOL    HW114924   3.952   2.021   3.333  0.9786 -0.3823  0.7158
 1096SOL    HW214925   4.020   1.954   3.216 -0.8254  0.3106  0.1176
 1097SOL     OW14926   0.361   2.319   5.263 -0.4551  0.3607  0.1892
 1097SOL    HW114927   0.314   2.396   5.297 -0.6264 -0.4254  1.7180
 1097SOL    HW214928   0.451   2.343   5.285 -0.3289 -1.5399  1.6957
 1098SOL     OW14929   0.832   4.343   2.091  0.7774  0.1925 -0.2245
 1098SOL    HW114930   0.744   4.349   2.126  0.6025  2.1797 -1.0205
 1098SOL    HW214931   0.876   4.423   2.120  0.2768  0.7945 -1.1300
 1099SOL     OW14932   0.489   0.875   6.462 -0.2112 -0.4283 -0.0435
 1099SOL    HW114933   0.455   0.937   6.526  1.1933  1.5755 -1.2287
 1099SOL    HW214934   0.580   0.902   6.451 -0.7928  1.9321  0.9417
 1100SOL     OW14935   4.716   1.570   1.267 -0.1220  0.3182  0.3074
 1100SOL    HW114936   0.059   1.573   1.318  1.2455  2.5751 -1.9735
 1100SOL    HW214937   4.734   1.499   1.206  1.8568  1.1646 -0.1242
 1101SOL     OW14938   1.984   0.095   0.515  0.3647 -0.0856 -0.4088
 1101SOL    HW114939   2.044   0.036   0.559 -0.2464  0.2070  0.8021
 1101SOL    HW214940   2.050   0.138   0.460  1.0643  0.7839  1.1224
 1102SOL     OW14941   0.790   1.536   4.547  0.1053  0.0523  0.0271
 1102SOL    HW114942   0.866   1.510   4.600 -0.3019 -1.3922 -0.1019
 1102SOL    HW214943   0.734   1.459   4.548  1.7427 -1.1624 -1.0714
 1103SOL     OW14944   3.627   2.734   6.035 -0.0258 -0.0948  0.1427
 1103SOL    HW114945   3.553   2.677   6.012 -0.1572  1.2718 -2.7622
 1103SOL    HW214946   3.593   2.821   6.015 -1.2215 -0.1014  2.1531
 1104SOL     OW14947   3.463   0.467   7.160  0.1848  0.0783 -0.2731
 1104SOL    HW114948   3.416   0.406   7.217 -0.3434 -0.0282 -0.8326
 1104SOL    HW214949   3.556   0.462   7.184  0.6106  0.8835 -1.8076
 1105SOL     OW14950   3.351   1.686   8.497 -0.7596  0.2850 -0.4002
 1105SOL    HW114951   3.350   1.595   8.527  1.5175  0.9630  1.7442
 1105SOL    HW214952   3.343   1.685   8.402  3.1554  1.4936 -0.7345
 1106SOL     OW14953   1.831   4.237   7.719 -0.1708 -0.4766 -0.0171
 1106SOL    HW114954   1.784   4.155   7.729 -1.0622 -0.0422 -0.6596
 1106SOL    HW214955   1.859   4.252   7.809  0.8492  1.9364 -0.7260
 1107SOL     OW14956   1.418   3.257   0.568 -0.1905  0.1024 -0.9899
 1107SOL    HW114957   1.425   3.215   0.482  0.2365  2.1676 -1.9692
 1107SOL    HW214958   1.387   3.182   0.619  1.2954  0.1965  0.0589
 1108SOL     OW14959   2.036   3.889   4.265  0.0975 -0.0926  0.4685
 1108SOL    HW114960   2.040   3.910   4.172 -1.9982  0.1764  0.4398
 1108SOL    HW214961   2.126   3.885   4.296  1.3391 -0.5560 -3.1378
 1109SOL     OW14962   4.722   0.184  15.982  0.6363  0.4012 -0.0927
 1109SOL    HW114963   4.669   0.253  16.020  1.0055  0.1078  0.9450
 1109SOL    HW214964   4.669   0.108  16.006 -2.2442  2.2134 -0.7437
 1110SOL     OW14965   3.158   2.531   3.419  0.3015 -0.4923  0.4406
 1110SOL    HW114966   3.144   2.464   3.486  0.9033 -1.9508 -0.8930
 1110SOL    HW214967   3.162   2.607   3.477  0.5627  1.2676 -1.8817
 1111SOL     OW14968   3.654   2.381   1.011  0.1248 -0.3255  0.2546
 1111SOL    HW114969   3.709   2.456   1.035  1.5684 -1.3444  0.0460
 1111SOL    HW214970   3.572   2.398   1.058 -2.6733  0.4872 -4.9246
 1112SOL     OW14971   0.947   0.169  13.820  0.3100  0.6567 -0.4315
 1112SOL    HW114972   0.961   0.227  13.895 -0.1551 -2.4221  2.0459
 1112SOL    HW214973   1.040   0.153  13.801  0.6598 -0.5439  2.2455
 1113SOL     OW14974   0.500   1.741   5.738  0.1259  0.5190  0.1758
 1113SOL    HW114975   0.451   1.783   5.667 -0.2759 -1.4940 -0.7442
 1113SOL    HW214976   0.581   1.721   5.692 -1.0098  0.8465 -1.9894
 1114SOL     OW14977   1.098   2.782  14.849 -0.8289 -0.0341  0.1611
 1114SOL    HW114978   1.118   2.874  14.830 -0.5083 -0.2939 -0.7106
 1114SOL    HW214979   1.074   2.741  14.766  0.6278 -0.5016 -0.0297
 1115SOL     OW14980   3.341   4.002  14.473 -0.0790  0.1780  0.0560
 1115SOL    HW114981   3.282   4.077  14.471  0.4609  0.5976 -0.2096
 1115SOL    HW214982   3.310   3.958  14.394 -0.4449  0.9876 -0.2460
 1116SOL     OW14983   1.905   3.954   5.399 -0.0610 -0.1350  0.2200
 1116SOL    HW114984   1.867   3.880   5.447 -0.0714 -0.4608 -0.2846
 1116SOL    HW214985   1.992   3.960   5.438  0.8458 -1.9730 -1.4924
 1117SOL     OW14986   1.642   4.423   3.170 -0.4397 -0.2513  0.5220
 1117SOL    HW114987   1.693   4.344   3.186 -0.9214 -1.0915 -2.1489
 1117SOL    HW214988   1.578   4.396   3.104  1.4019  0.2325 -1.4448
 1118SOL     OW14989   0.403   2.848  16.104  0.2136  0.4083  1.0161
 1118SOL    HW114990   0.499   2.847  16.098  0.2404 -0.0131  1.4616
 1118SOL    HW214991   0.375   2.895  16.026  1.5922 -1.8072 -0.8412
 1119SOL     OW14992   2.114   4.217   7.355  0.0226  0.0700  0.3873
 1119SOL    HW114993   2.154   4.130   7.351  2.1949  1.1665 -1.2242
 1119SOL    HW214994   2.107   4.216   7.451 -0.3894 -1.0505  0.3528
 1120SOL     OW14995   1.889   2.484  13.611 -0.0960  0.0718 -0.3680
 1120SOL    HW114996   1.824   2.548  13.583 -1.5943 -1.2328  0.1427
 1120SOL    HW214997   1.923   2.463  13.525  0.7054  0.5999 -0.1789
 1121SOL     OW14998   3.898   4.729   1.001  0.0109  0.2341 -0.4605
 1121SOL    HW114999   3.921   0.084   1.001 -0.8925  0.4582  0.9012
 1121SOL    HW215000   3.927   4.699   0.915 -0.6468  0.6450 -0.8286
 1122SOL     OW15001   2.605   4.127   5.415  0.2672  0.0537  0.1379
 1122SOL    HW115002   2.683   4.154   5.365 -0.5652 -0.6428 -1.5131
 1122SOL    HW215003   2.595   4.190   5.486 -0.0342 -0.7277  0.7731
 1123SOL     OW15004   2.866   3.684   2.775 -0.7150 -0.2135 -0.2363
 1123SOL    HW115005   2.946   3.646   2.811 -0.6282 -2.1446 -2.4198
 1123SOL    HW215006   2.873   3.777   2.795 -1.8538  0.4612 -2.9042
 1124SOL     OW15007   1.529   4.138   1.176 -0.3106  0.1037  0.2493
 1124SOL    HW115008   1.615   4.176   1.154 -0.8985  2.3025  1.8233
 1124SOL    HW215009   1.543   4.048   1.207  1.4874 -0.0328 -0.9206
 1125SOL     OW15010   1.176   0.829   3.732 -0.0952 -0.4623 -0.0279
 1125SOL    HW115011   1.256   0.778   3.749  0.7910  0.2341 -2.1042
 1125SOL    HW215012   1.117   0.804   3.803  2.6874 -2.7405  1.5206
 1126SOL     OW15013   4.412   2.816   3.452  0.3653 -0.1386  0.2599
 1126SOL    HW115014   4.483   2.812   3.517 -1.5881 -2.6937  2.2597
 1126SOL    HW215015   4.359   2.746   3.490  0.8601 -0.4353  0.3960
 1127SOL     OW15016   0.804   2.565   7.755 -0.3560 -0.9831 -0.6793
 1127SOL    HW115017   0.895   2.592   7.767 -1.6291  2.6016  0.8703
 1127SOL    HW215018   0.776   2.619   7.681  3.5505  0.5238 -1.0502
 1128SOL     OW15019   0.068   3.323   3.488  0.1922 -0.0213 -0.1612
 1128SOL    HW115020   0.128   3.366   3.549  0.3675  0.6293 -0.8059
 1128SOL    HW215021   0.017   3.289   3.562 -0.2374  1.1975  0.0884
 1129SOL     OW15022   1.144   3.990   2.292 -0.1934 -0.0651  0.0585
 1129SOL    HW115023   1.197   4.056   2.336  0.5583 -0.9228  0.4360
 1129SOL    HW215024   1.211   3.922   2.287 -0.3353 -0.2422  0.5873
 1130SOL     OW15025   0.122   4.665   4.440  0.2343 -0.2601  0.6960
 1130SOL    HW115026   0.096   4.729   4.374  2.8684 -1.2250 -1.2707
 1130SOL    HW215027   0.080   4.590   4.399 -0.0942 -0.2238  0.9705
 1131SOL     OW15028   1.446   1.023   6.490 -0.3741  0.5458 -0.1010
 1131SOL    HW115029   1.483   0.992   6.573 -2.2361 -2.0186 -0.2453
 1131SOL    HW215030   1.375   1.078   6.523 -0.2856 -0.0134  1.0103
 1132SOL     OW15031   4.437   4.195   1.046  0.1542 -0.0864 -0.2826
 1132SOL    HW115032   4.411   4.184   1.137  0.6078  1.4955  0.0247
 1132SOL    HW215033   4.399   4.116   1.006 -1.3642  0.2110  0.5923
 1133SOL     OW15034   4.090   2.753   9.917 -0.6418 -0.2724 -0.1748
 1133SOL    HW115035   4.078   2.694   9.843  0.8284 -1.3376  0.4358
 1133SOL    HW215036   4.052   2.832   9.878  1.4631  1.3247  1.0384
 1134SOL     OW15037   3.549   1.311   0.406 -0.2182  0.2044 -0.0677
 1134SOL    HW115038   3.569   1.403   0.386 -4.2722  1.4968  1.7902
 1134SOL    HW215039   3.486   1.292   0.336 -0.0639 -1.5833  0.2740
 1135SOL     OW15040   4.635   1.139   7.432 -0.4105 -0.6679 -0.5741
 1135SOL    HW115041   4.674   1.214   7.387  1.4538 -0.8981  0.6414
 1135SOL    HW215042   4.682   1.072   7.381 -0.5487 -1.1846 -0.0188
 1136SOL     OW15043   0.347   0.607  16.497 -0.3647  0.2337  0.4596
 1136SOL    HW115044   0.353   0.512  16.503  4.5136  0.6387  1.8767
 1136SOL    HW215045   0.396   0.617  16.415 -1.7533 -0.6706 -0.4748
 1137SOL     OW15046   0.313   1.312  11.364  0.4657  0.3897  0.3246
 1137SOL    HW115047   0.387   1.272  11.410 -0.4891 -0.7053  0.9108
 1137SOL    HW215048   0.363   1.363  11.301 -0.0796 -1.0476 -1.2564
 1138SOL     OW15049   0.828   4.373   4.048 -0.6800  0.0559 -0.0196
 1138SOL    HW115050   0.772   4.339   3.978 -1.7051  3.4100 -0.8169
 1138SOL    HW215051   0.840   4.463   4.019 -0.0420 -0.5202 -1.5350
 1139SOL     OW15052   1.747   1.500   6.716 -0.1441 -0.7264  0.0166
 1139SOL    HW115053   1.784   1.588   6.721  1.2747 -1.4450  2.4117
 1139SOL    HW215054   1.704   1.510   6.802 -1.5382 -0.5598 -0.7031
 1140SOL     OW15055   3.875   3.799   2.468 -0.5230  0.1670 -0.6916
 1140SOL    HW115056   3.910   3.861   2.405 -1.8368  0.6594 -0.9461
 1140SOL    HW215057   3.783   3.821   2.454 -0.5047  1.1389  0.7009
 1141SOL     OW15058   4.686   0.511  15.726  0.1690 -0.3233 -0.2272
 1141SOL    HW115059   4.689   0.452  15.651  0.1144  0.9280 -1.2243
 1141SOL    HW215060   4.670   0.447  15.794 -1.2759 -0.4064 -0.6464
 1142SOL     OW15061   2.053   0.870   2.041  0.4326 -0.1469  0.1879
 1142SOL    HW115062   2.129   0.929   2.040 -0.2805  0.7780  0.7571
 1142SOL    HW215063   1.992   0.908   2.104 -2.0024 -1.1753 -1.5486
 1143SOL     OW15064   2.749   1.038   1.243 -0.5252  0.4215 -0.2052
 1143SOL    HW115065   2.809   1.004   1.309 -0.6925  0.3268 -0.1020
 1143SOL    HW215066   2.687   0.965   1.234 -0.4089  0.5111 -1.8879
 1144SOL     OW15067   2.732   1.329   5.707  0.2016  0.6038 -0.3867
 1144SOL    HW115068   2.680   1.395   5.751  0.9479  1.2397 -0.4509
 1144SOL    HW215069   2.811   1.348   5.757 -0.3727  1.0119  0.3582
 1145SOL     OW15070   3.961   2.751   5.512  0.1356  0.1193  0.3509
 1145SOL    HW115071   3.917   2.766   5.596  0.9175  1.2706  0.5496
 1145SOL    HW215072   4.009   2.671   5.532 -0.1770  0.0869  0.9842
 1146SOL     OW15073   3.479   3.566  14.834  0.2691  0.1441 -0.6340
 1146SOL    HW115074   3.418   3.633  14.803  1.3419  0.6748 -1.5937
 1146SOL    HW215075   3.531   3.561  14.754  1.5462 -4.4313  0.4686
 1147SOL     OW15076   3.847   2.506   6.544 -0.1583  0.5009  0.4103
 1147SOL    HW115077   3.920   2.504   6.606  0.5353  1.2273 -0.3681
 1147SOL    HW215078   3.888   2.497   6.458 -0.6114  0.8687  0.1564
 1148SOL     OW15079   4.329   1.229   8.149  0.2855  0.0681  0.0220
 1148SOL    HW115080   4.312   1.146   8.194 -0.6025  0.0359 -0.3847
 1148SOL    HW215081   4.295   1.228   8.060 -0.2353 -0.3255  0.2286
 1149SOL     OW15082   1.086   2.165   4.388  0.3973  0.5211 -0.0695
 1149SOL    HW115083   1.040   2.245   4.412  1.5703  0.7292  1.4381
 1149SOL    HW215084   1.170   2.190   4.426  0.7147  0.7396 -0.9280
 1150SOL     OW15085   2.915   0.427   2.030 -0.6651  1.0436  0.3366
 1150SOL    HW115086   2.916   0.347   1.977 -0.7283  2.5543 -1.9436
 1150SOL    HW215087   2.909   0.494   1.962 -0.9708  1.5119  0.8362
 1151SOL     OW15088   3.626   1.493   2.722 -0.0493 -0.6855  0.1383
 1151SOL    HW115089   3.535   1.480   2.694  0.0315 -3.5764  1.2600
 1151SOL    HW215090   3.656   1.417   2.771  1.6010  0.8084  1.4317
 1152SOL     OW15091   1.282   4.174   3.215 -0.2894 -0.6253 -0.0485
 1152SOL    HW115092   1.317   4.117   3.283  0.3167  0.1572  0.2828
 1152SOL    HW215093   1.214   4.224   3.260  0.4156  0.6861 -0.4398
 1153SOL     OW15094   2.067   2.531  13.816 -0.0930 -0.2498 -0.3634
 1153SOL    HW115095   2.118   2.450  13.814 -0.6531 -0.5495 -2.3896
 1153SOL    HW215096   1.995   2.511  13.756 -0.9026  0.8908  0.2347
 1154SOL     OW15097   2.689   1.892   8.470 -0.5844  0.0490  0.3666
 1154SOL    HW115098   2.608   1.883   8.520 -1.2658 -0.4417 -0.8324
 1154SOL    HW215099   2.653   1.860   8.387 -0.0364 -2.2765  1.0180
 1155SOL     OW15100   0.745   3.528   1.110  0.5220  0.2324 -0.0835
 1155SOL    HW115101   0.738   3.486   1.196  0.2807 -1.3686 -0.8726
 1155SOL    HW215102   0.755   3.617   1.143 -0.3547 -0.2429  1.4644
 1156SOL     OW15103   4.470   2.848   4.271 -0.0727 -0.0767  0.3743
 1156SOL    HW115104   4.448   2.785   4.339  1.7624  0.6379  1.6321
 1156SOL    HW215105   4.502   2.923   4.322 -0.3524 -0.4888  1.1519
 1157SOL     OW15106   2.327   0.834   9.180  0.2031 -0.5900 -0.2999
 1157SOL    HW115107   2.265   0.892   9.137 -0.4732 -0.6450  0.5933
 1157SOL    HW215108   2.361   0.897   9.244 -1.2126 -0.7443  0.5960
 1158SOL     OW15109   3.698   3.582   4.925 -0.3660 -0.2874 -0.0716
 1158SOL    HW115110   3.652   3.529   4.859 -0.3108  0.5859 -0.8008
 1158SOL    HW215111   3.787   3.550   4.908 -0.8008 -1.6223  0.1341
 1159SOL     OW15112   3.601   2.133   1.602  0.1325  0.5164 -0.6024
 1159SOL    HW115113   3.521   2.181   1.579 -0.2452  1.5848  2.9407
 1159SOL    HW215114   3.567   2.044   1.593 -1.9426  1.2968 -0.3721
 1160SOL     OW15115   4.118   0.907   6.692 -0.2579 -0.3242  0.4281
 1160SOL    HW115116   4.173   0.849   6.638 -0.2294  1.4612 -1.4388
 1160SOL    HW215117   4.187   0.966   6.722  0.1172 -0.1373 -0.7910
 1161SOL     OW15118   4.526   2.280   6.543 -0.2220  0.3576 -0.1482
 1161SOL    HW115119   4.602   2.234   6.508 -0.0231  2.2824 -2.2933
 1161SOL    HW215120   4.471   2.281   6.465 -0.5734  1.4475  0.0996
 1162SOL     OW15121   1.441   1.781   4.478  0.0174  0.6333  0.0992
 1162SOL    HW115122   1.456   1.703   4.424 -0.4248 -0.2848  1.3137
 1162SOL    HW215123   1.427   1.835   4.400  0.8498 -1.6919 -1.6589
 1163SOL     OW15124   2.017   0.796   5.568 -0.1747  0.4268 -0.2014
 1163SOL    HW115125   2.080   0.862   5.598  0.5336 -1.3040  2.1509
 1163SOL    HW215126   2.036   0.720   5.622 -1.4558 -0.8033 -1.4695
 1164SOL     OW15127   3.347   4.241   4.915  0.3013  0.4665  0.3233
 1164SOL    HW115128   3.439   4.232   4.939  0.7734  2.8569 -0.5804
 1164SOL    HW215129   3.344   4.336   4.924  0.3209  0.2300  2.8254
 1165SOL     OW15130   1.180   0.833   2.388 -0.0491  0.0488  0.1787
 1165SOL    HW115131   1.259   0.845   2.441  0.3946 -0.9389 -0.2533
 1165SOL    HW215132   1.168   0.923   2.355  1.6260  0.6902  1.3276
 1166SOL     OW15133   3.893   1.382   4.433  0.2694 -0.2913 -0.3094
 1166SOL    HW115134   3.907   1.454   4.371  0.0886 -1.2262 -1.4385
 1166SOL    HW215135   3.823   1.343   4.381  2.4812 -3.4492 -0.8646
 1167SOL     OW15136   3.413   0.889  10.462 -0.0025  0.1651 -0.4914
 1167SOL    HW115137   3.397   0.962  10.402 -0.4192  0.3745 -0.1262
 1167SOL    HW215138   3.354   0.828  10.418  0.0009  0.6853 -1.2256
 1168SOL     OW15139   3.860   1.333   9.134 -0.9294 -0.2176  0.1540
 1168SOL    HW115140   3.857   1.425   9.106 -2.1320 -1.1505 -2.7243
 1168SOL    HW215141   3.788   1.332   9.196 -0.5961 -0.4515  0.5349
 1169SOL     OW15142   2.245   3.105   7.865 -0.4085 -0.1040 -0.2059
 1169SOL    HW115143   2.279   3.118   7.776  1.0549 -1.4598  0.1622
 1169SOL    HW215144   2.327   3.083   7.909  0.0299 -1.5774 -1.7271
 1170SOL     OW15145   2.492   3.651   3.328  0.1598 -0.2302  0.1858
 1170SOL    HW115146   2.557   3.663   3.258 -0.3018  0.5522 -0.1160
 1170SOL    HW215147   2.459   3.740   3.344 -0.4312  0.3497 -4.1450
 1171SOL     OW15148   0.282   0.706   7.248  0.5032 -0.2312 -0.0469
 1171SOL    HW115149   0.241   0.647   7.185 -1.8878  0.6712  0.6556
 1171SOL    HW215150   0.306   0.782   7.196 -1.1835 -0.8436 -1.7116
 1172SOL     OW15151   2.612   3.118  13.174  0.2789 -0.2648  0.0474
 1172SOL    HW115152   2.559   3.107  13.095  0.0976  2.4650 -0.2291
 1172SOL    HW215153   2.609   3.213  13.191 -0.8804 -0.1385 -0.8383
 1173SOL     OW15154   3.175   2.705   3.660 -0.1493  0.6494  0.3161
 1173SOL    HW115155   3.185   2.617   3.697  0.9875  1.5126  2.0542
 1173SOL    HW215156   3.256   2.751   3.680  0.9150 -0.8763 -0.4867
 1174SOL     OW15157   0.538   1.182   2.870  0.2466  0.6824 -0.0205
 1174SOL    HW115158   0.450   1.155   2.846  0.0801  0.1404  1.1934
 1174SOL    HW215159   0.589   1.104   2.892  1.0446  1.0598 -0.5195
 1175SOL     OW15160   2.763   4.362  11.330 -0.4289  0.1855  0.1325
 1175SOL    HW115161   2.835   4.398  11.382  0.9390 -0.3850 -1.3504
 1175SOL    HW215162   2.683   4.403  11.363 -0.1706 -0.0605  1.0480
 1176SOL     OW15163   0.895   3.470  14.427  0.6526  0.7579  0.8830
 1176SOL    HW115164   0.900   3.426  14.342  0.4276  0.6697  0.9137
 1176SOL    HW215165   0.984   3.470  14.460  0.4417  0.0880  1.4643
 1177SOL     OW15166   1.422   1.384   7.212  0.1176  0.0203  0.6950
 1177SOL    HW115167   1.385   1.410   7.296  1.2968  1.3210  0.8022
 1177SOL    HW215168   1.514   1.410   7.216 -0.1825  0.7243  2.8771
 1178SOL     OW15169   3.860   0.737  13.556  0.0168  0.0247 -0.3672
 1178SOL    HW115170   3.842   0.821  13.598 -1.3562 -0.3408 -0.2290
 1178SOL    HW215171   3.771   0.715  13.529  0.5498 -1.5707 -0.8621
 1179SOL     OW15172   0.729   1.638   8.274  0.6844 -0.0398  0.2685
 1179SOL    HW115173   0.789   1.581   8.226  0.9655 -0.7588  1.4669
 1179SOL    HW215174   0.677   1.568   8.314  0.6383 -0.8831 -1.2411
 1180SOL     OW15175   1.954   3.470   8.399  0.1629  0.4907 -0.1825
 1180SOL    HW115176   1.911   3.407   8.457 -0.8346  1.3614  0.0163
 1180SOL    HW215177   1.877   3.520   8.373 -2.2314 -2.1370  1.7985
 1181SOL     OW15178   0.419   2.617   4.502  0.4453  0.0092 -0.5450
 1181SOL    HW115179   0.480   2.578   4.440 -1.1905  0.8182 -2.6513
 1181SOL    HW215180   0.405   2.551   4.569  0.8068  0.4029 -0.0783
 1182SOL     OW15181   2.778   0.960   2.275 -0.3220 -0.6476 -0.5400
 1182SOL    HW115182   2.860   0.928   2.239  0.7612  1.2202  0.2584
 1182SOL    HW215183   2.740   0.996   2.195 -0.2880  1.6284  0.4527
 1183SOL     OW15184   1.749   1.525   0.098  0.0267 -0.4149  0.2643
 1183SOL    HW115185   1.804   1.600   0.073  0.6229 -1.1406 -0.5695
 1183SOL    HW215186   1.810   1.481   0.157  1.5713  2.2912  0.6970
 1184SOL     OW15187   2.253   2.510   6.869 -0.3059  0.0809  0.1884
 1184SOL    HW115188   2.191   2.513   6.943 -3.4797  0.3056 -2.4873
 1184SOL    HW215189   2.233   2.429   6.822 -1.6330  0.6034 -0.1586
 1185SOL     OW15190   4.149   2.897   6.725 -0.2132 -0.5981  0.2375
 1185SOL    HW115191   4.166   2.810   6.762  1.6903  1.1509  3.4430
 1185SOL    HW215192   4.061   2.909   6.763 -1.0829  1.9732 -2.6121
 1186SOL     OW15193   3.077   3.038   8.974  0.9348  0.7661  0.5388
 1186SOL    HW115194   3.018   3.060   8.902 -0.5881 -0.8059  1.3080
 1186SOL    HW215195   3.120   2.961   8.937  0.8722  1.3655 -0.7468
 1187SOL     OW15196   0.789   4.459   7.053 -0.0633 -0.2898 -0.4136
 1187SOL    HW115197   0.797   4.492   7.143 -1.7800 -1.0255 -0.0009
 1187SOL    HW215198   0.883   4.443   7.039 -0.0933 -0.4941 -0.3902
 1188SOL     OW15199   3.089   1.938   3.948 -0.4258  0.2156  0.1711
 1188SOL    HW115200   3.063   2.008   4.008  0.3114 -0.7073  1.5694
 1188SOL    HW215201   3.171   1.909   3.986  0.0028  0.1005 -0.8277
 1189SOL     OW15202   3.544   0.930  13.256  0.4810  0.5608 -0.1313
 1189SOL    HW115203   3.479   0.956  13.321 -0.0155 -1.1821  0.0663
 1189SOL    HW215204   3.588   0.856  13.299 -1.3771 -0.9945 -0.9278
 1190SOL     OW15205   1.943   4.450   8.596 -0.0151  0.5181 -0.0250
 1190SOL    HW115206   1.894   4.531   8.586 -0.5294  0.2630  0.4093
 1190SOL    HW215207   1.896   4.401   8.664 -2.1726  0.2218 -1.7464
 1191SOL     OW15208   1.302   2.068   8.221  0.4557  1.0075 -0.9123
 1191SOL    HW115209   1.217   2.040   8.186  0.6081 -1.5906  0.8199
 1191SOL    HW215210   1.281   2.134   8.286 -2.2689 -2.3965  1.6500
 1192SOL     OW15211   1.117   3.575   4.064  0.1725  0.2918 -0.2791
 1192SOL    HW115212   1.037   3.619   4.094 -0.9558 -0.8341 -1.6335
 1192SOL    HW215213   1.188   3.633   4.091 -0.0074  0.6444 -0.5632
 1193SOL     OW15214   0.813   2.046  14.541 -0.2416 -0.5317  0.4580
 1193SOL    HW115215   0.747   2.037  14.473 -1.2923  0.2686  1.3637
 1193SOL    HW215216   0.837   1.955  14.554  0.3500 -0.5142 -0.5584
 1194SOL     OW15217   3.533   2.530  11.166 -0.5342  0.1469 -0.6244
 1194SOL    HW115218   3.622   2.553  11.140 -0.1484  0.1803  0.7292
 1194SOL    HW215219   3.536   2.483  11.249 -0.7023 -1.3250 -1.4558
 1195SOL     OW15220   3.551   3.632   2.630  1.0975 -0.4102  0.6701
 1195SOL    HW115221   3.600   3.687   2.691  0.7111  0.6754  0.0070
 1195SOL    HW215222   3.618   3.590   2.575  1.6645  0.8170  0.4190
 1196SOL     OW15223   2.690   1.264  13.633  0.8159 -0.3888  0.0204
 1196SOL    HW115224   2.769   1.276  13.580  2.7162 -4.8024  1.9110
 1196SOL    HW215225   2.735   1.251  13.717 -0.0996  3.0210  1.0676
 1197SOL     OW15226   3.061   3.960   8.136  0.6947  0.1845  0.5731
 1197SOL    HW115227   2.972   3.986   8.111  1.4620  0.6469 -1.6336
 1197SOL    HW215228   3.062   3.876   8.092  0.5213 -0.3524  1.5810
 1198SOL     OW15229   2.050   3.717   7.599  0.4259  0.2146 -0.0367
 1198SOL    HW115230   2.120   3.714   7.533  1.5236 -0.9975  1.1876
 1198SOL    HW215231   2.000   3.785   7.554 -0.7380 -1.1510 -0.8046
 1199SOL     OW15232   4.134   4.241   3.198  0.2845  0.1410  0.7419
 1199SOL    HW115233   4.169   4.314   3.147  0.3163  1.6899  2.9874
 1199SOL    HW215234   4.101   4.279   3.279  0.2389  1.5431  0.0728
 1200SOL     OW15235   2.775   1.801   4.928  0.0361  0.8504  0.0457
 1200SOL    HW115236   2.696   1.830   4.883 -1.5382 -0.1113  2.1854
 1200SOL    HW215237   2.790   1.885   4.972  1.5819 -1.0418  3.1464
 1201SOL     OW15238   0.477   2.325   3.032 -0.1712  0.5873 -0.2282
 1201SOL    HW115239   0.390   2.360   3.051 -1.6436 -2.4881 -1.1800
 1201SOL    HW215240   0.475   2.303   2.939  3.5756  0.5226 -0.2999
 1202SOL     OW15241   0.484   2.667   9.379 -0.0114  0.0631  0.1219
 1202SOL    HW115242   0.520   2.591   9.424 -2.9672 -0.7589  1.0755
 1202SOL    HW215243   0.548   2.678   9.308  1.6481  1.4016  1.8227
 1203SOL     OW15244   3.278   1.554   6.718  0.2609  0.1489  0.0858
 1203SOL    HW115245   3.241   1.499   6.649 -2.1673  0.6462  0.9748
 1203SOL    HW215246   3.230   1.530   6.798  1.3835  0.1017  0.7364
 1204SOL     OW15247   3.821   2.081   2.568  0.4235  0.4210  0.6784
 1204SOL    HW115248   3.792   2.160   2.523 -1.1777  0.4928  1.8256
 1204SOL    HW215249   3.803   2.111   2.657 -1.6318  0.5427  0.2215
 1205SOL     OW15250   0.693   0.298   3.424 -0.7127  0.1216 -0.0053
 1205SOL    HW115251   0.761   0.254   3.476 -1.6525 -0.3899  0.7946
 1205SOL    HW215252   0.692   0.244   3.344 -0.1327 -1.1801  0.8659
 1206SOL     OW15253   2.989   2.173  10.751 -0.3226  0.4122  0.2569
 1206SOL    HW115254   3.033   2.257  10.740  0.5230 -0.2195 -1.1719
 1206SOL    HW215255   3.055   2.109  10.780 -1.1916 -0.6571 -0.1250
 1207SOL     OW15256   4.258   4.178  10.534 -0.2598 -0.5879  0.0071
 1207SOL    HW115257   4.167   4.169  10.505  0.3724 -1.0772 -1.7776
 1207SOL    HW215258   4.301   4.200  10.451 -0.6615  0.7090  0.1399
 1208SOL     OW15259   1.500   2.456   0.253  0.2974  0.1111  0.2925
 1208SOL    HW115260   1.480   2.363   0.242  0.2125  0.0768  0.7058
 1208SOL    HW215261   1.578   2.463   0.198  0.4271  0.1935  0.4871
 1209SOL     OW15262   2.423   1.996   6.343  0.2790  0.0105 -0.8126
 1209SOL    HW115263   2.484   2.068   6.359  1.0313 -0.4582 -1.5401
 1209SOL    HW215264   2.480   1.934   6.297 -0.0968  0.2085 -1.5579
 1210SOL     OW15265   0.160   3.905  11.261  0.3737 -0.4334 -0.4613
 1210SOL    HW115266   0.246   3.932  11.230 -0.9071  0.7698 -2.9955
 1210SOL    HW215267   0.145   3.963  11.336 -0.6252 -0.8894 -0.3152
 1211SOL     OW15268   1.842   4.675   4.306  0.1318 -0.4735 -0.0570
 1211SOL    HW115269   1.779   4.625   4.255 -0.3067 -1.1210  1.1068
 1211SOL    HW215270   1.847   0.010   4.244  2.5797 -0.9352 -0.4061
 1212SOL     OW15271   1.487   2.868  14.797  0.9146  0.0241  0.0524
 1212SOL    HW115272   1.548   2.906  14.860 -2.0700  2.9520  1.1503
 1212SOL    HW215273   1.412   2.846  14.853  3.3105 -2.6867  2.1842
 1213SOL     OW15274   1.783   0.608  10.507 -0.4759 -0.0722 -0.6125
 1213SOL    HW115275   1.768   0.677  10.572 -0.2037 -0.6743  0.0912
 1213SOL    HW215276   1.733   0.652  10.439 -1.7723 -1.6584 -0.6899
 1214SOL     OW15277   1.522   4.081   2.536 -0.6447  0.1929  0.0403
 1214SOL    HW115278   1.449   4.080   2.597  0.3345  0.9524  1.2354
 1214SOL    HW215279   1.585   4.133   2.586 -2.0404  2.8864 -1.0146
 1215SOL     OW15280   3.566   3.208   7.043 -0.0991  0.0758  0.3277
 1215SOL    HW115281   3.604   3.188   7.129 -0.9760 -1.2234  0.4179
 1215SOL    HW215282   3.588   3.136   6.985 -2.7554  0.7369 -1.5272
 1216SOL     OW15283   4.528   2.770   1.198  0.0406  0.2900 -0.0072
 1216SOL    HW115284   4.612   2.806   1.227  0.9069  0.2642 -2.4198
 1216SOL    HW215285   4.530   2.834   1.127 -1.3973 -0.3027 -0.5801
 1217SOL     OW15286   1.591   4.003   7.091 -0.1649 -0.2868  0.2681
 1217SOL    HW115287   1.673   4.045   7.117  0.7669 -1.4753 -0.7501
 1217SOL    HW215288   1.530   4.037   7.156 -0.1362 -0.3384  0.3214
 1218SOL     OW15289   0.601   2.875   6.890 -0.0582 -0.0872 -0.1614
 1218SOL    HW115290   0.556   2.924   6.822 -0.9183 -1.1738 -0.3815
 1218SOL    HW215291   0.573   2.789   6.858 -1.4059  0.5772 -0.7422
 1219SOL     OW15292   1.463   1.170  13.469  0.4307  0.6266 -0.3679
 1219SOL    HW115293   1.373   1.201  13.460  0.2468  1.3471  3.7828
 1219SOL    HW215294   1.442   1.083  13.504  1.1494 -0.1190 -1.7732
 1220SOL     OW15295   2.150   2.170   7.323 -0.4352  0.1177  0.1156
 1220SOL    HW115296   2.070   2.138   7.363  0.4356 -1.8093  0.3162
 1220SOL    HW215297   2.220   2.165   7.388 -0.6808 -0.5329  0.3285
 1221SOL     OW15298   3.700   2.977   3.091 -0.0787 -0.2319 -0.0030
 1221SOL    HW115299   3.740   2.892   3.106 -0.9729 -0.3211  1.8335
 1221SOL    HW215300   3.654   2.949   3.012 -0.6412 -1.2039  0.6729
 1222SOL     OW15301   1.911   0.397   5.286  0.2920  0.1920  0.1765
 1222SOL    HW115302   1.919   0.347   5.205  0.1085  0.2703  0.1106
 1222SOL    HW215303   1.818   0.386   5.307 -0.2960  0.7461 -2.1995
 1223SOL     OW15304   3.586   3.475   8.843 -0.0429 -0.1381  0.4479
 1223SOL    HW115305   3.618   3.385   8.845  0.3432 -0.0464 -1.4856
 1223SOL    HW215306   3.644   3.522   8.902 -1.4574  2.7548 -0.4542
 1224SOL     OW15307   1.155   3.880  12.815 -0.6350 -0.0438 -0.2476
 1224SOL    HW115308   1.101   3.853  12.741 -0.1866  2.6232 -1.5411
 1224SOL    HW215309   1.202   3.799  12.830  0.5881  0.5511 -0.8751
 1225SOL     OW15310   3.628   3.892   7.806  0.6003 -0.1970  0.2988
 1225SOL    HW115311   3.710   3.925   7.768  0.2676 -0.1429 -0.3885
 1225SOL    HW215312   3.629   3.954   7.879 -0.7168 -0.1899  0.3068
 1226SOL     OW15313   2.364   0.665   2.419  0.2761  0.1782 -0.2941
 1226SOL    HW115314   2.418   0.728   2.370 -1.3828  0.9956 -1.0572
 1226SOL    HW215315   2.284   0.658   2.367  0.4853 -0.9984 -0.4620
 1227SOL     OW15316   1.344   3.565  12.750 -0.1914  0.0392 -0.5553
 1227SOL    HW115317   1.265   3.579  12.698  0.0714  1.8795 -0.4581
 1227SOL    HW215318   1.302   3.572  12.836 -0.6971  1.1492 -0.8818
 1228SOL     OW15319   1.928   1.666   2.311  0.1794 -0.4336  0.3482
 1228SOL    HW115320   1.859   1.603   2.291  1.7752 -2.7982  2.3497
 1228SOL    HW215321   1.977   1.677   2.229  0.2706  2.2454  0.7653
 1229SOL     OW15322   1.649   2.061   7.929 -0.9700 -0.7030 -0.1823
 1229SOL    HW115323   1.599   1.994   7.976 -1.3523 -0.9693 -0.9709
 1229SOL    HW215324   1.624   2.144   7.969  1.8276  0.6252 -1.2389
 1230SOL     OW15325   0.150   3.648  17.431 -0.7603 -0.0934  0.2054
 1230SOL    HW115326   0.210   3.584  17.469 -0.8433  0.2276  0.8661
 1230SOL    HW215327   0.191   3.731  17.456  0.5238 -1.1486  1.6220
 1231SOL     OW15328   3.424   4.643   1.120 -0.2314 -0.2996 -0.2465
 1231SOL    HW115329   3.449   4.709   1.185 -2.6752 -0.2772  0.6751
 1231SOL    HW215330   3.410   4.565   1.174  0.7870 -1.5900 -1.8383
 1232SOL     OW15331   0.296   2.164   2.175 -0.1923  0.3290 -0.6438
 1232SOL    HW115332   0.331   2.079   2.200  1.5614  1.7839  1.7788
 1232SOL    HW215333   0.209   2.172   2.214 -0.6925 -0.6011 -1.5731
 1233SOL     OW15334   3.232   3.398  17.534 -0.1034  0.0347 -0.1158
 1233SOL    HW115335   3.137   3.405  17.535 -0.0169  0.3628  3.2372
 1233SOL    HW215336   3.240   3.307  17.505 -0.3302 -0.7308  2.2846
 1234SOL     OW15337   2.163   2.415   8.904 -0.7331 -0.4017  0.1588
 1234SOL    HW115338   2.132   2.499   8.939  0.5581 -0.1497  0.7103
 1234SOL    HW215339   2.254   2.414   8.933 -0.3886  1.6304 -0.8027
 1235SOL     OW15340   4.546   4.080  16.822  0.1209  0.5008  0.1309
 1235SOL    HW115341   4.480   4.127  16.874  0.3701 -0.3497  1.1927
 1235SOL    HW215342   4.489   4.021  16.772  1.4494 -3.2798  3.1226
 1236SOL     OW15343   3.790   3.543   2.541 -0.2998  0.0263 -0.4675
 1236SOL    HW115344   3.800   3.450   2.524 -0.8951 -0.0747 -0.2589
 1236SOL    HW215345   3.866   3.582   2.497  0.0710  0.6766  0.7533
 1237SOL     OW15346   1.104   4.169   6.905 -0.5396  0.2433 -0.0838
 1237SOL    HW115347   1.057   4.147   6.985  0.1370  0.9140  0.4910
 1237SOL    HW215348   1.160   4.092   6.894 -0.5473  0.0251  1.4863
 1238SOL     OW15349   0.827   2.747   4.813 -0.0729 -0.1384  0.1137
 1238SOL    HW115350   0.816   2.839   4.837  1.1940 -0.0944  0.5095
 1238SOL    HW215351   0.740   2.714   4.835 -0.1390  0.0764  0.1795
 1239SOL     OW15352   4.248   4.191   4.556 -0.1101  0.4928 -0.2100
 1239SOL    HW115353   4.329   4.229   4.590 -1.1354  1.0542  1.6326
 1239SOL    HW215354   4.190   4.234   4.618  0.5066  0.4203  0.4255
 1240SOL     OW15355   0.261   2.322  11.638 -0.4144  0.2309  0.2528
 1240SOL    HW115356   0.179   2.340  11.593 -0.8975  0.2920  1.1671
 1240SOL    HW215357   0.229   2.318  11.728  0.2286  2.1011  0.5696
 1241SOL     OW15358   3.491   3.593   0.489  0.5132  0.3519 -0.3148
 1241SOL    HW115359   3.441   3.551   0.419  0.8276 -2.1103  0.9302
 1241SOL    HW215360   3.416   3.631   0.534  0.4697 -0.0780 -0.0239
 1242SOL     OW15361   2.348   3.920   5.823 -0.8209 -0.1072  0.2796
 1242SOL    HW115362   2.419   3.859   5.842 -0.8541 -0.4120 -0.5502
 1242SOL    HW215363   2.374   3.955   5.738 -1.7457 -1.2535 -0.4775
 1243SOL     OW15364   3.480   3.459  10.577  0.0015 -0.1454 -0.0232
 1243SOL    HW115365   3.535   3.429  10.649 -0.1145 -1.4205 -0.4671
 1243SOL    HW215366   3.399   3.408  10.586 -0.0995  0.1488  0.7431
 1244SOL     OW15367   4.449   2.143   7.834  0.5695  0.2765 -0.0159
 1244SOL    HW115368   4.422   2.229   7.866 -0.0842  1.1046 -2.7720
 1244SOL    HW215369   4.526   2.118   7.886  0.0645  2.4709  1.7910
 1245SOL     OW15370   2.251   4.154   3.089  0.4259  0.0181 -0.2662
 1245SOL    HW115371   2.309   4.212   3.040 -0.3863  0.6683 -0.4604
 1245SOL    HW215372   2.193   4.128   3.018  1.5136 -0.8048 -0.8570
 1246SOL     OW15373   3.482   0.563  12.534  0.0608 -0.3155  0.3767
 1246SOL    HW115374   3.430   0.570  12.454 -1.2635 -0.3225  1.2332
 1246SOL    HW215375   3.410   0.558  12.598  1.4421  1.0221  2.0505
 1247SOL     OW15376   0.939   2.474   5.604  1.0294  0.2418  0.0397
 1247SOL    HW115377   1.030   2.504   5.596  0.9980  0.0338 -1.1021
 1247SOL    HW215378   0.894   2.557   5.583  1.6993  1.2349  2.6250
 1248SOL     OW15379   4.124   4.238  14.347  0.1262 -0.0298 -0.3804
 1248SOL    HW115380   4.061   4.310  14.357 -0.9911 -0.4697 -4.4925
 1248SOL    HW215381   4.198   4.277  14.301  1.4238 -0.4981  1.3075
 1249SOL     OW15382   2.919   4.081   6.814  0.2835 -0.0608 -1.0026
 1249SOL    HW115383   2.958   4.087   6.902 -3.3879 -1.4962  0.7024
 1249SOL    HW215384   2.913   4.174   6.791 -0.8444 -0.0719 -0.7538
 1250SOL     OW15385   1.451   3.338   9.748  0.0178  1.1824 -0.0988
 1250SOL    HW115386   1.547   3.334   9.740  0.1227  2.3286  0.7229
 1250SOL    HW215387   1.444   3.414   9.805 -1.0936  2.3204 -1.7610
 1251SOL     OW15388   2.209   0.591  13.622  0.0252 -1.0892  0.1293
 1251SOL    HW115389   2.228   0.640  13.702 -0.5790 -2.4617  1.1204
 1251SOL    HW215390   2.271   0.633  13.562  0.1610  0.8412  1.6186
 1252SOL     OW15391   1.964   0.498   6.318  0.2320 -0.0367 -0.0027
 1252SOL    HW115392   1.906   0.500   6.393  1.1403 -1.3053  0.7375
 1252SOL    HW215393   1.906   0.453   6.257 -0.3197  0.7404 -0.0512
 1253SOL     OW15394   1.626   3.014  11.455 -0.0966  0.2027 -0.9367
 1253SOL    HW115395   1.572   3.055  11.387  0.8648 -1.8507 -2.9385
 1253SOL    HW215396   1.705   3.055  11.421 -0.0929  0.7873 -0.2136
 1254SOL     OW15397   4.612   0.129   3.659 -0.2123  0.0539 -0.2344
 1254SOL    HW115398   4.526   0.165   3.637 -0.0043  0.3022 -0.6430
 1254SOL    HW215399   4.635   0.180   3.737  1.8740 -2.9283  1.0758
 1255SOL     OW15400   4.511   3.125  16.515  0.5778  0.1193  0.2730
 1255SOL    HW115401   4.488   3.216  16.495  0.5539 -0.3904 -2.0037
 1255SOL    HW215402   4.562   3.107  16.436 -0.6315 -1.3369 -0.1645
 1256SOL     OW15403   0.449   1.795   3.585  0.4293  0.1161 -0.0016
 1256SOL    HW115404   0.499   1.726   3.629  0.2114 -0.2009 -0.2545
 1256SOL    HW215405   0.513   1.865   3.592  0.1560  0.3242  0.4229
 1257SOL     OW15406   2.731   0.294  16.434  0.3964  0.0240 -0.0177
 1257SOL    HW115407   2.661   0.348  16.469 -0.1605 -1.4063  1.0588
 1257SOL    HW215408   2.748   0.230  16.502 -1.6264 -0.5924 -0.1156
 1258SOL     OW15409   1.120   0.939   7.490  0.4402 -0.0268 -0.1555
 1258SOL    HW115410   1.186   0.870   7.480 -0.1253 -0.8057  1.4755
 1258SOL    HW215411   1.149   0.984   7.570 -1.4194 -1.7825  1.4876
 1259SOL     OW15412   0.401   4.729   6.516  0.5255  0.6158  0.0600
 1259SOL    HW115413   0.434   4.660   6.458  0.3134 -0.1918  0.9109
 1259SOL    HW215414   0.490   0.017   6.540  1.0869 -1.3371  0.1397
 1260SOL     OW15415   3.904   4.191   2.408 -0.2832  0.1516  0.2120
 1260SOL    HW115416   3.950   4.157   2.331 -2.1489  0.2892 -0.9663
 1260SOL    HW215417   3.900   4.285   2.391  0.5563  0.5558  2.1182
 1261SOL     OW15418   4.515   0.234   4.871 -0.3117 -0.4787 -0.3275
 1261SOL    HW115419   4.525   0.328   4.858 -0.9600 -0.1859  1.3392
 1261SOL    HW215420   4.432   0.213   4.827 -0.9207  1.3045 -0.0260
 1262SOL     OW15421   1.489   2.851   7.397 -0.2198 -0.0313 -0.0687
 1262SOL    HW115422   1.417   2.788   7.405 -1.3018  0.8866 -2.6666
 1262SOL    HW215423   1.463   2.915   7.463 -0.1126  0.6917 -0.7417
 1263SOL     OW15424   2.388   0.783  13.517 -0.0023 -0.9292 -0.0272
 1263SOL    HW115425   2.460   0.833  13.479 -0.6540  0.8260  1.0351
 1263SOL    HW215426   2.356   0.852  13.575  0.5969 -3.1748  2.9686
 1264SOL     OW15427   0.909   0.781   2.892  0.1695 -0.0502 -0.7095
 1264SOL    HW115428   0.964   0.811   2.964  0.2230 -0.5667 -0.5396
 1264SOL    HW215429   0.965   0.798   2.816  0.2015  1.2064 -0.4032
 1265SOL     OW15430   3.396   3.684   1.765  0.4832 -0.2307 -0.1758
 1265SOL    HW115431   3.448   3.764   1.766 -1.0530  0.7644  0.2513
 1265SOL    HW215432   3.447   3.638   1.832 -0.5227  0.5629  1.1381
 1266SOL     OW15433   0.437   4.620   7.022 -0.1421  0.6573 -0.2280
 1266SOL    HW115434   0.432   4.542   7.078 -3.2086 -0.3036 -1.8282
 1266SOL    HW215435   0.346   4.617   6.992 -0.0035  1.5960 -0.7391
 1267SOL     OW15436   0.444   3.868   3.706  0.5192  0.0204 -0.4425
 1267SOL    HW115437   0.482   3.949   3.671  1.4352  0.2017  1.0095
 1267SOL    HW215438   0.484   3.808   3.642 -1.0711 -0.6237 -0.8431
 1268SOL     OW15439   4.714   2.956   9.505  0.2777  0.2185  0.2540
 1268SOL    HW115440   0.008   2.888   9.446  0.5903  0.7961 -0.2406
 1268SOL    HW215441   0.059   3.003   9.519  0.9173 -0.6921 -0.5193
 1269SOL     OW15442   3.206   4.302   5.662  0.1604  0.2429  0.5985
 1269SOL    HW115443   3.214   4.351   5.580 -0.6655  0.9753  0.9457
 1269SOL    HW215444   3.135   4.241   5.643  0.3107 -0.3960  2.0874
 1270SOL     OW15445   1.764   4.118  10.916  0.8305 -0.4372  0.2629
 1270SOL    HW115446   1.721   4.108  11.002 -1.0139  2.5135 -0.2889
 1270SOL    HW215447   1.852   4.121  10.952  0.4764  1.3341  0.9804
 1271SOL     OW15448   4.572   4.059   3.269 -0.2740 -0.1073  0.7378
 1271SOL    HW115449   4.621   3.991   3.223  1.4130  0.3879  1.8163
 1271SOL    HW215450   4.483   4.050   3.235 -0.0318  0.8615 -0.1894
 1272SOL     OW15451   2.036   1.005  13.442  0.5829  0.0920  1.1004
 1272SOL    HW115452   2.064   0.941  13.376 -0.7087 -0.7370  1.3577
 1272SOL    HW215453   1.969   1.056  13.396  0.6674 -1.1659 -0.4504
 1273SOL     OW15454   4.662   0.029   5.102  0.1007  0.3944  0.9793
 1273SOL    HW115455   0.012   4.734   5.114  1.1334  2.2151 -1.6724
 1273SOL    HW215456   4.670   0.073   5.017 -1.6211 -0.1817  0.5199
 1274SOL     OW15457   1.570   1.047   5.331 -0.9242  0.2724 -0.0014
 1274SOL    HW115458   1.570   0.953   5.313  0.2795  0.2135  0.2437
 1274SOL    HW215459   1.632   1.049   5.404  0.8581 -3.7355 -1.4293
 1275SOL     OW15460   1.428   1.401  12.665  0.2764  0.1131  0.3268
 1275SOL    HW115461   1.482   1.478  12.642  0.3260 -0.3744 -1.1780
 1275SOL    HW215462   1.438   1.345  12.588  4.1428  0.5782  0.4777
 1276SOL     OW15463   2.861   2.787   9.006  0.0933  0.3082  0.5090
 1276SOL    HW115464   2.810   2.808   8.927  1.0780 -1.1839 -0.5132
 1276SOL    HW215465   2.941   2.772   8.956 -1.0764 -1.8320 -0.7360
 1277SOL     OW15466   3.224   3.709   7.341 -0.3590  0.3220  0.0400
 1277SOL    HW115467   3.251   3.653   7.269  1.3331  1.1404  0.0542
 1277SOL    HW215468   3.284   3.781   7.327  1.2971 -0.9467  0.6645
 1278SOL     OW15469   4.038   0.077  17.166 -0.5603  0.2589  0.0495
 1278SOL    HW115470   4.024   4.721  17.178  1.3649 -0.3742 -2.5871
 1278SOL    HW215471   4.113   0.082  17.107  0.0491  0.3001  0.8302
 1279SOL     OW15472   4.369   0.042  16.058  0.0536  0.1699  0.0959
 1279SOL    HW115473   4.344   0.094  15.981 -0.1595 -0.3125 -0.1583
 1279SOL    HW215474   4.293   0.052  16.116  1.2709 -2.5717  2.1377
 1280SOL     OW15475   4.511   3.638   5.686 -0.2308 -0.0946  0.3570
 1280SOL    HW115476   4.577   3.671   5.625 -1.8052 -1.1443 -1.9093
 1280SOL    HW215477   4.575   3.603   5.748  0.7966  1.6698  0.3001
 1281SOL     OW15478   1.882   0.401   7.875  0.0970 -0.7167 -0.1691
 1281SOL    HW115479   1.940   0.416   7.801 -0.2664  0.2721 -0.2552
 1281SOL    HW215480   1.891   0.306   7.877  0.6775 -0.6546  0.1505
 1282SOL     OW15481   1.018   0.753  14.948 -0.2710  0.1431 -0.1829
 1282SOL    HW115482   1.035   0.660  14.957  0.4221  0.2424 -0.4715
 1282SOL    HW215483   1.044   0.790  15.033 -0.2363 -1.6361  0.5849
 1283SOL     OW15484   1.954   2.456   8.092  0.4835 -0.8229  0.1126
 1283SOL    HW115485   1.959   2.506   8.174  1.0171 -0.3984 -0.1789
 1283SOL    HW215486   1.889   2.392   8.120  0.8002 -1.2986 -0.2370
 1284SOL     OW15487   3.249   3.233   7.248  0.8101  0.0726 -0.0997
 1284SOL    HW115488   3.215   3.151   7.212 -0.3834  0.5661 -0.0798
 1284SOL    HW215489   3.174   3.290   7.235 -1.5628 -2.6868  1.7158
 1285SOL     OW15490   3.356   0.028   8.519 -0.6784  0.4002 -0.1169
 1285SOL    HW115491   3.428   0.069   8.471 -0.2728 -1.1725 -0.8473
 1285SOL    HW215492   3.291   0.004   8.453 -0.0441 -1.4756 -0.0763
 1286SOL     OW15493   0.970   0.255   3.991  0.2397  0.0741 -0.3244
 1286SOL    HW115494   0.909   0.328   4.003  0.2589  0.4751 -2.7037
 1286SOL    HW215495   1.045   0.297   3.948  1.8954 -0.3748  2.1317
 1287SOL     OW15496   1.581   4.692  14.212  0.4607  0.8220  0.0500
 1287SOL    HW115497   1.505   0.003  14.182 -0.9904  0.6781  3.5173
 1287SOL    HW215498   1.617   4.658  14.130  1.2996 -0.7625  1.0672
 1288SOL     OW15499   1.440   4.408  10.548  0.9389  0.7121 -0.2321
 1288SOL    HW115500   1.467   4.316  10.549  0.2366  0.4934 -1.4035
 1288SOL    HW215501   1.455   4.431  10.456  2.9622 -0.0965 -0.0975
 1289SOL     OW15502   1.442   3.187  15.325  0.4477  0.3616  0.1825
 1289SOL    HW115503   1.459   3.179  15.231  1.0125  1.0739  0.2264
 1289SOL    HW215504   1.421   3.280  15.328  0.1962  0.3107  0.0440
 1290SOL     OW15505   0.557   1.242   7.899 -0.2007  0.6652  0.1537
 1290SOL    HW115506   0.540   1.239   7.993  0.3409 -1.5418  0.1936
 1290SOL    HW215507   0.624   1.175   7.890  1.1187  1.5276  3.5419
 1291SOL     OW15508   1.380   1.877   5.309  0.3828 -0.2845  0.5224
 1291SOL    HW115509   1.449   1.930   5.349 -1.3482  2.0836  0.3647
 1291SOL    HW215510   1.362   1.805   5.369  4.5771 -2.2489 -0.5783
 1292SOL     OW15511   3.903   3.925   4.160 -0.0865  0.3205 -0.1434
 1292SOL    HW115512   3.929   3.836   4.183  1.4043  0.7185 -0.2802
 1292SOL    HW215513   3.990   3.961   4.143  0.6717 -2.6230 -2.4181
 1293SOL     OW15514   4.701   2.798   5.925 -0.3193 -0.3331  0.3061
 1293SOL    HW115515   4.658   2.883   5.936  1.3409  0.4114  1.0921
 1293SOL    HW215516   0.016   2.819   5.849 -2.0357 -0.1798 -0.8585
 1294SOL     OW15517   1.946   1.516   5.406  0.2930  0.5537 -0.6054
 1294SOL    HW115518   1.865   1.473   5.431 -0.7298  2.4758 -0.5931
 1294SOL    HW215519   1.952   1.496   5.313  1.2274  0.1510 -0.4560
 1295SOL     OW15520   2.219   1.136   9.185  0.8453 -0.0854 -0.2176
 1295SOL    HW115521   2.271   1.150   9.106 -1.9867  0.4036 -2.0080
 1295SOL    HW215522   2.288   1.107   9.245 -1.7871  0.4822  3.0454
 1296SOL     OW15523   1.243   0.921   8.687  0.2561  0.1935  0.5231
 1296SOL    HW115524   1.314   0.923   8.623 -0.6570 -2.0518 -0.5455
 1296SOL    HW215525   1.253   0.828   8.710  0.6769  0.0924 -0.0658
 1297SOL     OW15526   4.047   1.093   2.197  0.2100  0.0247 -0.7291
 1297SOL    HW115527   4.138   1.078   2.169  0.6879 -1.3830  1.5043
 1297SOL    HW215528   4.044   1.006   2.237  0.0297 -0.2582 -1.3737
 1298SOL     OW15529   0.912   2.988   8.579  0.2669 -0.1915  0.4702
 1298SOL    HW115530   0.957   3.071   8.563 -0.4681  0.2938  0.9278
 1298SOL    HW215531   0.979   2.930   8.616  1.1597  1.0020  0.7379
 1299SOL     OW15532   1.208   3.401  13.399  0.3835  0.0113 -0.2412
 1299SOL    HW115533   1.134   3.438  13.447  2.0295  2.8183  0.1609
 1299SOL    HW215534   1.264   3.370  13.470 -1.5344  1.0793  1.7463
 1300SOL     OW15535   0.361   1.249   2.074  0.2608  0.4176  0.5382
 1300SOL    HW115536   0.403   1.333   2.095 -0.2809  1.3591 -2.2268
 1300SOL    HW215537   0.327   1.259   1.985  0.0797 -1.8905  0.3469
 1301SOL     OW15538   1.988   1.676   6.457 -0.4106  0.4711  0.7697
 1301SOL    HW115539   2.019   1.732   6.528  1.7962  0.2082  0.0077
 1301SOL    HW215540   1.923   1.738   6.423 -0.3096 -0.2759 -0.7479
 1302SOL     OW15541   3.950   1.193   8.402  0.3610  0.2352 -0.3321
 1302SOL    HW115542   3.889   1.167   8.471 -0.4391  2.6378 -0.1397
 1302SOL    HW215543   4.031   1.178   8.450  0.6662  3.0199  0.0103
 1303SOL     OW15544   2.324   0.111  16.793 -0.4286 -0.3436  0.3990
 1303SOL    HW115545   2.240   0.091  16.835  0.4424 -1.3771  1.6578
 1303SOL    HW215546   2.380   0.102  16.870 -0.9959  1.2891  1.0159
 1304SOL     OW15547   2.208   0.168   5.979  0.2955  0.1984  0.2555
 1304SOL    HW115548   2.261   0.089   5.979 -1.2211 -0.8246  1.0270
 1304SOL    HW215549   2.202   0.182   5.885 -0.5311 -0.3896  0.2156
 1305SOL     OW15550   2.650   0.462   8.207 -0.3435  0.1646  0.5948
 1305SOL    HW115551   2.572   0.499   8.248 -1.3103 -0.6075 -0.5682
 1305SOL    HW215552   2.695   0.427   8.284 -0.9949 -0.8378  0.5217
 1306SOL     OW15553   1.225   1.695   3.754  0.1674  0.7349 -0.4422
 1306SOL    HW115554   1.162   1.623   3.763 -1.0797  2.0006  0.9111
 1306SOL    HW215555   1.188   1.742   3.828  0.2386  1.7431 -1.0369
 1307SOL     OW15556   3.150   3.558   4.350  0.1482  0.2300  0.2383
 1307SOL    HW115557   3.074   3.515   4.391  0.4824  1.2602  1.9572
 1307SOL    HW215558   3.120   3.621   4.284 -0.4674 -0.1472  0.1589
 1308SOL     OW15559   1.681   0.706   2.679  0.2854  0.8024 -0.4002
 1308SOL    HW115560   1.708   0.714   2.771 -1.5072  2.3539 -0.0210
 1308SOL    HW215561   1.623   0.782   2.673  1.1179  1.4618 -0.0244
 1309SOL     OW15562   1.079   1.952  11.119 -0.0244 -0.2191  0.2804
 1309SOL    HW115563   1.112   1.864  11.138 -0.6553 -0.3561  0.7484
 1309SOL    HW215564   1.033   1.936  11.037  1.0744 -0.8292 -0.2184
 1310SOL     OW15565   3.440   0.378   8.245 -0.2418 -0.1836  0.7729
 1310SOL    HW115566   3.518   0.399   8.193 -0.1577 -0.5437  0.7544
 1310SOL    HW215567   3.374   0.434   8.205  0.0713 -1.2020 -1.1765
 1311SOL     OW15568   0.419   1.115  12.465 -0.4418 -0.1565  0.1952
 1311SOL    HW115569   0.483   1.070  12.520  0.5539  1.6278  0.4800
 1311SOL    HW215570   0.416   1.065  12.383  0.6818  1.1705 -0.6542
 1312SOL     OW15571   2.400   2.744   8.856  0.4817 -0.6384  0.2447
 1312SOL    HW115572   2.439   2.712   8.775  2.7798 -1.0727  1.5225
 1312SOL    HW215573   2.350   2.817   8.820  0.4585 -0.8009 -0.0539
 1313SOL     OW15574   0.543   0.454  12.468 -0.3510  0.4035 -0.3781
 1313SOL    HW115575   0.607   0.484  12.532  1.7936  0.2113 -2.4544
 1313SOL    HW215576   0.592   0.399  12.408 -2.5271 -2.8739  0.8488
 1314SOL     OW15577   2.599   1.817   5.548  0.4016  0.2313 -1.1282
 1314SOL    HW115578   2.612   1.816   5.454  0.7069 -0.2561 -1.0780
 1314SOL    HW215579   2.691   1.804   5.570 -0.2440 -0.1749  1.4051
 1315SOL     OW15580   0.257   2.451   6.510 -0.1990 -0.1484  0.4643
 1315SOL    HW115581   0.219   2.375   6.554  0.5838 -0.3929  0.7147
 1315SOL    HW215582   0.195   2.495   6.451 -1.7223 -0.5678  1.7530
 1316SOL     OW15583   3.349   3.430   0.349 -0.6453 -0.7937 -0.3163
 1316SOL    HW115584   3.366   3.339   0.328 -2.9964 -1.5443  1.0436
 1316SOL    HW215585   3.268   3.438   0.298 -0.0512  1.2270 -0.9432
 1317SOL     OW15586   3.960   2.905   5.769 -0.3697 -0.3559 -0.2874
 1317SOL    HW115587   3.908   2.825   5.773  1.1988 -1.2939  0.8281
 1317SOL    HW215588   3.891   2.969   5.747 -0.6488 -0.0392  1.5442
 1318SOL     OW15589   1.772   2.388   3.062  0.0731 -0.1119 -0.6755
 1318SOL    HW115590   1.802   2.433   2.983  0.3221 -1.7174 -1.4934
 1318SOL    HW215591   1.758   2.297   3.036 -1.6180 -0.7053  2.2311
 1319SOL     OW15592   0.123   0.828   8.742  0.1861 -0.0586 -0.5434
 1319SOL    HW115593   0.071   0.795   8.668 -0.5289  1.3767 -0.6806
 1319SOL    HW215594   0.087   0.772   8.810  1.4484 -0.6775 -0.3769
 1320SOL     OW15595   0.616   3.817  17.144  0.2653  0.0691  0.2724
 1320SOL    HW115596   0.678   3.890  17.157  2.4666 -1.5012 -1.4881
 1320SOL    HW215597   0.671   3.761  17.090  0.4051  3.0843 -2.7269
 1321SOL     OW15598   4.156   2.206   7.826  0.3778 -0.5361 -0.0773
 1321SOL    HW115599   4.238   2.167   7.796  0.7626  0.5086 -0.3642
 1321SOL    HW215600   4.098   2.206   7.750 -0.1260 -1.6752  0.3096
 1322SOL     OW15601   2.081   2.920   6.632 -0.2432  0.0659  0.0795
 1322SOL    HW115602   2.146   2.851   6.650  1.6967  1.5006 -1.4540
 1322SOL    HW215603   2.015   2.874   6.580  0.3215 -0.6453 -0.0173
 1323SOL     OW15604   4.612   0.540   6.371 -0.2088 -0.2339  0.2474
 1323SOL    HW115605   4.629   0.611   6.432  1.1171  0.0047 -0.3921
 1323SOL    HW215606   4.526   0.563   6.335 -0.4464  0.0095  0.9661
 1324SOL     OW15607   2.573   3.557   5.973 -0.2783 -0.2538 -0.6251
 1324SOL    HW115608   2.539   3.575   6.061 -1.1655  1.1996 -1.2665
 1324SOL    HW215609   2.494   3.532   5.925 -0.4328  1.6907 -1.4095
 1325SOL     OW15610   3.273   0.587   2.617  0.3049 -0.0692  0.0944
 1325SOL    HW115611   3.183   0.592   2.583 -0.7481  1.0596  3.0892
 1325SOL    HW215612   3.282   0.494   2.637  2.3075 -0.5852 -3.2214
 1326SOL     OW15613   3.487   1.933   7.151 -0.1541  0.3326  0.4782
 1326SOL    HW115614   3.452   1.946   7.063 -0.5141  1.5569  0.8119
 1326SOL    HW215615   3.547   1.866   7.116  1.3247  2.0782 -0.3302
 1327SOL     OW15616   4.216   2.796   7.296 -0.4621 -0.0215  0.9130
 1327SOL    HW115617   4.250   2.837   7.217  2.1709 -2.2434  0.8759
 1327SOL    HW215618   4.212   2.703   7.273 -2.3694  0.6046 -1.2151
 1328SOL     OW15619   2.310   2.061   9.943  0.1286  0.2282 -0.1695
 1328SOL    HW115620   2.300   1.977   9.898 -1.6166  0.4140 -0.1025
 1328SOL    HW215621   2.230   2.106   9.917  1.1695  0.6793 -2.5845
 1329SOL     OW15622   4.682   4.329   2.708  0.2807 -0.2059 -0.0046
 1329SOL    HW115623   4.658   4.245   2.749 -2.6720  1.4704  1.7053
 1329SOL    HW215624   4.639   4.327   2.623 -0.2149  1.5454  0.2028
 1330SOL     OW15625   2.945   1.796   8.428  0.0708  0.1820  0.4470
 1330SOL    HW115626   2.976   1.793   8.338  0.9525  1.7319  0.6981
 1330SOL    HW215627   2.853   1.824   8.424  0.4925  1.2560 -1.6664
 1331SOL     OW15628   0.930   0.494   5.439 -0.0937 -0.2164 -0.3867
 1331SOL    HW115629   0.904   0.553   5.510 -0.6827  0.9053 -1.5334
 1331SOL    HW215630   0.860   0.494   5.373 -2.3664  1.9550  2.0043
 1332SOL     OW15631   0.348   1.865   6.808  0.0270  0.2153 -0.2471
 1332SOL    HW115632   0.434   1.907   6.806 -0.2594  0.8342  0.2328
 1332SOL    HW215633   0.354   1.809   6.886 -1.8596  0.3740  0.0000
 1333SOL     OW15634   3.735   3.311   8.338  0.3449  0.4007 -0.2039
 1333SOL    HW115635   3.801   3.260   8.289  0.2887  0.3940 -0.2731
 1333SOL    HW215636   3.696   3.381   8.287 -1.1166 -0.2336  0.0528
 1334SOL     OW15637   0.395   3.434   1.255  0.0826 -0.4192 -0.0516
 1334SOL    HW115638   0.373   3.345   1.281 -0.8637 -0.0178  0.5095
 1334SOL    HW215639   0.311   3.476   1.274 -0.0374 -0.5061 -0.3980
 1335SOL     OW15640   0.103   4.156  16.675 -0.7959 -0.8329  0.1420
 1335SOL    HW115641   0.096   4.135  16.768 -2.3797 -0.4818  0.1143
 1335SOL    HW215642   0.008   4.166  16.665 -0.8857 -2.0747 -0.1751
 1336SOL     OW15643   3.932   4.159   2.114  0.0600  0.2317  0.2092
 1336SOL    HW115644   3.983   4.212   2.053  2.0455 -0.9095  0.8894
 1336SOL    HW215645   3.935   4.072   2.075  0.5580  0.3155  0.0597
 1337SOL     OW15646   0.377   3.581   6.476  0.2078  0.3695  0.0605
 1337SOL    HW115647   0.439   3.556   6.407 -1.1060 -2.8534  0.0282
 1337SOL    HW215648   0.291   3.573   6.435 -0.4563 -0.6430  1.6042
 1338SOL     OW15649   1.323   2.701  13.931 -0.3103 -0.2523 -0.1379
 1338SOL    HW115650   1.407   2.686  13.888 -0.8286 -1.0683 -0.8625
 1338SOL    HW215651   1.338   2.671  14.021  1.1237 -2.0869 -0.9803
 1339SOL     OW15652   4.683   3.365   4.866 -0.1419  0.6926  0.3884
 1339SOL    HW115653   4.670   3.427   4.795 -3.1429  0.1889  0.4901
 1339SOL    HW215654   0.005   3.409   4.925  0.3396  0.8163 -0.2001
 1340SOL     OW15655   3.749   1.339   7.845 -0.4222  0.3452 -0.0811
 1340SOL    HW115656   3.758   1.434   7.844 -1.9038  0.4869  1.3107
 1340SOL    HW215657   3.702   1.315   7.924  0.0479 -3.2140 -0.8456
 1341SOL     OW15658   1.529   4.736  17.424  0.4358  0.0212  0.1687
 1341SOL    HW115659   1.471   0.021  17.496 -2.3555 -1.8474 -1.4387
 1341SOL    HW215660   1.620   4.729  17.451  0.2404  0.3750  0.9126
 1342SOL     OW15661   3.211   2.656  10.088 -0.2547  0.0425 -0.3369
 1342SOL    HW115662   3.300   2.684  10.111 -0.3804 -1.4879  1.9631
 1342SOL    HW215663   3.159   2.737  10.085 -1.3894 -0.6567  0.6792
 1343SOL     OW15664   3.972   4.106  15.174 -0.0955 -0.7151  0.6287
 1343SOL    HW115665   3.968   4.182  15.232  1.7866 -1.4800  1.7744
 1343SOL    HW215666   3.978   4.160  15.096  1.8088  0.6012  1.7016
 1344SOL     OW15667   3.978   2.380  17.737 -0.6043 -0.3713 -1.1558
 1344SOL    HW115668   3.883   2.392  17.736 -0.8187 -1.8837  0.7223
 1344SOL    HW215669   3.988   2.345   0.074  0.9626 -0.7982 -1.4998
 1345SOL     OW15670   1.836   4.328   1.979  1.1161 -0.0057  0.9053
 1345SOL    HW115671   1.912   4.292   1.934  0.1958 -1.3128  0.3978
 1345SOL    HW215672   1.809   4.396   1.917  3.4516 -2.0879 -2.3589
 1346SOL     OW15673   3.973   0.904   8.432 -0.5417 -0.3442 -0.4072
 1346SOL    HW115674   3.991   0.837   8.498 -1.5374 -0.8050 -0.6112
 1346SOL    HW215675   4.056   0.903   8.383  0.6162 -0.9983  1.5673
 1347SOL     OW15676   2.880   2.510   4.231 -0.3902 -0.3442 -0.8875
 1347SOL    HW115677   2.856   2.503   4.138  3.4543 -1.3030 -1.8053
 1347SOL    HW215678   2.807   2.476   4.282 -0.4353  1.9018  0.5175
 1348SOL     OW15679   0.859   3.349   4.398  0.7798 -0.5380  0.5632
 1348SOL    HW115680   0.854   3.254   4.392 -0.2645 -0.3998 -0.7572
 1348SOL    HW215681   0.804   3.358   4.476  0.5693 -0.6249  0.4233
 1349SOL     OW15682   2.657   1.247  16.642  0.0782 -0.0572 -0.3334
 1349SOL    HW115683   2.613   1.265  16.725 -0.1643 -0.7411 -0.3149
 1349SOL    HW215684   2.587   1.278  16.583 -1.6586 -2.1330  0.6402
 1350SOL     OW15685   1.813   2.675   6.924  0.8918 -0.2216 -0.5254
 1350SOL    HW115686   1.813   2.636   6.836 -1.7900  1.6401 -1.3218
 1350SOL    HW215687   1.873   2.614   6.967  1.6952  0.8531 -0.1351
 1351SOL     OW15688   0.884   0.917  14.783  0.2281 -0.1690 -0.6692
 1351SOL    HW115689   0.911   0.854  14.849  1.8301  2.1374  0.8724
 1351SOL    HW215690   0.793   0.937  14.806  0.1195 -0.3059 -0.9827
 1352SOL     OW15691   3.659   1.158   6.289  0.2169  0.1440  0.0613
 1352SOL    HW115692   3.577   1.155   6.338 -0.3954  0.2620 -0.9517
 1352SOL    HW215693   3.710   1.218   6.343  2.5990 -2.5068  0.7653
 1353SOL     OW15694   4.540   2.515   9.235 -0.3375 -0.4310 -0.2039
 1353SOL    HW115695   4.526   2.573   9.310 -0.4978  0.1014 -0.6468
 1353SOL    HW215696   4.612   2.474   9.282 -0.0721  1.2671  0.8710
 1354SOL     OW15697   3.807   3.843  10.833 -0.3803 -0.1919  0.5532
 1354SOL    HW115698   3.893   3.884  10.828  0.7303 -2.3646  1.4891
 1354SOL    HW215699   3.753   3.921  10.818 -0.1001 -0.2241 -0.5542
 1355SOL     OW15700   0.875   1.515   4.069 -0.1511  0.3838  0.5584
 1355SOL    HW115701   0.792   1.516   4.021 -0.5588  0.6990  1.2765
 1355SOL    HW215702   0.853   1.539   4.158  2.7813  0.6895  1.1983
 1356SOL     OW15703   2.392   1.016   5.364 -0.4267  0.7229 -0.6510
 1356SOL    HW115704   2.399   1.042   5.456 -0.4451 -0.5379 -0.2872
 1356SOL    HW215705   2.305   0.977   5.367 -0.6028  1.1213 -0.6436
 1357SOL     OW15706   3.520   3.778   6.231 -0.3671  0.1782  0.8905
 1357SOL    HW115707   3.469   3.704   6.265 -1.6777 -0.4184 -2.3606
 1357SOL    HW215708   3.602   3.731   6.245 -0.3306 -0.4119 -1.2515
 1358SOL     OW15709   3.847   2.918   7.709 -0.2389 -0.4644 -0.2883
 1358SOL    HW115710   3.825   2.982   7.640  0.0196 -0.1166 -0.0471
 1358SOL    HW215711   3.872   2.974   7.782  0.3737  2.4546 -2.7143
 1359SOL     OW15712   0.123   3.469   8.965  0.1480 -0.1343 -0.1631
 1359SOL    HW115713   0.171   3.420   9.032  1.0401 -1.3716 -1.6862
 1359SOL    HW215714   0.054   3.406   8.945 -0.1194  0.0944  0.0547
 1360SOL     OW15715   1.899   2.603   1.807 -0.1751  0.1429 -0.4046
 1360SOL    HW115716   1.912   2.612   1.901 -3.2117 -0.0409  0.0306
 1360SOL    HW215717   1.895   2.696   1.783 -1.2672  0.3762  0.6819
 1361SOL     OW15718   3.019   1.403   3.848  0.0824 -0.3452 -0.7437
 1361SOL    HW115719   2.997   1.438   3.761 -0.5311  1.3405  0.0940
 1361SOL    HW215720   2.991   1.313   3.833 -0.5401 -0.0646 -1.2726
 1362SOL     OW15721   0.424   3.908   7.559 -0.6935 -0.0815  0.1208
 1362SOL    HW115722   0.432   3.990   7.511 -0.7797 -0.4586 -0.5480
 1362SOL    HW215723   0.460   3.928   7.645 -0.6524  0.2808  0.0173
 1363SOL     OW15724   0.964   1.153   2.573  0.3736  0.5982 -0.2353
 1363SOL    HW115725   0.995   1.193   2.492 -0.8526  1.1721 -0.4261
 1363SOL    HW215726   0.878   1.134   2.538  1.0727 -1.3350 -0.8875
 1364SOL     OW15727   3.421   4.145   6.283 -0.2920 -0.1061 -0.4545
 1364SOL    HW115728   3.435   4.238   6.268  4.0957 -0.6622  0.4071
 1364SOL    HW215729   3.348   4.154   6.345  1.3771  0.0382  1.4546
 1365SOL     OW15730   1.485   4.546  13.423 -0.0989 -0.2366  0.3298
 1365SOL    HW115731   1.530   4.489  13.361  3.6085  2.9491  0.1161
 1365SOL    HW215732   1.417   4.570  13.360  0.6589 -0.4182 -0.5691
 1366SOL     OW15733   4.290   3.491   1.834  0.2164  0.8756  0.4660
 1366SOL    HW115734   4.248   3.405   1.837  0.0741  0.8953 -1.2021
 1366SOL    HW215735   4.246   3.522   1.755  1.5270  3.1868  0.6308
 1367SOL     OW15736   1.234   3.912  10.116 -0.3906 -0.0516 -0.3763
 1367SOL    HW115737   1.167   3.930  10.050 -0.3312 -1.6534 -0.8790
 1367SOL    HW215738   1.307   3.894  10.056  0.1856 -0.0404  0.3297
 1368SOL     OW15739   2.954   4.581   6.535  1.1154 -0.0494  0.1862
 1368SOL    HW115740   2.955   4.656   6.476  0.6891 -1.2473 -1.3373
 1368SOL    HW215741   3.048   4.564   6.536  1.0880 -0.2293 -0.9841
 1369SOL     OW15742   1.263   2.713   6.987 -0.0647  0.7922 -0.0034
 1369SOL    HW115743   1.211   2.681   6.913 -0.9390 -0.2744  1.0771
 1369SOL    HW215744   1.353   2.680   6.974 -0.9354 -1.3724 -0.5768
 1370SOL     OW15745   0.317   3.105  16.259  0.6129  0.6976  0.3717
 1370SOL    HW115746   0.394   3.055  16.235 -0.5460 -0.9789  0.1575
 1370SOL    HW215747   0.241   3.056  16.226  0.8147  0.3774  0.3879
 1371SOL     OW15748   0.502   2.395   3.652 -0.0351 -0.2076 -0.0136
 1371SOL    HW115749   0.595   2.388   3.632  0.1573 -0.4735  0.9319
 1371SOL    HW215750   0.472   2.304   3.648  2.6195 -1.0200 -0.7587
 1372SOL     OW15751   1.448   0.252  11.426 -0.0523 -0.0727 -0.0524
 1372SOL    HW115752   1.436   0.157  11.434  0.4996 -0.2009 -0.6606
 1372SOL    HW215753   1.509   0.249  11.352  0.9175 -2.3895  0.8237
 1373SOL     OW15754   2.313   2.610  17.023 -0.0513  0.3326 -0.0366
 1373SOL    HW115755   2.324   2.660  17.104  0.8058 -0.4079  0.2996
 1373SOL    HW215756   2.249   2.668  16.982  1.3963  2.9182  1.3300
 1374SOL     OW15757   1.536   3.107  15.559 -0.2800 -0.0489 -0.1219
 1374SOL    HW115758   1.472   3.132  15.626 -0.0154 -0.4932  0.2964
 1374SOL    HW215759   1.501   3.141  15.476 -0.6239  0.3689  0.1933
 1375SOL     OW15760   4.421   1.878   5.506 -0.4983  0.5409  0.0862
 1375SOL    HW115761   4.361   1.894   5.579  0.7239 -0.4416  1.3175
 1375SOL    HW215762   4.398   1.956   5.457 -0.6640 -1.0892 -2.4328
 1376SOL     OW15763   4.291   1.489   4.480  0.3906  0.0386 -0.0278
 1376SOL    HW115764   4.252   1.557   4.536 -1.6984 -0.1467 -1.2842
 1376SOL    HW215765   4.251   1.406   4.505 -1.2391  1.4398  2.0893
 1377SOL     OW15766   4.722   2.590   2.241  0.4715  0.5283 -0.2931
 1377SOL    HW115767   4.632   2.564   2.257  0.2243  1.5705 -0.0002
 1377SOL    HW215768   4.725   2.663   2.303  2.6297  0.5356 -0.3905
 1378SOL     OW15769   2.402   4.187   8.085 -0.2649  0.3888  0.5550
 1378SOL    HW115770   2.475   4.210   8.028  0.1158 -0.4345  0.7094
 1378SOL    HW215771   2.432   4.119   8.145  0.6964  0.6613  0.3754
 1379SOL     OW15772   2.462   0.232  10.585  0.1631 -0.0215  0.2386
 1379SOL    HW115773   2.475   0.208  10.677  0.4050  0.5334  0.3498
 1379SOL    HW215774   2.500   0.320  10.579 -0.9593  0.5049  0.8526
 1380SOL     OW15775   3.974   4.126  10.604 -0.1965 -0.7777 -0.2111
 1380SOL    HW115776   3.952   4.204  10.656 -0.1882  0.5185 -2.1798
 1380SOL    HW215777   4.015   4.066  10.667  0.7652 -0.0485 -0.1396
 1381SOL     OW15778   1.428   1.507   3.742  0.4858 -0.2571 -0.5447
 1381SOL    HW115779   1.361   1.576   3.738 -0.2470 -0.8145  2.3145
 1381SOL    HW215780   1.438   1.475   3.652  1.7650  0.4406 -0.6499
 1382SOL     OW15781   2.222   3.196  12.586 -0.3194  0.5639  0.0256
 1382SOL    HW115782   2.287   3.181  12.516 -0.6296  1.6399 -0.4960
 1382SOL    HW215783   2.282   3.205  12.660  1.0715 -0.0680 -1.0119
 1383SOL     OW15784   3.688   1.842   9.837 -0.5319  0.0834  0.2124
 1383SOL    HW115785   3.637   1.887   9.769  0.3168  0.9388  0.1355
 1383SOL    HW215786   3.716   1.920   9.886 -2.1193  1.4863 -1.1267
 1384SOL     OW15787   4.307   2.587   2.678 -0.3872 -0.2592  0.7259
 1384SOL    HW115788   4.246   2.557   2.609  0.9242 -1.2447 -0.0099
 1384SOL    HW215789   4.337   2.503   2.713  1.4838 -0.4769 -1.3662
 1385SOL     OW15790   0.156   4.161   8.337  0.0123  0.4044  0.2077
 1385SOL    HW115791   0.118   4.113   8.264 -2.5115  1.7797  0.6233
 1385SOL    HW215792   0.184   4.090   8.395  0.0008  1.0784  1.0461
 1386SOL     OW15793   1.179   3.177  15.171  0.0790 -0.4222  0.6552
 1386SOL    HW115794   1.180   3.182  15.266 -1.3945 -0.8613  0.6975
 1386SOL    HW215795   1.151   3.262  15.138 -0.0029 -1.7741 -2.8099
 1387SOL     OW15796   2.631   1.684   6.972 -0.2517 -0.1053  0.6923
 1387SOL    HW115797   2.644   1.755   7.034  1.2345  0.1946  0.0234
 1387SOL    HW215798   2.716   1.646   6.952 -0.3676  0.5950 -1.1670
 1388SOL     OW15799   4.582   1.906   4.685 -0.2114 -0.1099  0.2279
 1388SOL    HW115800   4.670   1.939   4.701 -0.8465  0.7428  1.9202
 1388SOL    HW215801   4.562   1.919   4.592 -0.3719 -0.7647  0.1666
 1389SOL     OW15802   1.553   3.395   6.470  0.1730  0.0800 -0.1103
 1389SOL    HW115803   1.575   3.485   6.497 -0.1322  0.1537 -0.1114
 1389SOL    HW215804   1.458   3.386   6.473  0.3542 -1.8397 -0.1663
 1390SOL     OW15805   1.112   0.952  13.684  0.0680  0.6175 -0.1933
 1390SOL    HW115806   1.030   0.931  13.728  1.3857 -2.2294  0.9278
 1390SOL    HW215807   1.087   1.039  13.653 -2.0991 -0.3092 -1.0422
 1391SOL     OW15808   4.459   2.445   5.594  0.0328  0.6752 -0.0892
 1391SOL    HW115809   4.495   2.518   5.644  0.8235  1.8897 -2.4094
 1391SOL    HW215810   4.480   2.479   5.507  1.8391 -1.3361 -0.4316
 1392SOL     OW15811   0.008   0.424   5.837  0.0467 -0.3767  0.5819
 1392SOL    HW115812   0.058   0.442   5.916  1.1561  1.5129 -0.5569
 1392SOL    HW215813   4.658   0.422   5.873 -0.3119  1.8752 -0.1726
 1393SOL     OW15814   3.620   1.966   8.358  0.1961 -0.3764 -0.4200
 1393SOL    HW115815   3.705   1.988   8.397 -1.5231  2.3936  1.7147
 1393SOL    HW215816   3.591   1.916   8.434  2.9196  0.6129  1.2622
 1394SOL     OW15817   3.926   1.270   5.280 -0.3550 -0.2801  0.1740
 1394SOL    HW115818   3.893   1.360   5.271 -0.5052 -0.5738 -2.2647
 1394SOL    HW215819   3.973   1.253   5.199  0.8182 -1.4738  1.1100
 1395SOL     OW15820   2.649   4.543   6.004  0.3830 -0.0696  0.1438
 1395SOL    HW115821   2.621   4.552   5.913  2.6388 -0.3872 -0.5940
 1395SOL    HW215822   2.662   4.448   6.007 -3.0695 -0.4601  2.5772
 1396SOL     OW15823   3.179   2.993   8.563 -0.6589 -0.5625 -0.0102
 1396SOL    HW115824   3.195   2.929   8.494 -1.8868 -1.6764  0.7422
 1396SOL    HW215825   3.089   2.967   8.585 -1.0538  2.6471  2.1678
 1397SOL     OW15826   1.407   2.686   3.798  0.4401  0.2005 -0.0724
 1397SOL    HW115827   1.452   2.707   3.716 -0.9801  2.9686 -0.1544
 1397SOL    HW215828   1.364   2.771   3.811 -0.1623 -0.1873  0.4172
 1398SOL     OW15829   1.637   2.677   5.984 -0.1040  0.5657 -0.5338
 1398SOL    HW115830   1.725   2.679   5.946  0.4286 -0.2981  0.6506
 1398SOL    HW215831   1.654   2.737   6.057  1.4546  0.9047 -1.1717
 1399SOL     OW15832   2.497   3.700   2.070 -0.3102  0.2234  0.5680
 1399SOL    HW115833   2.569   3.763   2.073  0.6376 -0.7702 -0.6746
 1399SOL    HW215834   2.541   3.618   2.095 -0.2537  0.0391 -0.1237
 1400SOL     OW15835   3.987   0.049   2.185  0.3372  0.1412  0.0015
 1400SOL    HW115836   3.958   0.123   2.238  1.9155  0.0848  0.9384
 1400SOL    HW215837   3.930   0.055   2.108 -0.1039 -0.5052  0.2773
 1401SOL     OW15838   0.870   1.066   5.740 -0.2519 -0.0357  0.5228
 1401SOL    HW115839   0.873   1.116   5.822 -1.3089  0.6604  0.1279
 1401SOL    HW215840   0.950   1.014   5.746 -0.2336 -0.1087 -0.4244
 1402SOL     OW15841   3.927   3.310   5.721 -0.0934 -0.1985 -0.0570
 1402SOL    HW115842   3.945   3.353   5.804 -0.9021  0.3562 -0.1676
 1402SOL    HW215843   3.897   3.222   5.744  1.4972 -1.0134 -1.1092
 1403SOL     OW15844   4.362   3.947   0.982  0.1188 -0.1971  0.3446
 1403SOL    HW115845   4.309   3.924   1.059 -1.5770  1.1744 -0.4129
 1403SOL    HW215846   4.447   3.908   1.001 -2.0364 -4.0166  2.2571
 1404SOL     OW15847   0.653   0.968   8.167 -0.0078  0.2766  0.3984
 1404SOL    HW115848   0.690   1.015   8.093  1.0968 -0.2273  0.6296
 1404SOL    HW215849   0.579   0.925   8.125 -0.5552  1.1067  0.5066
 1405SOL     OW15850   3.566   2.526  10.699  0.1679  0.3480 -0.5615
 1405SOL    HW115851   3.661   2.537  10.699  0.2200 -0.1344 -0.7812
 1405SOL    HW215852   3.537   2.603  10.649  0.1658  1.1441  0.6751
 1406SOL     OW15853   1.394   2.764   4.530  0.4776 -0.0234 -0.4368
 1406SOL    HW115854   1.421   2.672   4.537 -0.9373 -0.5011 -1.0592
 1406SOL    HW215855   1.442   2.806   4.601 -1.4386  0.5112  0.5533
 1407SOL     OW15856   3.969   1.480   3.940 -0.6484 -0.4948  0.2641
 1407SOL    HW115857   3.941   1.571   3.931  0.2635 -0.0997  1.4399
 1407SOL    HW215858   3.951   1.460   3.849 -0.8257 -0.8966  0.3857
 1408SOL     OW15859   2.564   2.568  11.056  0.5017  0.1682 -0.0225
 1408SOL    HW115860   2.604   2.655  11.063 -0.5358  0.6747 -0.3865
 1408SOL    HW215861   2.545   2.581  10.963 -0.2981 -0.7456  0.0112
 1409SOL     OW15862   0.834   3.235   8.366 -0.4610  0.1921 -0.2444
 1409SOL    HW115863   0.902   3.251   8.431  1.9389 -0.5547 -2.5863
 1409SOL    HW215864   0.829   3.140   8.354 -0.1521  0.7713 -5.1267
 1410SOL     OW15865   0.105   4.709   1.902  0.2772 -0.3912 -0.5235
 1410SOL    HW115866   0.020   4.681   1.870 -0.5014 -0.6504  1.7820
 1410SOL    HW215867   0.098   4.697   1.997  4.7548 -1.6843 -0.3066
 1411SOL     OW15868   1.503   0.483   2.259 -0.6308  0.1255 -0.7755
 1411SOL    HW115869   1.547   0.471   2.343 -0.8995  2.2661 -0.3281
 1411SOL    HW215870   1.429   0.537   2.284  0.3075  2.2997 -2.6412
 1412SOL     OW15871   4.670   1.230   0.086  0.1469 -0.0299  0.2672
 1412SOL    HW115872   4.611   1.242   0.011 -2.2151 -2.7564  1.6996
 1412SOL    HW215873   4.695   1.138   0.077  0.5279  0.1042 -0.0602
 1413SOL     OW15874   4.327   3.431   1.266  0.0794 -0.0760 -0.3699
 1413SOL    HW115875   4.391   3.484   1.218  0.3743  0.3298  0.4697
 1413SOL    HW215876   4.256   3.439   1.202  0.7556 -1.6520 -1.2930
 1414SOL     OW15877   1.865   0.068  11.061 -0.5655  0.1339  0.0233
 1414SOL    HW115878   1.933   0.115  11.013 -1.3709 -1.0170 -2.2246
 1414SOL    HW215879   1.884   4.715  11.040  0.7443  0.3241  0.3870
 1415SOL     OW15880   2.391   3.328   8.636 -0.0123 -0.1046  0.1304
 1415SOL    HW115881   2.304   3.307   8.603  0.1829 -3.4381  1.7456
 1415SOL    HW215882   2.398   3.260   8.702  1.7807  1.4380  1.5372
 1416SOL     OW15883   1.425   1.166  15.462 -0.3654 -0.0355  0.2854
 1416SOL    HW115884   1.474   1.087  15.485  0.9289  0.4430 -0.8440
 1416SOL    HW215885   1.423   1.158  15.367  1.8897 -0.1655  0.2604
 1417SOL     OW15886   2.235   2.175  13.066  0.5075  0.2429 -0.5406
 1417SOL    HW115887   2.170   2.169  12.997 -0.7920  1.3917  0.5859
 1417SOL    HW215888   2.185   2.147  13.143  1.3057 -2.3517 -0.9573
 1418SOL     OW15889   2.549   0.056   2.340 -0.5705  0.0006 -0.2192
 1418SOL    HW115890   2.580   0.144   2.361 -1.6674  0.3496 -0.0376
 1418SOL    HW215891   2.621   0.021   2.288  0.3719  0.0646  1.0674
 1419SOL     OW15892   3.465   1.054   8.690 -0.3578 -0.1429  0.2060
 1419SOL    HW115893   3.545   1.087   8.731  1.2012 -1.5731 -1.6859
 1419SOL    HW215894   3.404   1.101   8.748  0.0064  1.9626 -1.1167
 1420SOL     OW15895   2.998   3.361   3.958 -0.1387  0.3019 -0.0769
 1420SOL    HW115896   3.066   3.351   4.025 -0.6975  2.7313  0.8511
 1420SOL    HW215897   3.039   3.410   3.888  0.5500 -1.5554 -0.9769
 1421SOL     OW15898   1.798   3.725   5.483 -0.6184 -0.4984  0.0967
 1421SOL    HW115899   1.723   3.725   5.542 -0.1124  0.5272  0.7414
 1421SOL    HW215900   1.834   3.641   5.510 -2.4796 -2.2058 -2.6837
 1422SOL     OW15901   3.249   3.237   3.584 -0.4037  0.4435  0.7921
 1422SOL    HW115902   3.227   3.160   3.635  1.1793  1.0705  2.4395
 1422SOL    HW215903   3.333   3.216   3.543 -0.5967 -1.2961  1.3157
 1423SOL     OW15904   4.449   2.341  12.737  0.3247 -0.2100  0.4996
 1423SOL    HW115905   4.379   2.376  12.682 -1.4104 -1.1833  2.0788
 1423SOL    HW215906   4.400   2.260  12.755 -0.1235 -0.2814 -1.0610
 1424SOL     OW15907   1.722   0.496   8.122 -0.2563  0.1649  0.3863
 1424SOL    HW115908   1.775   0.430   8.167  1.0726  0.3536 -0.9373
 1424SOL    HW215909   1.738   0.468   8.032  0.5171  2.2020 -0.1143
 1425SOL     OW15910   4.199   1.083   7.946  0.0690 -0.1074  0.6401
 1425SOL    HW115911   4.123   1.106   7.894 -0.5305  0.2224  1.6685
 1425SOL    HW215912   4.250   1.041   7.877 -0.4946  2.0594 -1.0686
 1426SOL     OW15913   1.298   4.561  17.678  0.5145  0.1631  0.5703
 1426SOL    HW115914   1.207   4.585  17.656  0.1543  1.4012  3.4289
 1426SOL    HW215915   1.345   4.642  17.658  0.8701 -0.1980 -0.0442
 1427SOL     OW15916   1.275   4.470  10.753  0.1714  0.2397 -0.1427
 1427SOL    HW115917   1.287   4.405  10.823  2.4713  0.6713 -0.1295
 1427SOL    HW215918   1.327   4.427  10.685 -0.0754  1.0854 -0.8548
 1428SOL     OW15919   0.388   4.701  11.380 -0.2534  0.0524 -0.2457
 1428SOL    HW115920   0.308   4.667  11.340  0.2801 -1.4161 -0.0698
 1428SOL    HW215921   0.420   4.621  11.421 -1.6568 -0.5333 -0.3079
 1429SOL     OW15922   2.857   2.781  12.293 -0.1728  0.3894 -0.3551
 1429SOL    HW115923   2.830   2.692  12.312 -1.3147  0.9436  0.6096
 1429SOL    HW215924   2.898   2.772  12.207  1.0144 -0.7145  0.3316
 1430SOL     OW15925   1.635   1.648  11.599 -0.6792  0.0021  0.2313
 1430SOL    HW115926   1.620   1.717  11.664 -0.4254  1.3511 -1.1409
 1430SOL    HW215927   1.652   1.701  11.522  1.2054 -1.3395 -0.2547
 1431SOL     OW15928   3.554   0.349   7.513  0.0283 -0.2047 -0.1891
 1431SOL    HW115929   3.557   0.429   7.564 -2.2868 -0.4461  0.3321
 1431SOL    HW215930   3.464   0.316   7.522  0.0664 -0.0976  0.5715
 1432SOL     OW15931   2.523   2.930   7.725 -0.6051  0.0302 -0.2601
 1432SOL    HW115932   2.509   2.923   7.819  0.9002  2.2470  0.1325
 1432SOL    HW215933   2.461   2.862   7.699 -1.7629  1.3219 -0.8668
 1433SOL     OW15934   2.848   2.943  14.986 -0.0185  0.5401 -0.2983
 1433SOL    HW115935   2.940   2.967  14.995  0.2214 -0.7511  0.6888
 1433SOL    HW215936   2.799   3.002  15.043  2.4079  0.7012  1.5793
 1434SOL     OW15937   1.459   4.148   7.283 -0.5248 -0.2930  0.2876
 1434SOL    HW115938   1.370   4.136   7.316 -0.4691 -0.8774  0.2152
 1434SOL    HW215939   1.454   4.229   7.232 -1.0757 -0.7288 -0.3364
 1435SOL     OW15940   4.577   3.726  12.557  0.5856  0.6897  0.4696
 1435SOL    HW115941   4.506   3.757  12.501  0.0441 -2.2501 -0.4760
 1435SOL    HW215942   4.653   3.769  12.518  0.4168  2.2835  1.8778
 1436SOL     OW15943   3.847   0.662   4.298 -0.6935  0.1568 -0.5359
 1436SOL    HW115944   3.873   0.734   4.239 -0.7554 -1.0403 -2.0151
 1436SOL    HW215945   3.792   0.611   4.239  0.2220  0.5980 -1.7771
 1437SOL     OW15946   2.311   3.706   7.394  0.1397  0.1724 -0.3919
 1437SOL    HW115947   2.405   3.685   7.394 -0.3089 -1.8688 -0.1017
 1437SOL    HW215948   2.282   3.685   7.306 -2.6270  0.0965  0.5284
 1438SOL     OW15949   4.558   1.634   7.008  0.0466  0.0674  0.4863
 1438SOL    HW115950   4.626   1.681   6.959 -1.4343 -0.3570 -1.9778
 1438SOL    HW215951   4.527   1.699   7.071  2.3293  0.3904  1.2693
 1439SOL     OW15952   1.520   1.766   9.394  0.5803  0.2727  0.0804
 1439SOL    HW115953   1.516   1.710   9.471  2.1802  1.3667  0.9662
 1439SOL    HW215954   1.533   1.848   9.442  2.0370 -2.0822  3.7542
 1440SOL     OW15955   0.229   3.845   7.806  0.0593 -0.7067  0.3367
 1440SOL    HW115956   0.273   3.766   7.775 -4.0796 -2.7358 -0.2241
 1440SOL    HW215957   0.142   3.826   7.773  1.0203 -0.6899 -2.2304
 1441SOL     OW15958   0.637   0.203  10.774  0.2133  0.1695 -0.1226
 1441SOL    HW115959   0.676   0.291  10.773  0.4964  0.0429 -0.1835
 1441SOL    HW215960   0.672   0.171  10.857 -1.5135  2.6710  1.5624
 1442SOL     OW15961   1.429   1.356   9.795 -0.3566 -0.2545  0.7599
 1442SOL    HW115962   1.426   1.270   9.754  2.0506 -0.2677  0.6167
 1442SOL    HW215963   1.507   1.327   9.842  0.4371 -0.1054 -0.4816
 1443SOL     OW15964   0.421   3.467  17.316  0.0741 -0.2753  0.5109
 1443SOL    HW115965   0.404   3.452  17.409 -0.6773 -1.8838  0.0991
 1443SOL    HW215966   0.516   3.453  17.315 -0.3483 -3.0462 -0.2510
 1444SOL     OW15967   1.638   2.340   7.229  0.1003  0.2650  0.4366
 1444SOL    HW115968   1.557   2.374   7.268 -1.4802 -0.4617 -2.2230
 1444SOL    HW215969   1.693   2.410   7.265  1.7096 -1.0768  0.5385
 1445SOL     OW15970   2.447   0.172   5.257  0.2139  0.5121  0.1581
 1445SOL    HW115971   2.446   0.107   5.326  0.8118  0.6630  0.3128
 1445SOL    HW215972   2.362   0.161   5.214  0.4072 -1.6946  0.3615
 1446SOL     OW15973   3.884   0.993  17.026  0.3261 -0.1134 -0.3486
 1446SOL    HW115974   3.837   1.073  17.050 -0.8394 -1.2575  1.1412
 1446SOL    HW215975   3.973   1.028  17.039  0.7810 -1.6267  0.5496
 1447SOL     OW15976   4.457   1.550   5.121  0.0272  0.4438 -0.4758
 1447SOL    HW115977   4.368   1.584   5.117 -0.6967 -1.3999  0.0358
 1447SOL    HW215978   4.493   1.626   5.075 -0.6675 -0.2251 -2.1376
 1448SOL     OW15979   1.694   1.077   9.126 -0.0715 -0.3268  0.2166
 1448SOL    HW115980   1.643   1.005   9.164  0.6506 -0.8511  0.1998
 1448SOL    HW215981   1.774   1.053   9.173  0.4018 -1.0352 -0.9312
 1449SOL     OW15982   2.646   0.398   2.191  0.5968 -0.1065  0.3842
 1449SOL    HW115983   2.647   0.323   2.130  1.5591 -0.2014  0.5076
 1449SOL    HW215984   2.718   0.449   2.153  0.5183 -0.3331 -0.0730
 1450SOL     OW15985   3.584   4.329   2.998 -0.3248  0.8678  0.3122
 1450SOL    HW115986   3.553   4.333   3.089  0.1528  0.9181  0.4728
 1450SOL    HW215987   3.539   4.404   2.958  0.0472  1.4032  0.8948
 1451SOL     OW15988   0.820   1.826   4.828  0.0594  0.2038  0.4938
 1451SOL    HW115989   0.792   1.748   4.875  1.8154  0.0992  1.3736
 1451SOL    HW215990   0.863   1.869   4.902  2.9447 -1.7021 -0.0788
 1452SOL     OW15991   4.671   2.105   5.151 -0.0768 -0.3062 -0.1191
 1452SOL    HW115992   0.011   2.052   5.163  1.0058  0.9349 -1.5693
 1452SOL    HW215993   4.598   2.047   5.173 -0.2369 -0.3385 -0.7156
 1453SOL     OW15994   0.409   2.219   6.839  0.3721 -0.2624 -0.2645
 1453SOL    HW115995   0.437   2.299   6.882  0.1507 -0.2797 -0.0886
 1453SOL    HW215996   0.316   2.213   6.858  0.5366 -3.0444 -0.2850
 1454SOL     OW15997   0.582   3.862  13.841  0.3298  0.2250 -0.8859
 1454SOL    HW115998   0.534   3.848  13.760  1.1604 -0.8730 -1.1856
 1454SOL    HW215999   0.613   3.772  13.854  0.2378  0.2618 -0.3796
 1455SOL     OW16000   4.505   4.114   4.819 -0.0102 -0.4350  0.0471
 1455SOL    HW116001   4.431   4.055   4.801 -0.1822 -0.0389 -0.5191
 1455SOL    HW216002   4.456   4.168   4.881  0.4960 -0.2710  0.3085
 1456SOL     OW16003   3.319   1.727   5.623 -0.5338 -0.1194 -0.4496
 1456SOL    HW116004   3.252   1.663   5.599  0.1203 -0.0272 -2.5047
 1456SOL    HW216005   3.265   1.796   5.661 -0.6690  1.5133 -3.5889
 1457SOL     OW16006   3.294   1.674   2.556  0.5625  0.2576  0.4942
 1457SOL    HW116007   3.208   1.707   2.531  0.2505 -1.3750 -0.5773
 1457SOL    HW216008   3.290   1.657   2.651 -1.9236  2.2704  0.7419
 1458SOL     OW16009   1.161   2.858   9.037 -0.6116 -0.3470  0.1022
 1458SOL    HW116010   1.252   2.861   9.067 -0.5443 -0.3619 -0.0983
 1458SOL    HW216011   1.131   2.949   9.046  1.0891  0.1465  0.8249
 1459SOL     OW16012   2.654   2.942  12.445 -0.1150 -0.9229 -0.1206
 1459SOL    HW116013   2.573   2.890  12.439 -0.4435 -0.4876  0.5748
 1459SOL    HW216014   2.716   2.874  12.420 -1.9531 -2.5457 -0.3115
 1460SOL     OW16015   0.767   0.572   3.333 -0.0855  0.1874 -0.2230
 1460SOL    HW116016   0.801   0.542   3.249  2.1327  0.1302  0.6909
 1460SOL    HW216017   0.719   0.495   3.361  4.4749 -2.1464  1.2552
 1461SOL     OW16018   1.854   3.775   4.899  0.2679 -0.3443  0.7193
 1461SOL    HW116019   1.879   3.807   4.986 -1.0568  0.0927  0.9374
 1461SOL    HW216020   1.821   3.687   4.918 -1.0977 -0.0052 -0.1154
 1462SOL     OW16021   3.547   3.127  16.410  0.1494  0.0493 -0.1841
 1462SOL    HW116022   3.619   3.107  16.350  1.0787 -1.1108  1.3317
 1462SOL    HW216023   3.492   3.050  16.399 -1.1829  1.2324 -1.8366
 1463SOL     OW16024   1.611   2.889   8.025  0.1338  0.2774  0.2679
 1463SOL    HW116025   1.629   2.891   7.931  0.0630  3.4228  0.2932
 1463SOL    HW216026   1.634   2.803   8.058 -1.8870 -0.6111 -0.6720
 1464SOL     OW16027   3.251   1.611  14.178  0.3823 -0.2530  0.0804
 1464SOL    HW116028   3.252   1.620  14.082 -0.5275  0.6850  0.1611
 1464SOL    HW216029   3.288   1.525  14.194 -1.2162 -1.2769 -1.6915
 1465SOL     OW16030   0.001   1.519   2.575  0.3767 -0.3623  0.0643
 1465SOL    HW116031   4.664   1.469   2.544  0.2503  0.0018 -0.2095
 1465SOL    HW216032   0.021   1.458   2.646 -0.3473 -1.6885 -0.8695
 1466SOL     OW16033   0.523   2.621   6.770  0.3938 -0.4070  0.2250
 1466SOL    HW116034   0.533   2.547   6.830 -0.9330 -2.0698 -1.5746
 1466SOL    HW216035   0.548   2.577   6.689  2.2578 -2.6596  2.0078
 1467SOL     OW16036   3.730   1.483  15.647  0.3847 -0.0347  0.0084
 1467SOL    HW116037   3.724   1.473  15.552  0.3851  1.9672 -0.2094
 1467SOL    HW216038   3.751   1.394  15.676  1.8070 -0.0585 -1.1446
 1468SOL     OW16039   0.944   1.784   3.250  0.5922  0.1284 -0.4993
 1468SOL    HW116040   0.951   1.725   3.325  0.1587 -0.4874 -0.9441
 1468SOL    HW216041   1.036   1.805   3.237  1.0440 -0.7803  1.1557
 1469SOL     OW16042   1.177   1.462   2.582 -0.2427 -0.1157  0.1755
 1469SOL    HW116043   1.172   1.381   2.532 -0.1880 -1.0089  1.6278
 1469SOL    HW216044   1.099   1.456   2.636  0.1084 -0.2590  0.6679
 1470SOL     OW16045   4.298   2.569   6.269  0.1338  0.2311 -0.1529
 1470SOL    HW116046   4.388   2.596   6.250  0.5659 -1.4827 -0.5066
 1470SOL    HW216047   4.276   2.627   6.342  2.4997  1.2707 -0.2523
 1471SOL     OW16048   4.582   0.163  13.741 -0.0126  0.3704  0.0475
 1471SOL    HW116049   4.621   0.159  13.654  0.4546  3.2657  0.1365
 1471SOL    HW216050   4.614   0.246  13.776  0.3525  0.5479 -0.7098
 1472SOL     OW16051   3.609   0.909  17.062 -0.2602 -0.1577 -0.4520
 1472SOL    HW116052   3.698   0.905  17.029  0.4805 -0.7076  1.6210
 1472SOL    HW216053   3.567   0.823  17.063 -0.7442  0.0652 -1.6773
 1473SOL     OW16054   3.229   0.290   9.679 -0.1876 -0.2211 -0.3599
 1473SOL    HW116055   3.311   0.337   9.668 -0.8535  0.7170 -1.3619
 1473SOL    HW216056   3.187   0.306   9.594 -2.0381  1.7345  0.8991
 1474SOL     OW16057   4.069   1.339  12.865  0.4254  0.0766 -0.0200
 1474SOL    HW116058   4.104   1.273  12.806 -0.0792  0.2785 -0.5413
 1474SOL    HW216059   4.114   1.320  12.948 -0.1409 -3.5562 -0.5524
 1475SOL     OW16060   3.232   3.053   3.772 -0.3066  0.4098 -0.0842
 1475SOL    HW116061   3.290   2.978   3.759 -0.0840  0.3704  1.1672
 1475SOL    HW216062   3.256   3.100   3.852  0.4004 -1.3162  0.7328
 1476SOL     OW16063   3.383   1.635   3.699 -0.3128  0.4462  0.6755
 1476SOL    HW116064   3.444   1.682   3.644  0.3014 -1.2351 -0.0608
 1476SOL    HW216065   3.330   1.603   3.627  2.3515 -0.0660 -1.0216
 1477SOL     OW16066   0.102   4.025   6.973 -0.4183  0.1330  0.7637
 1477SOL    HW116067   0.059   4.104   7.005  0.2826  0.3303  1.2083
 1477SOL    HW216068   0.084   3.965   7.046  1.5196 -0.7454  0.5361
 1478SOL     OW16069   3.767   3.701   9.623  0.3892  0.2776 -0.2579
 1478SOL    HW116070   3.832   3.771   9.625 -1.1139  1.7018 -0.7509
 1478SOL    HW216071   3.765   3.659   9.709  1.6547 -1.1956 -0.9718
 1479SOL     OW16072   4.483   1.449   8.524 -0.0716 -0.2275  0.7070
 1479SOL    HW116073   4.577   1.431   8.521  0.4399  2.4160  1.0397
 1479SOL    HW216074   4.465   1.479   8.435  0.9578  0.0174  0.5889
 1480SOL     OW16075   3.184   0.921   0.788  0.1470 -0.1739 -0.4536
 1480SOL    HW116076   3.194   0.972   0.707 -0.1833  0.2539 -0.2280
 1480SOL    HW216077   3.118   0.860   0.755 -1.3688  1.3141 -0.1726
 1481SOL     OW16078   1.240   0.689   6.367  0.4459  0.1297  0.2010
 1481SOL    HW116079   1.333   0.700   6.386  0.7288 -1.9550 -0.0324
 1481SOL    HW216080   1.214   0.626   6.434 -0.7008  0.0092 -0.3620
 1482SOL     OW16081   4.662   1.789   7.225  0.8071 -0.2478 -0.3262
 1482SOL    HW116082   4.610   1.863   7.193 -0.0795 -1.7159 -2.2746
 1482SOL    HW216083   4.722   1.779   7.151  0.7945 -1.1103 -0.2238
 1483SOL     OW16084   0.851   1.443   7.895  0.0284  0.2723  0.1594
 1483SOL    HW116085   0.768   1.460   7.850  0.7423 -0.5508 -1.4598
 1483SOL    HW216086   0.899   1.380   7.842 -0.3951 -1.7475  2.1970
 1484SOL     OW16087   3.941   1.029  12.868  0.6837  0.2888  0.5783
 1484SOL    HW116088   4.029   1.045  12.833  0.4263 -1.3603 -0.8371
 1484SOL    HW216089   3.908   0.964  12.806  1.7114  0.2948  0.0212
 1485SOL     OW16090   4.514   1.380   2.519 -0.0957  0.2425 -0.2993
 1485SOL    HW116091   4.436   1.370   2.573  0.4793  0.4918  0.5780
 1485SOL    HW216092   4.517   1.299   2.468  1.5427  0.5606 -0.7143
 1486SOL     OW16093   1.353   3.409   6.696  0.1085 -0.2742  0.6498
 1486SOL    HW116094   1.290   3.474   6.663 -0.0842 -1.2066 -0.7875
 1486SOL    HW216095   1.430   3.465   6.684  1.8208 -2.4255  1.5766
 1487SOL     OW16096   4.002   4.294  13.994  0.0394 -0.3142  0.4452
 1487SOL    HW116097   3.979   4.324  14.082 -0.3906 -0.7175  0.4686
 1487SOL    HW216098   3.952   4.349  13.933  1.6330 -0.4798 -1.0015
 1488SOL     OW16099   1.601   4.396   9.070 -0.2115  0.1878 -0.1747
 1488SOL    HW116100   1.666   4.349   9.017  0.1507  1.6897 -1.0756
 1488SOL    HW216101   1.523   4.370   9.022  0.1478  0.1049 -0.7202
 1489SOL     OW16102   2.838   4.015  12.539  0.5103 -0.1397 -0.6441
 1489SOL    HW116103   2.787   4.078  12.489  0.4753 -0.3484 -0.8700
 1489SOL    HW216104   2.838   4.045  12.630  0.5557  0.6590 -0.9051
 1490SOL     OW16105   2.096   0.917   2.552 -0.3681 -0.1930  0.2244
 1490SOL    HW116106   2.050   0.921   2.469  0.1174  1.5967  0.0410
 1490SOL    HW216107   2.035   0.857   2.595  0.1404 -1.5283 -0.9201
 1491SOL     OW16108   3.306   4.668   7.572  0.0581 -0.2317  0.2497
 1491SOL    HW116109   3.328   4.650   7.480 -2.3335 -0.4537 -0.2865
 1491SOL    HW216110   3.295   4.581   7.608  0.8410 -0.2800  0.3676
 1492SOL     OW16111   2.515   1.569  12.026 -0.2255 -0.1157  0.1314
 1492SOL    HW116112   2.530   1.628  11.952  0.4420  0.1415  0.4700
 1492SOL    HW216113   2.435   1.526  11.996 -1.1551  1.5699  0.1886
 1493SOL     OW16114   3.828   4.716   2.848  0.0932  0.2464  0.4699
 1493SOL    HW116115   3.797   4.634   2.887  0.5617  0.0438  0.4201
 1493SOL    HW216116   3.785   4.707   2.763  1.7752  0.0374 -0.3747
 1494SOL     OW16117   1.735   0.309   7.514 -0.3846 -0.2165 -0.3908
 1494SOL    HW116118   1.650   0.278   7.484 -0.6562  1.0701 -0.9492
 1494SOL    HW216119   1.797   0.243   7.482  2.4559  0.7658  3.1006
 1495SOL     OW16120   0.408   4.252   5.284 -0.5198  0.0427 -0.4958
 1495SOL    HW116121   0.329   4.227   5.331 -1.6865  1.4808 -1.7285
 1495SOL    HW216122   0.442   4.162   5.282 -0.2502  0.1785 -2.2604
 1496SOL     OW16123   4.578   0.025  11.588  0.5725  0.1757 -0.3632
 1496SOL    HW116124   4.632   4.696  11.548  0.4011  1.4150 -2.6866
 1496SOL    HW216125   4.656   0.070  11.619 -0.5400  0.5774  1.8446
 1497SOL     OW16126   2.169   0.387   8.417  0.7401 -0.1060 -0.1996
 1497SOL    HW116127   2.096   0.450   8.422  1.3219  0.6618 -1.4759
 1497SOL    HW216128   2.204   0.395   8.506 -0.3079  0.6686  0.1528
 1498SOL     OW16129   3.668   4.212   0.482 -0.3584  0.3459  0.2724
 1498SOL    HW116130   3.595   4.229   0.542 -2.3777  1.0412 -2.3525
 1498SOL    HW216131   3.658   4.118   0.465  1.1443  0.0129  1.3184
 1499SOL     OW16132   1.345   0.877  17.729  0.4066 -0.3503 -0.2026
 1499SOL    HW116133   1.302   0.961  17.743 -1.7692 -1.3780 -0.6714
 1499SOL    HW216134   1.434   0.903   0.002  0.2900  0.5360 -0.7310
 1500SOL     OW16135   3.200   3.668   3.963  0.0948 -0.2936  0.0137
 1500SOL    HW116136   3.292   3.680   3.938  0.2964 -2.3096 -0.2686
 1500SOL    HW216137   3.164   3.630   3.883  1.5936 -0.6223 -0.5085
 1501SOL     OW16138   0.098   2.830   3.643 -0.4646 -0.2295 -0.0684
 1501SOL    HW116139   0.006   2.842   3.622  0.0981 -1.6584 -3.2423
 1501SOL    HW216140   0.099   2.835   3.739  1.0320  0.7796 -0.1302
 1502SOL     OW16141   0.210   2.212   1.196  0.4592  0.9727  0.2162
 1502SOL    HW116142   0.216   2.149   1.268  0.4656  1.1761  0.3938
 1502SOL    HW216143   0.119   2.192   1.177  0.8549 -0.2223 -0.4368
 1503SOL     OW16144   0.719   3.589  12.070  0.0364 -0.0359  0.1202
 1503SOL    HW116145   0.651   3.525  12.090  0.9483  0.0301  3.2903
 1503SOL    HW216146   0.733   3.616  12.160  1.5612 -1.2228  0.2282
 1504SOL     OW16147   1.123   3.502   7.482 -0.9665  0.1279  0.2121
 1504SOL    HW116148   1.134   3.433   7.417 -2.9955 -0.3848  0.3946
 1504SOL    HW216149   1.028   3.513   7.477 -0.5904  3.1080 -0.4157
 1505SOL     OW16150   4.244   3.322   4.937  0.0241 -0.1221  0.1926
 1505SOL    HW116151   4.285   3.405   4.960  1.5710 -0.1885 -2.3407
 1505SOL    HW216152   4.230   3.284   5.024 -0.0445  2.7632  1.4359
 1506SOL     OW16153   3.559   2.750   5.067 -0.5792  0.1618 -0.2504
 1506SOL    HW116154   3.604   2.783   4.990  1.6985 -1.7634  0.2521
 1506SOL    HW216155   3.636   2.749   5.123 -1.7508  1.7130  1.3720
 1507SOL     OW16156   1.582   3.429  17.035 -0.2104 -0.1853 -0.3277
 1507SOL    HW116157   1.593   3.387  16.950  1.6466  0.5594 -0.4537
 1507SOL    HW216158   1.521   3.374  17.084  0.0928  0.9707  1.3469
 1508SOL     OW16159   0.069   1.870   7.848 -0.0774  0.3472  0.0475
 1508SOL    HW116160   4.729   1.833   7.889 -0.2874  1.6304  0.7942
 1508SOL    HW216161   0.075   1.958   7.885  0.2954  0.9897 -1.5385
 1509SOL     OW16162   2.941   3.487   1.976  0.0761 -0.2561 -0.1071
 1509SOL    HW116163   2.934   3.422   1.906 -3.3388 -0.4483  0.4104
 1509SOL    HW216164   2.851   3.519   1.980 -0.3426 -1.4964  0.4509
 1510SOL     OW16165   3.529   3.273   5.859 -0.4167  0.7518 -0.0438
 1510SOL    HW116166   3.467   3.305   5.925 -3.0938 -3.4586 -0.5243
 1510SOL    HW216167   3.474   3.266   5.781 -3.0049  1.6178  1.6986
 1511SOL     OW16168   1.244   2.018   2.332 -0.2158 -0.1483 -0.0422
 1511SOL    HW116169   1.169   1.985   2.381 -1.7477  1.5966 -1.2376
 1511SOL    HW216170   1.205   2.101   2.305 -0.9791 -0.7749 -0.8743
 1512SOL     OW16171   3.824   0.770   7.590 -0.4332  0.5297 -0.4167
 1512SOL    HW116172   3.743   0.802   7.629  0.7362  0.8944  1.6845
 1512SOL    HW216173   3.866   0.852   7.616  3.2949 -1.4433 -0.2759
 1513SOL     OW16174   2.686   3.612  12.601  0.3647 -0.8337 -0.7444
 1513SOL    HW116175   2.734   3.682  12.557  0.4818 -0.0298  0.6708
 1513SOL    HW216176   2.754   3.545  12.597 -0.5934 -1.7763 -1.4207
 1514SOL     OW16177   4.618   2.115   3.963 -0.1223  0.6590 -0.1228
 1514SOL    HW116178   4.559   2.070   4.023  0.4408  1.2380  0.8747
 1514SOL    HW216179   4.668   2.151   4.037  1.2245  0.1615 -0.7905
 1515SOL     OW16180   0.572   4.075  13.985 -0.0514  0.2551  0.0244
 1515SOL    HW116181   0.665   4.069  14.008  0.3461  0.6544 -1.5139
 1515SOL    HW216182   0.557   3.986  13.951 -2.5015  0.0086  1.7038
 1516SOL     OW16183   4.634   1.592   6.410 -0.2835 -0.0366 -0.4207
 1516SOL    HW116184   4.540   1.575   6.413 -0.1447 -0.9498 -1.1698
 1516SOL    HW216185   4.665   1.502   6.395 -0.8645  0.0012 -1.8626
 1517SOL     OW16186   3.606   2.630  14.114 -0.3155  0.1838 -0.3832
 1517SOL    HW116187   3.602   2.554  14.057 -0.4223 -0.4110  0.4196
 1517SOL    HW216188   3.515   2.625  14.142 -0.1110 -0.4011  0.1816
 1518SOL     OW16189   3.290   0.635   6.316 -0.0566  0.1515 -0.2140
 1518SOL    HW116190   3.284   0.540   6.303  0.8091  0.2131 -1.0846
 1518SOL    HW216191   3.357   0.666   6.256  0.0431  1.2236  0.4541
 1519SOL     OW16192   4.296   1.978  16.823  0.2325 -0.2559  0.0539
 1519SOL    HW116193   4.224   1.972  16.886 -0.7189 -3.2986 -1.3141
 1519SOL    HW216194   4.255   1.928  16.752 -0.0089 -1.5579  1.1244
 1520SOL     OW16195   0.501   3.791  12.404 -0.1601  0.2427 -0.6765
 1520SOL    HW116196   0.477   3.701  12.379  1.5639 -0.4190  0.0730
 1520SOL    HW216197   0.572   3.815  12.345  1.5236 -1.5135  0.6073
 1521SOL     OW16198   0.224   0.058  14.396  0.5666 -0.4236  0.3855
 1521SOL    HW116199   0.256   4.714  14.360 -0.3478 -0.7080  0.2098
 1521SOL    HW216200   0.137   0.023  14.414  0.8625 -0.8156  1.0177
 1522SOL     OW16201   4.256   3.204  13.915 -0.1714  0.7165  0.0421
 1522SOL    HW116202   4.202   3.207  13.994 -1.1101  3.1794 -0.6864
 1522SOL    HW216203   4.310   3.281  13.931 -0.0092  0.1732  2.0135
 1523SOL     OW16204   3.719   3.058   8.203 -0.5583 -0.1081 -0.2639
 1523SOL    HW116205   3.655   3.127   8.219  0.2955  0.5336  0.3257
 1523SOL    HW216206   3.662   3.000   8.152 -1.3957  0.6559 -0.1884
 1524SOL     OW16207   2.017   1.671   8.772  0.1465  0.1456 -0.1338
 1524SOL    HW116208   2.039   1.698   8.862  1.2623 -0.4745 -0.2217
 1524SOL    HW216209   2.016   1.576   8.763 -1.1436  0.4342 -2.9536
 1525SOL     OW16210   4.724   4.427   6.850 -0.1684 -0.4098  0.3958
 1525SOL    HW116211   0.008   4.438   6.757 -0.7331 -2.1505  0.0510
 1525SOL    HW216212   4.629   4.414   6.843 -0.1422 -2.1992  3.6832
 1526SOL     OW16213   0.495   1.527   0.267 -0.5928 -0.2448 -0.3341
 1526SOL    HW116214   0.493   1.515   0.362 -1.4103  0.0789 -0.3081
 1526SOL    HW216215   0.586   1.508   0.246 -0.6092 -0.1212 -0.5180
 1527SOL     OW16216   3.659   2.378   1.697  0.5441  0.3445 -0.3463
 1527SOL    HW116217   3.660   2.303   1.637 -0.0958 -0.1960  0.3223
 1527SOL    HW216218   3.699   2.331   1.770  1.7288 -0.4927 -1.5244
 1528SOL     OW16219   2.086   1.894   9.325  0.4875  0.5326  0.1998
 1528SOL    HW116220   2.000   1.887   9.284 -0.2641  2.2198  1.4809
 1528SOL    HW216221   2.064   1.917   9.415 -2.0932  2.9968 -1.0403
 1529SOL     OW16222   0.323   0.217  17.313 -0.8907 -0.5822  0.3212
 1529SOL    HW116223   0.372   0.288  17.272  0.0806 -2.4412 -1.7517
 1529SOL    HW216224   0.247   0.214  17.254 -1.7031 -1.4272  1.4167
 1530SOL     OW16225   3.458   4.465   0.535  0.4030 -0.0944 -0.1315
 1530SOL    HW116226   3.367   4.472   0.564  0.8461 -1.4438  1.5804
 1530SOL    HW216227   3.495   4.453   0.622  0.8736  1.8838 -0.0581
 1531SOL     OW16228   1.195   3.448   1.926 -0.0902 -0.0468  0.4645
 1531SOL    HW116229   1.173   3.449   1.833 -0.7921  2.4961  0.6578
 1531SOL    HW216230   1.143   3.377   1.961  1.7570 -3.0382 -2.8248
 1532SOL     OW16231   1.210   0.155  15.365 -0.2638 -0.0546 -0.0076
 1532SOL    HW116232   1.142   0.119  15.308 -0.3863 -1.7711  1.2006
 1532SOL    HW216233   1.156   0.219  15.411 -0.8485  0.5891 -1.5958
 1533SOL     OW16234   4.713   3.845   3.189 -0.4070 -0.0235  0.3075
 1533SOL    HW116235   4.669   3.785   3.128 -0.3959  0.4409 -0.1516
 1533SOL    HW216236   0.047   3.786   3.211  0.8277  1.1899 -0.5455
 1534SOL     OW16237   2.249   1.626   5.118 -0.3573  0.5998  0.7717
 1534SOL    HW116238   2.160   1.600   5.143 -0.8181 -0.4913 -2.0271
 1534SOL    HW216239   2.278   1.542   5.084 -0.2479  0.9563 -0.0086
 1535SOL     OW16240   4.621   2.499  12.876  0.1227 -0.4904 -0.2521
 1535SOL    HW116241   4.670   2.442  12.935  1.0496  1.1060  0.5151
 1535SOL    HW216242   4.556   2.438  12.840 -1.6388  1.6424 -0.6588
 1536SOL     OW16243   3.184   0.360   3.430  0.6720 -0.0658  0.4250
 1536SOL    HW116244   3.157   0.351   3.521 -2.1571 -1.5380 -0.5764
 1536SOL    HW216245   3.213   0.450   3.413  2.8240 -0.5512  1.6136
 1537SOL     OW16246   0.263   3.547   2.073 -0.0688 -0.5179 -0.1394
 1537SOL    HW116247   0.284   3.569   1.982 -2.5624  1.2681 -0.2514
 1537SOL    HW216248   0.207   3.469   2.067 -0.5680 -0.1095 -0.7576
 1538SOL     OW16249   4.102   2.243   2.718  0.1016 -0.6082 -0.2479
 1538SOL    HW116250   4.083   2.315   2.657  0.8744 -0.3508 -0.1767
 1538SOL    HW216251   4.132   2.182   2.651  1.6488  0.6321 -0.6872
 1539SOL     OW16252   0.546   2.084   8.382 -0.3076  0.2815  0.1168
 1539SOL    HW116253   0.578   2.001   8.417  0.5926  0.2580 -0.7624
 1539SOL    HW216254   0.505   2.051   8.302 -0.2961  0.8640 -0.1284
 1540SOL     OW16255   3.632   2.255   2.183 -0.3584 -0.1881 -0.2613
 1540SOL    HW116256   3.554   2.254   2.239  0.0791  2.1675  0.3876
 1540SOL    HW216257   3.684   2.178   2.206 -0.2787  0.1792  0.8132
 1541SOL     OW16258   3.742   2.455   9.185 -0.1030 -0.0197 -0.0726
 1541SOL    HW116259   3.685   2.527   9.212  0.2462 -0.4662  1.9166
 1541SOL    HW216260   3.689   2.414   9.116  1.6049  1.1364 -2.0602
 1542SOL     OW16261   0.646   2.189   3.426 -0.5876 -0.6046  0.0599
 1542SOL    HW116262   0.697   2.225   3.499  1.0166 -3.7039  0.4531
 1542SOL    HW216263   0.664   2.095   3.436  2.7942  0.0549  0.0184
 1543SOL     OW16264   1.767   1.735   5.630 -0.1676 -0.3269  0.0454
 1543SOL    HW116265   1.801   1.786   5.557  1.3467 -1.1448  0.1626
 1543SOL    HW216266   1.837   1.767   5.687 -0.7978  2.0778 -0.5286
 1544SOL     OW16267   2.794   1.340   1.981 -0.8884  0.2593  0.1879
 1544SOL    HW116268   2.790   1.427   1.941  0.0576 -1.0317 -2.7012
 1544SOL    HW216269   2.725   1.348   2.046 -0.5241 -0.9590  0.7202
 1545SOL     OW16270   3.072   3.401   7.047 -0.2392  0.2503 -0.0659
 1545SOL    HW116271   3.075   3.433   7.137 -0.4047  2.1480 -0.7339
 1545SOL    HW216272   2.980   3.422   7.027 -0.0552  2.2506  1.1749
 1546SOL     OW16273   4.326   3.733   8.305 -0.0890 -0.2659  0.0875
 1546SOL    HW116274   4.327   3.649   8.352  0.8705 -1.8885 -2.8103
 1546SOL    HW216275   4.342   3.786   8.383  0.6372 -2.9143  1.7495
 1547SOL     OW16276   2.905   2.424   1.749 -0.1364 -0.2898  0.5070
 1547SOL    HW116277   3.000   2.421   1.751 -0.1004  0.7429  0.5684
 1547SOL    HW216278   2.886   2.336   1.716 -0.4548 -1.3088  3.3936
 1548SOL     OW16279   0.832   4.436  17.177 -0.1761 -0.0302  0.2586
 1548SOL    HW116280   0.745   4.461  17.208 -0.2515  0.4585 -0.3530
 1548SOL    HW216281   0.822   4.360  17.121  0.3728 -0.8354  1.2562
 1549SOL     OW16282   3.820   3.091   3.741 -0.3417 -0.3484  0.0764
 1549SOL    HW116283   3.836   3.183   3.718  1.5607 -1.2818 -2.3206
 1549SOL    HW216284   3.845   3.092   3.833  0.5092  3.3984 -0.1879
 1550SOL     OW16285   2.968   3.137   7.405  0.5677 -0.5068 -0.4387
 1550SOL    HW116286   2.955   3.042   7.396  2.4706 -0.9973  1.9785
 1550SOL    HW216287   3.021   3.144   7.484  0.2419  0.5460 -0.3198
 1551SOL     OW16288   0.281   2.408   8.404 -0.4229  0.4673  0.1784
 1551SOL    HW116289   0.197   2.434   8.440 -0.2342  0.4336  0.6447
 1551SOL    HW216290   0.303   2.332   8.458 -0.4592 -1.5911 -2.6712
 1552SOL     OW16291   1.945   1.438   6.347 -0.1476 -0.5270 -0.0413
 1552SOL    HW116292   1.959   1.520   6.396 -0.8746 -0.7135  0.4838
 1552SOL    HW216293   2.031   1.433   6.306  0.6842  3.0766  1.2305
 1553SOL     OW16294   3.452   2.560   1.282 -0.2876 -0.1507  0.2171
 1553SOL    HW116295   3.389   2.494   1.255  0.9389 -1.1280 -0.2176
 1553SOL    HW216296   3.529   2.514   1.315  0.4267  1.2418  0.4902
 1554SOL     OW16297   4.585   4.096   7.193 -0.0003 -0.6105 -0.0099
 1554SOL    HW116298   4.644   4.159   7.153 -0.7855  1.5924  2.2830
 1554SOL    HW216299   4.543   4.049   7.121 -0.2014  0.7017 -0.7464
 1555SOL     OW16300   3.013   4.172   6.431  0.0203  0.4676 -0.2552
 1555SOL    HW116301   3.055   4.096   6.471 -1.5121  0.7511  1.9002
 1555SOL    HW216302   2.922   4.144   6.421 -0.2238  1.6785 -1.4460
 1556SOL     OW16303   4.183   4.628   7.247  0.0195 -0.1310 -0.6738
 1556SOL    HW116304   4.146   4.539   7.244  1.7857 -0.8047 -3.4960
 1556SOL    HW216305   4.173   4.651   7.339  0.9973 -0.4314 -0.4894
 1557SOL     OW16306   3.730   1.932   8.102 -0.7678 -0.3858 -0.0517
 1557SOL    HW116307   3.790   1.858   8.089 -0.5907  0.0735 -1.7611
 1557SOL    HW216308   3.684   1.909   8.183  2.4468 -0.8658  1.6692
 1558SOL     OW16309   4.373   0.772   4.706  0.2233  0.1475 -0.2451
 1558SOL    HW116310   4.343   0.807   4.790 -0.0032 -0.1153 -0.2161
 1558SOL    HW216311   4.308   0.702   4.700 -2.1022  2.0945  2.2576
 1559SOL     OW16312   0.112   1.464   5.096 -1.0763  0.0195 -0.4847
 1559SOL    HW116313   0.200   1.425   5.091 -2.3194 -3.1374  2.5927
 1559SOL    HW216314   0.072   1.399   5.038  0.4568 -1.4271  0.0936
 1560SOL     OW16315   2.837   2.793  15.637  0.2756  0.1644 -0.5437
 1560SOL    HW116316   2.860   2.787  15.545 -2.7303 -1.1630 -1.1930
 1560SOL    HW216317   2.796   2.879  15.645 -0.3824 -0.2554  0.5675
 1561SOL     OW16318   1.908   2.565   2.116 -0.0503 -0.0662 -0.0460
 1561SOL    HW116319   1.969   2.637   2.129  0.2439 -0.2137 -0.6002
 1561SOL    HW216320   1.830   2.606   2.153  0.3676 -0.0807  0.8425
 1562SOL     OW16321   1.292   2.964  14.348  0.3491  0.2798 -0.1074
 1562SOL    HW116322   1.230   3.036  14.343  0.2654  0.0625 -2.1665
 1562SOL    HW216323   1.290   2.944  14.254 -1.2860  0.6257 -0.1493
 1563SOL     OW16324   0.378   0.135  15.308  0.5481 -0.2619  0.4967
 1563SOL    HW116325   0.465   0.174  15.294  1.5658 -3.2437 -1.7260
 1563SOL    HW216326   0.356   0.105  15.219 -1.6037 -0.5942  1.1515
 1564SOL     OW16327   3.847   0.674   4.692 -0.2721 -0.2201  0.0040
 1564SOL    HW116328   3.795   0.723   4.628 -1.0588 -0.3133  0.5796
 1564SOL    HW216329   3.877   0.599   4.640 -0.0071 -0.8040  1.0025
 1565SOL     OW16330   1.276   1.380  12.401 -0.0125 -0.1371  0.4843
 1565SOL    HW116331   1.197   1.425  12.370  0.4310  0.3695  0.0833
 1565SOL    HW216332   1.321   1.391  12.317 -1.0879 -1.5215 -0.2795
 1566SOL     OW16333   0.876   3.723  14.581  0.1432  0.4390  0.4669
 1566SOL    HW116334   0.874   3.649  14.521 -0.4470  0.7415  0.1144
 1566SOL    HW216335   0.905   3.780  14.509  1.0061  3.3578  3.1202
 1567SOL     OW16336   2.182   0.367   2.147 -0.6577 -0.2552 -0.3332
 1567SOL    HW116337   2.242   0.395   2.216 -2.9885  0.7235  1.3371
 1567SOL    HW216338   2.164   0.446   2.096 -0.0775  2.0324  2.9620
 1568SOL     OW16339   2.335   2.879   6.942  0.5388 -0.1673  0.2029
 1568SOL    HW116340   2.326   2.807   7.004  1.1065 -0.7164 -0.3469
 1568SOL    HW216341   2.241   2.898   6.945  0.6156  0.1998  0.3010
 1569SOL     OW16342   2.410   0.252   8.632  0.2314  0.8212  0.5033
 1569SOL    HW116343   2.363   0.294   8.704 -0.0296 -0.0441  0.8341
 1569SOL    HW216344   2.497   0.289   8.648  0.9384 -0.1041 -1.1835
 1570SOL     OW16345   2.946   3.006   6.439 -0.1994 -0.4369  0.2630
 1570SOL    HW116346   2.876   3.071   6.439 -0.1532 -0.3854  0.3547
 1570SOL    HW216347   3.024   3.041   6.396  0.5624  0.5624  2.4222
 1571SOL     OW16348   2.380   3.509  15.985 -0.0644  0.6468  0.0514
 1571SOL    HW116349   2.357   3.508  16.078  0.1944  1.5884  0.1245
 1571SOL    HW216350   2.404   3.601  15.975  1.4614  0.3675  1.1697
 1572SOL     OW16351   0.736   4.062   6.087 -0.2608 -0.0321  0.2592
 1572SOL    HW116352   0.804   4.129   6.087 -0.6358  0.3593 -0.8532
 1572SOL    HW216353   0.655   4.113   6.078 -0.2950  0.3586  2.7271
 1573SOL     OW16354   3.619   2.700   8.316 -0.1328  0.7848 -0.1072
 1573SOL    HW116355   3.584   2.766   8.375 -0.6076 -1.7806  2.4514
 1573SOL    HW216356   3.546   2.685   8.255 -0.5263 -0.1187  0.5981
 1574SOL     OW16357   0.464   2.298   2.721 -0.7562  0.6356  0.7139
 1574SOL    HW116358   0.382   2.266   2.682 -1.0206 -0.7155  2.3808
 1574SOL    HW216359   0.428   2.386   2.732 -0.7931  0.6649  0.3634
 1575SOL     OW16360   3.788   2.672   4.726  0.2146  0.4015 -0.1570
 1575SOL    HW116361   3.731   2.736   4.769  1.7164  0.7706  1.2799
 1575SOL    HW216362   3.735   2.641   4.652  1.8739 -1.3401 -0.5946
 1576SOL     OW16363   2.265   0.062   3.072  0.1056 -0.1773 -0.0970
 1576SOL    HW116364   2.299   0.036   2.987 -0.1869  1.0090 -0.5797
 1576SOL    HW216365   2.233   4.717   3.107  1.3135 -0.3915  0.5029
 1577SOL     OW16366   2.723   1.499   8.587 -0.0146  0.1745  0.0253
 1577SOL    HW116367   2.819   1.502   8.586 -0.0043  0.0479  0.4620
 1577SOL    HW216368   2.708   1.433   8.520  2.5648  0.8323 -1.2019
 1578SOL     OW16369   2.599   3.875   2.748 -0.0309  0.4775  0.3395
 1578SOL    HW116370   2.609   3.880   2.653 -2.1005 -2.3813 -0.0145
 1578SOL    HW216371   2.557   3.789   2.760  0.3514  0.4208  1.2808
 1579SOL     OW16372   3.700   3.661   5.422 -0.5116  0.2140 -0.1648
 1579SOL    HW116373   3.705   3.695   5.511 -0.8169  0.1015 -0.1078
 1579SOL    HW216374   3.636   3.721   5.385 -2.3476 -0.7669  1.4044
 1580SOL     OW16375   2.730   2.050  13.137 -0.1262  0.5796 -0.4360
 1580SOL    HW116376   2.781   2.082  13.211  1.2938  0.4992 -1.3764
 1580SOL    HW216377   2.648   2.099  13.145 -0.7079 -0.7092  1.3610
 1581SOL     OW16378   1.981   1.450  15.979  0.1504  0.5393 -0.1856
 1581SOL    HW116379   1.891   1.483  15.983  0.9541  2.8433 -0.9512
 1581SOL    HW216380   2.012   1.457  15.889 -0.2760 -0.0888 -0.3834
 1582SOL     OW16381   3.180   1.118   1.350 -0.3281 -0.4363  0.5778
 1582SOL    HW116382   3.116   1.072   1.405  0.4784  0.4163  2.2367
 1582SOL    HW216383   3.125   1.140   1.275  1.8942  0.2742 -0.8323
 1583SOL     OW16384   0.327   1.406   8.439  0.3527  0.5031  0.0276
 1583SOL    HW116385   0.242   1.415   8.395  0.6811  4.3147  0.2150
 1583SOL    HW216386   0.341   1.311   8.444 -2.8635 -0.0614 -1.3774
 1584SOL     OW16387   2.593   3.939   6.190 -0.2202 -0.1067  0.0009
 1584SOL    HW116388   2.686   3.925   6.177 -0.5257 -1.2809 -0.8963
 1584SOL    HW216389   2.590   3.920   6.283 -0.0979  1.6818  0.3667
 1585SOL     OW16390   2.613   0.682  14.724 -0.2265 -0.5275  0.0525
 1585SOL    HW116391   2.574   0.642  14.802 -1.3469  1.4809  0.5426
 1585SOL    HW216392   2.611   0.775  14.747  1.3103 -0.8640  1.5316
 1586SOL     OW16393   0.278   2.394  13.225  0.0324 -0.0475 -0.3863
 1586SOL    HW116394   0.250   2.308  13.255 -1.5186  0.4956 -0.2800
 1586SOL    HW216395   0.216   2.447  13.276  0.6859  0.3595 -0.0053
 1587SOL     OW16396   3.283   4.100   2.027  0.4094 -0.5148 -0.2199
 1587SOL    HW116397   3.373   4.118   1.997  1.1373 -0.3689  2.0641
 1587SOL    HW216398   3.309   4.072   2.114 -2.1600  1.5770  1.2176
 1588SOL     OW16399   4.600   4.452  10.810 -0.1141 -0.1096  0.3185
 1588SOL    HW116400   4.667   4.390  10.841  0.7790  0.9195  0.4666
 1588SOL    HW216401   4.554   4.386  10.758 -0.9736  0.9172 -0.2054
 1589SOL     OW16402   3.831   1.602   7.877  0.4089  0.1895 -0.2221
 1589SOL    HW116403   3.868   1.639   7.957 -1.4230  1.3199  0.1048
 1589SOL    HW216404   3.899   1.609   7.809  0.9874 -0.2303  0.3192
 1590SOL     OW16405   1.956   4.624   7.206  0.4589 -0.1922 -0.0128
 1590SOL    HW116406   1.951   4.704   7.152 -0.3279  0.3895  0.9153
 1590SOL    HW216407   1.995   4.652   7.288  1.3085 -0.5589 -0.2895
 1591SOL     OW16408   3.606   1.032   1.824 -0.2184  0.0325 -0.0756
 1591SOL    HW116409   3.646   0.958   1.778 -1.1892 -0.5897  0.0801
 1591SOL    HW216410   3.674   1.043   1.890 -0.1638 -1.7785  0.1555
 1592SOL     OW16411   3.355   0.251   5.575 -0.1051  0.4313 -0.5297
 1592SOL    HW116412   3.372   0.228   5.666  2.2097 -2.9553 -1.8162
 1592SOL    HW216413   3.316   0.334   5.602 -1.0689 -0.2635  0.2408
 1593SOL     OW16414   0.273   1.573   6.115  0.5039 -0.1250 -0.3406
 1593SOL    HW116415   0.212   1.634   6.156  0.9807 -0.1313  0.3749
 1593SOL    HW216416   0.275   1.608   6.026  3.4860  1.3747  0.2891
 1594SOL     OW16417   0.101   0.676   2.037 -0.6144 -0.1466 -1.1601
 1594SOL    HW116418   0.197   0.677   2.037 -0.6158 -0.0145 -1.1215
 1594SOL    HW216419   0.070   0.748   2.093 -1.2961 -0.4841 -1.1024
 1595SOL     OW16420   1.003   3.322   4.741 -0.4668  0.4491 -0.2031
 1595SOL    HW116421   0.969   3.241   4.703  1.1998  0.2712 -1.2879
 1595SOL    HW216422   1.026   3.287   4.827  1.9476  0.4197 -0.8799
 1596SOL     OW16423   2.848   4.383   2.142  0.1399 -0.6697 -0.1359
 1596SOL    HW116424   2.920   4.442   2.164  0.4083 -1.9699  2.5041
 1596SOL    HW216425   2.784   4.393   2.212  1.0022 -0.9545  0.6865
 1597SOL     OW16426   4.549   3.600   1.762  0.4768 -0.4282  0.5178
 1597SOL    HW116427   4.543   3.621   1.856 -0.4015 -0.2234  0.4240
 1597SOL    HW216428   4.473   3.542   1.764  0.4216 -0.3981 -1.5423
 1598SOL     OW16429   2.019   1.775   8.471 -0.7332 -0.1452 -0.1801
 1598SOL    HW116430   2.058   1.716   8.406  0.6359 -0.5971  1.0326
 1598SOL    HW216431   1.980   1.713   8.533  0.0205 -0.6014 -0.1547
 1599SOL     OW16432   0.987   4.618  12.553  0.1545 -0.3410  0.6443
 1599SOL    HW116433   0.963   4.631  12.645 -1.5208 -1.4228  0.3722
 1599SOL    HW216434   1.035   4.701  12.555  0.1824 -0.3341 -0.5101
 1600SOL     OW16435   3.419   3.411  16.689 -0.2708  0.2395 -0.1708
 1600SOL    HW116436   3.489   3.385  16.749  0.0350 -1.0533 -1.0755
 1600SOL    HW216437   3.343   3.408  16.747 -0.7958 -1.6993 -0.9592
 1601SOL     OW16438   2.641   1.121   5.530 -0.6373  0.4782  0.3014
 1601SOL    HW116439   2.702   1.124   5.456 -2.0821  1.9473 -0.8512
 1601SOL    HW216440   2.679   1.193   5.579 -0.1445  0.5360 -0.1669
 1602SOL     OW16441   4.567   4.348   3.336  0.4878 -0.1297  0.2266
 1602SOL    HW116442   4.598   4.352   3.426  2.0164  0.7330 -0.3346
 1602SOL    HW216443   4.592   4.261   3.307  0.7989  0.1465 -0.3369
 1603SOL     OW16444   3.616   4.147  11.295 -0.1536 -0.1787 -0.6201
 1603SOL    HW116445   3.673   4.160  11.371 -1.0453 -0.8772  0.1694
 1603SOL    HW216446   3.528   4.155  11.333 -1.3523  0.1114 -3.4383
 1604SOL     OW16447   1.146   3.361   5.876  0.2552 -0.3324 -0.2426
 1604SOL    HW116448   1.061   3.406   5.872  1.2197  1.5645  0.2966
 1604SOL    HW216449   1.130   3.293   5.942  0.7278  2.3103  2.5998
 1605SOL     OW16450   2.167   3.043   4.787 -0.0186  0.6527 -0.2592
 1605SOL    HW116451   2.128   2.959   4.810 -1.8249  1.1591 -1.4789
 1605SOL    HW216452   2.088   3.092   4.808  0.5985  1.9921 -1.0388
 1606SOL     OW16453   2.518   4.241   7.186  0.2043  0.5914  0.0871
 1606SOL    HW116454   2.462   4.311   7.219 -1.4267 -0.4029 -0.5494
 1606SOL    HW216455   2.591   4.291   7.151  0.2274  0.6404  0.2056
 1607SOL     OW16456   4.417   0.741  17.301  0.2950  0.1213  0.2280
 1607SOL    HW116457   4.474   0.777  17.369 -1.5733 -1.1593  2.4769
 1607SOL    HW216458   4.414   0.811  17.236 -0.5144  1.5566  1.8121
 1608SOL     OW16459   1.336   3.863   1.130  0.0461  0.6640  0.4573
 1608SOL    HW116460   1.432   3.869   1.125  0.0286  0.1714 -0.3867
 1608SOL    HW216461   1.304   3.910   1.053 -0.6701 -0.3616  0.1375
 1609SOL     OW16462   2.315   1.513   6.663  0.2732 -0.3209 -0.2636
 1609SOL    HW116463   2.372   1.562   6.604  0.0314 -1.5052 -1.4897
 1609SOL    HW216464   2.348   1.552   6.744  1.4332 -0.6671 -0.5701
 1610SOL     OW16465   0.023   0.970   4.084  0.1875  0.5348  0.3971
 1610SOL    HW116466   4.674   0.989   4.051  1.4894 -0.6925 -3.7760
 1610SOL    HW216467   0.079   0.987   4.009  1.1221 -1.4546  0.6362
 1611SOL     OW16468   2.522   3.449   5.083  0.3544  0.4330 -0.5078
 1611SOL    HW116469   2.502   3.422   5.172 -1.7574  0.3301 -1.0237
 1611SOL    HW216470   2.456   3.410   5.026 -1.0840  0.7624  0.9599
 1612SOL     OW16471   2.110   3.492   2.291 -0.5720  0.4790 -0.0984
 1612SOL    HW116472   2.083   3.566   2.236 -1.3083  0.2495 -0.0382
 1612SOL    HW216473   2.205   3.488   2.278 -0.8261  2.2525 -2.4734
 1613SOL     OW16474   4.636   2.679   3.870 -0.0427  0.7786  0.0999
 1613SOL    HW116475   4.704   2.662   3.935  0.1433 -3.0296 -1.1111
 1613SOL    HW216476   4.633   2.592   3.830  0.8937  0.4238  0.8043
 1614SOL     OW16477   0.412   3.780  17.507  0.7145  0.4525 -0.4086
 1614SOL    HW116478   0.496   3.744  17.477  1.8853 -0.0561  3.5003
 1614SOL    HW216479   0.367   3.699  17.532  2.2206 -0.3059 -0.1268
 1615SOL     OW16480   3.568   2.567   7.729 -0.1760  0.2308 -0.5579
 1615SOL    HW116481   3.613   2.492   7.768  0.3065  2.2048  2.7345
 1615SOL    HW216482   3.634   2.618   7.682  0.3788 -0.1154 -0.1534
 1616SOL     OW16483   4.185   1.466   0.894 -0.1535  0.0070  0.1537
 1616SOL    HW116484   4.150   1.554   0.909  0.9566  0.2751  1.1233
 1616SOL    HW216485   4.115   1.428   0.840 -0.1498 -0.5187  0.5182
 1617SOL     OW16486   4.675   4.495   3.073  0.0849  0.4253  0.1400
 1617SOL    HW116487   4.605   4.430   3.065  0.1995  0.0118  2.5188
 1617SOL    HW216488   4.648   4.537   3.154  0.5453  1.4324 -0.2291
 1618SOL     OW16489   1.467   0.703  15.370 -0.0127  0.1733 -0.2177
 1618SOL    HW116490   1.499   0.678  15.283 -1.1176 -2.1792  0.0317
 1618SOL    HW216491   1.505   0.788  15.388  0.6843 -0.2376  0.2258
 1619SOL     OW16492   3.721   4.348   9.133  0.5557  0.2246 -0.1388
 1619SOL    HW116493   3.656   4.298   9.083  0.3062 -0.4413  0.8580
 1619SOL    HW216494   3.690   4.329   9.221  0.4181 -0.1856 -0.2727
 1620SOL     OW16495   1.710   4.057   7.378 -0.4730 -0.7933 -0.2893
 1620SOL    HW116496   1.616   4.067   7.364 -0.4519  0.3253  0.3543
 1620SOL    HW216497   1.722   4.066   7.472  1.9444 -4.0004 -0.2827
 1621SOL     OW16498   4.085   1.159   1.762  0.5874 -0.3865 -0.0460
 1621SOL    HW116499   4.016   1.119   1.710  0.8540 -0.4831 -0.3285
 1621SOL    HW216500   4.037   1.199   1.835  0.3693  0.6201 -0.7440
 1622SOL     OW16501   2.324   0.739   5.813  0.5275  0.3566 -0.0461
 1622SOL    HW116502   2.414   0.717   5.793  0.4219 -2.2160  2.3547
 1622SOL    HW216503   2.311   0.825   5.772 -0.0981 -0.3786 -1.3876
 1623SOL     OW16504   0.893   0.590  12.179  0.3272 -0.1554 -0.0046
 1623SOL    HW116505   0.969   0.637  12.214  0.5705 -1.1572  0.8146
 1623SOL    HW216506   0.923   0.607  12.090  0.7521  0.1179  0.1910
 1624SOL     OW16507   4.076   2.732   9.616 -0.2302  0.2092 -0.2793
 1624SOL    HW116508   4.039   2.653   9.654  0.2885  1.4455  2.7996
 1624SOL    HW216509   4.147   2.693   9.564 -0.8088  2.6780 -2.9443
 1625SOL     OW16510   1.001   2.482  14.114  0.1139 -0.1503 -0.3653
 1625SOL    HW116511   1.069   2.420  14.089 -1.9297 -2.2180 -0.7566
 1625SOL    HW216512   0.926   2.437  14.074 -2.7560  3.6684  0.6544
 1626SOL     OW16513   3.229   0.612  12.714 -0.4679  0.2441 -0.7301
 1626SOL    HW116514   3.209   0.524  12.746 -0.1562 -0.1847 -1.7298
 1626SOL    HW216515   3.182   0.665  12.779 -0.0872  0.5840 -0.7369
 1627SOL     OW16516   3.115   0.717   9.668  0.3710 -0.0997 -0.3271
 1627SOL    HW116517   3.127   0.707   9.762 -1.6879  2.0737  0.1457
 1627SOL    HW216518   3.204   0.732   9.636 -0.3246  1.5495 -1.5029
 1628SOL     OW16519   1.616   4.155   5.056 -0.1835  0.6205  0.4149
 1628SOL    HW116520   1.646   4.244   5.035 -0.3462  0.4951 -0.3346
 1628SOL    HW216521   1.695   4.105   5.041  0.4074  1.9121 -0.8100
 1629SOL     OW16522   1.940   0.439   4.397  0.3428 -0.7095 -0.3194
 1629SOL    HW116523   1.983   0.363   4.439  0.5315  0.3139  1.3535
 1629SOL    HW216524   2.014   0.470   4.345 -0.0536  0.4349 -0.1991
 1630SOL     OW16525   2.912   3.131   6.818 -0.2229  0.2450  0.1788
 1630SOL    HW116526   2.884   3.197   6.754  1.1606  0.6192 -0.0394
 1630SOL    HW216527   3.005   3.146   6.832  0.1820 -0.7740 -1.4169
 1631SOL     OW16528   1.204   1.095  17.113 -0.1788  0.1399 -0.0683
 1631SOL    HW116529   1.296   1.082  17.092  0.0599  0.3320  0.8493
 1631SOL    HW216530   1.165   1.136  17.036 -3.5000 -3.3830 -0.2899
 1632SOL     OW16531   1.130   1.789   8.295  0.7768 -0.0129 -0.8392
 1632SOL    HW116532   1.178   1.742   8.364 -1.7441  1.2169  1.7412
 1632SOL    HW216533   1.184   1.774   8.217  0.9902  2.5755 -1.1962
 1633SOL     OW16534   2.242   0.475   6.393  0.0515  0.1059  0.5851
 1633SOL    HW116535   2.149   0.491   6.409 -0.4808  1.0788 -3.4996
 1633SOL    HW216536   2.239   0.464   6.298 -1.6900 -0.2054  0.6798
 1634SOL     OW16537   3.200   2.705   1.499  0.0054 -0.1700  0.0779
 1634SOL    HW116538   3.264   2.648   1.541 -0.2927 -0.6634 -0.1335
 1634SOL    HW216539   3.213   2.784   1.550  1.3627  0.3979 -1.1333
 1635SOL     OW16540   2.926   0.974   8.867  0.3976 -0.0837  0.2176
 1635SOL    HW116541   2.940   0.880   8.880 -0.6556 -0.1316  0.9791
 1635SOL    HW216542   3.011   0.999   8.904  1.1240  3.1767 -3.6901
 1636SOL     OW16543   4.561   1.752  14.215  0.4601 -0.2227  0.0204
 1636SOL    HW116544   4.645   1.796  14.224  1.3644 -1.9116 -0.1242
 1636SOL    HW216545   4.549   1.714  14.302 -0.6456  1.7299  0.7207
 1637SOL     OW16546   0.274   2.531   3.079  0.1070 -0.3280  0.0253
 1637SOL    HW116547   0.290   2.581   3.158  0.9678 -0.6623  0.0688
 1637SOL    HW216548   0.180   2.519   3.088  0.2212 -0.3004  1.1478
 1638SOL     OW16549   4.188   4.736  11.960  0.3260  0.1420 -0.0530
 1638SOL    HW116550   4.166   0.044  11.879 -0.5830  1.5249  0.9926
 1638SOL    HW216551   4.140   4.654  11.946 -1.0110  0.5473  2.1938
 1639SOL     OW16552   2.127   4.619   1.964 -0.2251 -0.0367 -1.0795
 1639SOL    HW116553   2.203   4.676   1.956 -1.1687  1.2216 -0.9783
 1639SOL    HW216554   2.174   4.538   1.982 -1.4741 -0.0201  2.0851
 1640SOL     OW16555   2.731   4.088   0.502  0.6765 -0.3318 -0.3679
 1640SOL    HW116556   2.695   4.177   0.497  3.1979  0.6334 -1.4277
 1640SOL    HW216557   2.731   4.070   0.408 -0.6833 -1.2818 -0.1716
 1641SOL     OW16558   3.091   0.612   2.838 -0.6232 -0.3529 -0.3650
 1641SOL    HW116559   3.078   0.537   2.781  1.2038 -1.6194  0.8963
 1641SOL    HW216560   3.054   0.688   2.793  1.4377 -0.1141 -1.6447
 1642SOL     OW16561   4.633   2.003   9.925  0.0382  0.2960  0.0622
 1642SOL    HW116562   4.693   1.943   9.970 -0.6888 -0.6338 -0.2182
 1642SOL    HW216563   4.606   1.955   9.847  0.3483  0.8000 -0.3550
 1643SOL     OW16564   0.542   2.195  16.244  0.2235  0.5995 -0.2699
 1643SOL    HW116565   0.566   2.154  16.161 -0.0655 -2.2436  1.0588
 1643SOL    HW216566   0.532   2.284  16.209 -0.8371  1.1652  1.4457
 1644SOL     OW16567   3.975   2.468   9.366 -0.8554  0.5889 -0.2500
 1644SOL    HW116568   3.968   2.456   9.460 -1.8292  2.3878 -0.0873
 1644SOL    HW216569   3.883   2.456   9.339 -0.5715  0.3501 -1.1271
 1645SOL     OW16570   1.694   4.101   5.616 -0.8177 -0.0103 -0.1750
 1645SOL    HW116571   1.660   4.043   5.548 -0.9977 -0.6314  0.4498
 1645SOL    HW216572   1.616   4.125   5.666 -0.5247 -2.6898  1.5212
 1646SOL     OW16573   3.414   1.637   2.310 -0.0985  0.0981 -0.0596
 1646SOL    HW116574   3.337   1.679   2.271  2.4383  1.4584 -3.5710
 1646SOL    HW216575   3.391   1.649   2.402 -0.2276  0.5281 -0.1514
 1647SOL     OW16576   1.332   4.208   6.227 -0.2978 -0.3165  0.1604
 1647SOL    HW116577   1.347   4.232   6.135  1.8340 -0.8739  0.3734
 1647SOL    HW216578   1.384   4.275   6.270 -1.1844 -0.3651  1.3123
 1648SOL     OW16579   1.811   0.505   3.480  0.2891  0.3054 -0.0608
 1648SOL    HW116580   1.775   0.566   3.416 -1.9282 -1.1116 -0.1708
 1648SOL    HW216581   1.892   0.473   3.439  0.3854  0.6286 -0.1237
 1649SOL     OW16582   3.536   1.160   1.602 -0.1516  0.1132 -0.3102
 1649SOL    HW116583   3.573   1.100   1.666  1.5193 -0.5901 -1.9300
 1649SOL    HW216584   3.483   1.108   1.542  0.7081 -2.0093  0.7969
 1650SOL     OW16585   1.914   3.502   3.778  0.0815 -0.0323  0.1143
 1650SOL    HW116586   1.851   3.430   3.771 -0.2767  0.3197 -0.2593
 1650SOL    HW216587   1.878   3.554   3.850 -0.5529 -0.9608  0.4765
 1651SOL     OW16588   0.027   2.403   6.698  0.4075 -0.1547 -0.1257
 1651SOL    HW116589   0.014   2.400   6.603  0.8649  0.9702 -0.2218
 1651SOL    HW216590   0.082   2.325   6.709  0.6324 -0.1171 -1.0174
 1652SOL     OW16591   1.176   0.432   8.097  0.4843  0.1644  0.0581
 1652SOL    HW116592   1.254   0.406   8.049 -0.2441 -0.5430 -0.7412
 1652SOL    HW216593   1.200   0.524   8.107  2.5354 -0.3937  0.3096
 1653SOL     OW16594   2.605   1.272   6.042 -0.2917 -0.2202 -0.1347
 1653SOL    HW116595   2.608   1.351   5.988 -2.0290  0.8018  1.2750
 1653SOL    HW216596   2.683   1.276   6.098  0.7235 -0.2363 -1.5483
 1654SOL     OW16597   0.473   1.034  17.109  0.2104  0.5360 -0.6177
 1654SOL    HW116598   0.462   1.127  17.129 -1.8491  0.4546 -1.4439
 1654SOL    HW216599   0.528   1.011  17.184 -1.4557 -1.7020 -0.1051
 1655SOL     OW16600   4.642   2.887   2.963 -0.0855  0.0691  0.2573
 1655SOL    HW116601   4.655   2.982   2.969  0.5792 -0.0334  0.3591
 1655SOL    HW216602   4.574   2.883   3.031 -0.5509 -1.0009 -0.2699
 1656SOL     OW16603   0.690   0.108   7.517  0.5927  0.2321  0.1384
 1656SOL    HW116604   0.727   0.165   7.584  3.2153  0.6624 -1.6761
 1656SOL    HW216605   0.711   0.163   7.441  0.0025 -2.2185 -1.8205
 1657SOL     OW16606   1.208   2.769   7.519 -0.0703  0.0140  0.1542
 1657SOL    HW116607   1.164   2.688   7.492 -0.2599 -0.1111  0.8447
 1657SOL    HW216608   1.138   2.833   7.532  2.4268  2.4629  1.4565
 1658SOL     OW16609   2.054   3.906   4.006 -0.2979 -0.2695 -0.4773
 1658SOL    HW116610   1.967   3.927   3.972  0.4700 -0.4340 -2.5600
 1658SOL    HW216611   2.092   3.845   3.942  2.6082  3.2645 -2.1410
 1659SOL     OW16612   3.778   1.240   4.670 -0.3284  1.5567 -0.4020
 1659SOL    HW116613   3.798   1.151   4.640  1.2253  1.8104 -0.1389
 1659SOL    HW216614   3.839   1.285   4.611  0.4306  0.5490 -0.3802
 1660SOL     OW16615   1.387   3.527   9.953 -0.7441  0.1303 -0.0398
 1660SOL    HW116616   1.424   3.616   9.958 -1.7800  0.5227  0.5539
 1660SOL    HW216617   1.322   3.536  10.023 -1.3499  0.1640 -0.6060
 1661SOL     OW16618   2.030   2.787   0.211  0.0546 -0.0431  0.3825
 1661SOL    HW116619   1.993   2.829   0.288 -0.0735  0.2361  0.1675
 1661SOL    HW216620   2.115   2.831   0.203  1.2001 -2.1441  0.7615
 1662SOL     OW16621   2.095   1.223   2.434  0.3064  0.3923  0.2179
 1662SOL    HW116622   2.175   1.173   2.448  0.1942  0.7890  2.2628
 1662SOL    HW216623   2.073   1.230   2.527 -0.0539  1.9523  0.0174
 1663SOL     OW16624   1.029   4.489  17.623  0.0372 -0.1920  0.2161
 1663SOL    HW116625   0.969   4.550  17.581 -1.1738 -2.6495 -1.5985
 1663SOL    HW216626   0.999   4.409  17.580 -1.1796 -0.5958  1.8418
 1664SOL     OW16627   4.461   3.204   8.069 -0.1576 -0.0396  0.6386
 1664SOL    HW116628   4.398   3.250   8.125  1.6218  1.8282  1.1313
 1664SOL    HW216629   4.539   3.256   8.091  0.0957  0.4373 -1.3308
 1665SOL     OW16630   3.347   4.553   4.536  0.2565  0.6978  0.2746
 1665SOL    HW116631   3.351   4.461   4.509  1.2427  0.3180  1.7167
 1665SOL    HW216632   3.383   4.590   4.455  0.6607 -1.3920 -0.5303
 1666SOL     OW16633   4.657   3.766   4.737  0.0369  0.3399 -0.1042
 1666SOL    HW116634   4.696   3.775   4.824  0.6547 -2.2629 -0.1073
 1666SOL    HW216635   4.714   3.699   4.699  0.1887  0.3066  0.1855
 1667SOL     OW16636   1.046   1.676  10.976  0.2089  0.0207 -0.0721
 1667SOL    HW116637   1.109   1.605  10.968 -0.2053 -0.3125 -0.3269
 1667SOL    HW216638   0.977   1.653  10.915  1.2857  1.1871 -1.7270
 1668SOL     OW16639   3.153   1.911  17.112 -0.3693  0.0164 -0.1532
 1668SOL    HW116640   3.133   1.896  17.020  1.3392  0.3820 -0.5781
 1668SOL    HW216641   3.239   1.868  17.110 -1.5588 -2.5254  2.4862
 1669SOL     OW16642   1.478   0.952   8.533  0.2832  0.3059  0.0102
 1669SOL    HW116643   1.557   0.991   8.571  0.0327 -1.2595  2.1450
 1669SOL    HW216644   1.504   0.939   8.442  1.5776  1.0070  0.2726
 1670SOL     OW16645   2.518   1.111   8.543  0.3158  0.2788  0.2617
 1670SOL    HW116646   2.499   1.056   8.466  2.5291 -1.4950  0.9987
 1670SOL    HW216647   2.529   1.064   8.625  0.8458  0.7195  0.4373
 1671SOL     OW16648   1.207   1.656   8.797  0.3109  0.1718  0.1684
 1671SOL    HW116649   1.253   1.671   8.879 -0.6243 -1.1158  0.9327
 1671SOL    HW216650   1.190   1.564   8.817  0.0144  0.2451  0.2535
 1672SOL     OW16651   1.280   1.433  12.103  0.2935  0.4595 -0.4756
 1672SOL    HW116652   1.304   1.522  12.077  0.0871  1.0929  1.4874
 1672SOL    HW216653   1.340   1.387  12.045  0.7902  1.7146 -0.9698
 1673SOL     OW16654   0.971   0.042   7.182 -0.2738 -0.0302 -0.8356
 1673SOL    HW116655   0.973   4.703   7.238 -2.2062  1.1355  0.8855
 1673SOL    HW216656   0.972   4.735   7.098 -2.1276  0.9635 -1.3978
 1674SOL     OW16657   3.113   1.841   7.163 -0.3760 -0.2100 -0.0296
 1674SOL    HW116658   3.183   1.783   7.192  2.5589  2.5579 -1.5839
 1674SOL    HW216659   3.133   1.920   7.214  0.3629  0.4193 -1.2800
 1675SOL     OW16660   0.408   1.923  16.602 -0.5491  0.1949  0.3353
 1675SOL    HW116661   0.485   1.917  16.659  0.4573  0.2769 -1.0027
 1675SOL    HW216662   0.418   2.013  16.573 -0.9511 -1.0661 -3.7572
 1676SOL     OW16663   3.917   4.694   3.649  0.4169 -0.1269 -0.1935
 1676SOL    HW116664   4.012   4.689   3.639  0.1180 -2.1565 -1.9797
 1676SOL    HW216665   3.897   4.675   3.557 -2.0399  1.0417  0.1084
 1677SOL     OW16666   0.599   0.922   6.798  0.2328  0.1127  0.0233
 1677SOL    HW116667   0.516   0.934   6.750  0.6187 -2.5446 -1.3260
 1677SOL    HW216668   0.589   0.979   6.874 -1.3966 -0.4179  0.2137
 1678SOL     OW16669   3.162   0.184  16.570  0.5018  0.2222  0.2475
 1678SOL    HW116670   3.076   0.221  16.589  0.6919  1.4537 -1.2821
 1678SOL    HW216671   3.139   0.113  16.511 -0.3224  0.4062  0.3420
 1679SOL     OW16672   0.657   3.158   2.132 -0.6467  0.2839 -0.4994
 1679SOL    HW116673   0.722   3.228   2.120 -2.2290  1.8219 -0.1623
 1679SOL    HW216674   0.603   3.161   2.054  0.8234  0.2303 -1.5268
 1680SOL     OW16675   0.310   1.750   2.049  0.0008 -0.2834  0.2896
 1680SOL    HW116676   0.216   1.731   2.050 -0.6207  2.6329 -2.1792
 1680SOL    HW216677   0.318   1.814   2.119  1.0108 -1.9900  1.7427
 1681SOL     OW16678   4.371   2.630   9.737 -0.7417 -0.3776  0.0479
 1681SOL    HW116679   4.388   2.623   9.831  0.4970 -3.4112 -0.3903
 1681SOL    HW216680   4.376   2.725   9.725 -2.1971 -0.4983 -1.4852
 1682SOL     OW16681   3.685   0.286  14.653 -0.3734  0.0678 -0.3391
 1682SOL    HW116682   3.640   0.348  14.709  0.2107  0.7726 -0.6542
 1682SOL    HW216683   3.624   0.274  14.580  1.6467 -1.3607 -1.8157
 1683SOL     OW16684   4.618   0.466   4.686 -0.3419 -0.2141 -0.4385
 1683SOL    HW116685   4.559   0.483   4.613  0.7860  1.6408 -0.9227
 1683SOL    HW216686   4.664   0.392   4.647 -1.4395 -0.8698 -0.4629
 1684SOL     OW16687   0.986   1.196   7.781 -0.1981 -0.3741 -0.0204
 1684SOL    HW116688   0.957   1.191   7.689 -1.8365  2.1721  0.3462
 1684SOL    HW216689   1.075   1.161   7.777  1.5178  4.1630 -1.8074
 1685SOL     OW16690   0.224   1.995   1.397  0.7404  0.0029  0.1135
 1685SOL    HW116691   0.311   1.989   1.437  1.2818  1.0310 -0.9090
 1685SOL    HW216692   0.174   1.993   1.479  0.6602 -1.1725  0.0313
 1686SOL     OW16693   1.779   3.477  10.602 -0.0839  0.5281  0.2353
 1686SOL    HW116694   1.685   3.469  10.617 -0.2657  3.2625  0.6807
 1686SOL    HW216695   1.809   3.387  10.611 -0.2143  0.7638  3.1485
 1687SOL     OW16696   1.055   3.442   0.206  0.3170 -0.4115  0.3682
 1687SOL    HW116697   1.093   3.460   0.120 -1.7753 -1.2093 -0.7347
 1687SOL    HW216698   1.073   3.521   0.258  1.9797 -0.0546 -0.7718
 1688SOL     OW16699   0.841   4.458   4.797 -0.7218 -0.5760 -0.0197
 1688SOL    HW116700   0.747   4.456   4.782 -1.0662  0.1555  1.9658
 1688SOL    HW216701   0.872   4.529   4.741  0.1384 -2.1551 -1.5115
 1689SOL     OW16702   1.657   0.853   6.678  0.4582  0.4433  0.5984
 1689SOL    HW116703   1.648   0.948   6.671  0.5781  0.3035 -1.5224
 1689SOL    HW216704   1.709   0.844   6.758 -1.9742 -1.8284  1.8889
 1690SOL     OW16705   1.843   1.421   7.918 -0.4013  0.3056  0.1594
 1690SOL    HW116706   1.856   1.478   7.993 -0.4019  0.7270 -0.1569
 1690SOL    HW216707   1.921   1.367   7.913 -0.9692 -0.5403  0.3280
 1691SOL     OW16708   3.380   0.790   0.426 -0.0913 -0.5076 -0.3933
 1691SOL    HW116709   3.441   0.847   0.473 -0.4616 -1.3733  1.1141
 1691SOL    HW216710   3.303   0.847   0.430  1.4992  1.6096  0.4704
 1692SOL     OW16711   1.519   1.286   4.496  0.4727 -0.2232  0.2159
 1692SOL    HW116712   1.445   1.285   4.436 -1.0085  2.6840  1.9478
 1692SOL    HW216713   1.497   1.225   4.566 -0.7995 -0.7672 -0.6616
 1693SOL     OW16714   4.000   3.837   4.963 -0.2004 -0.1600 -0.2355
 1693SOL    HW116715   4.008   3.756   5.013 -3.4294  0.4144  1.2002
 1693SOL    HW216716   4.038   3.819   4.877  0.7529 -0.2448  0.2075
 1694SOL     OW16717   0.393   0.486   2.264 -0.1245 -0.2679 -0.4774
 1694SOL    HW116718   0.335   0.461   2.336 -0.5815  0.8973 -0.4399
 1694SOL    HW216719   0.375   0.580   2.262 -0.2117 -0.2400  1.1079
 1695SOL     OW16720   1.334   4.639   8.744 -0.3301 -0.1736  0.2123
 1695SOL    HW116721   1.312   4.730   8.766 -2.0811 -0.5231 -0.0612
 1695SOL    HW216722   1.249   4.599   8.759 -0.8566  0.8431 -0.0635
 1696SOL     OW16723   1.303   2.767  12.068 -0.4131  0.0503 -0.3471
 1696SOL    HW116724   1.236   2.821  12.110  1.1365  1.6108  0.1383
 1696SOL    HW216725   1.343   2.728  12.146  0.8652  0.5816 -0.7321
 1697SOL     OW16726   2.118   4.319   5.114 -0.1623  0.5727 -0.5502
 1697SOL    HW116727   2.203   4.294   5.150 -0.5087 -0.3909 -0.3925
 1697SOL    HW216728   2.073   4.286   5.192 -2.2993  0.5071 -1.8026
 1698SOL     OW16729   0.368   4.656   2.624  0.1795 -0.1513 -0.5652
 1698SOL    HW116730   0.424   4.588   2.587  0.7405 -1.0475  1.9106
 1698SOL    HW216731   0.432   4.724   2.647 -0.4590  1.1654 -2.6677
 1699SOL     OW16732   4.036   3.024   5.116  0.2780  0.1479  0.3588
 1699SOL    HW116733   3.995   3.108   5.097  1.3909  0.3922 -0.9827
 1699SOL    HW216734   4.031   2.979   5.032  0.0365 -2.0358  1.5485
 1700SOL     OW16735   1.032   3.847   4.202  0.1023 -0.3847  0.1824
 1700SOL    HW116736   1.059   3.767   4.247 -0.6054 -0.5693  0.2648
 1700SOL    HW216737   1.113   3.897   4.217 -1.0742  1.1432  1.3656
 1701SOL     OW16738   3.160   2.843   4.495  0.6720 -0.1204  0.0154
 1701SOL    HW116739   3.127   2.769   4.444  2.2578 -0.6986 -0.1687
 1701SOL    HW216740   3.126   2.820   4.581  0.8777 -1.6702 -0.3240
 1702SOL     OW16741   3.919   2.688  17.747  0.3944  0.4627  0.4751
 1702SOL    HW116742   3.997   2.644   0.031 -1.1268 -0.5258  2.6053
 1702SOL    HW216743   3.949   2.722  17.663  0.4316 -0.2062  0.2163
 1703SOL     OW16744   0.076   2.881   4.508  0.2891 -0.3468 -0.2330
 1703SOL    HW116745   0.114   2.890   4.596  0.1233  0.7483 -0.2715
 1703SOL    HW216746   0.005   2.821   4.531  0.9916 -0.2656  2.1625
 1704SOL     OW16747   0.927   1.564   6.072  0.1762  0.3064  0.1526
 1704SOL    HW116748   0.867   1.614   6.127  0.2195  0.3585  0.1526
 1704SOL    HW216749   0.998   1.558   6.135  0.5372  4.6008  0.1574
 1705SOL     OW16750   4.423   3.677   1.503 -0.3039 -0.3478  0.4171
 1705SOL    HW116751   4.333   3.683   1.537 -0.5782 -1.3234 -0.1629
 1705SOL    HW216752   4.468   3.631   1.574 -0.4632 -0.2265  0.5968
 1706SOL     OW16753   1.499   1.601   9.625 -0.3886  0.3410 -0.0111
 1706SOL    HW116754   1.420   1.655   9.633  1.0530  1.9136  3.3634
 1706SOL    HW216755   1.464   1.524   9.670  0.9224 -0.7444 -0.8532
 1707SOL     OW16756   1.729   1.725  12.291  0.4905  0.0695 -0.5098
 1707SOL    HW116757   1.686   1.803  12.326  1.3088 -0.9123  2.6602
 1707SOL    HW216758   1.741   1.734  12.196 -0.3020  0.8527 -0.5331
 1708SOL     OW16759   3.481   3.071  15.751  0.0554 -0.3235  0.1899
 1708SOL    HW116760   3.441   3.155  15.728  1.6257  0.6752  1.1816
 1708SOL    HW216761   3.405   3.027  15.791 -1.4603  0.2324 -2.0296
 1709SOL     OW16762   3.992   4.426   6.286  0.2027 -0.4321  0.3554
 1709SOL    HW116763   4.007   4.335   6.261  3.1147  0.2983 -0.6003
 1709SOL    HW216764   3.897   4.429   6.281  0.3906  0.8568 -2.2708
 1710SOL     OW16765   1.944   0.865   2.319  0.2066 -0.7161 -0.3949
 1710SOL    HW116766   1.933   0.773   2.342 -0.8418 -0.3705  0.4791
 1710SOL    HW216767   1.854   0.895   2.330 -0.2102 -1.1470 -2.7248
 1711SOL     OW16768   0.218   4.123   3.913  0.3806 -0.8807 -0.0749
 1711SOL    HW116769   0.218   4.126   3.817  1.4225  0.3108 -0.0463
 1711SOL    HW216770   0.286   4.189   3.925 -2.0814  1.5737  0.4018
 1712SOL     OW16771   0.813   4.190   2.760  0.1287  0.0509  0.1294
 1712SOL    HW116772   0.815   4.128   2.687 -0.9199  0.6016 -0.3756
 1712SOL    HW216773   0.724   4.220   2.744 -0.5622 -1.7561  0.5458
 1713SOL     OW16774   0.451   3.230   4.066  0.3775 -0.2148  0.1047
 1713SOL    HW116775   0.460   3.264   3.977  1.0939  1.0183  0.6615
 1713SOL    HW216776   0.536   3.243   4.108 -0.3542 -1.3778  1.9354
 1714SOL     OW16777   1.769   0.347   6.155 -0.3002  0.2821  0.1085
 1714SOL    HW116778   1.681   0.321   6.125 -0.4299  1.7706 -0.7935
 1714SOL    HW216779   1.817   0.264   6.146 -2.0675 -0.4424 -2.7637
 1715SOL     OW16780   2.904   2.497  11.613  0.0852 -0.3563  0.3044
 1715SOL    HW116781   2.909   2.578  11.562 -0.4816  0.3332  1.3545
 1715SOL    HW216782   2.818   2.465  11.583 -0.1374  0.1927  0.3601
 1716SOL     OW16783   4.408   0.641   8.125 -0.1595  0.3333 -0.1106
 1716SOL    HW116784   4.324   0.609   8.092  0.9818 -2.2105 -0.5604
 1716SOL    HW216785   4.471   0.575   8.097  1.6459  2.2110 -0.4918
 1717SOL     OW16786   1.403   3.865  12.690  0.3677 -0.7950 -0.2216
 1717SOL    HW116787   1.404   3.773  12.717 -0.5429 -0.4437  1.0078
 1717SOL    HW216788   1.311   3.892  12.684  0.8663  0.5125 -1.8621
 1718SOL     OW16789   1.983   1.549   6.009  0.0978  0.1861 -0.4524
 1718SOL    HW116790   2.076   1.566   6.022 -0.7508  2.1396  3.0109
 1718SOL    HW216791   1.935   1.631   6.000 -0.5104 -0.2228 -0.9365
 1719SOL     OW16792   1.525   4.151  17.733 -0.2656 -0.6232 -0.4800
 1719SOL    HW116793   1.562   4.074   0.025 -0.0503  0.0102  0.4601
 1719SOL    HW216794   1.453   4.173   0.042  0.1252 -0.1084 -0.2060
 1720SOL     OW16795   3.874   0.071   1.903 -0.2010 -0.4423  0.2104
 1720SOL    HW116796   3.895   0.116   1.821 -0.5239 -0.5777  0.0544
 1720SOL    HW216797   3.844   4.725   1.870 -3.2720  0.9820 -0.5626
 1721SOL     OW16798   2.481   1.926   4.012 -0.3101  0.0715 -0.1208
 1721SOL    HW116799   2.483   2.014   4.050 -0.6663  0.4633 -1.0383
 1721SOL    HW216800   2.390   1.913   3.987  0.9500 -3.0739 -3.0190
 1722SOL     OW16801   0.989   0.296   2.358 -0.5986 -0.6382 -0.0408
 1722SOL    HW116802   1.012   0.358   2.427  0.4184  1.5539 -2.3464
 1722SOL    HW216803   1.024   0.325   2.274  0.3306  0.1564  0.6206
 1723SOL     OW16804   2.193   4.484   8.696  0.3218 -0.2279 -0.4437
 1723SOL    HW116805   2.244   4.562   8.675  2.1386 -1.6975 -1.4108
 1723SOL    HW216806   2.120   4.487   8.634 -0.5269 -1.3312  0.5026
 1724SOL     OW16807   3.457   4.649  12.465  0.3079 -0.1635  0.2826
 1724SOL    HW116808   3.421   4.737  12.461 -1.4050 -0.7925  2.1852
 1724SOL    HW216809   3.458   4.643  12.369  1.1741  0.2931  0.2627
 1725SOL     OW16810   0.508   2.740   5.940 -0.8630  0.2425  0.4511
 1725SOL    HW116811   0.515   2.675   5.871  1.5504  0.8065  0.1815
 1725SOL    HW216812   0.585   2.793   5.917 -0.0437 -0.6360  1.1817
 1726SOL     OW16813   4.102   2.596   2.977  0.4143 -0.3231  0.8498
 1726SOL    HW116814   4.119   2.633   3.064  0.7542  1.1345  0.1779
 1726SOL    HW216815   4.156   2.518   2.967 -0.2619 -0.9616  2.3137
 1727SOL     OW16816   3.376   3.452   5.369 -0.3640 -0.8976  0.2345
 1727SOL    HW116817   3.417   3.523   5.319  1.2571 -0.9846  1.4492
 1727SOL    HW216818   3.436   3.378   5.359  0.0470 -0.1012 -3.1146
 1728SOL     OW16819   3.088   2.398  11.279 -0.3180 -1.1713 -0.0180
 1728SOL    HW116820   3.009   2.348  11.259 -1.4234  1.2843 -1.7608
 1728SOL    HW216821   3.087   2.445  11.196 -1.8619 -0.6546  0.3019
 1729SOL     OW16822   0.735   3.376   2.446  0.9124 -0.4065  0.2904
 1729SOL    HW116823   0.804   3.310   2.450  0.7020 -0.7327 -1.6761
 1729SOL    HW216824   0.770   3.441   2.385  0.6000 -0.4291  0.0864
 1730SOL     OW16825   0.542   1.020   7.345  0.3641 -0.8867 -0.0526
 1730SOL    HW116826   0.570   0.946   7.291 -0.5597  0.2057 -2.0436
 1730SOL    HW216827   0.602   1.085   7.307  0.4731 -0.9385  0.0310
 1731SOL     OW16828   2.689   2.393  16.141 -0.4478  0.4399  0.3511
 1731SOL    HW116829   2.662   2.485  16.143  0.2793  0.6729 -0.5865
 1731SOL    HW216830   2.694   2.376  16.235 -0.4988 -0.6163  0.1668
 1732SOL     OW16831   1.151   2.689   4.246  0.1975 -0.3210  0.2078
 1732SOL    HW116832   1.083   2.722   4.305  0.6547  2.8972 -1.0347
 1732SOL    HW216833   1.099   2.673   4.168  2.1271  3.4665 -1.8413
 1733SOL     OW16834   0.614   0.967   4.639 -0.0263 -0.2811 -0.5372
 1733SOL    HW116835   0.610   1.010   4.554 -0.0908 -0.4956 -0.6446
 1733SOL    HW216836   0.690   1.011   4.675 -0.0151 -0.3932 -0.4252
 1734SOL     OW16837   0.013   1.853   1.839 -0.5981 -0.1464  0.1210
 1734SOL    HW116838   4.679   1.899   1.881 -1.0706 -0.7261 -0.0598
 1734SOL    HW216839   0.014   1.762   1.869  2.1894 -0.2621 -0.3513
 1735SOL     OW16840   4.442   4.473  12.122 -0.0817 -0.1828  0.0756
 1735SOL    HW116841   4.401   4.461  12.208 -0.8728  0.7909 -0.1571
 1735SOL    HW216842   4.470   4.564  12.136 -0.1460 -0.3299  1.1446
 1736SOL     OW16843   4.034   0.253  10.233 -0.0102  0.6115  0.2268
 1736SOL    HW116844   3.950   0.249  10.279 -0.9061 -0.8377 -1.5521
 1736SOL    HW216845   4.046   0.346  10.252  2.3540 -0.2614  2.8745
 1737SOL     OW16846   4.047   3.291  10.480 -0.8477 -0.2174 -0.1883
 1737SOL    HW116847   4.008   3.352  10.417 -1.7821  0.1034  0.6926
 1737SOL    HW216848   4.072   3.216  10.426 -4.3825 -1.2463 -0.3844
 1738SOL     OW16849   0.451   1.230   7.598  0.6239 -0.4102  0.1682
 1738SOL    HW116850   0.473   1.204   7.688  0.7666  0.0933  0.2773
 1738SOL    HW216851   0.513   1.193   7.535 -1.4317 -0.2448 -1.9471
 1739SOL     OW16852   2.482   2.002   8.004 -0.0537 -0.1471 -0.4944
 1739SOL    HW116853   2.387   2.006   7.990  0.0168  0.3471 -0.8304
 1739SOL    HW216854   2.512   2.082   7.960 -1.3504 -0.2911 -1.6545
 1740SOL     OW16855   1.958   1.045   9.141 -0.1801 -0.1309  0.6041
 1740SOL    HW116856   2.000   1.014   9.060 -2.2465  1.1831 -0.9754
 1740SOL    HW216857   2.029   1.077   9.197 -1.3862  0.2093  1.9386
 1741SOL     OW16858   0.623   3.783  16.813  0.0298 -0.4133  0.5258
 1741SOL    HW116859   0.565   3.708  16.799  1.1867 -1.0240 -0.9910
 1741SOL    HW216860   0.601   3.835  16.736 -0.9867 -0.3663  0.8482
 1742SOL     OW16861   2.587   3.381  13.289 -0.1014 -0.5610 -0.2028
 1742SOL    HW116862   2.605   3.424  13.373  0.4787  0.2805 -0.7584
 1742SOL    HW216863   2.537   3.454  13.252  0.9191  0.0957 -0.2960
 1743SOL     OW16864   4.376   2.324  15.010 -0.4636 -0.3707  0.7548
 1743SOL    HW116865   4.427   2.368  15.078 -0.0683 -0.9396  0.8261
 1743SOL    HW216866   4.420   2.239  15.008  0.9165  0.3800 -0.4559
 1744SOL     OW16867   2.043   4.039   5.176 -0.6204 -0.3380 -0.1325
 1744SOL    HW116868   2.111   4.087   5.221 -0.3045 -1.7068  0.8552
 1744SOL    HW216869   1.989   4.009   5.249  2.1054 -1.7882  1.2890
 1745SOL     OW16870   2.033   0.249  11.847 -0.1621  0.5930 -0.2175
 1745SOL    HW116871   1.991   0.172  11.808 -1.1552  0.4844  1.0749
 1745SOL    HW216872   2.088   0.202  11.910 -0.5109 -0.9447 -1.0659
 1746SOL     OW16873   1.482   3.279   7.231  0.4211 -0.1042 -0.7546
 1746SOL    HW116874   1.524   3.193   7.231 -1.0883 -0.8459 -0.2912
 1746SOL    HW216875   1.400   3.257   7.186  0.4814  0.6343 -1.2346
 1747SOL     OW16876   0.020   2.070   2.707 -0.0714  0.4050  0.3545
 1747SOL    HW116877   4.689   2.100   2.649  0.8832  0.7115 -0.6276
 1747SOL    HW216878   4.720   1.996   2.753  3.7475 -0.1354  2.7213
 1748SOL     OW16879   3.452   0.077  15.534 -0.3937  0.1824 -0.0952
 1748SOL    HW116880   3.403   0.025  15.598 -0.2744 -1.6777 -1.4987
 1748SOL    HW216881   3.378   0.111  15.483  0.1656 -1.7119 -2.2107
 1749SOL     OW16882   1.248   4.555   9.059  0.0771  0.1341  0.1331
 1749SOL    HW116883   1.257   4.566   9.154  2.5185  1.4409 -0.2525
 1749SOL    HW216884   1.259   4.461   9.052 -1.7927 -0.2564  2.2124
 1750SOL     OW16885   1.925   0.089   2.737  0.4594 -0.0177 -0.0237
 1750SOL    HW116886   1.985   0.022   2.770 -0.2047 -1.1480 -1.1065
 1750SOL    HW216887   1.889   0.121   2.820 -0.3810 -0.6471 -0.1481
 1751SOL     OW16888   1.242   2.168   2.622 -0.4041  0.2192 -0.2520
 1751SOL    HW116889   1.184   2.177   2.547 -0.9698  3.0059  0.5028
 1751SOL    HW216890   1.205   2.104   2.684  1.7543 -2.5433 -1.8369
 1752SOL     OW16891   3.041   3.933  13.211  0.2836 -0.4615  0.7041
 1752SOL    HW116892   3.128   3.894  13.200  0.1411 -0.0018 -1.9881
 1752SOL    HW216893   3.021   3.938  13.118  3.0024 -0.9105  0.0832
 1753SOL     OW16894   2.132   4.041  13.031 -0.3775  0.4299  0.0076
 1753SOL    HW116895   2.090   3.961  13.064 -0.6004  1.6912  2.8312
 1753SOL    HW216896   2.062   4.080  12.979  0.2124  2.3206  0.6430
 1754SOL     OW16897   3.844   1.220   5.673  0.3146 -0.1328 -0.0551
 1754SOL    HW116898   3.847   1.130   5.705  0.6847 -0.3543 -0.7114
 1754SOL    HW216899   3.937   1.238   5.663  0.6412 -0.8198  1.6842
 1755SOL     OW16900   4.288   2.774   2.284 -0.1903  0.0164  0.1006
 1755SOL    HW116901   4.200   2.808   2.266 -0.2402 -0.8152 -1.2940
 1755SOL    HW216902   4.269   2.682   2.263  0.3833 -0.2548  0.7824
 1756SOL     OW16903   1.280   3.726   5.478 -0.4072 -0.7776  0.1541
 1756SOL    HW116904   1.361   3.748   5.523 -0.0909 -1.3529 -0.1269
 1756SOL    HW216905   1.227   3.715   5.557 -1.9355 -2.9692 -1.1535
 1757SOL     OW16906   3.084   1.934   7.900  0.8543  0.1261 -0.0723
 1757SOL    HW116907   3.000   1.893   7.879 -0.5230  1.6075  2.4869
 1757SOL    HW216908   3.060   2.026   7.914  0.0525  0.1651 -1.6726
 1758SOL     OW16909   3.684   3.002   5.362  0.3510 -0.3222  0.8289
 1758SOL    HW116910   3.745   3.076   5.370 -0.9086  0.5912  2.0056
 1758SOL    HW216911   3.689   2.970   5.272  1.7792 -2.3016  1.6148
 1759SOL     OW16912   1.094   2.501   7.457 -0.3348 -0.0939  0.5048
 1759SOL    HW116913   1.044   2.513   7.377  0.3654  2.7564  0.5138
 1759SOL    HW216914   1.125   2.412   7.440 -1.3996  0.0722 -2.3140
 1760SOL     OW16915   3.334   2.392   3.257  0.3883 -0.3439  0.0547
 1760SOL    HW116916   3.252   2.430   3.288  0.7070 -0.8467  1.4959
 1760SOL    HW216917   3.360   2.343   3.335 -1.3528  0.7995  1.3453
 1761SOL     OW16918   1.425   0.468   4.021 -0.9334 -0.2024 -0.0616
 1761SOL    HW116919   1.335   0.449   3.996 -1.1249  1.3720 -0.5287
 1761SOL    HW216920   1.429   0.561   4.043  2.3615 -0.8529  2.1653
 1762SOL     OW16921   2.332   0.617   7.080  0.3029 -0.3675 -0.3408
 1762SOL    HW116922   2.276   0.608   7.157 -1.2413  2.0404 -1.1915
 1762SOL    HW216923   2.300   0.544   7.025  0.0922  0.0402 -0.7616
 1763SOL     OW16924   2.675   1.614  16.958 -0.1552  0.2254 -0.1451
 1763SOL    HW116925   2.740   1.681  16.936  1.5446 -1.2233  0.4341
 1763SOL    HW216926   2.714   1.535  16.921 -1.5108  0.0709 -1.2254
 1764SOL     OW16927   3.505   4.059   2.917 -0.5185 -0.5481 -0.2079
 1764SOL    HW116928   3.416   4.064   2.951 -1.8181  0.6199 -3.7930
 1764SOL    HW216929   3.539   4.144   2.948  1.4129 -1.1260 -0.7068
 1765SOL     OW16930   4.694   3.184   4.192  0.2269 -0.5463 -0.0181
 1765SOL    HW116931   0.033   3.221   4.148  0.8358  0.9363  2.2871
 1765SOL    HW216932   4.622   3.226   4.146  0.6971 -0.1760 -0.4107
 1766SOL     OW16933   1.423   3.126   9.311 -0.5320 -0.0986  0.1349
 1766SOL    HW116934   1.359   3.196   9.319  0.2419  0.6195  0.0130
 1766SOL    HW216935   1.452   3.113   9.401  1.9006 -1.1437 -0.8012
 1767SOL     OW16936   1.369   4.235  13.221  0.2708 -0.1442 -0.1111
 1767SOL    HW116937   1.287   4.249  13.268  0.2927  0.5497 -0.2769
 1767SOL    HW216938   1.418   4.310  13.254  0.6635 -0.0371 -0.9199
 1768SOL     OW16939   1.007   2.434   1.014 -0.1038 -0.2003  0.2672
 1768SOL    HW116940   1.078   2.396   1.066  0.2741  1.1380  0.7269
 1768SOL    HW216941   0.930   2.434   1.071 -0.2203 -1.4444  0.1217
 1769SOL     OW16942   0.783   2.913   7.345  0.4708  0.4899 -0.3505
 1769SOL    HW116943   0.748   3.002   7.344  2.0680  1.1212  0.4845
 1769SOL    HW216944   0.750   2.878   7.262  2.6316  0.3998 -1.1569
 1770SOL     OW16945   2.592   2.213   3.048  0.6828 -0.0723  0.0390
 1770SOL    HW116946   2.628   2.205   2.959  2.5500 -0.7862  0.8682
 1770SOL    HW216947   2.637   2.292   3.075 -0.9529  0.5906  0.8300
 1771SOL     OW16948   0.771   2.624  17.502  0.1215 -0.0243  0.1830
 1771SOL    HW116949   0.786   2.544  17.451  0.2352  1.1235 -1.5638
 1771SOL    HW216950   0.822   2.608  17.582  0.4015 -1.8415 -0.3675
 1772SOL     OW16951   1.884   0.105   9.021  0.1942  0.1023 -0.7351
 1772SOL    HW116952   1.929   0.021   9.027  3.2906  1.7394 -1.1046
 1772SOL    HW216953   1.920   0.138   9.103 -1.8858  1.0035 -0.1700
 1773SOL     OW16954   1.368   1.079   4.690  0.3605  0.4299  0.1427
 1773SOL    HW116955   1.345   0.999   4.738  2.0374  0.0577  0.3236
 1773SOL    HW216956   1.347   1.048   4.602  0.1579 -0.6657  0.5745
 1774SOL     OW16957   3.946   2.478   8.524  0.6812  0.7288 -0.0085
 1774SOL    HW116958   4.039   2.484   8.502  1.2009 -1.1086  1.6984
 1774SOL    HW216959   3.947   2.483   8.619 -0.9277 -0.8006  0.0824
 1775SOL     OW16960   3.669   2.696  11.566 -0.3084 -0.0893 -0.1401
 1775SOL    HW116961   3.746   2.656  11.526  0.6883 -0.4788  2.1812
 1775SOL    HW216962   3.633   2.627  11.621  0.1596  0.4614  0.8533
 1776SOL     OW16963   2.337   2.622   8.347 -0.4338  0.4174  0.4045
 1776SOL    HW116964   2.388   2.666   8.279 -0.5430 -1.7342 -1.0767
 1776SOL    HW216965   2.411   2.581   8.391 -0.4967 -0.5140 -0.3493
 1777SOL     OW16966   1.687   2.417   1.117 -0.7250  0.2971 -0.0424
 1777SOL    HW116967   1.766   2.363   1.118 -0.8449  0.1250  0.5244
 1777SOL    HW216968   1.613   2.356   1.111 -1.6816  1.6060 -1.4162
 1778SOL     OW16969   1.144   0.299   8.352 -0.3858 -0.7494  0.2688
 1778SOL    HW116970   1.133   0.382   8.398 -0.6790 -1.0127  0.6806
 1778SOL    HW216971   1.194   0.342   8.283 -0.3628 -0.3198  0.5507
 1779SOL     OW16972   1.257   3.547  13.872 -0.1391 -0.3292 -0.0850
 1779SOL    HW116973   1.347   3.548  13.838  0.2549 -0.7439  0.9674
 1779SOL    HW216974   1.223   3.629  13.836 -0.6301 -0.6846 -0.4328
 1780SOL     OW16975   4.503   0.166   4.337 -0.1483  0.3132 -0.2997
 1780SOL    HW116976   4.467   0.254   4.346 -1.1047 -0.2982  1.9345
 1780SOL    HW216977   4.595   0.187   4.319 -0.9762  3.2118 -1.1517
 1781SOL     OW16978   4.420   4.145   8.658 -0.0403 -0.4949  0.4011
 1781SOL    HW116979   4.515   4.131   8.655  0.6724  4.0913  0.4444
 1781SOL    HW216980   4.401   4.143   8.564 -2.2342 -0.1313  0.8374
 1782SOL     OW16981   2.025   1.786   4.204  0.0780  0.1109 -0.2217
 1782SOL    HW116982   1.955   1.756   4.263  2.4912 -2.0788  1.5096
 1782SOL    HW216983   2.015   1.731   4.126  0.2137 -1.2001  0.6837
 1783SOL     OW16984   2.902   2.766   5.733  0.0274 -0.7856  0.0486
 1783SOL    HW116985   2.909   2.830   5.804  2.4407 -0.4131 -0.5198
 1783SOL    HW216986   2.993   2.756   5.705 -0.4415  0.1838 -1.7812
 1784SOL     OW16987   3.071   3.453   6.064 -0.6217  0.2732  0.3122
 1784SOL    HW116988   3.012   3.431   6.135 -1.9929 -1.7171 -1.4435
 1784SOL    HW216989   3.008   3.496   6.006  0.3766  1.7363  0.3010
 1785SOL     OW16990   2.668   0.732   2.389 -0.4755 -0.6505 -0.3283
 1785SOL    HW116991   2.714   0.801   2.340  0.7770 -1.2366  0.0275
 1785SOL    HW216992   2.736   0.665   2.387  1.8713  1.7484 -1.6449
 1786SOL     OW16993   2.765   4.218   2.517  0.1761  0.4174 -0.1604
 1786SOL    HW116994   2.780   4.126   2.537 -1.4118  0.4726  1.2126
 1786SOL    HW216995   2.849   4.259   2.538 -1.2949  1.6754  3.2256
 1787SOL     OW16996   1.300   0.206   4.060 -0.5220 -0.0656 -0.6754
 1787SOL    HW116997   1.372   0.204   4.123  0.8633 -2.8476 -2.3483
 1787SOL    HW216998   1.242   0.268   4.105  2.0853  0.5091  1.8656
 1788SOL     OW16999   1.663   2.021  17.367  0.6448  0.3294  0.4564
 1788SOL    HW117000   1.602   2.074  17.418 -0.1804  0.9597 -1.1812
 1788SOL    HW217001   1.733   2.085  17.354  0.6423  0.4991  1.2750
 1789SOL     OW17002   2.227   3.216   7.118 -0.0809  0.2103  0.3096
 1789SOL    HW117003   2.158   3.282   7.111  1.5561  1.7213 -1.7345
 1789SOL    HW217004   2.182   3.140   7.081  1.7699 -1.8930  2.3701
 1790SOL     OW17005   0.503   4.438   4.248 -0.5558 -0.2126 -0.4136
 1790SOL    HW117006   0.589   4.399   4.265  0.5309  1.6698 -1.6388
 1790SOL    HW217007   0.528   4.528   4.229 -1.4358  0.4786  1.7096
 1791SOL     OW17008   0.503   0.111  10.561 -0.6643 -0.5462  0.3197
 1791SOL    HW117009   0.565   0.125  10.489 -1.2275  1.5005  0.2282
 1791SOL    HW217010   0.552   0.143  10.637 -1.5830  2.4752 -0.3913
 1792SOL     OW17011   3.500   3.428   4.738  0.5411  0.6005 -0.3564
 1792SOL    HW117012   3.522   3.404   4.648 -0.5308  1.7588 -0.9124
 1792SOL    HW217013   3.456   3.350   4.772 -2.9814  1.5346 -2.8486
 1793SOL     OW17014   3.087   1.841   5.285  0.3862  0.4998 -0.2145
 1793SOL    HW117015   3.108   1.793   5.205  1.2302 -1.5824  1.2748
 1793SOL    HW217016   3.168   1.887   5.305  0.0029  0.7698  0.6925
 1794SOL     OW17017   0.925   3.737   2.987  0.1499 -0.4190 -0.2071
 1794SOL    HW117018   1.018   3.715   2.987  0.1616 -0.3686 -0.1932
 1794SOL    HW217019   0.905   3.775   2.901 -0.8157  1.7622  0.9877
 1795SOL     OW17020   4.529   4.061   5.562 -0.3918  0.0386  0.4263
 1795SOL    HW117021   4.573   4.139   5.597  0.1047  0.7704 -1.8017
 1795SOL    HW217022   4.481   4.029   5.639 -0.7500  0.3489  0.3339
 1796SOL     OW17023   3.161   0.149   1.209 -0.0553  0.1048 -0.2822
 1796SOL    HW117024   3.140   0.201   1.132 -4.4288  0.4483  1.1625
 1796SOL    HW217025   3.257   0.138   1.205  0.0614  0.9088  0.4613
 1797SOL     OW17026   3.441   3.800  14.162  0.2141 -0.2276 -0.0280
 1797SOL    HW117027   3.454   3.775  14.070 -0.0951  0.2751 -0.2058
 1797SOL    HW217028   3.464   3.892  14.157 -2.0256  0.4205  1.8052
 1798SOL     OW17029   0.393   0.897   3.668  0.4024 -0.2225 -0.4507
 1798SOL    HW117030   0.379   0.825   3.730  0.2762  1.4631  1.4968
 1798SOL    HW217031   0.487   0.908   3.681  0.4541  1.4487 -2.3427
 1799SOL     OW17032   1.861   3.374   3.407  0.0463 -0.4316  0.7075
 1799SOL    HW117033   1.953   3.351   3.421  0.0374 -1.0369 -0.2260
 1799SOL    HW217034   1.854   3.332   3.322 -0.3338  3.6888 -1.3120
 1800SOL     OW17035   3.820   4.173  14.817  0.2997 -0.4942 -0.1024
 1800SOL    HW117036   3.812   4.077  14.818 -0.7942 -0.3994  1.1521
 1800SOL    HW217037   3.777   4.198  14.735 -0.8110  2.0406  1.2604
 1801SOL     OW17038   4.472   2.052   1.709 -0.4658  0.9782 -0.4782
 1801SOL    HW117039   4.526   1.979   1.679 -0.7608  0.9085 -0.8481
 1801SOL    HW217040   4.400   2.006   1.753  2.3649 -3.1506 -0.1393
 1802SOL     OW17041   2.510   1.252   4.985 -0.2612  0.0735  0.7148
 1802SOL    HW117042   2.579   1.233   4.922 -1.8872  0.3357 -1.1476
 1802SOL    HW217043   2.504   1.348   4.978 -1.0262 -0.1656 -1.7894
 1803SOL     OW17044   4.497   0.435   5.992  0.1402 -0.2403  0.1317
 1803SOL    HW117045   4.441   0.440   6.070 -0.8799  0.5259 -0.6394
 1803SOL    HW217046   4.435   0.416   5.922 -0.8108  1.3630  0.5366
 1804SOL     OW17047   2.217   0.425   9.326 -0.4044 -0.1643  0.2623
 1804SOL    HW117048   2.226   0.480   9.248  2.2678 -0.3321  0.4483
 1804SOL    HW217049   2.290   0.364   9.314 -0.2173  0.2196 -0.5385
 1805SOL     OW17050   1.524   4.202  10.862  0.6326 -0.3952  0.3183
 1805SOL    HW117051   1.516   4.167  10.774  0.3392 -2.2374  1.0825
 1805SOL    HW217052   1.606   4.158  10.883  0.0332 -1.2578  0.8619
 1806SOL     OW17053   4.212   4.529   1.263  0.2726  0.0541 -0.0605
 1806SOL    HW117054   4.155   4.605   1.256 -0.0989 -0.4205 -1.9769
 1806SOL    HW217055   4.204   4.491   1.176 -1.5256 -2.7865  1.3432
 1807SOL     OW17056   4.482   2.328   5.883 -0.0363 -0.3047 -0.0682
 1807SOL    HW117057   4.475   2.392   5.813  1.6431  0.1985  0.2030
 1807SOL    HW217058   4.571   2.340   5.918 -0.2113 -1.0361  0.6293
 1808SOL     OW17059   2.827   4.018   2.824  0.2756  0.0663 -0.7882
 1808SOL    HW117060   2.742   3.982   2.796 -1.0437  0.4885  2.6207
 1808SOL    HW217061   2.836   3.979   2.911  1.9326  0.8750 -0.6026
 1809SOL     OW17062   4.459   4.099  15.410  0.3059  0.1947  0.3812
 1809SOL    HW117063   4.480   4.031  15.473  1.2207  1.5122  1.5076
 1809SOL    HW217064   4.546   4.127  15.382 -0.6076  0.2770 -2.4423
 1810SOL     OW17065   1.370   1.125   3.916  0.2630  0.7003 -0.1837
 1810SOL    HW117066   1.400   1.040   3.885 -1.2305 -0.3653  1.2999
 1810SOL    HW217067   1.281   1.101   3.943 -0.2867 -0.2190 -2.8100
 1811SOL     OW17068   0.344   0.928   7.099  0.3414 -0.5753 -0.1849
 1811SOL    HW117069   0.376   0.891   7.017  0.8115  0.5848 -0.5165
 1811SOL    HW217070   0.371   1.020   7.099  1.5478 -0.9222  2.2042
 1812SOL     OW17071   0.407   1.961   7.535 -0.2385  0.5658 -0.5348
 1812SOL    HW117072   0.486   2.005   7.505  1.2703 -1.1867  0.8709
 1812SOL    HW217073   0.420   1.937   7.627 -2.4730  0.0925 -0.3328
 1813SOL     OW17074   0.597   2.035   6.825 -0.1617  0.2358  0.3241
 1813SOL    HW117075   0.560   2.018   6.912 -0.3122 -0.2097  0.1753
 1813SOL    HW217076   0.545   2.112   6.801 -0.4579  0.2677  1.0561
 1814SOL     OW17077   4.692   4.607   1.186  0.4036  0.7597 -0.1308
 1814SOL    HW117078   4.620   4.632   1.243 -1.1810 -1.2595 -1.2676
 1814SOL    HW217079   4.664   4.659   1.111  0.7420  3.3230  1.4907
 1815SOL     OW17080   2.525   4.335   6.641 -0.6630  0.2608 -0.0777
 1815SOL    HW117081   2.558   4.354   6.729  1.2536 -2.2207 -0.2561
 1815SOL    HW217082   2.451   4.280   6.667 -0.6935 -0.3365 -1.4199
 1816SOL     OW17083   1.946   0.779  14.369 -0.1585  0.0491 -0.7426
 1816SOL    HW117084   1.951   0.865  14.411  2.3011 -1.2572  1.7206
 1816SOL    HW217085   2.039   0.756  14.379 -0.3857  0.2059  1.7942
 1817SOL     OW17086   0.607   3.364  13.551 -0.0291 -0.0490  0.2123
 1817SOL    HW117087   0.620   3.271  13.571  1.1763 -0.2027 -1.1966
 1817SOL    HW217088   0.574   3.353  13.462  0.9517 -1.1615 -0.0174
 1818SOL     OW17089   3.726   0.707  11.018  0.1473 -0.2774 -0.2583
 1818SOL    HW117090   3.786   0.644  11.057 -0.4819 -1.5769 -1.4189
 1818SOL    HW217091   3.781   0.786  11.023 -0.3572  0.0665 -0.1119
 1819SOL     OW17092   3.554   2.012  14.394  0.1291  0.3297 -0.5540
 1819SOL    HW117093   3.496   2.010  14.471  0.0927  1.6163 -0.5411
 1819SOL    HW217094   3.533   2.099  14.359  0.1584  0.1049 -1.1255
 1820SOL     OW17095   0.295   1.784  17.294  0.3973 -0.2596  0.2588
 1820SOL    HW117096   0.202   1.768  17.278  0.4210 -0.2688  0.1244
 1820SOL    HW217097   0.323   1.858  17.240  3.4875 -0.2396  1.8770
 1821SOL     OW17098   3.765   0.304   8.640 -0.4148 -0.3789  0.2077
 1821SOL    HW117099   3.832   0.341   8.582 -2.1453 -2.8389 -3.3502
 1821SOL    HW217100   3.684   0.343   8.606  0.0911 -0.1955 -0.7761
 1822SOL     OW17101   0.812   0.843  14.540  0.3230 -0.3515  0.2404
 1822SOL    HW117102   0.842   0.877  14.624  1.1157  2.8790 -1.3624
 1822SOL    HW217103   0.833   0.908  14.474 -1.4679  1.7272  1.7403
 1823SOL     OW17104   3.146   0.214   7.792 -0.2429 -0.0488 -0.5019
 1823SOL    HW117105   3.147   0.237   7.699 -0.0985 -0.4142 -0.5867
 1823SOL    HW217106   3.053   0.212   7.813 -0.3279  0.9573 -0.7756
 1824SOL     OW17107   1.427   2.686  17.331 -0.0883  0.3175 -0.1676
 1824SOL    HW117108   1.476   2.767  17.346  0.8483 -1.0538  4.5347
 1824SOL    HW217109   1.456   2.626  17.400 -0.2675  1.8100  1.2130
 1825SOL     OW17110   0.997   0.007  16.897  0.1490  0.1322  0.4620
 1825SOL    HW117111   1.064   0.066  16.863  0.6501 -1.5484 -1.4465
 1825SOL    HW217112   0.919   0.038  16.852  0.3727  0.5968  0.3921
 1826SOL     OW17113   1.826   3.203  10.599  0.6214  0.4963 -0.2992
 1826SOL    HW117114   1.756   3.140  10.587  2.0921 -1.1802 -0.0822
 1826SOL    HW217115   1.894   3.154  10.553 -0.8281 -3.2472  1.5843
 1827SOL     OW17116   0.926   3.557   5.808 -0.0519 -0.0715 -0.3270
 1827SOL    HW117117   0.951   3.638   5.852  3.5275 -0.3160 -1.9844
 1827SOL    HW217118   0.852   3.584   5.753 -0.1862  0.4242  0.0965
 1828SOL     OW17119   0.854   4.250   0.220 -0.0815  0.2725  0.0864
 1828SOL    HW117120   0.837   4.339   0.250 -0.8888  1.1229 -2.8786
 1828SOL    HW217121   0.785   4.252   0.153 -0.6911 -0.7453  0.6688
 1829SOL     OW17122   1.031   1.245   2.986  0.4830  0.8481  0.8953
 1829SOL    HW117123   0.971   1.242   3.061 -2.2361  1.9743 -1.2438
 1829SOL    HW217124   1.056   1.153   2.978  0.5340  0.9811 -0.5088
 1830SOL     OW17125   3.269   0.498   5.628  0.7088  0.0753 -0.0864
 1830SOL    HW117126   3.249   0.570   5.689  1.0897 -0.2928  0.4749
 1830SOL    HW217127   3.296   0.554   5.555  1.8388  0.7764  0.8564
 1831SOL     OW17128   0.450   3.553   2.587 -0.0086  0.7897 -0.4030
 1831SOL    HW117129   0.482   3.567   2.498  0.0725  3.3915  0.0447
 1831SOL    HW217130   0.355   3.551   2.572  0.4742 -0.7010 -3.3041
 1832SOL     OW17131   4.068   4.101   1.813  0.1625 -0.0647  0.0174
 1832SOL    HW117132   4.099   4.131   1.727 -0.8414 -1.0508 -0.6854
 1832SOL    HW217133   4.061   4.186   1.857  2.4326 -0.8998  2.0024
 1833SOL     OW17134   2.662   2.328   1.586  0.3158  0.2206 -0.2579
 1833SOL    HW117135   2.647   2.285   1.670  0.0458  1.1038  0.1414
 1833SOL    HW217136   2.721   2.401   1.607  2.3093 -1.7071  0.7947
 1834SOL     OW17137   0.906   2.767  12.078  0.2489 -0.8809 -0.0626
 1834SOL    HW117138   0.999   2.790  12.077  0.0570 -0.1385 -2.5254
 1834SOL    HW217139   0.904   2.706  12.004  1.6441 -0.2013 -0.6729
 1835SOL     OW17140   2.939   2.145   4.674 -0.2128 -0.1128 -0.3111
 1835SOL    HW117141   3.032   2.161   4.656  0.1912  0.2734  2.0933
 1835SOL    HW217142   2.929   2.171   4.766  3.6526  2.2294 -0.5562
 1836SOL     OW17143   3.738   1.610   9.049 -0.2767  0.0275 -0.4102
 1836SOL    HW117144   3.746   1.621   9.144  0.7158 -0.9103 -0.3890
 1836SOL    HW217145   3.768   1.696   9.021 -1.8405  0.5879 -0.3574
 1837SOL     OW17146   2.103   0.423   2.629 -0.3853  0.0832  0.0724
 1837SOL    HW117147   2.172   0.367   2.593 -2.8800 -2.0869 -1.3674
 1837SOL    HW217148   2.142   0.478   2.697  2.4569  0.0988 -1.6054
 1838SOL     OW17149   1.089   3.190   4.947  0.2837  1.0998 -0.2853
 1838SOL    HW117150   1.166   3.237   4.976  1.3157 -0.4370 -0.5147
 1838SOL    HW217151   1.080   3.122   5.015  0.9491 -0.6442 -1.9614
 1839SOL     OW17152   2.981   1.853   8.166  0.0654 -0.0320  0.5649
 1839SOL    HW117153   3.030   1.867   8.085 -1.2247  0.6041 -0.1045
 1839SOL    HW217154   2.905   1.910   8.159 -0.3721 -0.7616 -0.7804
 1840SOL     OW17155   3.399   3.887   0.353  0.1280  0.1836  0.2973
 1840SOL    HW117156   3.441   3.933   0.425  2.3933 -1.8912  0.2950
 1840SOL    HW217157   3.470   3.829   0.328  0.5816  0.5909  0.6433
 1841SOL     OW17158   4.050   2.975   7.391 -0.1247 -0.1453  0.9301
 1841SOL    HW117159   3.980   2.924   7.351 -0.2134  0.4312  0.3578
 1841SOL    HW217160   4.127   2.926   7.360 -0.2829 -0.4960  1.0935
 1842SOL     OW17161   2.099   2.795   4.861 -0.2703  0.2220 -0.5859
 1842SOL    HW117162   2.074   2.706   4.837  0.2210 -0.3936  1.1557
 1842SOL    HW217163   2.184   2.791   4.904  0.3748  2.5620 -1.6833
 1843SOL     OW17164   0.979   1.455  10.405  0.0069 -0.4562 -0.0215
 1843SOL    HW117165   0.901   1.408  10.376  1.0510 -1.4780 -1.1743
 1843SOL    HW217166   0.933   1.497  10.477  0.4486 -0.5122  0.2892
 1844SOL     OW17167   2.483   2.391  16.998  0.2146 -0.4449  0.7867
 1844SOL    HW117168   2.415   2.458  16.995 -0.5669 -1.2481  0.7452
 1844SOL    HW217169   2.431   2.320  16.961 -0.9736  0.9552 -0.1920
 1845SOL     OW17170   4.290   0.947  17.060 -0.6122 -0.0786 -0.0107
 1845SOL    HW117171   4.266   0.880  16.996 -0.8182  0.8176 -0.8772
 1845SOL    HW217172   4.383   0.965  17.045 -0.4806 -0.6139  0.1916
 1846SOL     OW17173   3.047   1.150   2.963 -0.1283 -0.7319  0.0311
 1846SOL    HW117174   3.078   1.060   2.955  0.3435 -0.6307  0.7569
 1846SOL    HW217175   2.957   1.135   2.993 -0.2242  1.5256  0.8819
 1847SOL     OW17176   2.170   0.557   4.786 -0.2681 -0.0729 -0.3493
 1847SOL    HW117177   2.076   0.555   4.768 -0.7527 -0.0473  2.1367
 1847SOL    HW217178   2.177   0.634   4.843  0.7101 -1.2270  1.0871
 1848SOL     OW17179   3.298   0.641   6.589 -0.1892  0.7330  0.5765
 1848SOL    HW117180   3.326   0.622   6.500  1.8182 -0.1142  1.4023
 1848SOL    HW217181   3.376   0.689   6.617 -1.5106  3.0297  0.3671
 1849SOL     OW17182   1.587   3.982  15.515  0.5268  0.6168 -0.3882
 1849SOL    HW117183   1.598   3.960  15.423  0.9527  3.4179 -0.9786
 1849SOL    HW217184   1.663   4.038  15.529  0.8042 -0.1692  1.3283
 1850SOL     OW17185   2.370   0.024  13.527 -0.4432  0.3090 -0.0996
 1850SOL    HW117186   2.276   0.042  13.539 -0.5645 -0.8398  0.6271
 1850SOL    HW217187   2.371   4.670  13.548 -4.2356  0.2058 -0.2179
 1851SOL     OW17188   4.591   1.875   4.246 -0.4910 -0.2064 -0.2143
 1851SOL    HW117189   4.586   1.808   4.313  0.4135  0.8602  0.9055
 1851SOL    HW217190   4.653   1.836   4.185 -0.8552 -0.4196 -0.4524
 1852SOL     OW17191   3.470   2.121   5.527  0.3236  0.9794  0.1551
 1852SOL    HW117192   3.564   2.114   5.514  0.5205  1.9462  1.0336
 1852SOL    HW217193   3.438   2.184   5.462 -1.0387 -0.2640 -0.3958
 1853SOL     OW17194   2.999   0.636   5.918 -0.3888  0.2115  0.2732
 1853SOL    HW117195   2.935   0.620   5.849 -0.7727  0.0563  0.6611
 1853SOL    HW217196   3.076   0.670   5.874 -0.6780  0.7246  0.1696
 1854SOL     OW17197   1.091   0.020   4.854  0.0091  0.0261 -0.3899
 1854SOL    HW117198   1.055   0.001   4.768 -2.1295  0.6285  0.3633
 1854SOL    HW217199   1.151   4.687   4.874  0.3588  0.6586  0.8460
 1855SOL     OW17200   0.461   0.015  16.551  0.5882 -0.4472 -0.2600
 1855SOL    HW117201   0.496   4.667  16.531 -0.8892 -2.4040  5.5198
 1855SOL    HW217202   0.365   0.007  16.551  0.4735  0.8701  1.1147
 1856SOL     OW17203   1.275   3.213   7.077  0.5908 -0.7414 -0.3750
 1856SOL    HW117204   1.239   3.256   6.999  0.6202 -2.3672 -1.2785
 1856SOL    HW217205   1.252   3.121   7.061 -0.2350 -0.5328 -0.3886
 1857SOL     OW17206   0.348   2.752   0.952 -0.1436  0.5035  0.0317
 1857SOL    HW117207   0.413   2.766   0.883 -0.7488 -0.1464 -0.6707
 1857SOL    HW217208   0.392   2.685   1.003 -1.4174  0.9768  1.7709
 1858SOL     OW17209   1.174   1.011  12.055  0.1204 -0.0670 -0.0637
 1858SOL    HW117210   1.196   1.088  12.003 -0.4419  0.4528  0.4667
 1858SOL    HW217211   1.224   0.938  12.017  1.9798  1.1539  0.0472
 1859SOL     OW17212   2.385   4.361   6.081  0.1208  0.0296  0.1832
 1859SOL    HW117213   2.417   4.308   6.155  0.8541  0.9105  0.5051
 1859SOL    HW217214   2.451   4.331   6.018 -0.4336 -1.8315  0.4849
 1860SOL     OW17215   0.817   0.654   5.634 -0.0170 -0.3225  0.2491
 1860SOL    HW117216   0.779   0.574   5.671 -1.4490  1.1847  2.0394
 1860SOL    HW217217   0.834   0.705   5.713  0.3269 -0.3926  0.2194
 1861SOL     OW17218   2.755   0.175   9.678 -0.4024 -0.2740  0.9602
 1861SOL    HW117219   2.733   0.135   9.762 -0.0507 -0.0191  1.1736
 1861SOL    HW217220   2.677   0.230   9.672 -0.8361 -1.1569 -1.7632
 1862SOL     OW17221   4.648   4.374  13.227  0.0646  0.2675 -0.6562
 1862SOL    HW117222   4.671   4.416  13.144  0.1835  1.4843  0.0102
 1862SOL    HW217223   4.733   4.335  13.248 -1.4768 -3.1384 -0.7013
 1863SOL     OW17224   1.710   2.438   0.059  0.3650 -0.3200 -0.8892
 1863SOL    HW117225   1.726   2.344   0.049 -0.2951 -0.6231  1.0400
 1863SOL    HW217226   1.792   2.484   0.042  0.5022  1.0534  3.5428
 1864SOL     OW17227   2.098   3.199  15.639  0.1178 -0.1454  0.3496
 1864SOL    HW117228   2.036   3.269  15.661 -0.1928 -0.3890  0.2579
 1864SOL    HW217229   2.183   3.238  15.659 -1.3461  2.7203  0.9276
 1865SOL     OW17230   2.649   3.338   5.524 -0.0466  0.0819 -0.0477
 1865SOL    HW117231   2.614   3.426   5.506  0.5256  0.7326  1.9396
 1865SOL    HW217232   2.599   3.286   5.462  0.9023 -0.0149 -0.7314
 1866SOL     OW17233   3.007   0.595   0.638  0.1680  1.2190  0.7216
 1866SOL    HW117234   3.087   0.578   0.589  0.8101 -0.2781  2.2911
 1866SOL    HW217235   3.022   0.526   0.703 -1.4144  0.5729  0.4182
 1867SOL     OW17236   0.860   3.428   5.092  0.5579 -0.4190  0.6058
 1867SOL    HW117237   0.941   3.478   5.085  0.7307 -0.3289  3.3478
 1867SOL    HW217238   0.872   3.366   5.020  0.3135 -0.2350  0.4118
 1868SOL     OW17239   0.440   2.926   3.846  0.1273 -0.6188  0.0075
 1868SOL    HW117240   0.405   2.902   3.932  2.3182  1.1357  1.3814
 1868SOL    HW217241   0.529   2.890   3.847  0.6156  0.6361  2.3751
 1869SOL     OW17242   0.337   1.973   3.167 -0.0261 -0.0663 -0.3130
 1869SOL    HW117243   0.348   2.068   3.180 -0.2447 -0.0129 -0.5259
 1869SOL    HW217244   0.254   1.961   3.121 -0.8658 -0.3517  1.2811
 1870SOL     OW17245   1.742   0.994   3.995  0.5260 -0.0256  0.0355
 1870SOL    HW117246   1.672   0.949   3.948  0.7765 -0.8275  0.4244
 1870SOL    HW217247   1.790   0.914   4.017  1.3818  1.1289  2.3985
 1871SOL     OW17248   2.331   3.964  13.798 -0.2270  0.0023  0.1767
 1871SOL    HW117249   2.272   3.961  13.723  1.5684 -1.8763 -1.1712
 1871SOL    HW217250   2.416   3.958  13.754 -1.4153 -0.6621 -2.0034
 1872SOL     OW17251   0.815   1.719  12.250 -0.5659 -0.2915  0.1487
 1872SOL    HW117252   0.757   1.744  12.322 -0.3986 -0.5516  0.3755
 1872SOL    HW217253   0.791   1.627  12.236 -2.6181  0.1338  0.8704
 1873SOL     OW17254   1.104   1.254   2.380 -0.5930 -0.3253 -0.5798
 1873SOL    HW117255   1.129   1.311   2.307  2.6242 -0.2266  0.5692
 1873SOL    HW217256   1.182   1.204   2.404 -0.6623 -1.0623 -1.9024
 1874SOL     OW17257   3.835   0.101  11.849  0.7878 -0.0898  0.0989
 1874SOL    HW117258   3.899   0.087  11.780  0.1599 -0.7258 -0.3576
 1874SOL    HW217259   3.759   0.047  11.828  0.7061  0.3320 -0.6848
 1875SOL     OW17260   1.309   1.716   8.087  0.3592 -0.0065 -0.3426
 1875SOL    HW117261   1.279   1.792   8.038  0.4833  0.3486  0.1306
 1875SOL    HW217262   1.386   1.754   8.129  0.5159  0.5849 -1.1716
 1876SOL     OW17263   1.761   3.453   4.135 -0.5650  0.5069  0.0632
 1876SOL    HW117264   1.822   3.512   4.179  0.8692 -1.5679  0.8857
 1876SOL    HW217265   1.678   3.477   4.175  0.4494  2.8879  0.7737
 1877SOL     OW17266   3.649   0.674  13.777 -0.9354 -0.2381 -0.1456
 1877SOL    HW117267   3.650   0.759  13.733 -2.0103  0.4714  1.2239
 1877SOL    HW217268   3.571   0.677  13.832 -1.8075 -0.3892 -1.3900
 1878SOL     OW17269   3.490   2.367   9.085  0.0107 -0.1601 -0.1628
 1878SOL    HW117270   3.448   2.389   9.168  1.5826  0.0905  0.5587
 1878SOL    HW217271   3.437   2.432   9.038 -0.2562 -1.3710 -1.5537
 1879SOL     OW17272   3.542   2.997   5.991  0.0618 -0.1974  0.2208
 1879SOL    HW117273   3.571   3.019   5.903  0.3777 -0.3439  0.2859
 1879SOL    HW217274   3.454   3.032   5.982  1.6550  2.8630 -3.5111
 1880SOL     OW17275   0.343   0.305  16.512 -0.0723  0.1091 -0.9967
 1880SOL    HW117276   0.311   0.267  16.594 -0.5871  2.0077 -0.3192
 1880SOL    HW217277   0.431   0.268  16.512  0.1102  0.4955  1.4781
 1881SOL     OW17278   1.552   4.654   4.432 -0.3592 -0.1759 -0.0367
 1881SOL    HW117279   1.477   4.607   4.397 -2.2740  0.7261  2.8102
 1881SOL    HW217280   1.533   0.002   4.395  0.8927 -0.1836 -0.7053
 1882SOL     OW17281   0.745   2.366   0.559 -0.0602  0.1836 -0.2263
 1882SOL    HW117282   0.764   2.308   0.633  2.5165  0.4585 -0.6443
 1882SOL    HW217283   0.808   2.438   0.567 -0.9094  1.2134 -2.5928
 1883SOL     OW17284   3.610   2.906  15.922 -0.2585 -0.1917 -0.3466
 1883SOL    HW117285   3.706   2.897  15.917 -0.3476 -1.4389  0.1318
 1883SOL    HW217286   3.593   2.960  15.845 -1.3431  2.5253  1.7822
 1884SOL     OW17287   4.315   0.342  11.747  0.0460  0.2865  0.1657
 1884SOL    HW117288   4.271   0.356  11.831  1.6830 -1.8871  1.4124
 1884SOL    HW217289   4.379   0.412  11.735  0.4260 -0.5049 -2.3270
 1885SOL     OW17290   3.562   3.818   4.965  0.0520 -1.0267  0.5536
 1885SOL    HW117291   3.516   3.764   5.029  0.3373 -0.2009  1.4537
 1885SOL    HW217292   3.617   3.750   4.926 -1.1468 -2.2164  0.9582
 1886SOL     OW17293   0.971   4.220   1.503 -0.6030  0.1334 -0.4882
 1886SOL    HW117294   1.031   4.270   1.449 -0.1926  0.7778  0.5627
 1886SOL    HW217295   1.019   4.183   1.577 -0.4884 -0.7974 -1.0181
 1887SOL     OW17296   3.041   1.574   8.138  0.7860 -0.9772 -0.2250
 1887SOL    HW117297   2.973   1.533   8.192  0.4416 -0.4604 -0.2630
 1887SOL    HW217298   3.007   1.663   8.138 -2.7461 -2.3293 -1.4585
 1888SOL     OW17299   2.723   4.245   1.723  0.2112 -0.4202 -0.0723
 1888SOL    HW117300   2.768   4.222   1.642 -1.2230  2.0120 -1.5454
 1888SOL    HW217301   2.637   4.249   1.683  0.4272  0.7542 -0.4165
 1889SOL     OW17302   4.469   2.943   6.509  0.7962 -0.2025 -0.5363
 1889SOL    HW117303   4.444   3.022   6.559  1.4242 -1.2200  1.3739
 1889SOL    HW217304   4.534   2.909   6.571  0.8834  1.1625  0.1286
 1890SOL     OW17305   4.241   3.139  15.249 -0.2408 -0.3013 -0.3102
 1890SOL    HW117306   4.287   3.165  15.329 -0.5162 -1.7258  0.3183
 1890SOL    HW217307   4.303   3.091  15.193  2.4822 -0.2880  2.6822
 1891SOL     OW17308   3.904   4.019   8.281 -0.3649 -0.4635  0.0193
 1891SOL    HW117309   3.967   4.085   8.253 -1.2960  0.0697 -0.8202
 1891SOL    HW217310   3.909   4.037   8.375  1.3703  1.8995 -0.5444
 1892SOL     OW17311   2.241   2.073  11.379 -0.3403  0.3963  0.5624
 1892SOL    HW117312   2.228   2.139  11.447  0.2007 -0.0251  1.0825
 1892SOL    HW217313   2.193   2.113  11.307  1.7550  0.4949 -0.7805
 1893SOL     OW17314   4.404   4.279   6.598 -0.2077 -0.0563 -0.0681
 1893SOL    HW117315   4.451   4.196   6.589  1.6221  0.8683  0.8105
 1893SOL    HW217316   4.423   4.302   6.689  1.6586  1.1358 -0.7440
 1894SOL     OW17317   4.530   0.851   5.592  0.0515  0.2712  0.3651
 1894SOL    HW117318   4.498   0.809   5.672  0.8833 -0.1916  0.4533
 1894SOL    HW217319   4.466   0.921   5.586  1.8846  1.7682 -1.8744
 1895SOL     OW17320   3.008   3.659  16.344 -0.3190  0.2656  0.0243
 1895SOL    HW117321   2.980   3.683  16.432  1.8461  0.9798  0.5267
 1895SOL    HW217322   2.953   3.712  16.286  0.9774  0.4086 -1.0735
 1896SOL     OW17323   0.486   4.601   2.269 -0.0091 -0.2450 -0.0442
 1896SOL    HW117324   0.572   4.642   2.260 -0.1080  0.1851  0.8631
 1896SOL    HW217325   0.504   4.537   2.338  0.3272  2.7213  2.6496
 1897SOL     OW17326   1.447   4.321   4.186  0.5301 -0.2739 -0.7175
 1897SOL    HW117327   1.496   4.244   4.217  2.2410  0.9411 -0.4192
 1897SOL    HW217328   1.404   4.294   4.105 -0.8647  2.1627 -0.7837
 1898SOL     OW17329   2.130   2.713   6.004 -0.7874  0.5414 -0.1580
 1898SOL    HW117330   2.220   2.684   5.989  0.0373  2.9003  0.2550
 1898SOL    HW217331   2.130   2.688   6.096  0.2976 -0.2032 -0.3708
 1899SOL     OW17332   1.358   0.992   8.019 -0.3419  0.0942  0.4168
 1899SOL    HW117333   1.286   0.989   8.083  1.8838  0.2201  2.9258
 1899SOL    HW217334   1.320   1.043   7.948 -1.1525  0.7146  1.2891
 1900SOL     OW17335   3.784   1.862  14.846  0.0651 -0.0002 -0.2490
 1900SOL    HW117336   3.793   1.925  14.917 -0.3270 -0.3580  0.1207
 1900SOL    HW217337   3.819   1.912  14.772  2.4964  1.5821  1.9835
 1901SOL     OW17338   2.912   0.120   8.390  0.7528 -0.1160  0.4787
 1901SOL    HW117339   2.836   0.100   8.336  0.8061  0.9746  0.0061
 1901SOL    HW217340   2.922   0.213   8.370 -0.7953  0.3849  1.9745
 1902SOL     OW17341   4.545   3.704   7.600  0.6218 -0.0174 -0.4517
 1902SOL    HW117342   4.603   3.702   7.676  0.9652  1.1645 -0.6882
 1902SOL    HW217343   4.570   3.622   7.556 -0.6595  0.4360 -2.0210
 1903SOL     OW17344   0.516   2.589   3.836 -0.2232  0.0041  0.4952
 1903SOL    HW117345   0.522   2.512   3.779  0.4600  0.6955 -0.3639
 1903SOL    HW217346   0.464   2.552   3.907 -1.6399 -1.8935 -1.5413
 1904SOL     OW17347   1.603   3.610   4.309 -0.2472 -0.0603 -0.2717
 1904SOL    HW117348   1.548   3.558   4.367 -3.1546  1.3154 -1.7694
 1904SOL    HW217349   1.615   3.694   4.353 -0.5179 -1.3782  2.3163
 1905SOL     OW17350   4.038   1.712   8.059 -0.1000  0.2230 -0.6165
 1905SOL    HW117351   4.060   1.714   8.152  0.4201 -1.9676 -0.6672
 1905SOL    HW217352   4.099   1.642   8.033  0.9521  0.6768  0.6071
 1906SOL     OW17353   3.511   3.438   1.648 -0.3660 -0.1635 -0.3061
 1906SOL    HW117354   3.570   3.475   1.712 -0.8972  0.1233  0.0206
 1906SOL    HW217355   3.486   3.523   1.611 -0.2568 -0.4594 -1.0609
 1907SOL     OW17356   1.390   2.412   3.482  0.3564 -0.1285  0.2271
 1907SOL    HW117357   1.445   2.488   3.504 -1.4409  1.8391 -1.9799
 1907SOL    HW217358   1.323   2.450   3.424  1.1569  4.0816  2.0233
 1908SOL     OW17359   2.822   0.696  17.318  0.4709  0.0807 -0.4454
 1908SOL    HW117360   2.830   0.759  17.246  0.2660  0.1913 -0.3706
 1908SOL    HW217361   2.815   0.616  17.266 -0.0258  0.0498 -0.3299
 1909SOL     OW17362   0.162   2.941   8.017  0.0711  0.1000 -0.0048
 1909SOL    HW117363   0.132   2.851   8.018  2.2174 -0.5609  3.5600
 1909SOL    HW217364   0.240   2.922   8.068 -0.1119  1.1745  0.6888
 1910SOL     OW17365   2.854   2.770  10.635 -0.5105 -0.1331  0.6635
 1910SOL    HW117366   2.886   2.848  10.590 -1.7392  0.1340  0.2696
 1910SOL    HW217367   2.873   2.695  10.579  2.4113  0.3765  0.9364
 1911SOL     OW17368   2.977   4.631   4.493  0.1993 -0.1093  0.0947
 1911SOL    HW117369   2.993   4.539   4.471  2.2746  0.8944 -2.5997
 1911SOL    HW217370   2.883   4.640   4.477 -0.0327 -1.9614  0.3857
 1912SOL     OW17371   0.694   1.222   3.919 -0.2312  0.1989  0.2589
 1912SOL    HW117372   0.624   1.158   3.931 -0.5907  0.3196 -1.2420
 1912SOL    HW217373   0.717   1.237   4.011  0.0143  2.0713 -0.1187
 1913SOL     OW17374   4.724   4.009   3.945  0.1720 -0.4246 -0.1231
 1913SOL    HW117375   0.056   4.068   3.918 -0.7810 -0.3540 -2.4477
 1913SOL    HW217376   0.028   3.976   4.025  1.0012 -2.7369 -1.5168
 1914SOL     OW17377   3.498   3.829  12.827  0.2806  1.0860 -0.3703
 1914SOL    HW117378   3.520   3.756  12.885  0.2843  0.4018 -1.2163
 1914SOL    HW217379   3.404   3.816  12.810 -0.0743  1.8204  1.0769
 1915SOL     OW17380   0.490   4.303  11.168  0.0296  0.6490  0.1180
 1915SOL    HW117381   0.547   4.366  11.213 -0.0712 -0.5369  1.9012
 1915SOL    HW217382   0.553   4.231  11.165  0.9722  1.5642 -1.8109
 1916SOL     OW17383   1.738   1.849  17.540 -0.0871 -0.6491 -0.2491
 1916SOL    HW117384   1.713   1.772  17.489  1.7160 -1.6854  0.4340
 1916SOL    HW217385   1.717   1.913  17.473 -1.3671  0.2273  0.9797
 1917SOL     OW17386   0.060   0.077  10.173  0.0739 -0.5781  0.2237
 1917SOL    HW117387   4.730   0.063  10.238  1.2062 -0.1465  1.5215
 1917SOL    HW217388   0.142   0.093  10.221  0.2115 -3.7285  1.0737
 1918SOL     OW17389   3.839   4.214  11.464 -0.4634  0.2006 -0.0759
 1918SOL    HW117390   3.887   4.292  11.491 -1.5646  1.1993 -0.9975
 1918SOL    HW217391   3.853   4.146  11.530 -0.4592 -1.1230 -1.4369
 1919SOL     OW17392   0.230   1.927   8.924 -0.1252 -0.0519  0.7720
 1919SOL    HW117393   0.224   1.875   8.844  0.4379 -0.1614  0.7977
 1919SOL    HW217394   0.157   1.888   8.971  0.7510 -1.2705  1.1435
 1920SOL     OW17395   2.394   3.638   4.407 -0.2389 -0.1029  0.1373
 1920SOL    HW117396   2.488   3.630   4.419 -0.0652  0.0807 -1.0745
 1920SOL    HW217397   2.376   3.546   4.386 -0.0100  0.0114 -0.5481
 1921SOL     OW17398   2.975   2.581  12.140 -0.0355 -0.2106 -0.3833
 1921SOL    HW117399   3.004   2.587  12.049  0.2279  2.3416 -0.1350
 1921SOL    HW217400   2.964   2.486  12.142 -0.7518 -0.1277 -0.5919
 1922SOL     OW17401   2.068   2.736   9.761 -0.3072  0.6879 -0.2009
 1922SOL    HW117402   2.077   2.771   9.673  1.6562 -1.2067 -0.7595
 1922SOL    HW217403   2.149   2.768   9.803  0.2011 -1.0648  0.1702
 1923SOL     OW17404   2.988   3.173  15.462  0.3833  0.0071 -0.5373
 1923SOL    HW117405   3.022   3.243  15.407  1.5165  0.1073  0.2830
 1923SOL    HW217406   2.985   3.211  15.550 -1.1459 -0.0109 -0.5849
 1924SOL     OW17407   0.153   1.405  16.174 -0.3593  0.3652  0.3522
 1924SOL    HW117408   0.191   1.407  16.086 -0.1573 -2.3057  0.3851
 1924SOL    HW217409   0.058   1.411  16.169 -0.2880  0.0007 -1.5378
 1925SOL     OW17410   4.341   0.955   4.405 -0.0042 -0.5498  0.1318
 1925SOL    HW117411   4.333   0.881   4.345 -0.8359  0.3567 -0.8777
 1925SOL    HW217412   4.271   0.930   4.465 -0.7554 -0.0538 -0.5354
 1926SOL     OW17413   0.468   0.330   1.643  0.3233  0.2432  0.2133
 1926SOL    HW117414   0.464   0.269   1.717 -0.2570  0.2446  0.1821
 1926SOL    HW217415   0.387   0.302   1.600 -0.5472  1.5734  0.9997
 1927SOL     OW17416   0.774   0.781   2.483  0.0839  0.6762 -0.3410
 1927SOL    HW117417   0.758   0.703   2.428  0.5562 -0.9371  1.8108
 1927SOL    HW217418   0.829   0.831   2.422 -1.2149  2.5268  0.0096
 1928SOL     OW17419   0.327   1.341   0.164 -0.3131  0.2574  0.1781
 1928SOL    HW117420   0.404   1.286   0.150  0.1549  1.5630 -2.3805
 1928SOL    HW217421   0.377   1.406   0.214 -1.2666  1.0171  0.1441
 1929SOL     OW17422   3.363   2.236   7.374  0.5162 -0.0916  0.3479
 1929SOL    HW117423   3.459   2.241   7.379  0.4886  0.6375  0.0806
 1929SOL    HW217424   3.339   2.327   7.360  1.1113  0.2824  1.8036
 1930SOL     OW17425   4.128   1.777   1.615  0.5527 -0.0429  0.1082
 1930SOL    HW117426   4.156   1.700   1.666 -0.7962 -0.1952  0.6204
 1930SOL    HW217427   4.040   1.742   1.598 -0.2816  1.5801  1.0501
 1931SOL     OW17428   3.290   1.496   4.809 -0.3934  0.0644 -0.3606
 1931SOL    HW117429   3.329   1.445   4.880 -3.1434  2.8608  3.1629
 1931SOL    HW217430   3.200   1.508   4.839 -0.4739 -1.1255 -0.1270
 1932SOL     OW17431   3.003   1.090   3.310  0.3615  0.3998  0.4428
 1932SOL    HW117432   3.014   0.995   3.302  1.6829  0.5190  0.8740
 1932SOL    HW217433   2.965   1.114   3.226  2.4844  0.7759 -0.4270
 1933SOL     OW17434   1.491   0.796   6.144 -0.1805  0.2952 -0.0058
 1933SOL    HW117435   1.570   0.778   6.093 -0.1460  1.0115 -0.2111
 1933SOL    HW217436   1.528   0.872   6.189 -2.6852  0.4941  1.7350
 1934SOL     OW17437   2.798   3.165   8.079 -0.2936  0.2601  0.4185
 1934SOL    HW117438   2.800   3.243   8.025  0.4373 -1.2221 -1.6963
 1934SOL    HW217439   2.883   3.183   8.119  1.0118  0.6561 -2.5155
 1935SOL     OW17440   2.017   2.193   5.146  0.2176  0.2581  0.4074
 1935SOL    HW117441   1.972   2.205   5.230 -0.5816 -1.8199  0.2733
 1935SOL    HW217442   2.018   2.280   5.106 -1.2516  0.2402  0.3683
 1936SOL     OW17443   2.616   3.698   9.417 -0.1281  0.2042 -0.3465
 1936SOL    HW117444   2.691   3.758   9.414  0.3866 -0.5392 -2.0161
 1936SOL    HW217445   2.578   3.709   9.330 -0.1274 -2.3544 -0.6568
 1937SOL     OW17446   3.448   0.581   7.664  0.5864  0.3556 -0.8891
 1937SOL    HW117447   3.375   0.616   7.613 -0.3783 -2.4259 -1.4579
 1937SOL    HW217448   3.479   0.659   7.708 -0.3332 -0.0682  0.4883
 1938SOL     OW17449   2.993   3.732   7.993 -0.4322  0.3417  0.1784
 1938SOL    HW117450   3.017   3.782   7.914  0.4244  0.3701  0.4586
 1938SOL    HW217451   2.902   3.709   7.979 -0.5908 -0.8581  3.4053
 1939SOL     OW17452   1.482   2.743   9.872  0.1193  0.6467 -0.4338
 1939SOL    HW117453   1.422   2.669   9.867  4.0879 -2.6378  0.2277
 1939SOL    HW217454   1.496   2.742   9.966  0.8289  0.7006 -0.5352
 1940SOL     OW17455   2.899   4.667   3.086 -0.0815 -0.6697 -0.0372
 1940SOL    HW117456   2.971   4.653   3.147 -1.7486  0.7564  2.2363
 1940SOL    HW217457   2.940   0.002   3.039  0.2923  1.0582  2.9801
 1941SOL     OW17458   0.797   3.625   3.253  0.0780 -0.1163 -0.3398
 1941SOL    HW117459   0.862   3.654   3.318  1.0257 -2.4737 -0.2357
 1941SOL    HW217460   0.826   3.537   3.229  0.5239 -0.2087  0.5372
 1942SOL     OW17461   1.367   3.455  15.278  0.1102  0.0805 -0.0872
 1942SOL    HW117462   1.390   3.455  15.185  0.9400 -2.9076  0.1206
 1942SOL    HW217463   1.278   3.489  15.271 -0.6499 -1.9475 -0.2830
 1943SOL     OW17464   3.811   4.119  11.097 -0.0930  0.0900 -0.1682
 1943SOL    HW117465   3.747   4.126  11.168 -0.5782 -0.0749 -0.5886
 1943SOL    HW217466   3.801   4.206  11.059 -0.8167 -0.5289 -1.4062
 1944SOL     OW17467   4.564   1.806   1.594 -0.1850  0.6707  0.2005
 1944SOL    HW117468   4.595   1.725   1.636  2.1617  2.4430  1.9116
 1944SOL    HW217469   4.522   1.773   1.515  2.7026  1.4872 -1.6727
 1945SOL     OW17470   2.635   2.718  12.847 -0.6454  1.1896  0.2075
 1945SOL    HW117471   2.675   2.718  12.934 -3.3510 -0.4222  1.4511
 1945SOL    HW217472   2.548   2.688  12.872 -0.6143 -0.3492 -1.4766
 1946SOL     OW17473   1.792   3.727  12.636  0.3936 -0.3453  0.0150
 1946SOL    HW117474   1.734   3.663  12.678 -2.8478  2.0665 -0.7459
 1946SOL    HW217475   1.758   3.716  12.547 -0.2411  0.5868  0.1420
 1947SOL     OW17476   4.343   3.468  10.439 -0.8454  0.6971 -0.0103
 1947SOL    HW117477   4.343   3.377  10.468  1.1148  0.1498 -1.7920
 1947SOL    HW217478   4.261   3.474  10.390 -1.1661 -0.3400  0.4102
 1948SOL     OW17479   3.645   2.374  11.966  0.4491  0.4451 -0.1224
 1948SOL    HW117480   3.594   2.369  12.046  1.8239 -2.9432  0.5416
 1948SOL    HW217481   3.653   2.281  11.944  0.3366 -0.1095  2.1717
 1949SOL     OW17482   4.374   1.946   2.884 -0.3468  0.2714  0.1453
 1949SOL    HW117483   4.354   2.037   2.902 -0.3649  0.4297 -0.6525
 1949SOL    HW217484   4.299   1.925   2.828 -0.9112  1.5107  0.4490
 1950SOL     OW17485   3.130   2.422   9.973 -0.2066  0.6337 -0.6746
 1950SOL    HW117486   3.046   2.434  10.017  0.3906  0.9101  0.3903
 1950SOL    HW217487   3.179   2.491  10.017 -0.9375  0.5522  0.2793
 1951SOL     OW17488   1.231   1.760   6.260  0.3946  0.3876  0.3347
 1951SOL    HW117489   1.298   1.695   6.281  0.0867 -1.0511 -3.2016
 1951SOL    HW217490   1.207   1.736   6.171  3.6847 -0.7884 -0.2084
 1952SOL     OW17491   3.648   3.000   9.394 -0.5669 -0.9669  0.2078
 1952SOL    HW117492   3.578   2.966   9.449 -0.7068 -2.3276 -0.8029
 1952SOL    HW217493   3.725   2.965   9.437  1.3602  1.6637 -1.0785
 1953SOL     OW17494   2.766   2.908   8.785 -0.1248  0.0403  0.0611
 1953SOL    HW117495   2.809   2.994   8.779 -1.2641  0.7128  1.3844
 1953SOL    HW217496   2.677   2.927   8.757  0.3736  0.0137 -1.5527
 1954SOL     OW17497   1.668   2.440   9.047  0.5788  0.2797  0.4981
 1954SOL    HW117498   1.760   2.460   9.066  0.7073  0.1206  0.0288
 1954SOL    HW217499   1.630   2.416   9.132 -0.6127 -1.3265 -0.4915
 1955SOL     OW17500   4.053   1.961   6.624 -0.5772 -0.0581 -0.5355
 1955SOL    HW117501   4.123   1.937   6.685 -1.9121  0.2037  1.0809
 1955SOL    HW217502   3.987   1.994   6.685  0.6995  1.1102  0.2127
 1956SOL     OW17503   1.090   1.257   5.467  0.3146 -0.0868  0.5012
 1956SOL    HW117504   1.011   1.271   5.519  1.3602 -0.7311  2.2420
 1956SOL    HW217505   1.153   1.321   5.499 -0.0899  0.4571  0.2269
 1957SOL     OW17506   2.103   4.423  15.564  0.1427  0.4648 -0.2715
 1957SOL    HW117507   2.035   4.490  15.559  2.1302  2.5577  0.6858
 1957SOL    HW217508   2.167   4.466  15.507  2.4363 -1.1479  1.0766
 1958SOL     OW17509   0.495   1.051   3.971 -0.2674 -0.1607  0.8252
 1958SOL    HW117510   0.426   1.019   3.913 -0.7250  0.7595  0.8634
 1958SOL    HW217511   0.494   0.981   4.036 -1.0686  0.5978  1.6264
 1959SOL     OW17512   3.597   3.231   0.202  0.6636  0.8793  0.4914
 1959SOL    HW117513   3.660   3.261   0.267 -1.8331  2.3745  2.2098
 1959SOL    HW217514   3.658   3.195   0.137 -1.6850 -0.3307 -1.0440
 1960SOL     OW17515   2.881   0.763   6.676  0.2679  0.4531 -0.0271
 1960SOL    HW117516   2.888   0.680   6.628  0.8785  0.5440 -0.1042
 1960SOL    HW217517   2.808   0.799   6.626  0.5781  0.1917 -0.6642
 1961SOL     OW17518   1.211   4.482   2.885  0.2675  0.5025 -0.1188
 1961SOL    HW117519   1.165   4.547   2.938 -1.7752 -0.8206 -0.2852
 1961SOL    HW217520   1.300   4.496   2.919  0.6960 -0.7655 -0.6889
 1962SOL     OW17521   2.882   3.906  14.674  0.0431 -0.3706  0.0670
 1962SOL    HW117522   2.864   3.995  14.705  2.4927  0.6787 -1.4779
 1962SOL    HW217523   2.955   3.874  14.728 -3.2740 -2.0924  3.4984
 1963SOL     OW17524   3.711   4.047   8.036 -0.7801  0.1240  0.1210
 1963SOL    HW117525   3.794   4.000   8.027  0.9557  3.0643  0.5062
 1963SOL    HW217526   3.727   4.132   7.995 -1.2563 -1.3944 -3.2340
 1964SOL     OW17527   4.177   4.250   7.521  1.0804  0.9146 -0.2726
 1964SOL    HW117528   4.157   4.173   7.469 -1.4254  1.9791 -0.8409
 1964SOL    HW217529   4.272   4.248   7.508  1.4392 -0.8350  2.5327
 1965SOL     OW17530   1.597   2.073   6.837 -0.6532 -0.0942 -0.2837
 1965SOL    HW117531   1.680   2.106   6.804 -0.4264 -1.5659 -1.2211
 1965SOL    HW217532   1.625   1.990   6.877 -2.3166 -0.9037 -0.8023
 1966SOL     OW17533   0.678   0.566  16.246 -0.1360 -0.1761  0.4059
 1966SOL    HW117534   0.727   0.556  16.328 -1.1129 -2.7510  0.6889
 1966SOL    HW217535   0.679   0.476  16.212 -0.6800  0.1530 -0.4880
 1967SOL     OW17536   1.101   0.921   5.494 -0.2516  0.5727 -0.7805
 1967SOL    HW117537   1.095   1.002   5.444 -1.0589  1.2044  0.3666
 1967SOL    HW217538   1.137   0.864   5.425 -0.3216  0.5342 -0.7856
 1968SOL     OW17539   2.690   4.182  12.412  0.5413 -0.0126  0.1584
 1968SOL    HW117540   2.701   4.262  12.360 -0.3307  0.8879  1.3423
 1968SOL    HW217541   2.601   4.184  12.447  0.6095 -0.5788  0.3646
 1969SOL     OW17542   1.865   1.748  15.021  0.1487  0.2373  0.1324
 1969SOL    HW117543   1.851   1.838  14.993  0.2112 -0.6143 -2.7432
 1969SOL    HW217544   1.772   1.727  15.029  0.1465 -0.1597 -0.8210
 1970SOL     OW17545   2.090   0.374  15.588 -0.2047 -0.1095  0.1149
 1970SOL    HW117546   2.153   0.360  15.517  1.4880  0.2480  1.5303
 1970SOL    HW217547   2.080   0.469  15.583 -0.8011 -0.1308  0.9018
 1971SOL     OW17548   2.792   1.334   6.308  0.2133  0.2565 -0.1908
 1971SOL    HW117549   2.753   1.382   6.382 -0.1197  0.3530 -0.4309
 1971SOL    HW217550   2.766   1.248   6.343  0.3259  0.1190 -0.4478
 1972SOL     OW17551   1.313   1.157   2.106  0.4013 -0.8849  0.3564
 1972SOL    HW117552   1.397   1.201   2.092  0.1560 -0.5879 -0.1913
 1972SOL    HW217553   1.295   1.142   2.013 -0.2559  0.3570  0.2820
 1973SOL     OW17554   4.243   4.557   1.829  0.0259 -0.1004 -0.5968
 1973SOL    HW117555   4.222   4.649   1.815 -1.1227 -0.4211 -0.9711
 1973SOL    HW217556   4.334   4.553   1.857  0.0747 -3.0487 -1.1699
 1974SOL     OW17557   2.486   0.994   1.038  0.0985  0.3799 -0.4578
 1974SOL    HW117558   2.532   0.926   1.086  0.7471  0.3174 -1.1639
 1974SOL    HW217559   2.468   1.051   1.114  1.2294  0.0695  0.0328
 1975SOL     OW17560   1.564   2.917   6.169  0.5522  0.5304 -0.0521
 1975SOL    HW117561   1.577   2.999   6.218  0.8872 -1.1058  2.6318
 1975SOL    HW217562   1.473   2.895   6.186  0.5997 -0.3341 -0.8973
 1976SOL     OW17563   1.369   4.656  16.660 -0.3978 -0.5389 -0.2758
 1976SOL    HW117564   1.309   4.627  16.592 -0.0010  1.4227 -1.4590
 1976SOL    HW217565   1.420   4.576  16.671  0.0497 -0.2443 -0.1924
 1977SOL     OW17566   0.086   1.079   3.257  0.3176 -0.0276  0.3845
 1977SOL    HW117567   0.022   1.127   3.309 -0.7841  0.9091 -1.7917
 1977SOL    HW217568   0.135   1.156   3.228 -1.9630  0.5443 -1.9733
 1978SOL     OW17569   3.551   3.004   5.599  0.2102 -0.3058  0.0317
 1978SOL    HW117570   3.487   2.932   5.599 -1.5257  1.2217 -1.3003
 1978SOL    HW217571   3.593   2.986   5.515  0.7306 -2.1151  0.6864
 1979SOL     OW17572   1.174   1.602   1.973 -0.5084 -0.1224 -0.1874
 1979SOL    HW117573   1.121   1.673   2.009  1.4422  0.6530  1.1259
 1979SOL    HW217574   1.121   1.582   1.896 -1.4432  0.5863  0.2655
 1980SOL     OW17575   3.293   2.613   6.919 -0.4157 -0.2014 -0.0456
 1980SOL    HW117576   3.340   2.667   6.855 -1.1186  1.6606  1.0119
 1980SOL    HW217577   3.258   2.547   6.858  0.0881 -0.9889  0.5208
 1981SOL     OW17578   2.979   0.018   5.574 -0.2893  0.2683 -0.2741
 1981SOL    HW117579   3.066   4.732   5.607 -1.1792 -1.7349  0.6081
 1981SOL    HW217580   3.002   0.087   5.512 -0.4693 -1.4506 -2.2642
 1982SOL     OW17581   3.033   3.443   4.941 -0.1975  0.0083  0.0872
 1982SOL    HW117582   2.962   3.438   4.877 -2.1630 -0.4424  2.3018
 1982SOL    HW217583   2.991   3.486   5.016 -0.2570 -0.1088  0.1209
 1983SOL     OW17584   2.505   0.257  17.078 -0.2098  0.2778 -0.2065
 1983SOL    HW117585   2.456   0.175  17.074  1.5965 -0.8130  0.1351
 1983SOL    HW217586   2.548   0.254  16.993  0.8325  0.6330  0.3190
 1984SOL     OW17587   3.319   0.392   8.501  0.2855  0.0114  0.3171
 1984SOL    HW117588   3.392   0.373   8.442  0.1578  0.4797  0.0100
 1984SOL    HW217589   3.357   0.448   8.569 -0.5032 -0.2004  0.9332
 1985SOL     OW17590   2.145   0.229  12.699 -0.1834  0.0750 -0.2892
 1985SOL    HW117591   2.064   0.276  12.717 -0.8249 -0.9721 -0.4056
 1985SOL    HW217592   2.209   0.288  12.738  0.6768 -1.6038  0.8687
 1986SOL     OW17593   4.545   3.224  10.228 -0.7445  0.1157 -0.2795
 1986SOL    HW117594   4.531   3.316  10.208 -1.1352  0.1053 -0.0454
 1986SOL    HW217595   4.602   3.240  10.303  0.6862 -0.3700 -1.2530
 1987SOL     OW17596   1.621   3.740   6.963 -0.4240  0.1378  0.2303
 1987SOL    HW117597   1.599   3.669   7.024 -0.4236 -0.4217 -0.4099
 1987SOL    HW217598   1.582   3.818   7.001 -1.1922 -0.0588 -0.1517
 1988SOL     OW17599   4.280   0.655   5.086  0.3292 -0.3574  0.0185
 1988SOL    HW117600   4.283   0.570   5.042 -0.0985 -0.7238  0.7021
 1988SOL    HW217601   4.368   0.688   5.066 -0.7705  2.6719  0.2653
 1989SOL     OW17602   0.697   2.926   5.898 -0.2200 -0.2295  0.1819
 1989SOL    HW117603   0.777   2.877   5.913 -0.4600 -0.7935 -0.3679
 1989SOL    HW217604   0.725   2.961   5.813  1.3766 -1.7324  0.0939
 1990SOL     OW17605   2.641   2.441   3.565 -0.1428 -0.0178  0.0085
 1990SOL    HW117606   2.655   2.418   3.473 -0.4176 -1.7036  0.3875
 1990SOL    HW217607   2.552   2.477   3.555  0.5360  1.4361 -0.8010
 1991SOL     OW17608   4.315   0.806   4.173 -0.0504  0.0473  0.2836
 1991SOL    HW117609   4.290   0.898   4.165 -1.2294 -0.0390  3.0406
 1991SOL    HW217610   4.263   0.768   4.102 -1.0929  1.7655  0.1089
 1992SOL     OW17611   0.220   2.655  11.550 -0.3306 -0.0420  0.2001
 1992SOL    HW117612   0.215   2.709  11.628  3.4172  1.9999 -0.9509
 1992SOL    HW217613   0.307   2.617  11.563 -0.0016  1.4720  2.4054
 1993SOL     OW17614   1.240   4.054  11.799  0.2245  0.5139  0.3437
 1993SOL    HW117615   1.151   4.089  11.790  0.4815  0.7359 -1.3285
 1993SOL    HW217616   1.226   3.998  11.723  1.9652  0.7609 -0.1411
 1994SOL     OW17617   3.561   1.419   8.990  0.2536 -0.2325  0.0416
 1994SOL    HW117618   3.546   1.400   9.082  1.7586 -0.3698  0.2529
 1994SOL    HW217619   3.613   1.499   8.995  2.4059 -1.3698 -3.8140
 1995SOL     OW17620   2.821   4.292  10.294 -0.0925 -0.0639 -0.2972
 1995SOL    HW117621   2.913   4.318  10.297 -0.4853  1.0861  2.7989
 1995SOL    HW217622   2.821   4.225  10.363 -1.3582  0.4308  0.1909
 1996SOL     OW17623   2.568   2.942   4.631  0.5608  0.0445 -0.9147
 1996SOL    HW117624   2.539   3.026   4.666  0.1596  0.5445 -2.4627
 1996SOL    HW217625   2.505   2.916   4.565 -1.5744 -0.1199  1.1883
 1997SOL     OW17626   1.465   3.502   4.501 -0.1918 -0.5270 -0.4624
 1997SOL    HW117627   1.401   3.473   4.436  1.2235 -1.1474 -1.5704
 1997SOL    HW217628   1.405   3.530   4.570 -1.4357 -0.5722 -1.5182
 1998SOL     OW17629   1.326   0.177   8.753 -0.2271  0.0023  0.4607
 1998SOL    HW117630   1.372   0.227   8.820 -0.3496  0.5512  0.1315
 1998SOL    HW217631   1.242   0.223   8.749 -0.4151 -0.4013 -0.3434
 1999SOL     OW17632   1.947   2.241   9.550  0.1828 -0.1400 -0.4351
 1999SOL    HW117633   1.892   2.223   9.474  1.2631 -2.3084 -0.7242
 1999SOL    HW217634   1.990   2.156   9.563  1.1003  0.7444  2.4588
 2000SOL     OW17635   0.423   2.345   5.637  0.2801 -0.2333 -0.5340
 2000SOL    HW117636   0.433   2.319   5.728 -0.9520 -0.8924 -0.5924
 2000SOL    HW217637   0.366   2.278   5.599 -2.1862  1.3644  0.2917
 2001SOL     OW17638   3.015   3.470   8.808 -0.4740  0.1794  0.0475
 2001SOL    HW117639   3.094   3.417   8.808 -0.0004  0.8704  1.5972
 2001SOL    HW217640   3.044   3.555   8.774  0.6395  0.1359  0.8865
 2002SOL     OW17641   3.857   2.753   1.849  0.2735 -0.1795 -0.4249
 2002SOL    HW117642   3.779   2.715   1.808  0.0622 -0.2353  0.0331
 2002SOL    HW217643   3.886   2.671   1.890  0.1019  0.4990  1.0286
 2003SOL     OW17644   2.768   3.405  17.210  0.5254  0.6168  0.3312
 2003SOL    HW117645   2.715   3.454  17.147 -1.8876 -2.7152 -0.1844
 2003SOL    HW217646   2.766   3.465  17.285 -0.4190  0.3598  0.5125
 2004SOL     OW17647   3.362   3.960  15.869 -0.3644 -0.3561 -0.1289
 2004SOL    HW117648   3.384   3.905  15.794  1.1828 -1.1012  0.8802
 2004SOL    HW217649   3.401   3.908  15.939 -0.3129  1.2430  1.0139
 2005SOL     OW17650   0.158   4.045   4.709  0.0806 -0.0014 -0.1404
 2005SOL    HW117651   0.104   4.113   4.750 -0.1531 -3.6639  5.5712
 2005SOL    HW217652   0.091   4.021   4.644  2.7101 -0.4585 -2.6647
 2006SOL     OW17653   2.908   4.616   3.674  0.1590  1.0716  1.1476
 2006SOL    HW117654   2.872   4.538   3.632 -0.0960  2.6102 -1.4821
 2006SOL    HW217655   2.970   4.569   3.730  1.5927  2.5490  0.7988
 2007SOL     OW17656   3.929   3.057   8.898  0.4270  0.0254  0.1399
 2007SOL    HW117657   3.836   3.064   8.916  0.1584 -0.9051 -0.9388
 2007SOL    HW217658   3.963   3.123   8.959 -1.8750  0.4586  0.9240
 2008SOL     OW17659   2.432   0.142  15.070  0.2553  0.2070  0.1371
 2008SOL    HW117660   2.487   0.175  14.999  0.5873 -0.2984  0.1595
 2008SOL    HW217661   2.358   0.097  15.028 -0.6163 -0.5126  2.4556
 2009SOL     OW17662   1.561   0.770  12.362  0.1551 -0.0213  0.2321
 2009SOL    HW117663   1.580   0.695  12.305  1.2140  0.9998 -0.7545
 2009SOL    HW217664   1.502   0.820  12.305  0.6477  0.5030  0.1921
 2010SOL     OW17665   0.346   4.027   5.052  0.5048  0.3046 -0.1435
 2010SOL    HW117666   0.294   3.994   5.125 -0.5561  2.9441  0.3097
 2010SOL    HW217667   0.380   3.950   5.007 -0.0647  0.1883 -0.3756
 2011SOL     OW17668   2.018   4.442   0.286  0.3252 -0.1667  0.1618
 2011SOL    HW117669   2.042   4.406   0.371 -1.1976  0.5030  0.8663
 2011SOL    HW217670   2.002   4.533   0.311  4.1263  0.1878  1.3769
 2012SOL     OW17671   2.573   3.642   9.118  0.1537  0.6025 -0.4562
 2012SOL    HW117672   2.564   3.578   9.047 -3.9790  0.7044  0.0305
 2012SOL    HW217673   2.479   3.642   9.136  0.4468 -0.1469  1.0803
 2013SOL     OW17674   3.663   1.140  10.474 -1.1843 -0.1577  0.0114
 2013SOL    HW117675   3.746   1.150  10.522 -0.7251 -3.1840 -0.1491
 2013SOL    HW217676   3.605   1.125  10.549 -1.3573 -0.5994 -0.2133
 2014SOL     OW17677   1.031   3.990  16.396  0.9381  0.1410  0.5936
 2014SOL    HW117678   0.987   4.007  16.313  2.8298  1.1996 -0.1992
 2014SOL    HW217679   1.020   3.899  16.423 -0.6508 -0.0852 -0.8355
 2015SOL     OW17680   3.922   0.741   6.794 -0.4680  0.1891  0.3482
 2015SOL    HW117681   3.865   0.801   6.843 -3.7261 -2.3802 -0.3162
 2015SOL    HW217682   3.993   0.803   6.777 -0.7396  0.5997  0.7005
 2016SOL     OW17683   3.140   2.081  16.626 -0.6534  0.1008  0.7101
 2016SOL    HW117684   3.102   2.144  16.688 -1.2697 -0.9015  1.3550
 2016SOL    HW217685   3.079   2.075  16.553  3.0918 -1.0311 -2.3348
 2017SOL     OW17686   4.308   0.036   6.360 -0.0511  0.2877 -0.4098
 2017SOL    HW117687   4.404   0.043   6.357 -0.0052 -0.3238 -0.4387
 2017SOL    HW217688   4.289   4.693   6.313  2.5631 -0.9987  0.7149
 2018SOL     OW17689   1.852   1.888   9.162  0.3108 -0.4127  0.0620
 2018SOL    HW117690   1.856   1.980   9.135 -0.5325  0.4869  3.0519
 2018SOL    HW217691   1.759   1.870   9.147  0.2415 -0.9853  1.2366
 2019SOL     OW17692   4.200   3.574   3.094 -0.0956  0.2333  0.7245
 2019SOL    HW117693   4.270   3.614   3.043 -0.9993 -1.6512 -2.0021
 2019SOL    HW217694   4.190   3.493   3.045 -0.4719  1.1268 -0.6828
 2020SOL     OW17695   2.273   3.144   1.164 -0.4825  0.1531  0.5221
 2020SOL    HW117696   2.208   3.085   1.125 -0.2996  0.4834 -0.2782
 2020SOL    HW217697   2.343   3.152   1.100 -0.1961 -0.4264  0.7626
 2021SOL     OW17698   2.616   3.375   4.772 -0.4392 -0.0339  0.3459
 2021SOL    HW117699   2.531   3.376   4.815  1.4034 -0.4429  4.0126
 2021SOL    HW217700   2.596   3.353   4.681  0.5793 -1.1249  0.3696
 2022SOL     OW17701   0.697   3.255   4.847  0.2960  0.4263 -0.0869
 2022SOL    HW117702   0.727   3.266   4.757 -1.0924 -1.0311 -0.7385
 2022SOL    HW217703   0.654   3.338   4.868 -0.4186  0.3507 -1.2570
 2023SOL     OW17704   0.743   3.728   1.337 -0.2969  0.1936  0.0343
 2023SOL    HW117705   0.805   3.800   1.350 -0.6904  0.6172 -0.4351
 2023SOL    HW217706   0.769   3.666   1.405  1.5321  0.6489 -0.2376
 2024SOL     OW17707   0.458   1.883  12.176 -0.0612  0.3355 -0.2065
 2024SOL    HW117708   0.407   1.858  12.254  0.4484 -0.1203 -0.0227
 2024SOL    HW217709   0.390   1.940  12.141  0.0691  0.4023 -0.3466
 2025SOL     OW17710   2.117   2.664   2.688 -0.2810  0.1341  0.1127
 2025SOL    HW117711   2.120   2.687   2.596  0.2779 -0.2509  0.0325
 2025SOL    HW217712   2.212   2.655   2.699 -0.3424 -0.0307  0.5136
 2026SOL     OW17713   0.123   3.676  14.599  0.2533 -0.1372  0.6157
 2026SOL    HW117714   0.136   3.750  14.540  2.6047 -1.2382 -0.2752
 2026SOL    HW217715   0.196   3.701  14.657  0.7741 -0.4948  0.1180
 2027SOL     OW17716   2.323   2.757   1.828  0.4698  0.2362 -1.1190
 2027SOL    HW117717   2.258   2.777   1.761 -1.1308  1.5982  0.8537
 2027SOL    HW217718   2.336   2.662   1.822  1.0523  0.2690 -0.3051
 2028SOL     OW17719   2.801   2.818   5.454  0.0489  0.6474 -0.7307
 2028SOL    HW117720   2.837   2.827   5.542 -1.3842 -0.2334 -0.0466
 2028SOL    HW217721   2.857   2.753   5.412 -1.0121 -0.3328 -0.6433
 2029SOL     OW17722   3.192   1.412   8.367 -0.1112  0.5851  0.1791
 2029SOL    HW117723   3.115   1.359   8.387  2.1590 -2.3899  0.8422
 2029SOL    HW217724   3.235   1.365   8.296 -1.4542 -1.3317  0.6243
 2030SOL     OW17725   4.140   4.566   4.093  0.3568 -0.6152 -0.5681
 2030SOL    HW117726   4.219   4.615   4.120 -0.5945  0.4463  0.2903
 2030SOL    HW217727   4.148   4.561   3.998 -0.9382  1.1984 -0.7736
 2031SOL     OW17728   0.922   2.774   5.958  0.4035  0.2109 -0.0931
 2031SOL    HW117729   0.986   2.750   5.891  3.0499 -0.5846  2.7117
 2031SOL    HW217730   0.960   2.855   5.991 -2.5542  0.5499  2.4735
 2032SOL     OW17731   4.026   1.341   6.896  0.1420  0.4944  0.1973
 2032SOL    HW117732   3.997   1.318   6.985 -0.2171 -2.4213 -0.6949
 2032SOL    HW217733   3.950   1.395   6.875  1.1285  1.2758 -1.3166
 2033SOL     OW17734   0.814   4.647  16.128  0.1566  0.3375  0.2183
 2033SOL    HW117735   0.728   4.638  16.088 -0.2427 -0.0774  1.1775
 2033SOL    HW217736   0.855   4.694  16.055  2.9128  0.3818  1.7627
 2034SOL     OW17737   3.503   2.738   8.750  0.1936 -0.3609 -0.1901
 2034SOL    HW117738   3.545   2.685   8.682 -1.0502  0.6349 -1.7338
 2034SOL    HW217739   3.583   2.755   8.800 -0.4859 -1.9646  1.4356
 2035SOL     OW17740   4.253   3.268  17.444  0.7333  0.5890  0.1133
 2035SOL    HW117741   4.288   3.296  17.528 -1.1000 -1.0753  1.4079
 2035SOL    HW217742   4.330   3.268  17.386 -0.6835  0.4174 -1.7643
 2036SOL     OW17743   1.710   0.749   8.635  0.4140 -0.3696 -0.2660
 2036SOL    HW117744   1.768   0.673   8.647  0.5026  0.1471  2.5512
 2036SOL    HW217745   1.690   0.755   8.728 -0.3216 -2.7955 -0.2656
 2037SOL     OW17746   3.025   1.265   2.119  0.0855  0.3242  0.1210
 2037SOL    HW117747   2.980   1.305   2.194 -0.2124  2.6402 -1.3165
 2037SOL    HW217748   2.974   1.292   2.043  1.1299 -0.2168 -0.7793
 2038SOL     OW17749   0.171   1.685   3.011  0.0124  1.2379 -0.3060
 2038SOL    HW117750   0.104   1.644   2.956  1.9154  0.5754 -2.1022
 2038SOL    HW217751   0.154   1.778   2.998 -0.0746  1.8550  3.9171
 2039SOL     OW17752   0.741   4.367  14.491  0.0705  0.0295 -0.6253
 2039SOL    HW117753   0.762   4.373  14.584 -0.0754 -0.1854 -0.5786
 2039SOL    HW217754   0.806   4.427  14.454  1.5008 -1.5422 -0.6727
 2040SOL     OW17755   3.809   0.438   1.579  0.3613  0.2960 -0.4863
 2040SOL    HW117756   3.742   0.505   1.566 -0.7716 -0.7721 -0.1223
 2040SOL    HW217757   3.868   0.442   1.504  1.3837 -1.0613  0.2433
 2041SOL     OW17758   0.282   2.456  15.458 -0.1280  0.0061  0.2872
 2041SOL    HW117759   0.205   2.499  15.420  0.8326  1.8001  0.3945
 2041SOL    HW217760   0.243   2.457  15.545 -0.1538 -1.7806  0.3005
 2042SOL     OW17761   3.855   4.243  10.084  0.7445 -0.1587  0.1877
 2042SOL    HW117762   3.841   4.232   9.990 -0.2409 -0.9929  0.4335
 2042SOL    HW217763   3.793   4.177  10.114 -1.2415  1.0545 -1.2578
 2043SOL     OW17764   1.040   3.560   5.478  0.1565 -0.0974 -0.1145
 2043SOL    HW117765   1.088   3.484   5.514  1.3784  0.1973 -1.1182
 2043SOL    HW217766   1.104   3.630   5.485  0.0683  0.0839 -1.2002
 2044SOL     OW17767   2.557   2.195   4.951  0.1202  0.2290 -0.4258
 2044SOL    HW117768   2.563   2.106   4.915  0.4307  0.4519 -0.9376
 2044SOL    HW217769   2.509   2.181   5.032 -1.7789  2.3269 -1.2002
 2045SOL     OW17770   3.587   4.028   7.510  0.3058 -0.1083  0.0371
 2045SOL    HW117771   3.656   4.091   7.530  0.7333 -1.7136  3.6185
 2045SOL    HW217772   3.612   3.963   7.575 -0.2904 -1.2861 -0.9160
 2046SOL     OW17773   4.652   3.500   6.766  0.4549  1.0361 -0.1937
 2046SOL    HW117774   4.621   3.552   6.691 -0.8191 -0.1991 -0.5367
 2046SOL    HW217775   4.673   3.577   6.818  2.6020 -0.2223  0.7817
 2047SOL     OW17776   2.291   1.195  12.461  0.0684  0.1408  0.0307
 2047SOL    HW117777   2.219   1.254  12.439 -0.8732 -0.3836  1.7210
 2047SOL    HW217778   2.293   1.137  12.385  3.3639 -1.5200  1.4182
 2048SOL     OW17779   1.192   2.561   5.608  0.2454  0.0476  0.8036
 2048SOL    HW117780   1.244   2.482   5.595 -2.4281 -1.2379 -2.2064
 2048SOL    HW217781   1.223   2.623   5.542 -1.5154 -0.3500 -0.3990
 2049SOL     OW17782   4.518   3.151   9.390  0.1641  0.1398 -0.2921
 2049SOL    HW117783   4.592   3.107   9.433  0.2255  1.5147  0.9875
 2049SOL    HW217784   4.521   3.114   9.302  1.0289 -0.3696 -0.0514
 2050SOL     OW17785   1.787   0.591   0.980 -0.1113 -0.0903  0.1180
 2050SOL    HW117786   1.844   0.653   1.026  0.1243 -0.2371  0.0266
 2050SOL    HW217787   1.763   0.527   1.047  2.9304 -1.0932  0.2638
 2051SOL     OW17788   2.058   2.118  13.276 -0.1162 -0.6954 -0.5626
 2051SOL    HW117789   2.005   2.110  13.197 -1.6245  0.0215  0.3598
 2051SOL    HW217790   2.023   2.047  13.330  1.3467 -1.1041 -0.1666
 2052SOL     OW17791   2.282   0.899   8.768 -0.2410 -0.6265  0.3189
 2052SOL    HW117792   2.249   0.944   8.690 -1.2731  1.0909  1.7403
 2052SOL    HW217793   2.365   0.945   8.779 -0.5552  0.6477 -2.6535
 2053SOL     OW17794   0.507   1.936   5.304  0.0916 -0.5533  0.0618
 2053SOL    HW117795   0.530   1.935   5.211  0.5792 -0.3045  0.1815
 2053SOL    HW217796   0.438   2.002   5.304  0.2793 -0.3563 -1.9441
 2054SOL     OW17797   3.197   0.304   4.479  0.4137 -0.3841  0.1771
 2054SOL    HW117798   3.164   0.236   4.421 -1.7184  1.1517 -0.3963
 2054SOL    HW217799   3.280   0.333   4.441 -0.1275  0.3143 -0.4611
 2055SOL     OW17800   2.252   1.068   0.122 -0.0262  0.1086 -0.0007
 2055SOL    HW117801   2.170   1.020   0.135 -0.5987  1.7316  2.2430
 2055SOL    HW217802   2.209   1.153   0.127  0.6174  0.2375  2.8695
 2056SOL     OW17803   0.648   4.289   9.134 -0.0265  0.1166 -0.4125
 2056SOL    HW117804   0.615   4.360   9.078  2.1402  0.9573 -0.5881
 2056SOL    HW217805   0.607   4.306   9.219  2.9026  3.5171  0.3199
 2057SOL     OW17806   0.942   2.900   4.248  0.1488  0.2965  0.1233
 2057SOL    HW117807   1.017   2.960   4.250  0.7906 -0.4619 -1.3849
 2057SOL    HW217808   0.898   2.944   4.175 -0.2757 -0.2095  0.0751
 2058SOL     OW17809   3.998   0.971   7.670  0.5435 -0.4023 -0.0785
 2058SOL    HW117810   4.088   0.997   7.653 -0.0187  0.9713 -0.8976
 2058SOL    HW217811   3.982   1.016   7.752 -0.7127 -2.2979  0.7299
 2059SOL     OW17812   3.817   4.534   1.358  0.1424 -0.0020 -0.4355
 2059SOL    HW117813   3.814   4.444   1.325  0.1477 -0.2065  0.1173
 2059SOL    HW217814   3.777   4.580   1.284  1.9586  1.9850 -0.1676
 2060SOL     OW17815   2.443   4.524  13.155 -0.1191  0.0456 -0.0941
 2060SOL    HW117816   2.382   4.580  13.202  0.8993  0.2351  0.9931
 2060SOL    HW217817   2.397   4.514  13.071 -0.3361 -1.1422  0.1686
 2061SOL     OW17818   3.227   0.321  12.552  0.2075  0.0501 -0.1256
 2061SOL    HW117819   3.218   0.326  12.647 -2.2350  0.2790 -0.3733
 2061SOL    HW217820   3.136   0.325  12.523  1.1317  1.5775 -2.8291
 2062SOL     OW17821   3.369   2.139   9.490  0.0352 -0.0325  0.3014
 2062SOL    HW117822   3.284   2.160   9.527 -0.6081 -0.2384 -1.0485
 2062SOL    HW217823   3.354   2.099   9.404 -2.4180 -0.5117  0.9517
 2063SOL     OW17824   2.043   4.278   5.376 -0.5190  0.3599  0.0171
 2063SOL    HW117825   2.117   4.313   5.426 -1.4765  0.2098  1.5333
 2063SOL    HW217826   1.996   4.247   5.452  0.9754 -1.2869  0.2691
 2064SOL     OW17827   1.178   0.225   7.199  0.1896 -0.1282  0.4173
 2064SOL    HW117828   1.125   0.149   7.220  0.4294 -0.9503 -1.8616
 2064SOL    HW217829   1.150   0.238   7.108  0.3953 -1.5484  0.1623
 2065SOL     OW17830   0.035   2.346   5.382 -0.0056 -0.1428  0.1987
 2065SOL    HW117831   4.680   2.335   5.361  0.5835 -1.4505 -1.7650
 2065SOL    HW217832   0.052   2.279   5.447  1.3186 -0.1263 -0.1392
 2066SOL     OW17833   3.386   4.611   5.617  0.2316 -0.7197  0.5465
 2066SOL    HW117834   3.429   4.656   5.690  2.2761  1.5222 -2.0495
 2066SOL    HW217835   3.368   4.529   5.663 -0.7814 -0.8965 -0.1718
 2067SOL     OW17836   3.396   4.146   5.318  0.1075  0.1724 -0.5109
 2067SOL    HW117837   3.357   4.084   5.380  1.7769  0.1258  0.4892
 2067SOL    HW217838   3.463   4.189   5.371  1.1351 -1.0531 -0.8218
 2068SOL     OW17839   2.664   1.543   5.884  0.2671 -0.4700  0.8350
 2068SOL    HW117840   2.750   1.570   5.915  0.5387  0.9967 -1.1872
 2068SOL    HW217841   2.620   1.621   5.850 -0.9307 -1.3140  0.4071
 2069SOL     OW17842   2.974   2.541   3.042  0.4663  0.1499  0.2518
 2069SOL    HW117843   3.036   2.484   2.996 -0.3961 -0.4126 -0.2200
 2069SOL    HW217844   2.891   2.497   3.022  0.2747 -0.0689  1.5200
 2070SOL     OW17845   3.048   0.744   5.164  0.2661  0.2905 -0.2601
 2070SOL    HW117846   3.127   0.710   5.122  0.0782 -0.8101  0.2692
 2070SOL    HW217847   3.076   0.794   5.241  0.5133 -4.0198  2.4613
 2071SOL     OW17848   0.684   0.788   3.919  0.1781 -0.3922  0.4991
 2071SOL    HW117849   0.755   0.800   3.856 -0.2639 -1.7729 -0.2703
 2071SOL    HW217850   0.731   0.804   4.001 -0.1448 -0.9374  0.7930
 2072SOL     OW17851   4.143   0.687  14.753  0.4505 -0.5835 -0.0137
 2072SOL    HW117852   4.190   0.621  14.803  0.7523 -0.3757 -0.0263
 2072SOL    HW217853   4.213   0.733  14.708 -0.4595  0.9977  0.1793
 2073SOL     OW17854   0.340   1.800   3.867  0.6171  0.2874 -0.7581
 2073SOL    HW117855   0.314   1.801   3.774 -0.3749  1.6127 -0.4634
 2073SOL    HW217856   0.433   1.778   3.867 -0.0607 -2.6199 -1.3512
 2074SOL     OW17857   1.418   3.224   3.150 -0.2079  0.1486 -0.0228
 2074SOL    HW117858   1.402   3.222   3.245 -0.2679  2.7924  0.0142
 2074SOL    HW217859   1.513   3.231   3.154 -0.4253  1.2503  3.4050
 2075SOL     OW17860   2.553   2.711   8.162 -0.3030  0.1947 -0.0005
 2075SOL    HW117861   2.627   2.766   8.138 -3.4148  3.2265 -2.7387
 2075SOL    HW217862   2.597   2.628   8.178 -0.9687 -0.1472  0.0525
 2076SOL     OW17863   2.759   3.976   4.342  0.4562 -0.2832  0.0015
 2076SOL    HW117864   2.676   4.023   4.340  1.4092  1.3856 -1.4199
 2076SOL    HW217865   2.737   3.883   4.349  2.3318 -0.5773  2.0738
 2077SOL     OW17866   3.024   3.761  12.250 -0.3139  0.6768 -0.5679
 2077SOL    HW117867   3.072   3.710  12.315 -2.1107  0.4404  0.5494
 2077SOL    HW217868   3.020   3.705  12.172 -1.1503 -0.0352 -0.0075
 2078SOL     OW17869   3.710   2.268   9.443 -0.6145 -0.4636 -0.1322
 2078SOL    HW117870   3.630   2.304   9.481 -1.5698 -1.5618 -1.1041
 2078SOL    HW217871   3.706   2.309   9.356  0.7784  0.6460  0.3309
 2079SOL     OW17872   2.160   0.881   5.291  0.2499  0.2945 -0.8026
 2079SOL    HW117873   2.071   0.896   5.259 -0.2019 -0.5647  0.0364
 2079SOL    HW217874   2.158   0.786   5.305 -2.0761  0.6686  1.4033
 2080SOL     OW17875   3.224   2.137   3.788  0.2511  0.0609 -0.0104
 2080SOL    HW117876   3.256   2.130   3.698  1.1331 -0.4116  0.3325
 2080SOL    HW217877   3.194   2.048   3.809  0.1732  0.7845  2.9218
 2081SOL     OW17878   1.698   0.768  10.713 -0.1844 -0.5447 -0.7287
 2081SOL    HW117879   1.637   0.836  10.683 -0.0935 -0.4461 -0.6892
 2081SOL    HW217880   1.624   0.710  10.729 -0.1139  0.2143  2.2486
 2082SOL     OW17881   4.314   0.327   3.412 -0.0716  0.1341  0.0904
 2082SOL    HW117882   4.375   0.335   3.339  2.0969  1.9904  2.0963
 2082SOL    HW217883   4.281   0.239   3.397 -1.1987  0.2604  1.8610
 2083SOL     OW17884   2.846   3.820   6.125 -0.7982  0.1220  0.3192
 2083SOL    HW117885   2.933   3.810   6.165  0.3558  0.6476 -2.0855
 2083SOL    HW217886   2.856   3.756   6.055  1.1447  0.1444  0.5647
 2084SOL     OW17887   1.902   1.884  16.363 -0.0077  0.1051 -0.1086
 2084SOL    HW117888   1.962   1.831  16.416 -0.8848 -1.4970 -0.7019
 2084SOL    HW217889   1.971   1.911  16.303  0.5747  1.0269  0.9937
 2085SOL     OW17890   0.691   3.426  17.345 -0.0291 -0.0257 -0.3955
 2085SOL    HW117891   0.736   3.464  17.420  1.3467  0.4682 -1.4720
 2085SOL    HW217892   0.732   3.469  17.271 -0.1687 -2.5727 -1.9615
 2086SOL     OW17893   1.202   2.647  12.884 -0.6056 -0.4681  0.1271
 2086SOL    HW117894   1.188   2.721  12.825 -1.8064 -0.7322  0.0806
 2086SOL    HW217895   1.230   2.686  12.966 -1.9532 -3.5935  2.0671
 2087SOL     OW17896   3.236   1.469   7.979 -0.3094  0.0973 -0.4107
 2087SOL    HW117897   3.167   1.512   8.030 -2.0371 -3.2856  0.1356
 2087SOL    HW217898   3.284   1.417   8.043 -1.0339  0.8372  0.7325
 2088SOL     OW17899   1.325   1.697  17.412 -0.3042  0.3048  0.3511
 2088SOL    HW117900   1.394   1.631  17.424 -1.5908 -0.7083  2.1282
 2088SOL    HW217901   1.324   1.691  17.316 -0.5705  0.0949  0.3666
 2089SOL     OW17902   1.126   0.372  16.600  0.1911 -0.3080 -0.3215
 2089SOL    HW117903   1.164   0.440  16.544 -0.4063  0.1237 -0.1961
 2089SOL    HW217904   1.201   0.315  16.616 -0.2899 -0.9093 -0.1827
 2090SOL     OW17905   2.616   1.698   4.375 -0.8245 -0.4241 -0.2051
 2090SOL    HW117906   2.610   1.693   4.280 -0.6900 -0.3120 -0.2193
 2090SOL    HW217907   2.654   1.785   4.386  0.3109 -1.3161  2.8716
 2091SOL     OW17908   1.195   3.920   6.811  0.2883 -0.5464 -0.0195
 2091SOL    HW117909   1.290   3.929   6.800 -0.1782  3.1985 -1.1795
 2091SOL    HW217910   1.157   3.916   6.724 -2.3470 -1.1495  1.1586
 2092SOL     OW17911   4.100   4.456  12.062 -0.0587 -0.1779 -0.4758
 2092SOL    HW117912   4.057   4.385  12.109  3.7545 -1.8640  0.4253
 2092SOL    HW217913   4.157   4.477  12.136  1.7755  2.0170 -2.5014
 2093SOL     OW17914   2.972   4.116   7.836  0.1429  0.2118 -0.1421
 2093SOL    HW117915   3.064   4.144   7.832 -0.3261  1.9625  1.3164
 2093SOL    HW217916   2.975   4.025   7.806 -0.2592  0.5794 -1.3191
 2094SOL     OW17917   3.302   3.500   5.617  0.7280 -0.2717  0.4836
 2094SOL    HW117918   3.347   3.419   5.638  0.4931 -0.5862 -0.2184
 2094SOL    HW217919   3.305   3.506   5.521  1.5575 -0.8962  0.4687
 2095SOL     OW17920   1.535   2.847   0.102 -0.3363  0.2793  0.5118
 2095SOL    HW117921   1.445   2.816   0.101 -0.7116  1.4212 -0.7668
 2095SOL    HW217922   1.588   2.780   0.058  0.3743  1.9566 -1.2233
 2096SOL     OW17923   0.889   2.476   3.435  0.6419 -0.0953  0.6115
 2096SOL    HW117924   0.902   2.538   3.364  0.4940 -1.1103 -0.2937
 2096SOL    HW217925   0.975   2.456   3.472 -0.3959 -0.6383  2.7801
 2097SOL     OW17926   4.076   3.016   7.030 -0.2154 -0.2792 -0.0642
 2097SOL    HW117927   4.034   2.974   7.105  0.8122  0.3929  0.8800
 2097SOL    HW217928   4.166   2.984   7.029  0.6122  2.0543 -0.3123
 2098SOL     OW17929   4.193   3.533   7.268  0.5768 -0.4147  0.4854
 2098SOL    HW117930   4.207   3.598   7.336  1.8900 -0.9808  0.7516
 2098SOL    HW217931   4.275   3.483   7.271  1.3492  0.8230  0.1450
 2099SOL     OW17932   0.507   1.402   1.599 -0.0513  0.4640  0.2826
 2099SOL    HW117933   0.600   1.395   1.621  0.3348 -0.2649 -1.6127
 2099SOL    HW217934   0.517   1.454   1.519 -2.0203 -1.9621 -1.5423
 2100SOL     OW17935   2.179   1.000   1.781  0.0919 -0.0417 -0.2058
 2100SOL    HW117936   2.219   1.013   1.867  1.1677  0.2484 -0.7490
 2100SOL    HW217937   2.095   0.972   1.818  0.7767 -2.2224 -0.3111
 2101SOL     OW17938   1.861   3.761   8.965 -0.3453  0.0654  0.6343
 2101SOL    HW117939   1.802   3.833   8.988  1.4023  1.6045  0.3509
 2101SOL    HW217940   1.795   3.700   8.932  0.0695 -0.9250  1.6067
 2102SOL     OW17941   0.612   0.895   2.700  0.4190  0.3899 -0.2660
 2102SOL    HW117942   0.693   0.869   2.655  0.3581  1.3251 -0.9123
 2102SOL    HW217943   0.647   0.936   2.779  0.7518 -2.3786  1.0230
 2103SOL     OW17944   2.669   4.065  14.386 -0.5993 -0.1711  0.4187
 2103SOL    HW117945   2.755   4.027  14.406 -0.2492 -0.3368 -1.3726
 2103SOL    HW217946   2.635   3.983  14.350  0.8948 -0.6390  0.0577
 2104SOL     OW17947   0.753   4.725  16.707 -0.4404 -0.1596  0.2184
 2104SOL    HW117948   0.741   4.643  16.660 -1.4848 -0.6524  1.3328
 2104SOL    HW217949   0.788   0.044  16.639 -1.3230 -0.2680 -0.3365
 2105SOL     OW17950   4.221   0.359   0.962  0.6929 -0.4239 -0.0327
 2105SOL    HW117951   4.315   0.362   0.979  0.8823  1.4160 -1.4174
 2105SOL    HW217952   4.221   0.398   0.875  0.4576 -0.8772 -0.2344
 2106SOL     OW17953   0.156   2.188   6.578 -0.6794 -0.1642 -0.1479
 2106SOL    HW117954   0.102   2.165   6.503  0.9489 -0.8459 -1.1130
 2106SOL    HW217955   0.188   2.103   6.610 -0.9977  0.8842  2.9669
 2107SOL     OW17956   2.887   0.367   3.578 -0.1061  0.2879 -0.4915
 2107SOL    HW117957   2.843   0.349   3.661  0.3799 -0.5239 -0.4049
 2107SOL    HW217958   2.972   0.403   3.603  0.2481 -1.5464  0.9591
 2108SOL     OW17959   0.812   2.566  14.312  0.2629  0.0033 -0.2472
 2108SOL    HW117960   0.890   2.541  14.264  0.3072 -0.4019  0.0372
 2108SOL    HW217961   0.775   2.478  14.317  0.3937 -0.1105 -1.2326
 2109SOL     OW17962   0.802   4.678  17.729  0.0230 -0.1809  0.1970
 2109SOL    HW117963   0.733   4.714   0.034  0.8881 -2.0024  2.4348
 2109SOL    HW217964   0.747   4.649  17.657 -0.3008  0.0497  0.3488
 2110SOL     OW17965   0.124   1.686   3.662 -0.4500 -0.3216  0.9195
 2110SOL    HW117966   0.051   1.696   3.723 -1.8116 -0.4264 -0.6891
 2110SOL    HW217967   0.191   1.646   3.718  0.9737  1.8107  0.7354
 2111SOL     OW17968   4.614   2.098   8.062  0.3269  0.3905 -0.1262
 2111SOL    HW117969   4.709   2.101   8.057  0.5721 -3.5626  1.5466
 2111SOL    HW217970   4.601   2.020   8.117  0.8947  0.3503 -0.0481
 2112SOL     OW17971   3.465   4.276   4.465  0.0711 -0.0661  0.1703
 2112SOL    HW117972   3.449   4.221   4.542  2.0970  0.3622  0.9019
 2112SOL    HW217973   3.423   4.225   4.396  1.6627 -1.7456  0.4699
 2113SOL     OW17974   3.736   1.000   1.265 -0.0968  0.3004  0.0696
 2113SOL    HW117975   3.708   1.091   1.254 -1.5415 -0.2793 -1.1153
 2113SOL    HW217976   3.649   0.965   1.251  0.6273 -0.9362 -1.3375
 2114SOL     OW17977   2.458   4.232  16.507 -0.2193  0.4458  0.2526
 2114SOL    HW117978   2.407   4.277  16.440 -0.3549  0.3260  0.2752
 2114SOL    HW217979   2.546   4.235  16.469  0.3038 -2.4812  1.1992
 2115SOL     OW17980   2.999   3.038   2.684  0.1056 -0.2753 -0.3967
 2115SOL    HW117981   3.047   3.064   2.606  1.8895 -1.2363  0.3785
 2115SOL    HW217982   3.040   3.102   2.743 -0.6391  0.0437 -0.2223
 2116SOL     OW17983   2.462   2.638   5.173 -0.2938 -0.0950  0.3379
 2116SOL    HW117984   2.422   2.566   5.223  0.7109 -1.6397 -1.0596
 2116SOL    HW217985   2.528   2.581   5.132  0.4657  1.5485 -0.7513
 2117SOL     OW17986   1.174   2.829   0.937  0.0655  0.5471  0.2056
 2117SOL    HW117987   1.130   2.815   1.020 -2.0470 -2.1145 -1.3954
 2117SOL    HW217988   1.144   2.754   0.886  0.5525  1.0422 -0.8196
 2118SOL     OW17989   0.240   4.583  11.185 -0.1256  0.6769 -0.2495
 2118SOL    HW117990   0.158   4.569  11.136 -0.1223 -1.2406  0.2870
 2118SOL    HW217991   0.299   4.521  11.143 -0.4275  0.8668 -0.9575
 2119SOL     OW17992   2.923   0.727  11.664 -0.1204  0.2099 -0.3090
 2119SOL    HW117993   2.928   0.658  11.729  1.0677  0.0872 -0.5325
 2119SOL    HW217994   2.864   0.785  11.713  0.7164  1.6405 -0.9834
 2120SOL     OW17995   4.526   0.290   0.528 -0.4328  0.3898  0.0312
 2120SOL    HW117996   4.431   0.296   0.517 -0.1444  2.3214 -1.3957
 2120SOL    HW217997   4.541   0.200   0.498 -3.2514 -0.2059  0.4421
 2121SOL     OW17998   4.685   2.439   9.011 -0.3040 -0.4658 -0.0940
 2121SOL    HW117999   4.680   2.343   9.016  1.2881 -0.4870  0.9753
 2121SOL    HW218000   4.628   2.468   9.082 -0.7779  1.7353 -1.3745
 2122SOL     OW18001   1.895   4.004   3.033  0.0245  0.1670  0.1306
 2122SOL    HW118002   1.935   3.922   3.062 -0.9377  0.4462  2.2228
 2122SOL    HW218003   1.925   4.007   2.942  0.7268  2.0815  0.4260
 2123SOL     OW18004   4.100   0.126  14.991  0.2336 -0.5436 -0.0574
 2123SOL    HW118005   4.080   0.220  14.999  0.9329 -0.3883 -0.0783
 2123SOL    HW218006   4.017   0.083  14.971  0.2377 -0.8774  0.6658
 2124SOL     OW18007   0.904   1.094   6.706  0.1328  0.3339 -0.1132
 2124SOL    HW118008   0.878   1.161   6.643  0.7491  0.2787 -0.4322
 2124SOL    HW218009   0.863   1.133   6.783  1.3588  0.4277  0.4982
 2125SOL     OW18010   0.254   4.437   4.998 -0.1799 -0.0351  0.2188
 2125SOL    HW118011   0.248   4.395   4.912  2.0936 -3.7935  1.9115
 2125SOL    HW218012   0.294   4.366   5.048  0.2583 -0.7974 -1.2075
 2126SOL     OW18013   1.966   0.714   6.891  0.6751 -0.1686 -0.5402
 2126SOL    HW118014   2.008   0.799   6.902 -0.7398  0.4539  0.1169
 2126SOL    HW218015   1.982   0.715   6.797  1.1114  0.9112 -0.4524
 2127SOL     OW18016   2.141   2.095   4.107 -0.1491  0.2568  0.0922
 2127SOL    HW118017   2.190   2.022   4.146 -2.7183 -1.9525 -0.7888
 2127SOL    HW218018   2.129   2.151   4.183 -1.6933  2.9280 -2.1593
 2128SOL     OW18019   1.733   0.105   7.157 -0.3302  0.1743 -0.4068
 2128SOL    HW118020   1.701   0.103   7.067 -0.7601 -2.4013 -0.1921
 2128SOL    HW218021   1.779   0.189   7.160  2.0446 -1.2348  2.2399
 2129SOL     OW18022   2.101   4.558   5.843 -0.4287  0.5576  0.1419
 2129SOL    HW118023   2.042   4.564   5.918  0.6060 -0.5944  1.0478
 2129SOL    HW218024   2.189   4.573   5.877 -0.2042 -1.1678  0.2959
 2130SOL     OW18025   4.082   2.226   5.096 -0.5792  0.5870 -0.4797
 2130SOL    HW118026   4.041   2.148   5.133 -1.6425  1.6930  0.6429
 2130SOL    HW218027   4.026   2.273   5.034  1.5601  1.9248 -1.4207
 2131SOL     OW18028   3.240   0.570   1.081 -0.6936 -0.2487  0.1207
 2131SOL    HW118029   3.330   0.570   1.112  0.2250 -2.0717 -2.5084
 2131SOL    HW218030   3.247   0.492   1.025 -2.1653 -2.2803  2.7364
 2132SOL     OW18031   0.924   3.392   3.132  0.4970 -0.2554  0.5646
 2132SOL    HW118032   0.919   3.306   3.090 -0.1635  0.0633 -0.0085
 2132SOL    HW218033   1.003   3.431   3.093  0.1069  1.3141  1.3525
 2133SOL     OW18034   2.003   3.794  11.766  0.2658  0.0078  0.1077
 2133SOL    HW118035   1.966   3.813  11.853 -1.7979  1.9829 -1.1958
 2133SOL    HW218036   2.049   3.877  11.755  0.7030  0.0464  2.1988
 2134SOL     OW18037   4.126   3.222   7.519 -0.8138 -0.8218 -0.5459
 2134SOL    HW118038   4.097   3.139   7.481 -1.8088  0.6188 -2.9328
 2134SOL    HW218039   4.173   3.200   7.599  1.8723  0.7118 -1.6856
 2135SOL     OW18040   1.014   0.413   2.691 -0.4477 -0.6384 -0.3479
 2135SOL    HW118041   1.028   0.498   2.732 -0.7544 -0.1902 -1.1836
 2135SOL    HW218042   1.106   0.396   2.670 -0.8797  0.7459 -3.2019
 2136SOL     OW18043   1.000   2.021   2.087 -0.3891 -0.2025  1.1082
 2136SOL    HW118044   0.929   2.041   2.149 -0.0257  0.6867  1.2350
 2136SOL    HW218045   1.010   1.931   2.117 -1.7336 -1.2434 -1.5499
 2137SOL     OW18046   4.277   3.631   7.514 -0.5075  0.2070 -0.2188
 2137SOL    HW118047   4.297   3.538   7.527  2.3078  0.9302  0.6141
 2137SOL    HW218048   4.360   3.671   7.541 -0.0666 -0.9349  0.1452
 2138SOL     OW18049   2.768   2.872   8.017 -0.1088 -0.1293  0.1666
 2138SOL    HW118050   2.804   2.960   8.021 -1.0830  0.2590  0.6728
 2138SOL    HW218051   2.778   2.860   7.923 -0.0314 -1.5433  0.3505
 2139SOL     OW18052   2.966   1.632   9.585 -0.1475 -0.0744  0.2915
 2139SOL    HW118053   2.894   1.613   9.645  0.3643  1.7785  1.5019
 2139SOL    HW218054   2.959   1.727   9.576 -0.3108 -0.2512 -1.4739
 2140SOL     OW18055   2.709   2.488  12.653 -0.5010  0.2821 -0.1167
 2140SOL    HW118056   2.709   2.576  12.692  0.9215  0.3501 -0.2781
 2140SOL    HW218057   2.708   2.433  12.731 -1.7888  0.4120 -0.0385
 2141SOL     OW18058   1.235   0.634   4.682 -0.4076 -0.3081  0.5563
 2141SOL    HW118059   1.247   0.581   4.761 -2.0055 -1.3502  0.1066
 2141SOL    HW218060   1.280   0.715   4.707  0.6420 -1.2056  1.6277
 2142SOL     OW18061   0.020   2.429   9.733 -0.3227 -0.3967  0.9155
 2142SOL    HW118062   4.667   2.435   9.704  0.3932  1.5849 -0.8963
 2142SOL    HW218063   0.031   2.345   9.779  3.8652 -0.2235  0.2270
 2143SOL     OW18064   2.649   2.455   5.023 -0.2729 -0.4372 -0.2854
 2143SOL    HW118065   2.606   2.373   5.000 -1.1729  0.3247 -1.2851
 2143SOL    HW218066   2.732   2.449   4.975  0.3173  0.8508  0.5588
 2144SOL     OW18067   1.230   1.182   5.109  0.1593 -0.6373  0.5209
 2144SOL    HW118068   1.291   1.220   5.173 -1.7707  2.2720  0.6000
 2144SOL    HW218069   1.283   1.133   5.046  1.8762  0.8316  0.8042
 2145SOL     OW18070   3.308   4.333  11.918 -0.6328  0.2746 -0.4731
 2145SOL    HW118071   3.366   4.303  11.848  0.3581  0.9508  0.0479
 2145SOL    HW218072   3.312   4.253  11.970  0.6912 -0.3730 -1.5605
 2146SOL     OW18073   0.966   1.340  10.042 -0.1950  0.3139 -0.2541
 2146SOL    HW118074   0.932   1.381   9.962 -1.9743 -0.3190  0.1640
 2146SOL    HW218075   0.893   1.340  10.105 -0.1251 -1.3628 -0.1740
 2147SOL     OW18076   0.599   0.266   2.916  0.2546 -0.1317  0.6085
 2147SOL    HW118077   0.654   0.224   2.850 -0.2141  1.3623 -0.7333
 2147SOL    HW218078   0.623   0.356   2.895  0.3211 -0.5961 -1.3596
 2148SOL     OW18079   0.606   3.514   8.335 -0.4045  0.3305 -0.2394
 2148SOL    HW118080   0.696   3.544   8.331 -0.5900  1.1063  1.2097
 2148SOL    HW218081   0.553   3.579   8.289 -0.9724  0.0799  0.0533
 2149SOL     OW18082   1.806   4.152  17.364  0.2940  0.2287 -0.3853
 2149SOL    HW118083   1.775   4.239  17.388  3.6083  1.0701  0.8965
 2149SOL    HW218084   1.751   4.099  17.422 -0.1836  1.0080 -0.1344
 2150SOL     OW18085   2.678   1.429   4.346 -0.2058 -0.0166  0.4425
 2150SOL    HW118086   2.654   1.387   4.428  2.1001  1.7921  2.0207
 2150SOL    HW218087   2.684   1.519   4.377 -0.7098 -0.6341  2.3331
 2151SOL     OW18088   4.538   0.659   4.147 -0.3580 -0.4922 -0.1833
 2151SOL    HW118089   4.453   0.702   4.151 -0.8155 -1.4410  0.1617
 2151SOL    HW218090   4.586   0.720   4.090  1.4360  0.4665  2.3419
 2152SOL     OW18091   1.878   1.062   3.634  0.4896 -0.3071  0.3222
 2152SOL    HW118092   1.959   1.048   3.683  1.3642  4.1892  0.2065
 2152SOL    HW218093   1.855   0.970   3.619  1.3041 -0.2902 -1.0356
 2153SOL     OW18094   4.431   3.205   3.816 -0.3933 -0.0063  0.2943
 2153SOL    HW118095   4.359   3.157   3.774  1.3169 -1.8815 -0.4705
 2153SOL    HW218096   4.424   3.285   3.763  1.3760 -1.3155 -1.9180
 2154SOL     OW18097   0.899   1.547  10.696  0.4458 -0.3644  0.0233
 2154SOL    HW118098   0.878   1.635  10.729 -0.8589 -0.9898  0.8425
 2154SOL    HW218099   0.921   1.495  10.773 -0.0839 -0.9519 -0.2272
 2155SOL     OW18100   4.423   1.712   3.027 -0.4412  0.0849  0.8308
 2155SOL    HW118101   4.414   1.780   2.961 -1.1754  0.0625  0.9048
 2155SOL    HW218102   4.368   1.642   2.992  1.0206 -0.5558 -0.1893
 2156SOL     OW18103   2.223   0.912  11.685  0.2327  0.0243  0.0304
 2156SOL    HW118104   2.214   0.842  11.621 -0.3209  0.4487 -0.3534
 2156SOL    HW218105   2.316   0.913  11.708  0.3982 -1.2904 -0.6182
 2157SOL     OW18106   4.540   0.933   2.705 -0.0396  0.6326 -0.4793
 2157SOL    HW118107   4.567   0.843   2.691  0.1698  0.3764  1.6195
 2157SOL    HW218108   4.447   0.934   2.682 -0.6051  1.5839  1.8037
 2158SOL     OW18109   2.602   4.592  11.402  0.3499 -0.9020  0.4745
 2158SOL    HW118110   2.510   4.606  11.377  1.2361 -0.5316 -2.6250
 2158SOL    HW218111   2.634   4.652  11.334 -1.7126 -0.6534 -0.2857
 2159SOL     OW18112   2.517   4.666   6.220  0.0646  0.0728  0.2353
 2159SOL    HW118113   2.504   4.601   6.289 -0.4034  0.5417  0.5896
 2159SOL    HW218114   2.552   4.611   6.151  0.3166  1.1325 -0.4842
 2160SOL     OW18115   1.432   0.206   4.708 -0.1299  0.1353  0.0889
 2160SOL    HW118116   1.382   0.222   4.788  2.1494 -1.0618  1.7553
 2160SOL    HW218117   1.370   0.197   4.635 -0.2426 -2.4613  0.5035
 2161SOL     OW18118   3.633   1.483   3.803  0.3804 -0.0054  0.5080
 2161SOL    HW118119   3.615   1.394   3.773  0.2770  0.3008 -0.3601
 2161SOL    HW218120   3.589   1.539   3.739 -0.9664 -1.1763  0.4066
 2162SOL     OW18121   1.810   4.120   6.928  0.3275 -0.1064 -0.2285
 2162SOL    HW118122   1.766   4.203   6.945  1.0617 -0.3560  2.9999
 2162SOL    HW218123   1.853   4.105   7.012 -0.7014  0.7884  0.4582
 2163SOL     OW18124   2.593   0.823   5.347  0.2561  0.4134 -0.6899
 2163SOL    HW118125   2.524   0.889   5.353 -0.8782 -0.8669  0.3518
 2163SOL    HW218126   2.614   0.844   5.256 -0.0624  0.4958 -0.7458
 2164SOL     OW18127   1.652   3.291   4.840  0.1127  0.6248 -0.7376
 2164SOL    HW118128   1.651   3.222   4.906 -0.6886  0.9978 -0.3612
 2164SOL    HW218129   1.709   3.247   4.777  0.7609  1.3028 -0.6303
 2165SOL     OW18130   3.891   2.736  11.958  0.1884  0.2685 -0.1911
 2165SOL    HW118131   3.863   2.827  11.949 -0.8693 -0.0877 -0.4871
 2165SOL    HW218132   3.958   2.745  12.026  0.5579 -0.9977 -0.3693
 2166SOL     OW18133   3.742   3.194   8.590  0.3757 -0.2181 -0.7745
 2166SOL    HW118134   3.745   3.245   8.508 -0.2524  0.9405 -0.0900
 2166SOL    HW218135   3.836   3.186   8.601  0.1785 -0.3521  0.7089
 2167SOL     OW18136   3.771   2.708   5.753  0.6851  0.5732 -0.1758
 2167SOL    HW118137   3.727   2.637   5.705 -0.4319  0.8925  0.3688
 2167SOL    HW218138   3.712   2.718   5.827 -0.1199  1.9566 -0.9876
 2168SOL     OW18139   1.327   1.922  10.289 -0.4587 -0.0378  0.3871
 2168SOL    HW118140   1.354   1.832  10.306  1.8755  0.6915  0.5445
 2168SOL    HW218141   1.314   1.910  10.195  1.6347 -1.4014  0.2628
 2169SOL     OW18142   4.333   2.856   7.001  0.3998  0.2136 -0.1500
 2169SOL    HW118143   4.358   2.793   6.933  1.7471  0.1405  0.4126
 2169SOL    HW218144   4.413   2.863   7.053 -0.1642  1.5523  0.5489
 2170SOL     OW18145   1.490   0.416   7.922  0.6528  0.1924  0.3163
 2170SOL    HW118146   1.489   0.491   7.981  0.2147 -1.0530  1.8721
 2170SOL    HW218147   1.559   0.364   7.963  0.6761  0.3873  0.5257
 2171SOL     OW18148   2.361   0.839   7.407  0.2937 -0.0330 -0.8277
 2171SOL    HW118149   2.444   0.876   7.376  0.3179  1.9614  1.6261
 2171SOL    HW218150   2.298   0.852   7.337 -0.2559  3.3451  0.3238
 2172SOL     OW18151   0.073   4.307  10.895 -0.0699 -0.2181 -0.0584
 2172SOL    HW118152   0.133   4.256  10.949  0.9108  0.8776 -0.1204
 2172SOL    HW218153   0.133   4.367  10.851 -0.6201  0.1604 -0.2940
 2173SOL     OW18154   0.495   0.129   0.843  0.0208 -0.3351 -0.4936
 2173SOL    HW118155   0.538   0.191   0.786  0.9816 -0.1337  0.4606
 2173SOL    HW218156   0.406   0.137   0.808  0.4010  3.1403 -0.6665
 2174SOL     OW18157   2.181   4.736  12.816 -0.0277  0.4673  0.0927
 2174SOL    HW118158   2.150   4.675  12.749 -2.9478  0.3403  1.5742
 2174SOL    HW218159   2.159   0.080  12.772  0.1896  0.5807  0.1965
 2175SOL     OW18160   4.182   1.895   2.705  0.3990  0.0710  0.3210
 2175SOL    HW118161   4.092   1.876   2.677  1.7359 -3.4342 -1.5525
 2175SOL    HW218162   4.209   1.967   2.647  2.6083 -1.2961 -0.3245
 2176SOL     OW18163   0.394   4.556   8.022 -0.2046 -0.2617 -0.1828
 2176SOL    HW118164   0.357   4.470   8.040  0.2251 -1.0249 -3.0088
 2176SOL    HW218165   0.318   4.614   8.031 -0.8128 -1.3076  1.5344
 2177SOL     OW18166   2.212   0.027   7.929 -0.7790 -0.1333  0.3499
 2177SOL    HW118167   2.137   4.710   7.905 -0.8641  0.4319 -0.7092
 2177SOL    HW218168   2.264   4.699   7.974 -1.5604 -1.0851 -0.1483
 2178SOL     OW18169   1.048   0.863   3.339 -0.4372  0.5450 -0.0966
 2178SOL    HW118170   1.088   0.917   3.407  0.4886 -0.2369 -0.0306
 2178SOL    HW218171   1.090   0.779   3.356  0.7091  1.1526  0.0429
 2179SOL     OW18172   0.703   0.447   3.708  0.0500 -0.1569  0.3810
 2179SOL    HW118173   0.777   0.451   3.648  0.0400  2.7390  0.5494
 2179SOL    HW218174   0.643   0.378   3.680  1.2562 -1.2392  0.4893
 2180SOL     OW18175   2.832   0.713  14.344  0.0229 -0.0325  0.2715
 2180SOL    HW118176   2.825   0.806  14.320  2.5295  0.0553 -0.1669
 2180SOL    HW218177   2.923   0.700  14.370 -0.3475  2.4721  2.7306
 2181SOL     OW18178   0.545   4.342   7.024 -0.4758 -0.9152  0.3415
 2181SOL    HW118179   0.553   4.393   6.943 -0.3304  2.0212  2.1886
 2181SOL    HW218180   0.640   4.344   7.030 -0.5277  1.7837  0.3946
 2182SOL     OW18181   2.316   2.046   7.014  0.0771  0.1214  0.0064
 2182SOL    HW118182   2.363   2.045   7.097  0.0997  1.8503  0.0113
 2182SOL    HW218183   2.300   1.951   7.015 -1.0198  0.3299  1.8545
 2183SOL     OW18184   0.823   1.486   5.428  0.2162  0.0538  0.0149
 2183SOL    HW118185   0.802   1.417   5.491  1.5904 -0.1389  0.2658
 2183SOL    HW218186   0.915   1.503   5.450  0.7629 -1.3343 -1.1699
 2184SOL     OW18187   2.974   2.100  12.953  0.2838  0.0597 -0.1198
 2184SOL    HW118188   2.969   2.149  13.035 -0.6227  1.4946 -1.0194
 2184SOL    HW218189   3.068   2.101  12.932  0.7444 -0.5284  1.9955
 2185SOL     OW18190   0.676   0.016   5.681 -0.2641  0.1509  0.3094
 2185SOL    HW118191   0.735   0.027   5.607  0.0280  0.4955  0.5978
 2185SOL    HW218192   0.735   0.034   5.754 -1.0078 -0.2789  1.0235
 2186SOL     OW18193   3.186   3.944   6.560  0.0501  0.3472  0.0153
 2186SOL    HW118194   3.198   3.857   6.596 -0.5877  0.5644  0.7440
 2186SOL    HW218195   3.212   3.939   6.468  0.1590 -1.1542  0.1402
 2187SOL     OW18196   2.942   0.954   4.546 -0.1545 -0.2486  0.7957
 2187SOL    HW118197   2.992   1.034   4.560  1.4144 -0.7303 -1.9928
 2187SOL    HW218198   2.989   0.892   4.602 -0.7732  0.3649  1.9781
 2188SOL     OW18199   0.332   1.399   1.234  0.3893  0.7401  0.2335
 2188SOL    HW118200   0.298   1.473   1.184  1.2705  0.4134 -0.8467
 2188SOL    HW218201   0.405   1.436   1.284  1.1492 -0.2349 -0.1499
 2189SOL     OW18202   4.414   1.993   7.588 -0.0819  0.7633  0.0828
 2189SOL    HW118203   4.469   1.915   7.596 -0.9998 -0.2537 -3.5136
 2189SOL    HW218204   4.434   2.048   7.664 -0.6546  1.3663 -0.2078
 2190SOL     OW18205   1.809   0.828   9.633 -0.4049 -0.3178 -0.0630
 2190SOL    HW118206   1.812   0.806   9.540  0.9031 -1.4526  0.2482
 2190SOL    HW218207   1.900   0.817   9.661 -1.1365 -0.2021  2.3951
 2191SOL     OW18208   3.212   3.897   6.852 -0.5551 -0.6554  0.5495
 2191SOL    HW118209   3.194   3.935   6.766  1.0897 -2.8884 -0.7742
 2191SOL    HW218210   3.221   3.803   6.840 -0.1678 -0.8031  1.9826
 2192SOL     OW18211   3.173   0.783  14.818  0.3732  0.2917  0.2308
 2192SOL    HW118212   3.215   0.840  14.883 -0.5363 -0.8635  1.8244
 2192SOL    HW218213   3.142   0.849  14.756 -2.2308 -1.0284  0.1520
 2193SOL     OW18214   4.130   1.665   9.942 -0.0131 -0.3212  0.2100
 2193SOL    HW118215   4.041   1.658   9.906 -0.5175  0.4040  1.3069
 2193SOL    HW218216   4.100   1.685  10.031  0.7635 -0.4648  0.5003
 2194SOL     OW18217   4.318   3.784   3.913 -0.2064 -0.2954  0.1826
 2194SOL    HW118218   4.326   3.879   3.908  0.5272 -0.4882 -1.9077
 2194SOL    HW218219   4.404   3.755   3.884  0.9998 -0.2912  3.7374
 2195SOL     OW18220   3.287   4.361   7.266 -0.4513 -0.1435  0.8009
 2195SOL    HW118221   3.353   4.330   7.328  0.5896 -1.1409 -0.7987
 2195SOL    HW218222   3.284   4.284   7.209 -0.5000  0.6298 -0.2249
 2196SOL     OW18223   2.473   2.996  16.233  0.2677  0.3952  0.2933
 2196SOL    HW118224   2.451   2.952  16.316  0.5374  0.7829  0.5697
 2196SOL    HW218225   2.412   3.069  16.239  0.3877  0.5400 -0.3024
 2197SOL     OW18226   1.364   0.865   7.705  0.6271 -0.1356 -0.4587
 2197SOL    HW118227   1.440   0.826   7.661  0.7237  0.2455 -0.6321
 2197SOL    HW218228   1.302   0.794   7.688  1.9410 -1.5892  0.8374
 2198SOL     OW18229   0.168   4.020   9.904 -0.0856 -0.1133  0.7618
 2198SOL    HW118230   0.072   4.018   9.900  0.0836 -4.7692 -0.5548
 2198SOL    HW218231   0.196   3.935   9.870 -2.8734 -0.6310 -0.2697
 2199SOL     OW18232   1.399   1.149   8.838  0.1412  0.9403  0.8104
 2199SOL    HW118233   1.375   1.081   8.775 -0.7782  2.5652 -0.5937
 2199SOL    HW218234   1.362   1.229   8.800 -2.4949 -1.1892 -1.1367
 2200SOL     OW18235   0.827   4.063   9.145 -0.2657  0.0502  0.4443
 2200SOL    HW118236   0.786   3.978   9.132 -0.8371  0.5228 -0.9061
 2200SOL    HW218237   0.752   4.122   9.153 -0.3668 -0.0048 -0.1391
 2201SOL     OW18238   1.717   4.586   8.796  0.5671  0.0689  0.0652
 2201SOL    HW118239   1.639   4.541   8.761  0.2440 -1.5375  2.9041
 2201SOL    HW218240   1.708   4.568   8.889  0.7375  0.1342  0.0936
 2202SOL     OW18241   2.778   0.531   0.523 -0.2556 -0.8793 -0.7861
 2202SOL    HW118242   2.744   0.610   0.481  0.8738  0.2184  0.3683
 2202SOL    HW218243   2.844   0.567   0.581 -1.9479  1.0155 -0.0095
 2203SOL     OW18244   1.492   0.142   7.742 -0.1877  0.2018  0.5573
 2203SOL    HW118245   1.508   0.221   7.792 -0.7615 -0.2476  1.4527
 2203SOL    HW218246   1.558   0.085   7.781  0.0904  0.2914  0.2127
 2204SOL     OW18247   1.146   4.181   3.566 -1.1100 -0.1485  0.5430
 2204SOL    HW118248   1.112   4.198   3.653 -3.9342 -1.8217 -0.2296
 2204SOL    HW218249   1.068   4.154   3.517 -1.7525 -0.5882  1.8336
 2205SOL     OW18250   3.608   0.036   7.222  0.3353 -0.2352  0.1712
 2205SOL    HW118251   3.628   0.063   7.133  0.6590  0.3551  0.4182
 2205SOL    HW218252   3.549   0.110   7.237  0.3304  0.0213 -1.1473
 2206SOL     OW18253   3.278   3.882   6.295 -0.0049 -0.2705 -0.2364
 2206SOL    HW118254   3.364   3.862   6.257  0.6001 -1.9037  2.0048
 2206SOL    HW218255   3.257   3.955   6.237 -0.2326 -1.6387 -1.8659
 2207SOL     OW18256   1.892   3.048   4.813 -0.3251  0.4430 -0.3848
 2207SOL    HW118257   1.860   3.063   4.724 -1.9025 -1.3891 -0.1360
 2207SOL    HW218258   1.827   2.987   4.849  0.1808  1.3923  2.1307
 2208SOL     OW18259   0.092   2.513   5.654 -1.0523  0.1464  0.1155
 2208SOL    HW118260   0.169   2.541   5.604 -1.7887  1.3390 -0.3382
 2208SOL    HW218261   0.045   2.449   5.602 -0.1078 -0.0021 -0.5510
 2209SOL     OW18262   3.654   4.336  10.449 -0.8109 -0.2270 -0.4467
 2209SOL    HW118263   3.734   4.385  10.472 -0.7819 -0.0036 -1.0062
 2209SOL    HW218264   3.620   4.303  10.531  2.5715  0.1829  1.1482
 2210SOL     OW18265   0.748   4.113  17.357  0.7013  0.2055  0.1598
 2210SOL    HW118266   0.765   4.023  17.328  0.8722  0.3635 -0.2261
 2210SOL    HW218267   0.746   4.152  17.270 -2.6690  0.2446  0.2594
 2211SOL     OW18268   4.460   2.780  12.642  0.1780  0.4846  0.4675
 2211SOL    HW118269   4.463   2.789  12.547 -1.1738  0.8958  0.4576
 2211SOL    HW218270   4.392   2.714  12.654 -1.2755  2.1857  1.7343
 2212SOL     OW18271   3.285   1.675   6.306 -0.4072  0.0133  0.0942
 2212SOL    HW118272   3.214   1.637   6.360  0.0344  0.6976  1.1492
 2212SOL    HW218273   3.314   1.597   6.259  1.0951  1.4285 -1.2877
 2213SOL     OW18274   3.208   2.797  10.418  0.1080 -0.3556  0.7567
 2213SOL    HW118275   3.161   2.810  10.335 -0.7056 -0.2608  1.2283
 2213SOL    HW218276   3.180   2.869  10.474 -1.6166  1.0072 -1.8011
 2214SOL     OW18277   2.193   0.579   6.696 -0.8347 -0.0612  0.4093
 2214SOL    HW118278   2.104   0.581   6.661  0.0341  0.6190 -1.7715
 2214SOL    HW218279   2.233   0.653   6.650  0.6854 -0.3887  1.1886
 2215SOL     OW18280   2.196   4.612   4.262  0.6535 -0.7270  0.3728
 2215SOL    HW118281   2.194   4.533   4.315 -0.5005 -2.1009 -1.6954
 2215SOL    HW218282   2.205   4.675   4.334 -1.4271  0.5123 -0.4376
 2216SOL     OW18283   3.396   2.848   3.755  0.7401 -0.1198 -0.2365
 2216SOL    HW118284   3.418   2.819   3.843  0.7039 -1.0216 -0.5221
 2216SOL    HW218285   3.479   2.831   3.710  1.0308  1.3993 -0.2963
 2217SOL     OW18286   1.240   0.821   5.254  0.1892  0.1126 -0.3203
 2217SOL    HW118287   1.183   0.778   5.191  0.6362 -1.3177  0.2403
 2217SOL    HW218288   1.299   0.868   5.195 -1.1572  0.6126 -1.2645
 2218SOL     OW18289   0.851   0.934   2.263 -0.6237  0.4851 -0.4372
 2218SOL    HW118290   0.928   0.882   2.237 -0.7851 -0.0225  0.0977
 2218SOL    HW218291   0.797   0.927   2.185 -0.6245 -0.7388 -0.3350
 2219SOL     OW18292   2.399   1.037   9.343  0.2143 -0.1855  0.0773
 2219SOL    HW118293   2.483   1.071   9.375 -0.2553 -1.2828  2.4831
 2219SOL    HW218294   2.346   1.065   9.418 -0.9959 -0.2019 -0.7854
 2220SOL     OW18295   0.689   1.840   7.291  0.5129  0.1664  0.1791
 2220SOL    HW118296   0.675   1.808   7.380  0.1571  1.0117  0.4256
 2220SOL    HW218297   0.783   1.824   7.282  0.4703 -0.5566  1.0553
 2221SOL     OW18298   3.431   0.792   6.132 -0.4317  0.2488  0.1554
 2221SOL    HW118299   3.527   0.785   6.128 -0.5729 -1.7299  0.0196
 2221SOL    HW218300   3.423   0.855   6.061  2.0444  0.4331  0.0450
 2222SOL     OW18301   2.054   0.235   7.372 -0.6342  0.0664  0.8062
 2222SOL    HW118302   2.059   0.234   7.277  1.0160  1.0460  0.8769
 2222SOL    HW218303   2.087   0.151   7.403  2.3611  0.5193 -1.1210
 2223SOL     OW18304   1.448   4.410   6.383 -0.3508 -0.6612  0.0992
 2223SOL    HW118305   1.538   4.436   6.401 -1.2004  1.1493  1.7819
 2223SOL    HW218306   1.406   4.476   6.439  1.1561  0.9244 -0.6394
 2224SOL     OW18307   2.657   3.615   8.502 -0.4795 -0.1802  0.6960
 2224SOL    HW118308   2.705   3.583   8.578 -2.7216  1.3679  2.7492
 2224SOL    HW218309   2.569   3.634   8.534 -0.9148  1.3205 -1.3411
 2225SOL     OW18310   0.896   0.960  12.461 -0.2347  0.3372 -0.1470
 2225SOL    HW118311   0.890   0.974  12.366 -0.5098  1.2204 -0.0056
 2225SOL    HW218312   0.980   1.002  12.480  0.5124 -2.2566  2.1568
 2226SOL     OW18313   3.882   4.415   0.982 -0.1674  0.1223  0.2571
 2226SOL    HW118314   3.835   4.332   0.980 -2.2890  1.3734 -1.6777
 2226SOL    HW218315   3.820   4.468   1.032  1.4835  2.7237 -0.4311
 2227SOL     OW18316   3.456   1.084   4.052 -0.1654 -0.0934  1.1091
 2227SOL    HW118317   3.524   1.150   4.062  0.3368 -0.0309 -2.6882
 2227SOL    HW218318   3.455   1.040   4.138  0.1069  2.6277  2.4928
 2228SOL     OW18319   3.000   1.865   0.630 -0.2150 -0.4276 -0.1919
 2228SOL    HW118320   2.982   1.781   0.589 -3.0780 -0.9384  2.1573
 2228SOL    HW218321   2.919   1.904   0.598 -0.2267  0.5832  1.0569
 2229SOL     OW18322   3.371   4.252   8.689 -0.4621 -0.3160 -0.4243
 2229SOL    HW118323   3.388   4.264   8.595 -0.4402 -1.1119 -0.5218
 2229SOL    HW218324   3.365   4.157   8.697 -2.1881 -0.0957  0.8126
 2230SOL     OW18325   1.163   4.586  16.235 -0.5526 -0.4126  0.4962
 2230SOL    HW118326   1.254   4.579  16.266 -0.7025  0.2848  1.1014
 2230SOL    HW218327   1.122   4.502  16.259 -1.9395  0.0148 -0.3831
 2231SOL     OW18328   2.327   0.295   4.467 -0.2729 -0.3774  0.0335
 2231SOL    HW118329   2.394   0.346   4.511  0.0722 -2.2162  1.6289
 2231SOL    HW218330   2.272   0.359   4.421  0.1061  0.1334  0.3026
 2232SOL     OW18331   1.243   3.921   0.043 -0.2827 -0.5588 -0.7910
 2232SOL    HW118332   1.182   3.856   0.008 -0.4846  0.5005 -2.4296
 2232SOL    HW218333   1.186   3.994   0.068  0.7205  0.0637 -0.3365
 2233SOL     OW18334   4.127   1.964   7.565 -0.3298 -0.4140 -0.1774
 2233SOL    HW118335   4.220   1.947   7.575 -0.0955  0.6031 -0.6502
 2233SOL    HW218336   4.096   1.951   7.655 -0.0051 -3.3613 -0.4722
 2234SOL     OW18337   0.921   3.413   3.551  0.2496 -0.2556 -0.1760
 2234SOL    HW118338   0.915   3.367   3.635  1.0533 -0.9513 -0.4838
 2234SOL    HW218339   0.875   3.494   3.569 -0.5428 -0.4763 -1.2055
 2235SOL     OW18340   2.899   4.098   5.020 -0.3292  0.0409  0.0643
 2235SOL    HW118341   2.990   4.068   5.013  0.2279  1.9929 -1.0237
 2235SOL    HW218342   2.851   4.023   4.985 -2.6497  0.3761  2.6185
 2236SOL     OW18343   4.459   1.896   5.174 -0.7099  0.1401 -0.3139
 2236SOL    HW118344   4.432   1.901   5.083 -1.1318 -0.9525 -0.2452
 2236SOL    HW218345   4.381   1.866   5.221  0.1479 -1.3605  0.1593
 2237SOL     OW18346   3.905   1.533   6.598 -0.3040 -0.2792  0.6140
 2237SOL    HW118347   3.936   1.555   6.686  0.9594 -1.1332  0.3863
 2237SOL    HW218348   3.814   1.525   6.626 -0.1026 -1.2161  1.0031
 2238SOL     OW18349   0.834   2.003   7.714 -0.3025  0.6743 -0.1718
 2238SOL    HW118350   0.853   1.909   7.712 -2.9668  0.0570  3.3144
 2238SOL    HW218351   0.740   1.990   7.699 -0.5495 -0.5086  2.2890
 2239SOL     OW18352   4.302   0.308   6.465 -0.2267 -0.4691 -0.4555
 2239SOL    HW118353   4.249   0.232   6.487  2.9954 -2.7763 -0.5268
 2239SOL    HW218354   4.387   0.264   6.467  0.9449  1.8216  0.5138
 2240SOL     OW18355   1.986   1.209  10.320 -0.2530  0.0111  0.0370
 2240SOL    HW118356   2.028   1.123  10.321 -1.3648 -0.4976  2.3290
 2240SOL    HW218357   2.058   1.272  10.331 -0.6428  0.6446 -1.0042
 2241SOL     OW18358   1.093   1.670  15.741 -0.2238  0.1247 -0.1806
 2241SOL    HW118359   0.999   1.656  15.733 -0.2033  0.1534 -0.4707
 2241SOL    HW218360   1.103   1.762  15.719  1.8319 -0.3093 -1.0483
 2242SOL     OW18361   0.720   4.586   6.201 -0.4596 -0.5872  0.5035
 2242SOL    HW118362   0.775   4.613   6.127  0.6908  0.2836  1.6643
 2242SOL    HW218363   0.776   4.613   6.274  0.3317 -0.6383 -0.0755
 2243SOL     OW18364   2.359   0.758  11.066  0.2339  0.2608 -0.0211
 2243SOL    HW118365   2.387   0.670  11.040  1.3775  1.6511 -3.6227
 2243SOL    HW218366   2.362   0.798  10.979 -4.1400  0.1902 -0.1907
 2244SOL     OW18367   4.699   1.917   5.428  0.0129 -0.4167  0.1213
 2244SOL    HW118368   4.688   1.886   5.338 -1.6279 -0.3074  0.2956
 2244SOL    HW218369   4.609   1.899   5.456 -0.4684  1.3973 -0.2446
 2245SOL     OW18370   0.007   2.568   3.503 -0.2243 -0.2538  0.0836
 2245SOL    HW118371   0.091   2.536   3.473 -0.6506 -1.7155  0.4738
 2245SOL    HW218372   0.047   2.631   3.564  1.1560 -2.8358  1.8374
 2246SOL     OW18373   2.341   4.499  13.547 -0.1389  0.1988 -0.5844
 2246SOL    HW118374   2.263   4.448  13.569  0.1332  0.6995  1.4789
 2246SOL    HW218375   2.398   4.482  13.622  0.6789 -0.0291 -1.2459
 2247SOL     OW18376   0.905   3.748  12.678 -0.3977  0.1061  0.0259
 2247SOL    HW118377   0.818   3.772  12.645  0.3708  0.0078 -2.0760
 2247SOL    HW218378   0.878   3.730  12.768  1.4769 -3.7190 -0.2037
 2248SOL     OW18379   4.467   3.149   1.132  0.5123 -0.0613 -0.4922
 2248SOL    HW118380   4.424   3.073   1.093 -0.4060  1.5782 -2.6818
 2248SOL    HW218381   4.412   3.167   1.208  2.2964 -0.6884  0.9503
 2249SOL     OW18382   2.555   2.284  12.523  0.0990 -0.2495 -0.1712
 2249SOL    HW118383   2.609   2.211  12.553  0.9381  0.7279  0.7179
 2249SOL    HW218384   2.594   2.355  12.573 -1.5852  0.1112  0.6229
 2250SOL     OW18385   0.763   0.830   1.226  0.0729  0.2511  0.0338
 2250SOL    HW118386   0.771   0.749   1.175 -0.5332  0.6671 -0.7277
 2250SOL    HW218387   0.693   0.811   1.289 -0.3035  0.1153 -0.4212
 2251SOL     OW18388   1.525   0.843   3.507 -0.4814  0.9492 -0.1034
 2251SOL    HW118389   1.618   0.829   3.524 -1.0956 -0.4877  2.0582
 2251SOL    HW218390   1.508   0.932   3.539 -2.7906  0.0132  1.2149
 2252SOL     OW18391   4.136   2.140   8.345  0.0602  0.4439  0.0677
 2252SOL    HW118392   4.045   2.113   8.357 -0.3656  1.6856 -0.3914
 2252SOL    HW218393   4.127   2.198   8.270 -1.7921  0.5020  0.3401
 2253SOL     OW18394   1.885   0.286   8.797 -0.1425 -0.7189 -0.2302
 2253SOL    HW118395   1.825   0.232   8.745  1.3240 -2.9658  0.4408
 2253SOL    HW218396   1.889   0.239   8.879  1.0663  0.4039  0.3661
 2254SOL     OW18397   2.715   0.180   4.701  0.1980 -0.3029  0.7973
 2254SOL    HW118398   2.644   0.125   4.735  0.9478 -1.7873 -0.0511
 2254SOL    HW218399   2.789   0.124   4.725  0.2177  0.0632  1.6164
 2255SOL     OW18400   3.525   4.714   0.453 -0.6657  0.2470  0.2260
 2255SOL    HW118401   3.520   4.618   0.452  0.5839  0.1982 -1.5245
 2255SOL    HW218402   3.439   4.732   0.415 -0.7440 -2.1690 -0.7932
 2256SOL     OW18403   0.249   3.103  16.910  0.0544  0.0224 -0.7460
 2256SOL    HW118404   0.324   3.099  16.970 -1.2117 -0.8387  0.7697
 2256SOL    HW218405   0.232   3.009  16.903 -1.3288  0.2488 -0.4004
 2257SOL     OW18406   0.582   2.421   6.950 -0.2646  0.2041  0.3256
 2257SOL    HW118407   0.608   2.363   7.022 -2.5210 -1.9132 -0.5587
 2257SOL    HW218408   0.666   2.464   6.940 -0.1243 -0.2735 -0.5402
 2258SOL     OW18409   3.512   1.494  11.234  1.0047  0.3851 -0.1510
 2258SOL    HW118410   3.419   1.504  11.216  1.3952  0.7139 -1.9268
 2258SOL    HW218411   3.541   1.479  11.144  0.9757  0.3099 -0.1486
 2259SOL     OW18412   0.214   1.106   4.278 -0.6253  0.0519  0.4535
 2259SOL    HW118413   0.145   1.052   4.240  0.7036  0.7933 -3.0072
 2259SOL    HW218414   0.152   1.172   4.307  0.5469  1.2538  0.2322
 2260SOL     OW18415   2.292   1.516   3.595 -0.2114  0.0168  0.0538
 2260SOL    HW118416   2.353   1.507   3.522  0.7784  2.6326  0.5188
 2260SOL    HW218417   2.237   1.590   3.570  0.3063 -0.6441 -3.0229
 2261SOL     OW18418   0.412   3.936   2.170  0.1056  0.6264  0.6022
 2261SOL    HW118419   0.504   3.939   2.195 -0.4019  0.6390  2.4671
 2261SOL    HW218420   0.423   3.911   2.078  0.8443 -0.2803  0.9311
 2262SOL     OW18421   0.278   2.236   7.810 -0.0280  0.2694  0.2374
 2262SOL    HW118422   0.215   2.213   7.742 -1.0764  1.2499  0.8774
 2262SOL    HW218423   0.361   2.207   7.771 -1.2821 -0.9812 -1.5086
 2263SOL     OW18424   0.564   1.159   0.595 -0.2074  0.2391 -0.2888
 2263SOL    HW118425   0.643   1.195   0.556  0.0471 -0.1215 -0.1026
 2263SOL    HW218426   0.499   1.191   0.532 -0.6802 -1.2309 -0.5588
 2264SOL     OW18427   0.328   1.720   8.448  0.1396 -0.1141  0.0169
 2264SOL    HW118428   0.331   1.625   8.437 -0.2535 -0.0479 -0.6269
 2264SOL    HW218429   0.243   1.747   8.415  0.7666  1.0979 -0.6122
 2265SOL     OW18430   2.017   3.919   8.752  0.6264 -0.2206  0.1596
 2265SOL    HW118431   2.036   4.006   8.786 -0.6597  0.7003 -1.4506
 2265SOL    HW218432   1.983   3.877   8.831  3.1029  0.4334  1.5714
 2266SOL     OW18433   4.636   1.150   7.861 -1.1194 -0.4022  0.2013
 2266SOL    HW118434   4.705   1.191   7.809 -0.6655 -1.1781  0.1780
 2266SOL    HW218435   4.607   1.081   7.801 -1.8100 -1.4046  1.6683
 2267SOL     OW18436   3.660   2.594   4.483 -0.3935 -0.2253  0.6271
 2267SOL    HW118437   3.575   2.603   4.526 -0.2064  2.4454  0.4887
 2267SOL    HW218438   3.636   2.551   4.401 -3.1634  3.2465 -0.4273
 2268SOL     OW18439   4.613   2.456  10.873 -0.3348 -0.0697 -0.0083
 2268SOL    HW118440   4.635   2.479  10.783 -1.6472  1.7603  0.1491
 2268SOL    HW218441   4.705   2.459  10.901 -1.2433 -0.9349  3.0949
 2269SOL     OW18442   3.687   0.297   1.021  0.2154  0.5434  0.4747
 2269SOL    HW118443   3.632   0.292   0.943 -2.8334 -1.6671  2.7726
 2269SOL    HW218444   3.774   0.265   0.998  0.0666  2.2392 -2.4668
 2270SOL     OW18445   1.455   3.618  15.479  0.7274  1.0404 -0.0939
 2270SOL    HW118446   1.381   3.627  15.539 -0.8594  0.7609 -1.9971
 2270SOL    HW218447   1.412   3.555  15.421  1.0371  0.6887  0.0527
 2271SOL     OW18448   3.743   0.491   0.503 -0.7836  0.2612  0.3669
 2271SOL    HW118449   3.713   0.462   0.416 -2.0401  1.3474  0.4399
 2271SOL    HW218450   3.826   0.537   0.491  0.0755 -1.2245  0.6559
 2272SOL     OW18451   1.366   2.329  15.682  0.5265  0.6575 -0.3903
 2272SOL    HW118452   1.441   2.270  15.695 -0.0809  0.2842  1.4439
 2272SOL    HW218453   1.402   2.408  15.642  2.0586  0.0837 -0.1712
 2273SOL     OW18454   0.879   2.285   6.245 -0.3826 -0.1512 -0.6074
 2273SOL    HW118455   0.871   2.380   6.239  2.4412  0.1479  0.7413
 2273SOL    HW218456   0.942   2.268   6.175  1.3549 -0.4916  1.0819
 2274SOL     OW18457   4.225   3.019   1.570  0.1073 -0.0270 -0.2357
 2274SOL    HW118458   4.260   2.967   1.498 -1.6169  0.8498 -1.6986
 2274SOL    HW218459   4.259   3.105   1.544  0.8369 -0.4970 -0.8553
 2275SOL     OW18460   3.168   1.789   6.041 -0.6003  0.0073  0.4066
 2275SOL    HW118461   3.175   1.811   6.134 -2.4194  1.3459  0.2176
 2275SOL    HW218462   3.254   1.755   6.016 -0.6683 -1.0536  1.6363
 2276SOL     OW18463   0.232   1.700  16.583  0.3208 -0.1816  0.0214
 2276SOL    HW118464   0.283   1.639  16.530  1.7137  1.2727 -0.3076
 2276SOL    HW218465   0.285   1.779  16.586 -1.5557  1.0596  1.1056
 2277SOL     OW18466   2.459   4.259   9.009  0.4662 -0.2965  0.3408
 2277SOL    HW118467   2.403   4.255   9.087  0.6514  1.9777  0.5826
 2277SOL    HW218468   2.520   4.325   9.041 -1.4101  0.5595  2.1848
 2278SOL     OW18469   3.428   1.009   1.404  0.1038 -0.4211  0.1968
 2278SOL    HW118470   3.401   0.928   1.448  0.5470 -0.9980 -0.5892
 2278SOL    HW218471   3.347   1.055   1.381 -0.3287 -0.5297  1.4641
 2279SOL     OW18472   0.193   3.089   8.620  0.0133  0.1849  0.0411
 2279SOL    HW118473   0.241   3.073   8.702  0.7480 -0.1791 -0.4635
 2279SOL    HW218474   0.127   3.155   8.642 -2.8940 -2.4100 -0.9645
 2280SOL     OW18475   0.237   0.128   3.588  0.1136  0.2379  0.0453
 2280SOL    HW118476   0.230   0.199   3.525 -1.9581  2.5818  2.9436
 2280SOL    HW218477   0.180   0.144   3.663  0.6786  1.6391  0.1736
 2281SOL     OW18478   1.522   3.849   4.449  0.0229  0.0901 -0.3404
 2281SOL    HW118479   1.609   3.833   4.486  1.2844  0.1792 -3.2731
 2281SOL    HW218480   1.464   3.835   4.524  0.7675  0.1799  0.2597
 2282SOL     OW18481   1.929   4.231  12.037 -0.1117  0.0491  0.4063
 2282SOL    HW118482   1.897   4.163  11.978 -2.9004  0.4214  1.4914
 2282SOL    HW218483   1.953   4.294  11.969 -0.4203 -0.5621 -0.2677
 2283SOL     OW18484   4.039   0.831   4.842  0.2959 -0.5764  0.1593
 2283SOL    HW118485   3.986   0.763   4.801  0.3151 -1.0141  0.8770
 2283SOL    HW218486   4.064   0.790   4.924 -0.6867  0.2467  0.8759
 2284SOL     OW18487   0.037   0.297   7.378 -0.1243  0.3479 -0.1378
 2284SOL    HW118488   0.128   0.325   7.366 -0.1638  0.4303 -0.2444
 2284SOL    HW218489   0.026   0.262   7.290 -2.2933  2.2359 -0.6160
 2285SOL     OW18490   3.327   0.535   9.473  0.1902  0.1715 -0.3813
 2285SOL    HW118491   3.378   0.459   9.446  0.4671  0.6817 -1.3025
 2285SOL    HW218492   3.394   0.584   9.520 -1.4932 -0.0567  2.2929
 2286SOL     OW18493   1.069   3.450   0.653 -0.1041 -0.1413  0.1422
 2286SOL    HW118494   1.160   3.465   0.676  0.7368 -1.5230 -2.2688
 2286SOL    HW218495   1.074   3.354   0.656  1.2939 -0.1050 -0.9477
 2287SOL     OW18496   2.643   0.557  14.490  0.0567  0.0869  0.0263
 2287SOL    HW118497   2.728   0.590  14.460 -0.4085 -0.5180 -1.9430
 2287SOL    HW218498   2.637   0.604  14.574  0.8034  0.5446 -0.1714
 2288SOL     OW18499   0.556   3.258   8.333 -0.8823  0.0990 -0.2208
 2288SOL    HW118500   0.577   3.350   8.323  3.0316 -0.9890 -1.8721
 2288SOL    HW218501   0.637   3.221   8.368 -1.7337 -0.7540  0.8672
 2289SOL     OW18502   2.458   1.267  16.466 -0.1270 -0.1114 -0.1950
 2289SOL    HW118503   2.437   1.309  16.383  0.3971  1.5236  0.4840
 2289SOL    HW218504   2.421   1.180  16.454 -0.0202 -0.1251 -0.4115
 2290SOL     OW18505   2.813   2.869   4.709 -0.1886  0.0882  0.0863
 2290SOL    HW118506   2.818   2.942   4.771  0.1002 -0.0433  0.2196
 2290SOL    HW218507   2.738   2.904   4.662  0.7012  2.4021  0.3864
 2291SOL     OW18508   3.819   0.054   3.892  0.9185  0.0407 -0.2300
 2291SOL    HW118509   3.780   4.707   3.913  1.3226  0.5140  2.4980
 2291SOL    HW218510   3.844   0.038   3.801 -3.6077 -1.4562 -1.2241
 2292SOL     OW18511   2.812   1.339   9.299 -0.2689  0.6017  0.0506
 2292SOL    HW118512   2.786   1.387   9.220 -0.4306  0.1638 -0.1648
 2292SOL    HW218513   2.895   1.383   9.316 -0.0120 -0.0924  0.5866
 2293SOL     OW18514   4.017   1.053  13.686 -0.5013  0.2590 -0.6764
 2293SOL    HW118515   4.102   1.093  13.702 -1.1385  1.4975 -0.3795
 2293SOL    HW218516   4.003   1.053  13.591  1.8802  1.7756 -1.0206
 2294SOL     OW18517   1.147   2.095   0.207  0.9474  0.7265 -0.5527
 2294SOL    HW118518   1.097   2.110   0.288  1.2248  0.5831 -0.3580
 2294SOL    HW218519   1.099   2.019   0.175 -2.2046  2.3459  0.2553
 2295SOL     OW18520   0.809   1.664  15.830 -0.6676  0.2247  0.2708
 2295SOL    HW118521   0.814   1.654  15.926 -0.3060 -2.4032 -0.0118
 2295SOL    HW218522   0.812   1.759  15.818 -1.4044 -0.2365 -3.3261
 2296SOL     OW18523   3.067   1.210   4.544 -0.1061 -0.7226  0.0675
 2296SOL    HW118524   3.139   1.207   4.608 -1.2558  1.2263  1.4594
 2296SOL    HW218525   3.088   1.294   4.503 -0.5807 -0.9389 -0.6095
 2297SOL     OW18526   0.051   3.534   8.297 -0.0606 -0.4261  0.6250
 2297SOL    HW118527   0.079   3.512   8.386 -0.7035  0.8298  1.1473
 2297SOL    HW218528   0.028   3.626   8.311  0.5333 -0.0400 -0.9555
 2298SOL     OW18529   2.844   2.634   2.253 -0.0605  0.2312  0.3891
 2298SOL    HW118530   2.901   2.666   2.182  1.5748 -0.5824  1.3293
 2298SOL    HW218531   2.881   2.652   2.339 -0.4970 -0.6059  0.7532
 2299SOL     OW18532   4.312   0.742   8.733  0.0279  0.1159  0.0112
 2299SOL    HW118533   4.331   0.804   8.804 -0.2955 -1.6830  1.6737
 2299SOL    HW218534   4.387   0.683   8.743 -1.0279 -0.8684  1.9323
 2300SOL     OW18535   4.179   1.987   7.159  0.1220 -0.4296  0.2289
 2300SOL    HW118536   4.157   2.055   7.222  1.9665  0.5232 -0.1803
 2300SOL    HW218537   4.095   1.954   7.125  0.8677 -2.6077  0.5006
 2301SOL     OW18538   3.936   0.461   3.583  0.1912 -0.1149  0.1865
 2301SOL    HW118539   3.878   0.401   3.630 -0.0121  0.1889  0.3206
 2301SOL    HW218540   3.896   0.465   3.496 -1.4204  1.7847  1.0264
 2302SOL     OW18541   2.148   2.389   2.710 -0.7235 -0.2247  0.0807
 2302SOL    HW118542   2.141   2.484   2.712 -1.7383 -0.2848 -0.8166
 2302SOL    HW218543   2.210   2.370   2.640 -1.1063 -0.7066 -0.1248
 2303SOL     OW18544   4.730   2.451   7.855  0.0983 -0.1397 -0.1008
 2303SOL    HW118545   4.733   2.398   7.935 -0.6154 -0.8862 -0.5696
 2303SOL    HW218546   0.034   2.403   7.784 -1.2888  0.9755 -1.6768
 2304SOL     OW18547   1.476   4.457   2.952 -0.7199 -0.0971  0.0869
 2304SOL    HW118548   1.508   4.418   2.871  0.6779  2.6401 -0.6723
 2304SOL    HW218549   1.527   4.537   2.957  0.2500 -0.7546  0.8231
 2305SOL     OW18550   2.487   1.475   2.438  0.1963 -0.1978  0.3501
 2305SOL    HW118551   2.426   1.504   2.506 -0.1804 -1.8288  0.7075
 2305SOL    HW218552   2.443   1.397   2.404 -0.2475 -0.2827  1.1177
 2306SOL     OW18553   0.232   3.941   5.303 -0.4101  0.5877  0.0664
 2306SOL    HW118554   0.280   3.900   5.374 -0.6468  2.6348  1.4025
 2306SOL    HW218555   0.216   4.024   5.348  1.0219  0.5687  0.6179
 2307SOL     OW18556   0.925   1.587   4.320 -0.3014  0.3090 -0.0101
 2307SOL    HW118557   0.870   1.581   4.397 -3.4666 -2.1265 -2.4459
 2307SOL    HW218558   0.986   1.655   4.351  0.5348 -0.4719  0.0630
 2308SOL     OW18559   3.904   1.677  16.580  0.1797 -0.0461  0.2500
 2308SOL    HW118560   3.971   1.739  16.551 -0.1049  0.4170  0.5902
 2308SOL    HW218561   3.893   1.694  16.674  0.4776 -1.9460  0.6246
 2309SOL     OW18562   3.352   4.278   2.246  0.2911  0.4615 -0.2884
 2309SOL    HW118563   3.371   4.187   2.266  2.1569  1.0945  0.8626
 2309SOL    HW218564   3.429   4.313   2.291  0.4588 -0.1797 -0.0832
 2310SOL     OW18565   2.958   3.118   2.409  0.3892 -0.6331 -0.5075
 2310SOL    HW118566   2.878   3.141   2.457  0.5081  0.3248 -0.7712
 2310SOL    HW218567   2.986   3.199   2.368  3.4848 -1.1003  0.6757
 2311SOL     OW18568   1.274   0.670  15.590 -0.1114  0.7991 -0.4337
 2311SOL    HW118569   1.347   0.624  15.632 -1.5694 -0.4666  0.7362
 2311SOL    HW218570   1.308   0.672  15.500 -0.2511  1.1773 -0.4748
 2312SOL     OW18571   2.248   1.694   2.314 -0.4157 -0.2721 -0.0000
 2312SOL    HW118572   2.173   1.670   2.260 -0.9198 -0.6412  0.8807
 2312SOL    HW218573   2.235   1.635   2.388  0.2674 -0.3504  0.0574
 2313SOL     OW18574   0.941   3.560   2.258 -0.2757  0.3439 -0.1120
 2313SOL    HW118575   0.992   3.597   2.330 -1.1753  0.8396  0.2673
 2313SOL    HW218576   0.958   3.623   2.187 -1.2565  1.5308  0.7076
 2314SOL     OW18577   3.337   0.128   6.809 -0.0093  0.5553 -0.1172
 2314SOL    HW118578   3.402   0.135   6.879 -0.6792 -3.6251  0.9505
 2314SOL    HW218579   3.260   0.086   6.845  1.1974  0.0475  1.8899
 2315SOL     OW18580   3.115   3.138   4.556 -0.0553  0.3589  0.0780
 2315SOL    HW118581   3.153   3.138   4.469 -1.2259 -0.1860 -0.4369
 2315SOL    HW218582   3.115   3.044   4.575 -0.8426  0.5343  1.0161
 2316SOL     OW18583   2.866   3.578   5.924 -0.0885 -0.4095  0.0063
 2316SOL    HW118584   2.846   3.573   5.831 -1.0843 -1.2305  0.2605
 2316SOL    HW218585   2.774   3.582   5.949  0.0169 -0.8079  0.4551
 2317SOL     OW18586   3.431   2.127   5.822 -0.1639  0.3242  0.0116
 2317SOL    HW118587   3.501   2.068   5.852 -0.1959  0.2636 -0.0335
 2317SOL    HW218588   3.427   2.096   5.732 -0.9352 -0.7192  0.4075
 2318SOL     OW18589   1.105   0.865  15.620 -0.4563  0.3670  0.5475
 2318SOL    HW118590   1.149   0.950  15.622 -1.4388  0.8895  0.1379
 2318SOL    HW218591   1.177   0.808  15.595 -0.4043  1.1723 -1.1382
 2319SOL     OW18592   0.921   4.085   5.712  0.4233  0.2359 -0.1181
 2319SOL    HW118593   0.917   4.015   5.778 -3.0979  0.6046  0.0725
 2319SOL    HW218594   0.866   4.048   5.643  2.3400  0.1034 -1.5533
 2320SOL     OW18595   0.602   3.750   0.090  0.1329  0.0322 -0.5714
 2320SOL    HW118596   0.584   3.822   0.029 -4.1576 -0.0076  0.6286
 2320SOL    HW218597   0.636   3.803   0.162 -1.1505  1.2473 -0.8447
 2321SOL     OW18598   0.458   2.990   1.851 -0.2590 -0.0608  1.1029
 2321SOL    HW118599   0.472   2.897   1.869 -0.4567 -0.8445 -2.7430
 2321SOL    HW218600   0.368   2.988   1.819  0.9686  0.8904 -2.5163
 2322SOL     OW18601   2.631   1.350   2.639  0.0195 -0.3062 -0.2774
 2322SOL    HW118602   2.596   1.384   2.557  1.2155 -1.4109 -1.2499
 2322SOL    HW218603   2.658   1.269   2.596  1.3426  0.7902 -1.5040
 2323SOL     OW18604   4.708   3.297   8.186  0.0119  0.6644 -0.0196
 2323SOL    HW118605   4.712   3.381   8.231 -1.0402  0.1278  1.0863
 2323SOL    HW218606   4.737   3.247   8.261  1.8820  1.5499 -0.1708
 2324SOL     OW18607   2.623   1.455  11.146  0.0741  0.5183 -0.0127
 2324SOL    HW118608   2.575   1.537  11.139 -0.3347  0.3859  1.2017
 2324SOL    HW218609   2.678   1.478  11.221  0.2381  0.0283  0.0224
 2325SOL     OW18610   2.836   3.665   9.154  0.1690 -0.0257 -0.5725
 2325SOL    HW118611   2.837   3.702   9.066  0.0657 -0.2705 -0.6778
 2325SOL    HW218612   2.742   3.672   9.172 -0.3657 -0.5860 -3.1831
 2326SOL     OW18613   0.585   1.590   7.227  0.0278 -0.0129 -0.3413
 2326SOL    HW118614   0.604   1.682   7.246  0.8064  0.0386 -1.4252
 2326SOL    HW218615   0.500   1.595   7.184  0.1254  0.7198 -0.4599
 2327SOL     OW18616   2.224   4.227   7.877  0.8513  0.3376 -0.7036
 2327SOL    HW118617   2.267   4.312   7.879  0.6244  0.4152  0.5834
 2327SOL    HW218618   2.238   4.182   7.960  0.4348  1.2655 -0.1379
 2328SOL     OW18619   0.858   0.112   3.136 -0.0811 -0.0343  0.0192
 2328SOL    HW118620   0.866   0.078   3.225 -1.1920  1.8429  0.8152
 2328SOL    HW218621   0.763   0.123   3.129 -0.4989 -2.8455  1.3760
 2329SOL     OW18622   3.842   4.716   7.578 -0.0306 -0.1156 -0.8845
 2329SOL    HW118623   3.854   0.071   7.595  0.5289 -0.2122 -0.7443
 2329SOL    HW218624   3.827   4.712   7.483 -0.7581  1.2492 -0.8254
 2330SOL     OW18625   0.858   4.049  10.090  0.4316 -0.2890 -0.1832
 2330SOL    HW118626   0.884   3.966  10.049 -2.1595  0.2414 -2.8829
 2330SOL    HW218627   0.939   4.099  10.082  0.7248 -0.6610  0.4230
 2331SOL     OW18628   2.275   4.609   0.265 -0.6761  0.0959  0.0584
 2331SOL    HW118629   2.367   4.611   0.239 -1.4979  0.2982 -2.8054
 2331SOL    HW218630   2.254   4.702   0.278 -1.8526 -0.1236 -0.2117
 2332SOL     OW18631   0.952   1.029   1.888 -0.7254  0.2326  0.1749
 2332SOL    HW118632   0.945   1.084   1.966  0.3494  1.2044 -0.4217
 2332SOL    HW218633   0.885   1.070   1.834 -0.9998 -1.4292 -0.7615
 2333SOL     OW18634   3.169   4.419   1.658  0.4588 -0.4833 -0.4410
 2333SOL    HW118635   3.102   4.368   1.703  0.8914 -0.4284  0.2560
 2333SOL    HW218636   3.152   4.385   1.570  2.6167 -1.3588 -0.5228
 2334SOL     OW18637   1.398   4.513   1.179 -0.2797  0.5456 -0.0768
 2334SOL    HW118638   1.328   4.453   1.155 -1.0651  0.6317  2.0487
 2334SOL    HW218639   1.469   4.462   1.140  0.7144  0.2413  2.1307
 2335SOL     OW18640   1.753   2.921   6.813  0.1807 -0.2789  0.1014
 2335SOL    HW118641   1.834   2.926   6.762 -0.1306  1.3552 -0.2569
 2335SOL    HW218642   1.774   2.852   6.876  1.1869  0.0183  0.1103
 2336SOL     OW18643   2.674   2.056   3.334 -0.4576 -0.3597  0.6493
 2336SOL    HW118644   2.606   2.122   3.348 -0.4614 -0.6622  2.0213
 2336SOL    HW218645   2.707   2.041   3.422  2.0014 -0.5237 -0.3157
 2337SOL     OW18646   3.338   0.201   1.709 -0.4212 -0.2975 -0.1862
 2337SOL    HW118647   3.280   0.139   1.665  1.5540 -2.0591 -0.2943
 2337SOL    HW218648   3.313   0.283   1.666 -1.5566  0.0708  1.1874
 2338SOL     OW18649   3.498   4.366   0.286  0.7826  0.0755 -0.7225
 2338SOL    HW118650   3.460   4.403   0.365  1.3147  0.3933 -0.6120
 2338SOL    HW218651   3.583   4.329   0.311  0.3856 -0.3207  0.0340
 2339SOL     OW18652   0.709   1.232   7.230 -0.3248  0.0791 -0.5369
 2339SOL    HW118653   0.793   1.231   7.185 -1.7809  0.1752 -3.2286
 2339SOL    HW218654   0.729   1.299   7.296  0.1651 -0.6437  0.0526
 2340SOL     OW18655   0.916   1.491   8.137  0.4438 -0.0395  0.2870
 2340SOL    HW118656   0.980   1.550   8.097  0.6612 -0.5584 -0.1313
 2340SOL    HW218657   0.864   1.477   8.058  1.8068 -1.2562 -0.3904
 2341SOL     OW18658   2.676   4.508  10.389  0.5848 -0.2506  0.6360
 2341SOL    HW118659   2.705   4.425  10.351  1.3813  1.0424 -1.5813
 2341SOL    HW218660   2.716   4.517  10.476 -0.6514  2.3425  0.9304
 2342SOL     OW18661   3.940   1.447  16.988  0.4829  0.1914 -0.2158
 2342SOL    HW118662   4.031   1.459  16.960  0.6690 -1.6438 -0.4459
 2342SOL    HW218663   3.948   1.515  17.055 -1.0599  1.1314 -0.9771
 2343SOL     OW18664   0.673   3.893   2.205  0.1953 -0.4087 -0.1431
 2343SOL    HW118665   0.739   3.866   2.270  2.5155 -0.3661 -2.4908
 2343SOL    HW218666   0.723   3.864   2.129  0.4286  1.9460 -0.8776
 2344SOL     OW18667   1.296   2.229   6.440 -0.5478 -0.0827  0.3420
 2344SOL    HW118668   1.284   2.172   6.364 -0.3032  0.5608 -0.1785
 2344SOL    HW218669   1.302   2.316   6.401  0.9197  0.6748  2.2663
 2345SOL     OW18670   2.046   2.993   3.702 -0.4367 -0.3253  0.3464
 2345SOL    HW118671   2.134   3.017   3.732 -0.2480 -0.7377  0.1123
 2345SOL    HW218672   2.028   3.085   3.722  3.4956  0.8814 -1.7074
 2346SOL     OW18673   2.774   3.189   7.227 -0.6402 -0.2456 -0.3243
 2346SOL    HW118674   2.814   3.274   7.209  1.0640 -1.1229 -0.6464
 2346SOL    HW218675   2.820   3.159   7.305  0.3485 -1.2650 -1.2844
 2347SOL     OW18676   4.363   0.336   2.627 -0.1374  0.2941 -0.2077
 2347SOL    HW118677   4.347   0.426   2.598  1.0474  0.1625 -1.2874
 2347SOL    HW218678   4.369   0.350   2.721  0.9043  2.5427 -0.6094
 2348SOL     OW18679   2.103   1.884   5.723  0.2594  0.3920 -0.5933
 2348SOL    HW118680   2.025   1.938   5.726 -0.5441 -0.7155 -1.5273
 2348SOL    HW218681   2.152   1.921   5.650 -0.4674  0.3968 -1.0743
 2349SOL     OW18682   2.624   2.830   3.651 -0.3849  0.2485  0.2401
 2349SOL    HW118683   2.537   2.810   3.615  0.2306 -0.4198 -0.8528
 2349SOL    HW218684   2.608   2.918   3.686 -0.3231 -1.1704  3.8588
 2350SOL     OW18685   4.328   3.890   2.143 -0.2356 -0.1280 -0.4828
 2350SOL    HW118686   4.260   3.867   2.080 -0.2028 -0.4305 -0.4090
 2350SOL    HW218687   4.384   3.940   2.085  0.1754 -0.4474 -0.3619
 2351SOL     OW18688   1.250   4.174   2.960  0.5438 -0.3401  0.0472
 2351SOL    HW118689   1.252   4.174   3.056  4.0182 -0.2287 -0.0308
 2351SOL    HW218690   1.269   4.264   2.934  2.7409 -0.8346  0.0066
 2352SOL     OW18691   0.575   2.046   1.948  0.2711  0.1240  0.4763
 2352SOL    HW118692   0.581   1.970   2.006 -0.7107  0.2053  0.6931
 2352SOL    HW218693   0.479   2.055   1.947  0.4077  1.5478  0.1999
 2353SOL     OW18694   0.401   3.383   6.956 -0.2463  0.1146  0.0509
 2353SOL    HW118695   0.375   3.430   6.876 -1.4635  1.6771  1.3795
 2353SOL    HW218696   0.489   3.363   6.922 -0.7602  2.5905 -2.7495
 2354SOL     OW18697   2.328   0.773   4.575 -0.1467  0.0284  0.4786
 2354SOL    HW118698   2.235   0.761   4.593 -0.3715  2.1132  0.6612
 2354SOL    HW218699   2.353   0.807   4.661 -2.3915 -0.6255  1.3935
 2355SOL     OW18700   1.238   1.182   3.309 -0.4100  0.4120 -0.3550
 2355SOL    HW118701   1.220   1.115   3.375  3.0395  0.2942  0.4833
 2355SOL    HW218702   1.198   1.143   3.231 -0.9029  0.1086  0.0492
 2356SOL     OW18703   1.543   0.534   4.553  0.0072 -0.7142  0.1217
 2356SOL    HW118704   1.561   0.487   4.471  1.5559  0.3061 -0.1174
 2356SOL    HW218705   1.592   0.491   4.624  1.2022  1.0537  0.3741
 2357SOL     OW18706   3.710   3.560   2.955  0.1137  0.6949  0.4073
 2357SOL    HW118707   3.737   3.617   2.883 -0.1636 -1.6738 -1.5721
 2357SOL    HW218708   3.639   3.612   2.992 -1.0528 -0.2981 -0.4271
 2358SOL     OW18709   2.896   0.965  14.249  0.6422 -0.2140 -0.2414
 2358SOL    HW118710   2.885   1.060  14.251  1.5553 -0.1517  3.1960
 2358SOL    HW218711   2.877   0.962  14.155 -1.0787 -1.1027  0.1230
 2359SOL     OW18712   1.744   3.275   3.724 -0.0959  0.0360  0.0125
 2359SOL    HW118713   1.734   3.209   3.793  1.4898 -0.6892 -0.4450
 2359SOL    HW218714   1.725   3.217   3.650  3.6226 -2.1262  0.7799
 2360SOL     OW18715   0.962   1.408   8.655 -0.4184 -0.0531 -0.1180
 2360SOL    HW118716   0.947   1.490   8.607 -0.7548 -0.6170 -0.9774
 2360SOL    HW218717   1.050   1.388   8.626 -1.0221 -2.2278 -0.4201
 2361SOL     OW18718   1.411   2.395  10.499 -0.4600 -0.5614 -0.0271
 2361SOL    HW118719   1.467   2.455  10.548 -0.0221 -2.9301  2.3846
 2361SOL    HW218720   1.342   2.385  10.565 -0.2745  0.0903  0.2612
 2362SOL     OW18721   0.690   0.241  16.515 -0.0313 -0.1093  0.3610
 2362SOL    HW118722   0.702   0.150  16.486  0.2155  0.2915 -0.8033
 2362SOL    HW218723   0.754   0.295  16.467 -1.6875  0.6760 -0.9521
 2363SOL     OW18724   0.836   2.151   1.856  0.2215 -0.0178  0.0967
 2363SOL    HW118725   0.759   2.146   1.914  1.9775  0.1991  2.4364
 2363SOL    HW218726   0.850   2.066   1.816  0.8368 -0.4553  1.2307
 2364SOL     OW18727   3.285   0.594   8.168 -0.1017  0.2718 -0.8682
 2364SOL    HW118728   3.289   0.664   8.103  1.2294 -1.1926 -2.3544
 2364SOL    HW218729   3.191   0.598   8.188 -0.1827 -0.0581 -1.1848
 2365SOL     OW18730   2.585   1.451   3.436  0.0041  0.2561 -0.3417
 2365SOL    HW118731   2.591   1.536   3.393  1.4211  0.2936 -0.0639
 2365SOL    HW218732   2.638   1.394   3.381 -1.1434 -0.0178 -1.1650
 2366SOL     OW18733   2.669   3.526  14.369  0.4094 -0.3375 -0.5386
 2366SOL    HW118734   2.660   3.432  14.358 -2.1378  0.0693 -1.9372
 2366SOL    HW218735   2.580   3.561  14.378  0.1445 -1.8075  2.9229
 2367SOL     OW18736   4.066   3.539   2.292 -0.6013 -0.3667  0.0138
 2367SOL    HW118737   4.021   3.469   2.339 -1.2892 -0.6558 -1.0562
 2367SOL    HW218738   4.155   3.532   2.327 -0.3859  0.0174 -0.4532
 2368SOL     OW18739   1.464   3.100   5.085 -0.7236 -0.1727 -0.2783
 2368SOL    HW118740   1.463   3.104   5.181  2.7105  3.1293 -0.3909
 2368SOL    HW218741   1.411   3.178   5.074  1.7114  1.4294 -0.5323
 2369SOL     OW18742   0.453   3.860   6.056  0.1758 -0.4476 -0.3828
 2369SOL    HW118743   0.512   3.844   5.982  1.1574 -0.1400  0.3358
 2369SOL    HW218744   0.385   3.902   6.004 -0.4088 -0.2314  0.5478
 2370SOL     OW18745   0.912   4.024  17.586 -0.2197  0.0895  0.3328
 2370SOL    HW118746   0.898   3.931  17.604 -0.0132  0.4135  2.1521
 2370SOL    HW218747   0.895   4.042  17.493  1.0647 -2.3722 -0.3935
 2371SOL     OW18748   3.586   3.295  12.207 -0.5261 -0.6634  0.3215
 2371SOL    HW118749   3.598   3.200  12.208 -0.3117 -0.6399 -0.7087
 2371SOL    HW218750   3.636   3.320  12.285 -1.6134 -0.0430  0.8283
 2372SOL     OW18751   3.268   1.214   4.713  0.6181  0.7881  0.9557
 2372SOL    HW118752   3.233   1.203   4.801 -0.5669 -1.6769  0.1440
 2372SOL    HW218753   3.361   1.220   4.736  0.9151 -1.0728  0.1757
 2373SOL     OW18754   3.237   1.239   3.287  0.0868 -0.0773  0.3332
 2373SOL    HW118755   3.165   1.183   3.316 -0.5095 -0.6190 -2.1595
 2373SOL    HW218756   3.183   1.316   3.273  1.9928  0.5843 -3.4015
 2374SOL     OW18757   2.319   0.487   7.715  0.3523 -0.4711  0.2424
 2374SOL    HW118758   2.326   0.582   7.702 -1.2143 -0.4127 -0.2399
 2374SOL    HW218759   2.356   0.472   7.801  0.2165 -1.7224  0.0795
 2375SOL     OW18760   2.035   4.572   4.030 -0.1290 -0.1599  0.3142
 2375SOL    HW118761   2.074   4.570   4.118  0.9553 -1.1873 -0.1994
 2375SOL    HW218762   2.056   4.480   4.015 -0.9927 -0.2385 -0.3719
 2376SOL     OW18763   4.722   0.556   3.143 -0.0526  0.0600  0.2252
 2376SOL    HW118764   0.046   0.607   3.091 -1.2291  0.5528 -0.6955
 2376SOL    HW218765   4.661   0.626   3.165  0.2019  0.4553 -0.3318
 2377SOL     OW18766   0.238   4.166   4.219  0.6024 -0.1750 -0.3431
 2377SOL    HW118767   0.276   4.119   4.145  0.6976 -2.4310  1.1640
 2377SOL    HW218768   0.147   4.138   4.209  0.4588  0.0114  0.4859
 2378SOL     OW18769   2.675   1.098   9.410 -0.0687  0.1811 -0.0201
 2378SOL    HW118770   2.740   1.166   9.390 -0.5421  0.3961 -0.8007
 2378SOL    HW218771   2.679   1.109   9.505  2.1061 -0.2227 -0.0547
 2379SOL     OW18772   0.601   1.631  11.801 -0.2884  0.1288  0.6549
 2379SOL    HW118773   0.669   1.677  11.752 -0.0786 -2.5252 -1.5789
 2379SOL    HW218774   0.550   1.588  11.732  0.1485  1.1966 -0.3366
 2380SOL     OW18775   0.860   1.507   9.046  0.0888  0.2089 -0.4047
 2380SOL    HW118776   0.873   1.549   8.961  0.7763  0.8028 -0.0107
 2380SOL    HW218777   0.781   1.455   9.038  2.5758 -3.2241 -2.8459
 2381SOL     OW18778   0.250   2.107  10.343 -0.3420 -0.6026 -0.0970
 2381SOL    HW118779   0.288   2.029  10.303  0.4184 -0.7960  1.0096
 2381SOL    HW218780   0.320   2.169  10.363  0.1297 -0.6285 -1.6397
 2382SOL     OW18781   3.977   3.228  10.737 -0.2793 -0.1582 -0.1151
 2382SOL    HW118782   4.012   3.245  10.650 -2.1314 -1.7496 -1.1547
 2382SOL    HW218783   4.058   3.230  10.788 -1.0557  0.6986  1.0895
 2383SOL     OW18784   2.758   4.446   6.417  0.0317 -0.5247  0.7044
 2383SOL    HW118785   2.825   4.501   6.459 -0.2045  2.1802 -2.4821
 2383SOL    HW218786   2.678   4.482   6.455 -0.4460  1.3174 -2.0275
 2384SOL     OW18787   0.831   0.044   4.106 -0.7962 -0.3698  0.1838
 2384SOL    HW118788   0.845   4.719   4.035 -2.0139  0.7162 -1.0422
 2384SOL    HW218789   0.890   0.118   4.097 -1.3722  0.3925  2.7147
 2385SOL     OW18790   4.111   2.487   1.713  0.4230  0.4433  0.0177
 2385SOL    HW118791   4.130   2.542   1.637  0.6594  1.2650  0.6728
 2385SOL    HW218792   4.166   2.412   1.690 -2.0320 -1.5761  0.6179
 2386SOL     OW18793   1.401   1.925   2.132 -0.0307  0.0598 -0.4461
 2386SOL    HW118794   1.446   1.856   2.180 -1.4915 -0.7026 -0.1737
 2386SOL    HW218795   1.359   1.974   2.202 -0.0007  0.1198 -0.4704
 2387SOL     OW18796   3.240   1.297  14.906  0.1081 -0.2594  0.1102
 2387SOL    HW118797   3.204   1.210  14.917 -2.1842  0.8091  0.9201
 2387SOL    HW218798   3.332   1.270  14.906  0.3472  0.5640  1.4813
 2388SOL     OW18799   3.135   1.549   1.742  0.3129 -0.6345  0.4000
 2388SOL    HW118800   3.076   1.525   1.671  0.0244 -1.3841  0.8924
 2388SOL    HW218801   3.077   1.583   1.810  0.2066  1.0324 -0.5047
 2389SOL     OW18802   0.696   1.854  16.404  0.2098  0.1675  0.6618
 2389SOL    HW118803   0.703   1.949  16.408 -1.5543  0.3262  0.1791
 2389SOL    HW218804   0.754   1.819  16.471  0.4051  0.9499  0.9042
 2390SOL     OW18805   0.076   0.572  12.940 -0.2386 -0.2628  0.3365
 2390SOL    HW118806   0.163   0.546  12.908 -0.4571 -1.2406  0.5300
 2390SOL    HW218807   0.061   0.498  12.999 -1.1721  0.2703  0.7745
 2391SOL     OW18808   4.378   2.988   4.680  0.0106 -0.0024 -0.2797
 2391SOL    HW118809   4.443   3.058   4.686 -1.5475  1.3604  0.8285
 2391SOL    HW218810   4.432   2.925   4.633 -2.0579  0.7263 -3.6356
 2392SOL     OW18811   1.802   2.597   0.505  0.1953 -0.0217  0.4158
 2392SOL    HW118812   1.732   2.659   0.486 -1.3536 -1.8644  0.1847
 2392SOL    HW218813   1.760   2.534   0.563  0.5456 -0.2019  0.4767
 2393SOL     OW18814   1.395   4.014   5.159 -0.2265 -0.1258 -0.7129
 2393SOL    HW118815   1.333   4.082   5.186 -0.7647 -1.4126  1.2549
 2393SOL    HW218816   1.466   4.059   5.114 -1.0863  2.3465  0.3564
 2394SOL     OW18817   0.585   0.104   5.384  0.3435  0.1381  0.1340
 2394SOL    HW118818   0.565   0.159   5.308  0.5452  1.8447  1.3140
 2394SOL    HW218819   0.509   0.110   5.442  0.2136 -1.4741  0.1122
 2395SOL     OW18820   0.673   4.104  14.524  0.3596 -0.2787  0.3245
 2395SOL    HW118821   0.713   4.190  14.515 -0.2972  0.0923  1.0523
 2395SOL    HW218822   0.584   4.125  14.495  0.3404  1.0534  1.3970
 2396SOL     OW18823   3.736   3.366  10.738 -0.4503 -0.0071 -0.3076
 2396SOL    HW118824   3.673   3.294  10.737 -0.2264 -0.2045  0.0658
 2396SOL    HW218825   3.818   3.322  10.760  0.7796  2.4703  0.0672
 2397SOL     OW18826   0.429   2.429   4.068 -0.3585 -0.0407 -0.5119
 2397SOL    HW118827   0.388   2.366   4.127 -2.6489  1.6312 -0.3101
 2397SOL    HW218828   0.495   2.369   4.032  2.1706  0.4653  3.3263
 2398SOL     OW18829   0.745   0.370  12.295  0.1426  0.2182 -0.2737
 2398SOL    HW118830   0.822   0.421  12.270 -0.2402  1.3250  0.7660
 2398SOL    HW218831   0.711   0.330  12.215  0.0075  2.4147 -1.3359
 2399SOL     OW18832   0.872   4.347  17.437 -0.2584  0.4558  0.3859
 2399SOL    HW118833   0.882   4.391  17.353 -0.3728 -0.2197  0.0141
 2399SOL    HW218834   0.851   4.257  17.413  3.5959 -1.1121  2.8299
 2400SOL     OW18835   2.410   3.008  11.057 -0.0693 -0.0037 -0.5194
 2400SOL    HW118836   2.474   3.022  11.127  1.7714 -1.7955 -1.8431
 2400SOL    HW218837   2.471   3.020  10.985 -1.0840 -1.1330 -1.5626
 2401SOL     OW18838   1.421   0.369   5.834  0.1207 -0.5513 -0.7131
 2401SOL    HW118839   1.497   0.311   5.831 -0.0798 -1.0155  2.7083
 2401SOL    HW218840   1.448   0.461   5.828 -1.4481 -0.2121 -2.3017
 2402SOL     OW18841   3.996   2.627  15.330  0.3876 -0.4146 -0.8269
 2402SOL    HW118842   4.056   2.698  15.351  0.6622 -1.4035  1.7301
 2402SOL    HW218843   3.923   2.648  15.388  1.9242  0.4440  0.7835
 2403SOL     OW18844   3.380   3.785  12.557 -0.0867 -0.0904 -0.5005
 2403SOL    HW118845   3.284   3.783  12.557 -0.0479 -1.5339  0.8759
 2403SOL    HW218846   3.394   3.709  12.500  0.9246 -1.0434  1.0290
 2404SOL     OW18847   4.639   2.841   1.477 -0.0822 -0.2016 -0.2080
 2404SOL    HW118848   4.655   2.769   1.538  1.0470  0.3736  0.1783
 2404SOL    HW218849   4.690   2.801   1.407 -0.2378 -1.0803  0.1819
 2405SOL     OW18850   0.469   2.424  14.660 -0.0339  0.3368 -0.0015
 2405SOL    HW118851   0.403   2.479  14.616 -1.1755 -1.4584 -0.5235
 2405SOL    HW218852   0.520   2.398  14.583  3.3408 -0.6602  2.5683
 2406SOL     OW18853   3.509   1.383  13.010 -0.0435  0.2462  0.2533
 2406SOL    HW118854   3.459   1.390  12.929  1.1131 -2.0145 -0.6467
 2406SOL    HW218855   3.521   1.288  13.011  1.9590  0.5173  0.1293
 2407SOL     OW18856   3.602   0.706  13.435  0.0732  0.1941  0.2045
 2407SOL    HW118857   3.556   0.697  13.518 -1.0358  2.8609 -0.1004
 2407SOL    HW218858   3.614   0.615  13.409 -3.3845 -0.8818  2.3602
 2408SOL     OW18859   0.931   0.997  12.197  0.5474 -0.8519 -0.8129
 2408SOL    HW118860   1.008   0.997  12.139  0.6838 -0.8157 -0.6332
 2408SOL    HW218861   0.924   1.092  12.206  1.6234 -0.6316 -2.3354
 2409SOL     OW18862   3.148   1.326   9.162 -0.3833 -0.0262  0.2736
 2409SOL    HW118863   3.133   1.393   9.094  1.2902 -3.0258 -3.0238
 2409SOL    HW218864   3.110   1.374   9.236 -1.6020  1.8303 -1.5522
 2410SOL     OW18865   2.619   2.482   5.467  0.0366  0.6403 -0.0754
 2410SOL    HW118866   2.670   2.504   5.544 -0.7679 -0.1149  0.6779
 2410SOL    HW218867   2.684   2.510   5.402 -2.1689  2.9460 -1.3258
 2411SOL     OW18868   2.905   1.598   6.675 -0.0881 -0.6874  0.1390
 2411SOL    HW118869   2.940   1.658   6.741  0.4088  0.5228 -1.2291
 2411SOL    HW218870   2.907   1.516   6.725  0.2963  0.4356  1.9701
 2412SOL     OW18871   2.517   1.765  11.833  0.1240 -0.4555 -0.4433
 2412SOL    HW118872   2.435   1.789  11.789 -0.8267 -1.2923  0.8682
 2412SOL    HW218873   2.554   1.849  11.861 -1.8208  0.3459 -0.2933
 2413SOL     OW18874   1.890   0.369  13.265 -0.0043 -0.2228  1.1040
 2413SOL    HW118875   1.895   0.349  13.171  2.3590  0.8560  0.9860
 2413SOL    HW218876   1.896   0.464  13.250 -0.3190 -0.8196 -2.8958
 2414SOL     OW18877   1.160   2.750   1.778 -0.4178 -0.5019 -0.2488
 2414SOL    HW118878   1.148   2.839   1.745 -0.6933 -0.1098  0.9065
 2414SOL    HW218879   1.236   2.769   1.833 -0.2019 -1.4298 -0.2258
 2415SOL     OW18880   1.365   3.850   2.221 -0.3207  0.8204 -0.0663
 2415SOL    HW118881   1.374   3.759   2.193 -2.4715  0.4230  0.5204
 2415SOL    HW218882   1.415   3.845   2.303  0.6080  0.4171 -0.6626
 2416SOL     OW18883   1.913   4.299   0.071  0.1948  0.1108 -0.5558
 2416SOL    HW118884   1.820   4.312   0.094  0.3394  1.3974 -0.7039
 2416SOL    HW218885   1.948   4.350   0.144  0.0002  0.2895 -0.5852
 2417SOL     OW18886   3.349   3.751   5.676 -0.3532  0.1430  0.2136
 2417SOL    HW118887   3.337   3.658   5.657  1.4756 -0.6060  2.7905
 2417SOL    HW218888   3.432   3.765   5.722 -0.6294  4.5440 -0.6203
 2418SOL     OW18889   3.361   2.146  15.231 -0.4627  0.2363 -0.5037
 2418SOL    HW118890   3.313   2.164  15.150  1.2702  0.2002 -1.5296
 2418SOL    HW218891   3.390   2.057  15.210  2.2920  0.8788  0.5643
 2419SOL     OW18892   3.683   4.433   4.356 -0.7210 -0.3223  0.2324
 2419SOL    HW118893   3.674   4.395   4.269  0.2035  2.3778 -1.0122
 2419SOL    HW218894   3.616   4.403   4.418 -0.6500  1.2432  1.0790
 2420SOL     OW18895   0.301   3.016  13.551  0.2899  0.0209 -0.9153
 2420SOL    HW118896   0.274   3.048  13.637  0.0709  0.9880 -1.3396
 2420SOL    HW218897   0.319   2.923  13.566 -0.1302 -0.0461 -0.8257
 2421SOL     OW18898   1.847   0.121   3.512  0.2566 -0.5733 -0.0602
 2421SOL    HW118899   1.824   0.187   3.576 -0.3716 -0.3453 -0.5249
 2421SOL    HW218900   1.795   0.052   3.552 -1.2694 -0.2840 -1.5530
 2422SOL     OW18901   0.579   4.688   4.139  0.7494  0.1686  0.5554
 2422SOL    HW118902   0.515   4.718   4.074  0.4226 -0.7693  0.4402
 2422SOL    HW218903   0.652   0.005   4.113 -1.0896  2.5996  0.5871
 2423SOL     OW18904   3.715   3.976   2.196 -0.3986 -0.1579  0.3380
 2423SOL    HW118905   3.752   4.063   2.182  1.7985 -1.2754 -0.7807
 2423SOL    HW218906   3.680   3.973   2.285 -0.0785  0.1815  0.4793
 2424SOL     OW18907   1.505   3.638  15.745  0.1562  0.6517  0.0011
 2424SOL    HW118908   1.588   3.625  15.698  0.8486  2.0546  0.8427
 2424SOL    HW218909   1.460   3.717  15.715  0.9287  1.9975  2.3429
 2425SOL     OW18910   4.447   4.175   7.649  0.4825 -0.5580 -0.4436
 2425SOL    HW118911   4.406   4.089   7.656 -0.6117 -0.1820 -2.2174
 2425SOL    HW218912   4.507   4.150   7.579 -1.2472 -2.8130 -1.1072
 2426SOL     OW18913   4.692   2.147   3.420  0.1221 -0.5406 -0.3074
 2426SOL    HW118914   4.690   2.074   3.482  0.1943 -0.4252 -0.1692
 2426SOL    HW218915   0.035   2.192   3.441  0.8373 -1.4557 -1.0767
 2427SOL     OW18916   0.073   1.574   3.240 -0.3616  0.3345  0.0120
 2427SOL    HW118917   0.143   1.591   3.304 -0.6638 -0.1358  0.4743
 2427SOL    HW218918   0.109   1.621   3.165 -1.1140  3.2334  1.4610
 2428SOL     OW18919   3.845   3.510   7.715 -0.6074  0.2606 -0.5540
 2428SOL    HW118920   3.823   3.546   7.801 -1.3768 -0.7342 -0.3297
 2428SOL    HW218921   3.758   3.492   7.680  0.5801 -1.2922 -2.6685
 2429SOL     OW18922   3.164   0.697  12.465 -0.4805 -0.4850  0.0833
 2429SOL    HW118923   3.222   0.774  12.470  0.8685 -1.5812  1.3985
 2429SOL    HW218924   3.172   0.660  12.553  0.6890  2.7185  1.3521
 2430SOL     OW18925   2.839   4.735   6.125  0.0415 -0.0492 -0.8613
 2430SOL    HW118926   2.799   4.679   6.059  0.0256 -1.0889  0.0468
 2430SOL    HW218927   2.886   4.667   6.173 -0.0833 -0.7913 -1.7881
 2431SOL     OW18928   3.222   2.130   4.613 -0.2203  0.2748 -0.4917
 2431SOL    HW118929   3.260   2.052   4.653  0.1800  0.3752 -0.6758
 2431SOL    HW218930   3.285   2.200   4.634 -1.0223  1.4522 -1.9895
 2432SOL     OW18931   2.981   2.908   4.985 -0.5050  0.2245 -0.1769
 2432SOL    HW118932   2.886   2.914   4.992 -0.3503  0.0310  2.1728
 2432SOL    HW218933   3.011   2.999   4.975 -1.8011  0.5533 -1.0723
 2433SOL     OW18934   3.881   1.399   6.036 -0.7203 -0.5249  0.4842
 2433SOL    HW118935   3.794   1.362   6.054 -0.0115 -2.5885 -0.3596
 2433SOL    HW218936   3.883   1.477   6.092  1.2459 -1.2558  1.4221
 2434SOL     OW18937   3.226   4.584   3.264 -0.0060  0.0284 -0.6410
 2434SOL    HW118938   3.185   4.669   3.248 -0.1650 -0.8581 -4.9941
 2434SOL    HW218939   3.231   4.557   3.172  1.1331 -0.7228 -0.3586
 2435SOL     OW18940   2.642   3.419   9.497  0.0171 -0.1370 -0.2329
 2435SOL    HW118941   2.575   3.392   9.434 -0.4015 -0.6919  0.4470
 2435SOL    HW218942   2.630   3.514   9.496 -1.1991 -0.3261 -2.7387
 2436SOL     OW18943   1.171   3.359   8.738 -0.8145 -0.1770  0.3756
 2436SOL    HW118944   1.240   3.413   8.700 -1.0883  0.2977  0.5518
 2436SOL    HW218945   1.221   3.295   8.788 -0.4237  0.1454  0.3949
 2437SOL     OW18946   4.669   2.453   4.208 -0.5719 -0.1321  0.0353
 2437SOL    HW118947   4.720   2.512   4.152  1.1625 -0.3075  1.3978
 2437SOL    HW218948   4.585   2.449   4.164  0.9314  0.7627 -2.9213
 2438SOL     OW18949   0.950   4.407   2.901  0.0857  0.2377 -0.5400
 2438SOL    HW118950   0.939   4.329   2.848  1.8906 -0.3589 -0.0525
 2438SOL    HW218951   1.045   4.414   2.892 -0.2387  4.9886 -0.2478
 2439SOL     OW18952   4.615   2.917   2.681 -0.6275 -0.4644 -0.4729
 2439SOL    HW118953   4.700   2.893   2.644 -0.5020  1.6560 -1.5779
 2439SOL    HW218954   4.619   2.882   2.770  2.4115 -0.1864 -0.4770
 2440SOL     OW18955   3.541   0.160   8.365 -0.4255 -0.0113  0.1303
 2440SOL    HW118956   3.565   0.087   8.309 -0.2997 -0.3214  0.5848
 2440SOL    HW218957   3.542   0.234   8.304  0.7489 -1.6562 -1.8377
 2441SOL     OW18958   0.033   4.685   3.540  0.0638  0.0445  0.0246
 2441SOL    HW118959   4.719   0.001   3.599 -1.8532 -1.5941 -0.1940
 2441SOL    HW218960   0.116   4.732   3.541 -0.3543  0.7923 -0.1090
 2442SOL     OW18961   3.595   0.626   8.176  0.1868  0.1886 -0.0303
 2442SOL    HW118962   3.501   0.621   8.160 -0.0516 -1.3458  1.8257
 2442SOL    HW218963   3.638   0.594   8.097 -0.7568 -0.4559 -0.2844
 2443SOL     OW18964   2.238   1.456   4.381  0.7842 -0.0147 -0.9511
 2443SOL    HW118965   2.220   1.420   4.294  0.4397 -3.3829  0.5020
 2443SOL    HW218966   2.320   1.414   4.406 -0.2084 -2.6253 -2.0910
 2444SOL     OW18967   4.262   0.894   3.828 -0.6589 -0.1595  0.5889
 2444SOL    HW118968   4.253   0.809   3.871  1.2053 -0.6556 -0.0035
 2444SOL    HW218969   4.223   0.955   3.890  1.7029  1.4112  0.5451
 2445SOL     OW18970   2.264   3.857   7.975  0.3938 -0.3677 -0.1684
 2445SOL    HW118971   2.188   3.814   7.935 -1.9165  2.9323  0.6701
 2445SOL    HW218972   2.218   3.909   8.040  0.4041 -1.3079  0.5988
 2446SOL     OW18973   0.315   3.980  10.876 -0.1923  0.0055  0.0317
 2446SOL    HW118974   0.240   4.004  10.820  1.7229  2.2261 -1.5761
 2446SOL    HW218975   0.287   4.022  10.957 -2.6490 -0.1324 -0.7322
 2447SOL     OW18976   3.798   2.950   7.170  0.7253 -0.0479  0.5552
 2447SOL    HW118977   3.772   2.871   7.123  0.6231 -0.1925  0.8489
 2447SOL    HW218978   3.771   2.926   7.259  0.9629 -2.9298 -0.1431
 2448SOL     OW18979   4.695   1.053  14.294 -0.6351 -0.3933 -0.1251
 2448SOL    HW118980   4.604   1.023  14.291 -0.9830  0.7251 -0.7208
 2448SOL    HW218981   4.701   1.074  14.387 -2.8674 -0.0413 -0.0518
 2449SOL     OW18982   3.329   1.662  11.414  0.2431  0.1948  0.0117
 2449SOL    HW118983   3.422   1.678  11.398 -0.3332  2.1245 -1.3771
 2449SOL    HW218984   3.299   1.632  11.328  0.2147 -1.7842  0.7025
 2450SOL     OW18985   0.131   0.240  14.568 -0.1542 -0.5085 -0.9656
 2450SOL    HW118986   0.090   0.176  14.626  0.6848  0.9843  1.2757
 2450SOL    HW218987   0.165   0.175  14.506  2.2252  2.1969 -2.5342
 2451SOL     OW18988   2.471   4.293   2.964  0.0318 -0.5010  0.0560
 2451SOL    HW118989   2.493   4.246   2.883 -1.0241  0.5261 -0.8334
 2451SOL    HW218990   2.544   4.354   2.972 -0.3286 -0.0761  0.1029
 2452SOL     OW18991   4.060   1.258   5.039 -0.0131 -0.1842 -0.7012
 2452SOL    HW118992   4.072   1.210   4.957  2.7111 -1.1379  0.2538
 2452SOL    HW218993   4.145   1.261   5.082 -0.2345 -1.5106 -0.1581
 2453SOL     OW18994   2.814   2.043   7.270 -0.2859 -1.3924  0.0335
 2453SOL    HW118995   2.906   2.016   7.282 -0.2453 -1.0785  0.4114
 2453SOL    HW218996   2.794   2.092   7.349 -0.7187 -0.0844 -0.8995
 2454SOL     OW18997   0.308   2.816   6.813 -0.5216 -0.0223 -0.6468
 2454SOL    HW118998   0.250   2.768   6.754  0.2419 -2.0628  0.2541
 2454SOL    HW218999   0.376   2.751   6.827 -1.3482 -0.7764 -0.0738
 2455SOL     OW19000   4.494   3.385   4.353 -0.0464  0.1230  0.3940
 2455SOL    HW119001   4.458   3.473   4.366 -0.1318  0.4453 -2.1085
 2455SOL    HW219002   4.571   3.407   4.301 -0.7319 -1.1442 -1.1482
 2456SOL     OW19003   0.076   2.529   1.192 -0.0518 -0.2039 -0.3908
 2456SOL    HW119004   0.071   2.497   1.102  0.2823  1.0527 -0.8638
 2456SOL    HW219005   0.053   2.455   1.247 -2.2947 -0.0028 -1.0502
 2457SOL     OW19006   4.736   0.713   3.578  0.7510 -0.5841 -0.9758
 2457SOL    HW119007   4.716   0.644   3.515 -1.2383 -0.8394 -0.0516
 2457SOL    HW219008   0.033   0.784   3.524  1.8553 -1.3986 -1.3133
 2458SOL     OW19009   2.335   3.438   5.377  0.5071  0.1886 -0.5783
 2458SOL    HW119010   2.267   3.420   5.442  0.9895  1.7018  0.3647
 2458SOL    HW219011   2.279   3.430   5.300  0.1423  0.0893 -0.2978
 2459SOL     OW19012   3.436   0.481  17.525  0.3562 -0.0970 -0.1614
 2459SOL    HW119013   3.507   0.544  17.510 -0.1478  0.5648  0.2723
 2459SOL    HW219014   3.418   0.493  17.618  1.6709 -1.6512  0.2948
 2460SOL     OW19015   1.046   2.721   3.254  0.4012  0.4863 -0.2434
 2460SOL    HW119016   1.101   2.799   3.245  0.2546  0.5007 -1.1051
 2460SOL    HW219017   0.974   2.756   3.307 -1.6564 -0.2290 -2.5020
 2461SOL     OW19018   1.130   2.265  17.746  0.0317 -0.0714  0.2006
 2461SOL    HW119019   1.150   2.198   0.060 -0.0135  0.9978  1.3244
 2461SOL    HW219020   1.213   2.310  17.733  0.8457 -1.8156 -0.5880
 2462SOL     OW19021   2.873   4.611   8.088 -0.0547 -0.2131  0.3459
 2462SOL    HW119022   2.898   4.521   8.110 -0.7639 -0.5650 -0.2514
 2462SOL    HW219023   2.956   4.655   8.103  0.7149 -0.7281 -2.3840
 2463SOL     OW19024   0.938   2.641   0.841  0.2103 -0.3561 -0.4308
 2463SOL    HW119025   0.980   2.593   0.911  1.7386 -2.4882 -2.8146
 2463SOL    HW219026   0.845   2.630   0.861  1.4500 -0.6115  5.0682
 2464SOL     OW19027   1.362   2.575   4.969 -0.5034  0.0644  0.1514
 2464SOL    HW119028   1.320   2.546   4.888  1.0711  1.8204 -1.2866
 2464SOL    HW219029   1.335   2.666   4.975  0.6556  0.3518  1.0567
 2465SOL     OW19030   1.754   3.456  11.427 -0.3598 -0.6482  0.7403
 2465SOL    HW119031   1.850   3.459  11.428 -0.4463  2.4416 -1.1451
 2465SOL    HW219032   1.732   3.546  11.451 -2.0122 -0.6470 -0.7473
 2466SOL     OW19033   0.621   4.164   9.994 -0.3543  0.3529  0.0773
 2466SOL    HW119034   0.706   4.133  10.025 -0.8636 -1.7664 -0.6438
 2466SOL    HW219035   0.555   4.104  10.030  0.5742 -0.1019  1.0250
 2467SOL     OW19036   2.509   0.070  12.485 -0.0246  0.1506 -0.8405
 2467SOL    HW119037   2.415   0.081  12.497  0.0534 -0.1019  0.0308
 2467SOL    HW219038   2.521   4.721  12.523  0.1013  0.2720 -0.5977
 2468SOL     OW19039   3.149   1.355   6.566  0.0017  0.0435  0.4875
 2468SOL    HW119040   3.180   1.304   6.492  0.9975  0.9772  0.2672
 2468SOL    HW219041   3.128   1.292   6.636  0.4810  1.9644  2.3535
 2469SOL     OW19042   3.406   1.891  11.605 -0.3010  0.2287 -0.0177
 2469SOL    HW119043   3.401   1.809  11.654 -2.6558  0.5122  0.2330
 2469SOL    HW219044   3.416   1.858  11.516 -0.1633  0.1151  0.0397
 2470SOL     OW19045   1.230   2.409  16.949 -0.5503  0.1767 -0.1590
 2470SOL    HW119046   1.225   2.487  17.003 -2.1465 -0.9543  1.2958
 2470SOL    HW219047   1.312   2.421  16.901  0.5470  0.4095  1.7690
 2471SOL     OW19048   2.503   2.131   4.189  0.3970 -0.0383  0.3542
 2471SOL    HW119049   2.493   2.226   4.181 -1.0223 -0.0360  2.1903
 2471SOL    HW219050   2.482   2.116   4.282  1.2178 -2.1573  0.2014
 2472SOL     OW19051   2.912   1.137   3.820 -0.7272  0.2533  0.3682
 2472SOL    HW119052   2.940   1.135   3.728 -0.1345  0.3096  0.5494
 2472SOL    HW219053   2.874   1.050   3.818 -0.6915  0.2599 -1.1465
 2473SOL     OW19054   4.337   1.313   5.155  0.3800  0.0884  0.0934
 2473SOL    HW119055   4.397   1.383   5.129 -0.2360  0.8767  0.8093
 2473SOL    HW219056   4.320   1.332   5.247  2.3833 -0.0124  0.4840
 2474SOL     OW19057   2.802   1.503   4.977  0.1797  0.4304  0.2115
 2474SOL    HW119058   2.759   1.497   5.062  1.4647  0.6321  0.8685
 2474SOL    HW219059   2.765   1.585   4.943 -0.6643 -1.0980 -2.5699
 2475SOL     OW19060   1.953   1.168  15.906 -0.1714 -0.0571  1.1445
 2475SOL    HW119061   2.041   1.150  15.873 -1.2986 -0.0440 -1.8329
 2475SOL    HW219062   1.962   1.261  15.929  1.5458 -0.0042  0.2073
 2476SOL     OW19063   0.601   3.798   5.836  0.3514 -0.0039  0.1608
 2476SOL    HW119064   0.553   3.716   5.828 -0.3908  0.3859  0.5568
 2476SOL    HW219065   0.622   3.819   5.745  0.7383  1.9369  0.6858
 2477SOL     OW19066   0.415   4.516  17.556  0.4189  0.6006 -0.0119
 2477SOL    HW119067   0.420   4.462  17.635 -0.7768  1.3841  0.6246
 2477SOL    HW219068   0.429   4.457  17.483 -1.8237 -0.7481  0.6533
 2478SOL     OW19069   1.590   3.890   5.990 -0.0045 -0.2998 -0.3461
 2478SOL    HW119070   1.540   3.904   6.070 -0.7002 -0.2406 -0.7912
 2478SOL    HW219071   1.522   3.920   5.929 -2.4786 -2.7871  1.1929
 2479SOL     OW19072   4.058   1.568  12.717 -0.1876  0.3462 -0.0389
 2479SOL    HW119073   4.127   1.627  12.748 -1.0873  1.4070 -0.0588
 2479SOL    HW219074   4.054   1.495  12.779 -0.3258 -0.3898 -0.9230
 2480SOL     OW19075   2.564   3.961   8.635 -0.1127  0.6371 -0.6835
 2480SOL    HW119076   2.590   4.031   8.694 -1.5749 -0.2287  0.9915
 2480SOL    HW219077   2.630   3.893   8.649 -1.4017 -0.1857  1.3654
 2481SOL     OW19078   1.166   2.929   4.554 -0.3360  0.5375 -0.0661
 2481SOL    HW119079   1.123   2.844   4.543  2.0418 -1.0551  3.1169
 2481SOL    HW219080   1.258   2.906   4.560 -0.2066  0.4035 -2.4616
 2482SOL     OW19081   2.049   2.055   8.374  0.5652  0.1623  0.5758
 2482SOL    HW119082   1.996   1.985   8.411  2.1660 -0.5331  1.5519
 2482SOL    HW219083   1.998   2.090   8.300 -1.3357 -3.2517  0.2823
 2483SOL     OW19084   1.457   0.808  11.620 -0.1115 -0.4398  0.1606
 2483SOL    HW119085   1.493   0.858  11.547  1.8009 -1.0269  0.6863
 2483SOL    HW219086   1.407   0.874  11.667  0.1766 -0.4955  0.5585
 2484SOL     OW19087   4.050   2.817  10.683  0.3925  0.4727  0.3924
 2484SOL    HW119088   3.994   2.784  10.612  2.9794  0.7462 -1.7883
 2484SOL    HW219089   4.121   2.861  10.636 -0.8875  1.7714 -0.3346
 2485SOL     OW19090   3.510   2.349   2.542 -0.0365 -0.1537 -0.7689
 2485SOL    HW119091   3.487   2.281   2.605 -2.0394 -0.8644 -2.2715
 2485SOL    HW219092   3.453   2.340   2.465 -0.5649  0.5975 -0.4722
 2486SOL     OW19093   3.866   4.539   8.343 -0.0189  0.0237  0.4726
 2486SOL    HW119094   3.918   4.475   8.391 -2.5297 -1.0423  1.7419
 2486SOL    HW219095   3.777   4.536   8.376 -0.3039 -1.1343 -0.3966
 2487SOL     OW19096   4.146   0.504   1.182 -0.0472  0.1569  0.0773
 2487SOL    HW119097   4.191   0.587   1.194 -0.5032  0.0108  2.9196
 2487SOL    HW219098   4.188   0.466   1.105 -0.0114  1.3471 -0.4823
 2488SOL     OW19099   1.145   0.972  17.553 -0.1226  0.4250 -0.6044
 2488SOL    HW119100   1.187   0.900  17.505 -1.0295 -0.0107 -0.7362
 2488SOL    HW219101   1.104   0.938  17.632 -0.2974  0.4918 -0.6668
 2489SOL     OW19102   1.381   1.566   5.293 -0.1328 -0.0670 -0.1547
 2489SOL    HW119103   1.413   1.608   5.373 -1.9277  1.7162 -0.3553
 2489SOL    HW219104   1.359   1.479   5.326  0.1676  1.3015  3.6522
 2490SOL     OW19105   1.874   2.735   6.510  0.0909  0.7189  0.1033
 2490SOL    HW119106   1.863   2.777   6.424 -1.8298  2.6351  1.2973
 2490SOL    HW219107   1.906   2.649   6.483  0.7643  0.4044  1.9382
 2491SOL     OW19108   4.040   3.742   8.421  0.4689 -0.0397  0.2084
 2491SOL    HW119109   4.049   3.700   8.507  0.0578  0.3402  0.4401
 2491SOL    HW219110   4.095   3.819   8.430  0.3668 -0.0907  1.3578
 2492SOL     OW19111   4.125   0.582   7.148 -0.0189 -0.4855 -0.1557
 2492SOL    HW119112   4.052   0.577   7.209 -0.9526 -0.6238 -1.2956
 2492SOL    HW219113   4.083   0.560   7.065 -1.5322  1.8828 -0.0249
 2493SOL     OW19114   3.454   3.133   8.355 -0.2323 -0.1147  0.2494
 2493SOL    HW119115   3.451   3.056   8.299  3.5292 -0.3771  0.4389
 2493SOL    HW219116   3.445   3.205   8.292 -1.4417 -0.6497 -0.1848
 2494SOL     OW19117   0.052   0.513   3.877 -0.0382 -0.2195 -0.4784
 2494SOL    HW119118   0.003   0.590   3.850 -2.3074 -1.0290  1.3005
 2494SOL    HW219119   0.134   0.529   3.831  0.0104 -1.5707 -0.8452
 2495SOL     OW19120   3.215   3.854  12.840  0.5334 -0.4830 -0.3430
 2495SOL    HW119121   3.146   3.911  12.874  2.1252  0.7798  0.7932
 2495SOL    HW219122   3.188   3.857  12.748  0.1133 -1.2299 -0.2421
 2496SOL     OW19123   1.956   4.166   5.649  0.0511  0.7002 -0.1629
 2496SOL    HW119124   1.869   4.128   5.651  0.2781  0.2889  1.4743
 2496SOL    HW219125   2.005   4.102   5.700 -0.6566  0.5250  0.2906
 2497SOL     OW19126   2.101   0.595   5.232 -0.1937  0.0091 -0.3857
 2497SOL    HW119127   2.182   0.547   5.252 -0.6776 -1.5762 -2.1330
 2497SOL    HW219128   2.039   0.525   5.252 -0.6803 -0.0088 -1.9457
 2498SOL     OW19129   4.674   1.590   5.598 -0.1833 -0.0312 -0.8215
 2498SOL    HW119130   4.582   1.616   5.604 -0.6205 -1.8875  0.8767
 2498SOL    HW219131   4.679   1.578   5.504 -1.2467 -0.8923 -0.7775
 2499SOL     OW19132   0.724   2.533   8.929  0.0293 -0.0209  0.7330
 2499SOL    HW119133   0.775   2.614   8.927  0.9419 -0.6393 -0.7798
 2499SOL    HW219134   0.707   2.521   8.836  1.7233 -0.2436  0.4600
 2500SOL     OW19135   3.091   1.471   3.259 -0.5070  0.1104  0.1642
 2500SOL    HW119136   3.122   1.497   3.172  0.7962  1.2294  0.9624
 2500SOL    HW219137   3.000   1.453   3.234 -0.8295  2.8102 -0.6794
 2501SOL     OW19138   3.078   1.954   4.902  0.2444 -0.4044  0.0041
 2501SOL    HW119139   3.137   2.021   4.936 -1.8390  0.5200  1.7936
 2501SOL    HW219140   3.019   1.938   4.976  0.3773  1.2028  0.4525
 2502SOL     OW19141   1.629   2.240  17.582 -0.3266 -0.0255  0.6703
 2502SOL    HW119142   1.575   2.209  17.654 -1.4645 -0.1383 -0.2280
 2502SOL    HW219143   1.711   2.194  17.600 -0.3087 -0.5021 -0.5949
 2503SOL     OW19144   2.226   2.861   5.430  0.1031 -0.3388  0.4837
 2503SOL    HW119145   2.294   2.881   5.494  0.2578 -2.0059  0.8549
 2503SOL    HW219146   2.222   2.943   5.380  3.9668  0.0600  0.8775
 2504SOL     OW19147   2.152   4.023   8.162 -0.9715 -0.0504  0.0117
 2504SOL    HW119148   2.102   4.104   8.151 -2.6068 -1.0153  0.3149
 2504SOL    HW219149   2.143   4.010   8.257 -3.2751 -1.2573 -0.3756
 2505SOL     OW19150   0.568   1.935   4.781 -0.7544 -0.6791  0.1807
 2505SOL    HW119151   0.657   1.899   4.775 -1.4387 -2.5403  1.3043
 2505SOL    HW219152   0.527   1.886   4.710  2.6752  0.0047 -2.2941
 2506SOL     OW19153   3.792   2.521   5.477 -0.2923  0.1740  0.0277
 2506SOL    HW119154   3.832   2.490   5.395 -1.6483  1.0480 -0.9412
 2506SOL    HW219155   3.823   2.611   5.484  2.2053 -0.8723  2.8050
 2507SOL     OW19156   4.065   4.012  11.111  0.2303 -0.2469 -0.3260
 2507SOL    HW119157   4.072   4.025  11.206 -1.5780 -1.8467  0.0034
 2507SOL    HW219158   3.978   4.051  11.103  0.7974  0.7791 -1.6170
 2508SOL     OW19159   1.475   3.964   4.075 -0.2199 -1.1898  0.3610
 2508SOL    HW119160   1.556   4.013   4.066 -1.2162  0.7190  1.7581
 2508SOL    HW219161   1.424   3.987   3.998  0.3345 -2.1703 -0.3005
 2509SOL     OW19162   2.459   4.353  10.915  0.2220 -0.0541 -0.1149
 2509SOL    HW119163   2.494   4.350  10.826  0.6389  0.5067  0.0290
 2509SOL    HW219164   2.534   4.378  10.969 -0.0812 -1.8532  1.1488
 2510SOL     OW19165   2.218   3.674  16.567 -0.0663  0.5129  0.3132
 2510SOL    HW119166   2.277   3.600  16.557 -1.7752 -1.1155  2.1513
 2510SOL    HW219167   2.219   3.685  16.662 -1.5236 -1.2365  0.5309
 2511SOL     OW19168   2.857   0.110  16.607 -0.2751  0.0273  0.0950
 2511SOL    HW119169   2.927   0.074  16.662  2.6333  2.3802 -2.0568
 2511SOL    HW219170   2.780   0.061  16.635 -0.6989 -0.5881 -2.1102
 2512SOL     OW19171   2.874   4.387   2.859 -0.4144 -0.0195 -0.2448
 2512SOL    HW119172   2.908   4.416   2.775 -0.4048 -0.4081 -0.3727
 2512SOL    HW219173   2.852   4.295   2.847 -0.7499  0.2548 -1.7246
 2513SOL     OW19174   4.266   1.471  10.634 -0.1003  0.5427 -0.3046
 2513SOL    HW119175   4.183   1.450  10.677  0.6246 -1.5794  0.0274
 2513SOL    HW219176   4.313   1.510  10.708  0.7342 -0.7587 -0.1505
 2514SOL     OW19177   1.441   2.722  14.385  1.0367  0.7121 -0.1245
 2514SOL    HW119178   1.408   2.686  14.468  3.0391 -0.5787  0.1318
 2514SOL    HW219179   1.374   2.786  14.363 -0.3757 -0.8240 -0.3584
 2515SOL     OW19180   3.508   0.533   8.666  0.5040 -0.2818  0.4212
 2515SOL    HW119181   3.491   0.623   8.640 -0.6845 -0.1269  1.7591
 2515SOL    HW219182   3.600   0.545   8.692  0.4624  0.8109  0.0694
 2516SOL     OW19183   2.863   4.577   3.382 -0.0483 -0.2345 -0.1226
 2516SOL    HW119184   2.864   4.673   3.376  1.3609 -0.2434  0.0353
 2516SOL    HW219185   2.772   4.560   3.406  0.3008  0.1752  1.4739
 2517SOL     OW19186   2.168   4.694   0.675 -0.1172  0.1030  0.0175
 2517SOL    HW119187   2.252   4.649   0.665 -0.1118 -0.0666  0.7692
 2517SOL    HW219188   2.189   0.006   0.754  1.5175  1.6274 -1.4012
 2518SOL     OW19189   1.061   0.116   0.004  0.1803  0.4443  0.0391
 2518SOL    HW119190   0.976   0.072   0.004  1.1451 -1.4130 -1.2632
 2518SOL    HW219191   1.106   0.099   0.087  0.7422 -0.6951 -0.4999
 2519SOL     OW19192   1.409   1.685   7.657  0.3684 -0.6483  0.3411
 2519SOL    HW119193   1.347   1.637   7.712 -1.4387 -0.2000 -1.2908
 2519SOL    HW219194   1.490   1.681   7.707  0.7974 -0.7415 -0.3620
 2520SOL     OW19195   2.166   3.952   5.458 -0.1009  0.1937 -0.0966
 2520SOL    HW119196   2.243   3.979   5.508  0.0379 -2.7837  1.2751
 2520SOL    HW219197   2.179   3.858   5.445 -0.1949  0.1718 -0.0307
 2521SOL     OW19198   0.314   3.455   3.092 -0.0523 -0.1677  0.1489
 2521SOL    HW119199   0.318   3.361   3.075 -0.3499 -0.1072 -0.2561
 2521SOL    HW219200   0.402   3.455   3.129 -0.9870 -0.7132  2.4199
 2522SOL     OW19201   0.458   2.154   4.337  0.1539  0.3664  0.1923
 2522SOL    HW119202   0.534   2.107   4.373  1.3264  0.2196 -2.5147
 2522SOL    HW219203   0.493   2.242   4.352  1.3283  0.0487 -0.6713
 2523SOL     OW19204   3.701   0.911   3.421  0.4846 -0.5375 -0.1971
 2523SOL    HW119205   3.644   0.854   3.370  0.1369 -1.5012  1.2801
 2523SOL    HW219206   3.637   0.974   3.455 -1.4722 -2.4115 -0.4441
 2524SOL     OW19207   0.769   1.226  17.009  0.1866 -0.3497 -0.3598
 2524SOL    HW119208   0.710   1.171  16.958 -2.5116  0.2464  2.1001
 2524SOL    HW219209   0.829   1.162  17.048 -0.5788  0.7396  2.6093
 2525SOL     OW19210   0.035   4.518   5.584  0.1720  0.4409  0.3641
 2525SOL    HW119211   0.064   4.527   5.493  0.5689 -2.9539  0.1314
 2525SOL    HW219212   4.736   4.602   5.609 -1.9920 -0.2289 -0.6622
 2526SOL     OW19213   2.493   1.146   0.198 -0.2833 -0.4910 -0.3505
 2526SOL    HW119214   2.551   1.078   0.163  0.7988 -1.0735  2.5389
 2526SOL    HW219215   2.408   1.111   0.172  0.8449 -0.4596 -4.0197
 2527SOL     OW19216   1.173   2.319   5.493 -0.3952 -0.5248 -0.2393
 2527SOL    HW119217   1.144   2.302   5.583 -1.8764 -0.2239 -0.6561
 2527SOL    HW219218   1.170   2.232   5.453 -0.0959  0.8286 -3.1397
 2528SOL     OW19219   0.828   3.775   2.014 -0.5167  0.3870 -0.8762
 2528SOL    HW119220   0.923   3.778   2.023 -0.5462 -0.0519 -0.4415
 2528SOL    HW219221   0.814   3.783   1.919 -0.2455  3.4549 -0.6832
 2529SOL     OW19222   2.514   3.233   8.020  0.2859 -0.2262 -0.1326
 2529SOL    HW119223   2.585   3.259   8.079  0.3168  0.9229 -0.6823
 2529SOL    HW219224   2.519   3.137   8.017  1.7265 -0.1288 -1.0027
 2530SOL     OW19225   4.096   4.497   1.604 -0.5759  0.2935  0.1163
 2530SOL    HW119226   4.125   4.566   1.545  0.4794 -1.1777 -1.0821
 2530SOL    HW219227   4.151   4.507   1.682  1.7199 -1.1903 -1.3169
 2531SOL     OW19228   0.967   0.724   7.316  0.5300  0.3613  0.0134
 2531SOL    HW119229   0.959   0.704   7.409 -2.7152  3.0234  0.2705
 2531SOL    HW219230   0.920   0.654   7.270  2.1045 -0.2338 -0.6932
 2532SOL     OW19231   4.216   2.560   8.283 -0.2764  0.2750 -0.3444
 2532SOL    HW119232   4.120   2.559   8.277 -0.2982  0.2977  0.0014
 2532SOL    HW219233   4.233   2.507   8.205  1.8205  1.0897 -0.4218
 2533SOL     OW19234   3.737   4.095   1.717  0.8702 -0.2577 -0.0226
 2533SOL    HW119235   3.776   4.171   1.674  1.7554 -0.1749  0.9049
 2533SOL    HW219236   3.748   4.127   1.807  0.0370  0.7960 -0.3073
 2534SOL     OW19237   2.106   2.431   5.936  0.1818 -0.0136 -0.0772
 2534SOL    HW119238   2.026   2.481   5.918 -0.6159 -0.8106  1.2531
 2534SOL    HW219239   2.179   2.485   5.908  0.2020  0.2903  0.5556
 2535SOL     OW19240   3.140   4.428   4.117  0.0073 -0.2638 -0.1559
 2535SOL    HW119241   3.052   4.414   4.081  0.5391 -1.9372 -0.7967
 2535SOL    HW219242   3.114   4.420   4.208 -0.0309  0.5267 -0.0949
 2536SOL     OW19243   2.527   0.154  13.355 -0.3601  0.4275 -0.3002
 2536SOL    HW119244   2.585   0.089  13.395 -0.7311  1.1671  1.4563
 2536SOL    HW219245   2.462   0.152  13.425 -1.7691  0.9396 -1.6002
 2537SOL     OW19246   0.806   4.154   6.627 -0.3018 -0.3934 -0.0673
 2537SOL    HW119247   0.717   4.126   6.649 -1.2794  2.4578 -0.3930
 2537SOL    HW219248   0.849   4.168   6.712  1.5116  1.4656 -1.2896
 2538SOL     OW19249   0.522   0.618   6.532  0.1818  0.2922 -0.2076
 2538SOL    HW119250   0.452   0.553   6.526 -0.1658  0.4381  2.6146
 2538SOL    HW219251   0.490   0.695   6.484 -0.8171 -0.2991 -0.4843
 2539SOL     OW19252   2.674   1.466   5.236  0.8248  0.1563  0.2081
 2539SOL    HW119253   2.651   1.378   5.207 -1.8585  1.1676 -0.7069
 2539SOL    HW219254   2.746   1.440   5.294 -0.3286 -0.6403  1.2992
 2540SOL     OW19255   1.190   4.456   3.246  0.5033  0.1186 -0.3438
 2540SOL    HW119256   1.193   4.535   3.192 -0.7970 -0.6161 -1.4857
 2540SOL    HW219257   1.247   4.480   3.319  0.1235  2.1987 -0.7267
 2541SOL     OW19258   2.746   2.746   7.159 -0.0986  0.1270  0.1345
 2541SOL    HW119259   2.828   2.760   7.112  0.4389  2.0045  1.6125
 2541SOL    HW219260   2.717   2.665   7.118 -0.9788  0.9660 -0.9306
 2542SOL     OW19261   2.233   4.190   0.681 -0.0308  0.1431  0.1278
 2542SOL    HW119262   2.312   4.139   0.663 -1.1687 -1.8674  0.8778
 2542SOL    HW219263   2.202   4.141   0.757  0.6504  0.6032  0.7060
 2543SOL     OW19264   0.282   1.747  15.443  0.2045  0.1421 -0.2324
 2543SOL    HW119265   0.279   1.784  15.531  0.4704 -1.6509  0.5144
 2543SOL    HW219266   0.338   1.671  15.451  1.0765  0.4881 -3.1010
 2544SOL     OW19267   0.299   3.793   4.243  0.3046  0.2631  0.0981
 2544SOL    HW119268   0.366   3.761   4.304  0.1007 -0.2998  0.0298
 2544SOL    HW219269   0.288   3.713   4.193  0.0633  0.0273  0.5281
 2545SOL     OW19270   4.254   2.481   4.692  0.1860 -0.2481 -0.4193
 2545SOL    HW119271   4.205   2.428   4.630  1.3120 -0.1014 -1.4195
 2545SOL    HW219272   4.185   2.499   4.757  1.4463 -1.7443  1.3655
 2546SOL     OW19273   1.710   3.910  12.800  0.3136  0.4027 -0.1970
 2546SOL    HW119274   1.627   3.939  12.764 -1.1301 -3.2960  0.1629
 2546SOL    HW219275   1.739   3.842  12.740  2.4346  3.5696 -2.8055
 2547SOL     OW19276   0.027   2.233   9.922 -0.1231 -0.5055 -0.0884
 2547SOL    HW119277   4.726   2.146   9.919 -1.6974  0.2271 -0.6592
 2547SOL    HW219278   0.003   2.259  10.011  2.1992 -0.5121  0.5435
 2548SOL     OW19279   3.922   4.173   7.384  0.6396 -0.7684  0.0046
 2548SOL    HW119280   3.946   4.086   7.351  2.3751 -0.6552  0.9646
 2548SOL    HW219281   3.861   4.146   7.452  0.0971  0.6520  0.0725
 2549SOL     OW19282   3.169   2.953  15.688  0.0056  0.0042 -0.3556
 2549SOL    HW119283   3.089   2.987  15.649 -1.8469 -1.5104  2.0879
 2549SOL    HW219284   3.168   2.980  15.780  1.8162 -0.2124 -0.2824
 2550SOL     OW19285   2.397   3.847  14.630 -0.1646  0.0599  0.5111
 2550SOL    HW119286   2.358   3.872  14.546 -0.9665 -2.9560 -0.0012
 2550SOL    HW219287   2.482   3.809  14.610 -0.7724 -0.8021 -0.4317
 2551SOL     OW19288   2.717   1.281   1.115  0.1544  0.2259  0.6449
 2551SOL    HW119289   2.713   1.195   1.156 -0.0640  0.6644  1.5247
 2551SOL    HW219290   2.623   1.292   1.099  0.3880  0.3034 -0.7245
 2552SOL     OW19291   2.912   2.130   9.398 -0.1517 -0.6742 -0.4998
 2552SOL    HW119292   2.849   2.121   9.326 -2.5226  1.6264  1.2939
 2552SOL    HW219293   2.870   2.185   9.464  0.1663 -1.2394  0.1814
 2553SOL     OW19294   0.010   3.527  17.219 -0.4092  0.3260  0.0171
 2553SOL    HW119295   0.044   3.552  17.305  0.5686 -0.0208 -0.2680
 2553SOL    HW219296   0.087   3.487  17.178  0.7445  0.2812  2.2031
 2554SOL     OW19297   0.333   3.738  11.528 -0.5405  0.3501  0.1436
 2554SOL    HW119298   0.403   3.696  11.579 -0.5480 -0.3892 -0.4543
 2554SOL    HW219299   0.358   3.829  11.539  2.0241 -0.4484  0.9580
 2555SOL     OW19300   0.182   2.693   5.049  0.2237  0.0048 -0.1874
 2555SOL    HW119301   0.144   2.662   5.131 -0.8068 -1.6909 -1.3132
 2555SOL    HW219302   0.145   2.778   5.026  0.4597  0.1412 -0.0677
 2556SOL     OW19303   0.140   1.294   8.238 -0.1993  0.4128 -0.3342
 2556SOL    HW119304   0.046   1.291   8.218 -0.2337  0.6227 -0.2057
 2556SOL    HW219305   0.177   1.209   8.213 -1.3086  0.0301 -0.6654
 2557SOL     OW19306   2.848   0.827  14.839 -0.5359 -0.1147 -0.0369
 2557SOL    HW119307   2.941   0.816  14.862 -0.8401  0.7802  1.5966
 2557SOL    HW219308   2.864   0.833  14.744 -0.0736  0.8351  0.1093
 2558SOL     OW19309   3.135   3.088  15.909 -0.7454  0.2174  0.0252
 2558SOL    HW119310   3.076   3.036  15.964 -2.4722  0.1899 -1.8392
 2558SOL    HW219311   3.206   3.100  15.972 -0.1215  0.0294 -0.6442
 2559SOL     OW19312   4.084   1.634   8.877 -0.3834  0.2278 -0.0227
 2559SOL    HW119313   4.030   1.608   8.803  0.2667 -1.1399 -0.0106
 2559SOL    HW219314   4.177   1.618   8.862  0.1553  2.0512  1.2927
 2560SOL     OW19315   1.228   2.057   3.867 -0.0594 -0.1538  0.3542
 2560SOL    HW119316   1.162   2.030   3.931 -0.1802  2.4816  1.3381
 2560SOL    HW219317   1.172   2.044   3.789 -2.5498 -0.8413  2.2489
 2561SOL     OW19318   0.300   2.009  17.129 -0.1955 -0.1632 -0.1903
 2561SOL    HW119319   0.303   2.016  17.033 -0.1415 -0.4762 -0.2093
 2561SOL    HW219320   0.235   2.075  17.152 -1.9128 -1.9861  0.1465
 2562SOL     OW19321   0.209   0.901   5.512  0.7780 -0.1590 -0.1937
 2562SOL    HW119322   0.147   0.844   5.558  0.4968  1.1316  1.0465
 2562SOL    HW219323   0.247   0.936   5.593  0.8028  0.3226 -0.4198
 2563SOL     OW19324   4.438   4.386   7.805  0.0946 -0.3244 -0.3396
 2563SOL    HW119325   4.438   4.297   7.770 -0.5834 -0.9258  1.2180
 2563SOL    HW219326   4.421   4.369   7.897 -2.4174 -0.9935 -0.9165
 2564SOL     OW19327   0.381   3.473   8.805 -0.5234 -0.2458 -0.2290
 2564SOL    HW119328   0.372   3.378   8.803 -0.5945 -0.2324 -0.5245
 2564SOL    HW219329   0.295   3.513   8.813 -0.1644 -0.0280  2.6525
 2565SOL     OW19330   1.940   0.963   6.484  0.1601 -0.1760  0.6169
 2565SOL    HW119331   1.908   1.000   6.566  0.4307 -1.9871  1.5613
 2565SOL    HW219332   1.970   1.040   6.435  1.8411  0.4772  2.6584
 2566SOL     OW19333   1.304   2.285  14.249  0.1141 -0.4542  0.3412
 2566SOL    HW119334   1.284   2.299  14.157  2.1588 -0.1734 -0.0706
 2566SOL    HW219335   1.397   2.262  14.253  0.0388 -0.7178  0.6064
 2567SOL     OW19336   2.660   1.661  11.515  0.0450 -0.0209 -0.2169
 2567SOL    HW119337   2.573   1.624  11.529  0.7305 -0.3699  3.1467
 2567SOL    HW219338   2.670   1.719  11.591  1.9613  0.0362 -0.5064
 2568SOL     OW19339   1.906   2.151   8.129  0.2503 -0.5351  0.4153
 2568SOL    HW119340   1.906   2.058   8.107 -1.0741 -0.9198  2.0916
 2568SOL    HW219341   1.971   2.188   8.068 -1.1473  1.9545  0.4483
 2569SOL     OW19342   4.591   4.289   1.371  0.8046 -0.4469 -0.2563
 2569SOL    HW119343   4.541   4.368   1.353  1.4174  0.0062  0.0404
 2569SOL    HW219344   4.682   4.312   1.352  0.8705  0.4256  1.1074
 2570SOL     OW19345   4.722   1.055  16.013  0.1776  0.6151 -0.5854
 2570SOL    HW119346   4.656   1.051  15.944 -0.6363  0.2925  0.2105
 2570SOL    HW219347   4.679   1.127  16.058  1.4428  0.2272  1.2701
 2571SOL     OW19348   0.820   2.104   7.290  0.1365 -0.1430 -0.3145
 2571SOL    HW119349   0.804   2.024   7.241 -1.1180 -0.8917  1.2993
 2571SOL    HW219350   0.915   2.105   7.300  0.1833  2.6492 -1.0650
 2572SOL     OW19351   0.703   2.218   2.644 -0.2892 -0.6286 -0.0582
 2572SOL    HW119352   0.620   2.265   2.651  0.1823  0.1959 -0.0661
 2572SOL    HW219353   0.660   2.133   2.628 -1.7779  0.1703 -0.3015
 2573SOL     OW19354   0.180   3.713   3.789 -0.0244 -0.5410 -0.4724
 2573SOL    HW119355   0.186   3.645   3.722  1.1997 -1.5022  0.6229
 2573SOL    HW219356   0.161   3.798   3.748  1.7089 -1.4215 -3.0795
 2574SOL     OW19357   4.507   4.014   0.667  0.2091 -0.0970 -0.1526
 2574SOL    HW119358   4.514   3.966   0.585 -1.6717  1.3453 -1.1256
 2574SOL    HW219359   4.459   3.954   0.724  0.2208 -1.5880 -1.7411
 2575SOL     OW19360   4.129   1.027  16.065 -0.0002  0.3597 -0.5702
 2575SOL    HW119361   4.171   0.994  15.985 -0.5319 -1.0853 -0.2461
 2575SOL    HW219362   4.178   1.107  16.083  1.1108 -0.6687  0.9585
 2576SOL     OW19363   4.016   2.594   7.788 -0.0750  0.1626 -0.1103
 2576SOL    HW119364   4.073   2.650   7.736 -1.3418 -1.2155 -3.0135
 2576SOL    HW219365   4.006   2.634   7.874 -1.5092 -0.5253  0.0422
 2577SOL     OW19366   3.817   2.830   5.178 -0.6517  0.2617  0.0213
 2577SOL    HW119367   3.859   2.796   5.258 -0.8477  0.2856  0.1334
 2577SOL    HW219368   3.874   2.904   5.153 -0.6086  0.1759 -0.1326
 2578SOL     OW19369   3.517   3.458  17.726  0.4300  0.3193 -0.5209
 2578SOL    HW119370   3.496   3.420  17.641 -1.6373  0.7217 -0.2109
 2578SOL    HW219371   3.542   3.386   0.033  1.8491  0.6833 -0.6857
 2579SOL     OW19372   2.777   2.727   3.332  0.0452 -0.4772 -0.0594
 2579SOL    HW119373   2.704   2.669   3.311  1.3314 -1.8862 -0.6155
 2579SOL    HW219374   2.793   2.692   3.419  0.0115  1.5504  0.7690
 2580SOL     OW19375   4.185   4.014   7.796 -0.1409 -0.5985  0.5423
 2580SOL    HW119376   4.166   3.927   7.761 -0.8715  0.8436 -2.5775
 2580SOL    HW219377   4.265   3.994   7.845 -0.0557  0.2695  0.7644
 2581SOL     OW19378   1.701   0.514   7.702 -0.7094 -0.1223 -0.5489
 2581SOL    HW119379   1.765   0.484   7.766 -0.4401  1.8005  0.0933
 2581SOL    HW219380   1.698   0.440   7.641  2.4217 -0.6182 -0.0785
 2582SOL     OW19381   0.737   3.709   4.709  0.0138 -0.4331  0.1233
 2582SOL    HW119382   0.660   3.722   4.652  0.1113  2.8282  0.7342
 2582SOL    HW219383   0.749   3.797   4.745  2.0538 -0.0284 -1.5337
 2583SOL     OW19384   4.034   0.385  14.861  0.1670  0.7052 -0.1575
 2583SOL    HW119385   4.127   0.406  14.870  0.3295  0.1585 -0.5556
 2583SOL    HW219386   4.027   0.372  14.767  1.1501  2.0654 -0.4183
 2584SOL     OW19387   1.105   3.845   7.247  0.0802  0.2201  0.6569
 2584SOL    HW119388   1.152   3.795   7.313 -1.5012 -0.8104  1.0043
 2584SOL    HW219389   1.045   3.892   7.305 -0.9558 -0.0662 -0.1785
 2585SOL     OW19390   4.012   0.392   5.511  0.1686  0.0401 -0.1787
 2585SOL    HW119391   4.026   0.311   5.462 -4.0813 -1.2244  0.7833
 2585SOL    HW219392   4.099   0.430   5.525  0.4552 -0.9106  0.6741
 2586SOL     OW19393   3.822   4.329   1.658 -0.2189 -0.4781  0.0332
 2586SOL    HW119394   3.867   4.400   1.612 -0.1658 -1.0152 -0.7661
 2586SOL    HW219395   3.785   4.383   1.727  2.7633  1.7296 -0.0851
 2587SOL     OW19396   3.175   4.310   2.808  0.2726 -0.1187  0.2731
 2587SOL    HW119397   3.262   4.300   2.768  0.1717  1.8564 -0.4602
 2587SOL    HW219398   3.121   4.333   2.733 -0.0479 -1.1819  0.1883
 2588SOL     OW19399   0.827   4.013   1.819  0.1295 -0.5317 -0.0459
 2588SOL    HW119400   0.849   3.994   1.910  4.4294 -0.6162 -1.0570
 2588SOL    HW219401   0.850   4.106   1.808 -1.9796  0.1120  0.9538
 2589SOL     OW19402   1.648   1.321   9.495  0.2594 -0.3688  0.3831
 2589SOL    HW119403   1.574   1.317   9.434  0.9156  2.2099 -0.6340
 2589SOL    HW219404   1.677   1.230   9.494  2.1015  0.2039  1.0021
 2590SOL     OW19405   4.512   3.287   8.503 -0.3711  0.0652 -0.1660
 2590SOL    HW119406   4.600   3.293   8.541  0.3517 -0.0426 -1.8023
 2590SOL    HW219407   4.476   3.218   8.560  0.8376  0.3013  0.8783
 2591SOL     OW19408   2.039   2.065  12.883 -0.4640 -0.0431  0.5990
 2591SOL    HW119409   1.976   2.040  12.950 -2.0740 -0.9536 -1.2680
 2591SOL    HW219410   2.030   1.993  12.821  0.9253  1.5950 -1.5173
 2592SOL     OW19411   1.646   3.881   2.923 -0.1474  0.4319 -0.9933
 2592SOL    HW119412   1.626   3.906   3.013  0.1022 -2.0498 -0.2304
 2592SOL    HW219413   1.739   3.900   2.923  0.0086 -0.2994 -0.0897
 2593SOL     OW19414   0.447   2.014   9.052 -0.3290 -0.0551 -0.2330
 2593SOL    HW119415   0.451   2.077   8.980 -0.3308  2.3950  1.8807
 2593SOL    HW219416   0.367   1.964   9.038 -0.3483 -0.3341  0.8908
 2594SOL     OW19417   4.081   2.147  11.301  0.3815  0.0118 -0.1941
 2594SOL    HW119418   4.076   2.227  11.249 -1.2123 -0.5576 -0.9346
 2594SOL    HW219419   4.099   2.186  11.387  0.9949 -1.6386  0.4204
 2595SOL     OW19420   4.152   2.927  13.451  0.1581 -0.1808  0.1246
 2595SOL    HW119421   4.212   2.944  13.523 -2.0101  0.7457  1.7113
 2595SOL    HW219422   4.108   3.010  13.435 -0.3035 -0.3712  0.4014
 2596SOL     OW19423   2.617   3.467  13.536 -0.5228  0.0060  0.0430
 2596SOL    HW119424   2.549   3.410  13.569  0.2094 -0.3969  0.8581
 2596SOL    HW219425   2.618   3.542  13.596 -1.8865  0.7877 -0.9093
 2597SOL     OW19426   1.407   0.410  14.116  0.7818  0.3124  0.7100
 2597SOL    HW119427   1.477   0.371  14.063  0.4644  2.3486 -1.1675
 2597SOL    HW219428   1.448   0.397  14.201 -0.3578  0.5221  1.2884
 2598SOL     OW19429   2.529   3.317   6.425  0.4079  0.4227  0.0298
 2598SOL    HW119430   2.569   3.374   6.490  1.5011 -0.4796  0.1560
 2598SOL    HW219431   2.463   3.280   6.484  1.0290 -0.3219  0.2526
 2599SOL     OW19432   1.960   2.931  14.539 -0.2719 -0.2304  0.4950
 2599SOL    HW119433   1.937   2.953  14.629 -0.1319 -0.4573  0.5864
 2599SOL    HW219434   2.049   2.958  14.515 -0.6659 -0.7773 -1.5667
 2600SOL     OW19435   3.469   3.484   9.942  0.1625 -0.0732  0.0085
 2600SOL    HW119436   3.503   3.409   9.991  2.3165  0.3366 -0.8415
 2600SOL    HW219437   3.386   3.444   9.916  1.0115 -2.0166  0.2758
 2601SOL     OW19438   0.334   0.693   7.525  0.0658  0.4101 -0.0815
 2601SOL    HW119439   0.408   0.748   7.548 -0.2934  1.5985 -1.7722
 2601SOL    HW219440   0.319   0.710   7.432 -0.7598 -1.7739 -0.3659
 2602SOL     OW19441   3.341   1.788   9.080 -0.4556 -0.3052 -0.1169
 2602SOL    HW119442   3.356   1.853   9.012  1.7744  0.3012  0.9670
 2602SOL    HW219443   3.348   1.713   9.020  2.5773 -1.4286  1.6327
 2603SOL     OW19444   1.397   2.885   0.359  0.2317  0.4472  0.4633
 2603SOL    HW119445   1.368   2.829   0.287 -1.1385 -0.4841  1.7196
 2603SOL    HW219446   1.388   2.978   0.341 -1.1035 -0.0160 -1.3464
 2604SOL     OW19447   1.276   4.513  14.219 -0.2215 -0.0263  0.0846
 2604SOL    HW119448   1.242   4.565  14.145 -2.4341 -3.0834 -1.0672
 2604SOL    HW219449   1.371   4.515  14.216 -0.2177 -0.8102 -0.3164
 2605SOL     OW19450   3.167   2.285  11.508  0.2745  0.0703  0.4424
 2605SOL    HW119451   3.089   2.258  11.555  0.5274 -0.7212  0.4044
 2605SOL    HW219452   3.117   2.329  11.439 -1.2820 -0.6103  1.1491
 2606SOL     OW19453   1.028   2.341   8.540 -0.4987 -0.3938 -0.0472
 2606SOL    HW119454   0.961   2.276   8.565 -0.0475 -0.4734  0.9413
 2606SOL    HW219455   1.021   2.396   8.618  2.0339 -0.3884  0.1560
 2607SOL     OW19456   2.970   1.287  15.136  0.3451 -0.5783  0.0400
 2607SOL    HW119457   2.939   1.269  15.047 -0.3581  1.2472 -0.0846
 2607SOL    HW219458   3.064   1.282  15.118  0.8090  0.7969  2.0993
 2608SOL     OW19459   1.620   1.767   2.932  0.0416 -0.0949  0.1042
 2608SOL    HW119460   1.632   1.839   2.994  0.9225  0.6196 -0.8803
 2608SOL    HW219461   1.657   1.696   2.985  0.6228 -0.8287 -1.2662
 2609SOL     OW19462   2.226   3.120   4.421 -0.0422 -0.7071 -0.0963
 2609SOL    HW119463   2.176   3.046   4.454 -0.1261 -0.4969  0.2509
 2609SOL    HW219464   2.285   3.132   4.496 -0.1584  0.6334 -0.2109
 2610SOL     OW19465   3.695   4.544   4.852  0.0284 -0.6207 -0.2273
 2610SOL    HW119466   3.754   4.593   4.793 -0.2095  0.8763  0.7723
 2610SOL    HW219467   3.634   4.612   4.881  0.9700  0.4844 -0.8254
 2611SOL     OW19468   2.108   4.090   6.260  0.6137 -0.4794  0.1326
 2611SOL    HW119469   2.043   4.020   6.263  0.3766 -0.1875  1.7814
 2611SOL    HW219470   2.184   4.043   6.226  1.8314  1.6549 -0.1179
 2612SOL     OW19471   1.618   2.361   7.771  0.0817  0.8216 -0.0274
 2612SOL    HW119472   1.553   2.325   7.710  0.4618 -1.1080  0.7209
 2612SOL    HW219473   1.594   2.312   7.850  0.9373  0.4872  0.0242
 2613SOL     OW19474   3.335   3.547   7.163  0.2495  0.0583  0.3840
 2613SOL    HW119475   3.343   3.493   7.084  1.8830 -1.5430  1.6520
 2613SOL    HW219476   3.377   3.490   7.227  2.7031  0.1008 -1.2019
 2614SOL     OW19477   0.949   3.604   6.768  0.1026 -0.1879 -0.3541
 2614SOL    HW119478   0.978   3.666   6.835 -0.1350 -0.1504 -0.2842
 2614SOL    HW219479   0.857   3.631   6.768 -0.9398 -3.8461  1.8871
 2615SOL     OW19480   3.054   0.669  10.399  0.0732 -0.9547 -0.4827
 2615SOL    HW119481   3.113   0.716  10.341  1.4458  0.1400  1.8097
 2615SOL    HW219482   3.065   0.581  10.363 -1.6839 -1.8975  1.2365
 2616SOL     OW19483   2.768   3.667   1.908 -0.5665  0.0961 -0.4510
 2616SOL    HW119484   2.754   3.761   1.894  0.0780  0.4531  1.3197
 2616SOL    HW219485   2.683   3.635   1.878 -1.0924  2.1529 -1.1659
 2617SOL     OW19486   1.936   1.309  13.055  0.2618  0.0170 -0.0314
 2617SOL    HW119487   2.019   1.282  13.092 -0.0057 -0.2608  0.3660
 2617SOL    HW219488   1.925   1.261  12.972 -1.9379 -2.8639  1.9371
 2618SOL     OW19489   4.644   4.432   3.593 -0.3932 -0.1348 -0.0052
 2618SOL    HW119490   4.702   4.455   3.665 -0.2393 -1.3314  0.2348
 2618SOL    HW219491   4.677   4.500   3.533 -1.9338  1.6713  1.1747
 2619SOL     OW19492   1.394   3.152   1.234 -0.3065 -0.8519 -0.1744
 2619SOL    HW119493   1.299   3.165   1.238 -0.1595  0.6608 -1.7094
 2619SOL    HW219494   1.401   3.101   1.153 -0.4503  0.5840 -1.0719
 2620SOL     OW19495   0.910   3.338   1.356  0.3471 -0.5622 -0.4328
 2620SOL    HW119496   0.816   3.351   1.360  0.1692 -1.6965 -1.3380
 2620SOL    HW219497   0.922   3.245   1.337 -2.9125 -1.2595  0.9429
 2621SOL     OW19498   1.051   2.706   5.156 -0.5216 -0.5482 -0.0861
 2621SOL    HW119499   1.081   2.619   5.184 -1.2819 -1.1356 -1.0873
 2621SOL    HW219500   1.054   2.680   5.064 -0.5447 -1.7476  0.2479
 2622SOL     OW19501   4.048   3.497   8.147 -0.3200 -0.2421 -0.2983
 2622SOL    HW119502   3.975   3.435   8.157 -1.1755  0.2863 -3.2165
 2622SOL    HW219503   4.048   3.556   8.222  1.4443  0.8257 -1.1364
 2623SOL     OW19504   2.898   2.578   7.880 -0.7051  0.0875  0.3500
 2623SOL    HW119505   2.986   2.542   7.863 -1.6173 -1.5857 -0.8418
 2623SOL    HW219506   2.851   2.544   7.804  0.2725 -0.0350 -0.2013
 2624SOL     OW19507   0.214   2.526   5.329 -0.2967  0.2411  0.0541
 2624SOL    HW119508   0.184   2.614   5.354  1.2382  1.0259 -0.8110
 2624SOL    HW219509   0.139   2.473   5.356 -1.1886  0.6840 -1.5573
 2625SOL     OW19510   3.372   2.885   7.012 -0.8395  0.1512 -0.2366
 2625SOL    HW119511   3.315   2.823   6.966  0.5006 -2.1016  1.1831
 2625SOL    HW219512   3.312   2.941   7.061 -3.0647 -2.7592  0.4138
 2626SOL     OW19513   1.129   3.291   7.289 -0.0941  0.1697  0.4106
 2626SOL    HW119514   1.181   3.251   7.219 -2.9223 -0.5049 -1.3065
 2626SOL    HW219515   1.074   3.348   7.235  0.6263  1.8402  1.4603
 2627SOL     OW19516   1.826   2.167   4.603 -0.7031  0.1221 -0.9275
 2627SOL    HW119517   1.888   2.105   4.564  0.6354  0.7649  0.1931
 2627SOL    HW219518   1.875   2.186   4.683  0.4764  2.0053 -2.0850
 2628SOL     OW19519   2.041   1.708   9.042  0.0809 -0.4548  0.3668
 2628SOL    HW119520   2.082   1.649   9.105  1.0721  2.5227  2.4985
 2628SOL    HW219521   1.974   1.758   9.088 -0.2129  2.5782 -3.2951
 2629SOL     OW19522   4.548   0.544  11.798 -0.2628  0.7984 -0.4541
 2629SOL    HW119523   4.630   0.593  11.806  0.7766 -0.6321 -2.5343
 2629SOL    HW219524   4.557   0.494  11.717 -0.8082 -0.4723  0.2796
 2630SOL     OW19525   1.404   4.287   3.582  0.4615 -0.0924 -0.2390
 2630SOL    HW119526   1.441   4.214   3.632  0.2244 -0.5713 -0.7759
 2630SOL    HW219527   1.326   4.237   3.560  1.2662 -1.8860  0.9500
 2631SOL     OW19528   3.274   1.918  11.214 -0.0152 -0.0989 -0.0884
 2631SOL    HW119529   3.317   1.994  11.252 -1.2276  0.5896 -0.0805
 2631SOL    HW219530   3.189   1.909  11.257  0.6124  1.4863  1.4513
 2632SOL     OW19531   1.378   3.436  14.121 -0.1206  0.8629 -1.0462
 2632SOL    HW119532   1.364   3.530  14.131 -0.3242  0.7712 -0.4336
 2632SOL    HW219533   1.314   3.409  14.056 -2.2151  0.7149  1.0598
 2633SOL     OW19534   0.283   3.271  11.359  0.3896 -0.0605  0.0689
 2633SOL    HW119535   0.332   3.353  11.360 -1.2963  0.9335  0.5710
 2633SOL    HW219536   0.330   3.212  11.300 -0.4292 -1.0326  0.3913
 2634SOL     OW19537   0.146   2.675   6.662  0.6108 -0.5389  0.2394
 2634SOL    HW119538   0.094   2.610   6.709 -3.2861  0.9367 -2.0083
 2634SOL    HW219539   0.191   2.610   6.607  0.9779  0.1610 -0.2950
 2635SOL     OW19540   3.929   2.358   7.695  0.2889 -0.3327 -0.1332
 2635SOL    HW119541   3.967   2.443   7.714 -1.1313 -0.1584  1.9320
 2635SOL    HW219542   3.847   2.361   7.744 -1.2657 -1.3694 -2.6776
 2636SOL     OW19543   0.031   4.232   4.873 -0.3169 -0.6716 -0.5733
 2636SOL    HW119544   4.733   4.196   4.954 -0.4288 -0.0674 -0.3568
 2636SOL    HW219545   4.694   4.257   4.820  1.9766  0.6257 -3.2050
 2637SOL     OW19546   1.341   4.668   6.202 -0.0732  0.7384  0.0837
 2637SOL    HW119547   1.374   4.701   6.286  0.4221  3.3044 -1.1316
 2637SOL    HW219548   1.386   4.720   6.136 -0.8161 -0.2671 -1.2007
 2638SOL     OW19549   1.623   1.272   8.008 -0.1210 -0.2485 -0.2251
 2638SOL    HW119550   1.696   1.325   7.978 -1.7061  2.2143  0.2769
 2638SOL    HW219551   1.561   1.338   8.040 -0.6807  0.0077 -1.7864
 2639SOL     OW19552   3.202   0.943   1.064 -0.2232  0.0220 -0.1130
 2639SOL    HW119553   3.286   0.988   1.075 -0.0441 -0.9921  2.6029
 2639SOL    HW219554   3.206   0.934   0.969  1.5620  0.2675 -0.0675
 2640SOL     OW19555   4.644   0.251   2.481  0.1066  0.7215 -0.3777
 2640SOL    HW119556   4.599   0.211   2.556  2.1422 -1.1054 -0.1358
 2640SOL    HW219557   4.658   0.181   2.418  1.9967  0.1678  0.6467
 2641SOL     OW19558   1.391   3.266   2.436 -0.5176 -0.1357 -0.1964
 2641SOL    HW119559   1.419   3.197   2.496 -2.2382 -1.0972 -0.4887
 2641SOL    HW219560   1.435   3.246   2.354 -1.3664  0.6626 -0.8394
 2642SOL     OW19561   1.226   1.961   1.711  0.4649  0.6978  0.4560
 2642SOL    HW119562   1.285   1.921   1.775 -0.3253 -1.0206  0.1102
 2642SOL    HW219563   1.143   1.922   1.739  0.2858 -0.5069 -1.7383
 2643SOL     OW19564   1.012   2.190   8.246  0.6099  0.3874  0.7963
 2643SOL    HW119565   1.040   2.231   8.328 -0.4793  0.6134  1.0671
 2643SOL    HW219566   1.040   2.253   8.180 -0.7147 -0.1498 -0.2823
 2644SOL     OW19567   0.216   1.557   2.348 -0.2633  0.0403  0.3295
 2644SOL    HW119568   0.252   1.628   2.401  0.0490 -0.6097  0.9840
 2644SOL    HW219569   0.174   1.505   2.416 -1.9950  1.8428  0.6276
 2645SOL     OW19570   3.612   0.149   6.946  0.4993  0.2258 -0.4619
 2645SOL    HW119571   3.687   0.136   6.888 -0.1073 -1.8783 -0.7938
 2645SOL    HW219572   3.589   0.238   6.921  2.4186  0.0802 -2.7386
 2646SOL     OW19573   0.027   3.719   8.880  0.1362 -0.0708 -0.3137
 2646SOL    HW119574   0.064   3.637   8.912 -2.3421 -0.8502  0.6290
 2646SOL    HW219575   4.672   3.697   8.868  0.0261  0.9796 -1.4013
 2647SOL     OW19576   2.090   1.264   5.820  0.1842  0.0670  0.3353
 2647SOL    HW119577   2.063   1.327   5.754  0.5890 -0.3426 -0.2147
 2647SOL    HW219578   2.014   1.205   5.822 -0.3003  0.6436 -1.9796
 2648SOL     OW19579   0.577   4.479  17.275  0.4632  0.3693  0.5078
 2648SOL    HW119580   0.548   4.567  17.251  0.3679  0.1631 -0.1515
 2648SOL    HW219581   0.492   4.439  17.254  0.9482  0.9659 -2.7208
 2649SOL     OW19582   3.481   3.396   7.348  0.2471  0.0770 -0.3859
 2649SOL    HW119583   3.576   3.386   7.358 -0.2117 -2.3100  1.7875
 2649SOL    HW219584   3.456   3.311   7.311 -0.0136 -0.5322  1.1747
 2650SOL     OW19585   0.172   3.304   7.032 -0.1490  0.1224 -0.2650
 2650SOL    HW119586   0.176   3.212   7.006 -1.9215  0.0843 -0.3863
 2650SOL    HW219587   0.259   3.328   6.999  0.9383 -0.6903  1.9526
 2651SOL     OW19588   4.314   1.298   1.958  0.5461  0.2197  0.5940
 2651SOL    HW119589   4.393   1.344   1.932 -1.3579  1.1139 -3.6251
 2651SOL    HW219590   4.267   1.370   2.001 -0.8315  0.1781 -0.8042
 2652SOL     OW19591   3.301   4.104   4.328  0.2072  0.1542 -0.7142
 2652SOL    HW119592   3.308   4.116   4.234 -2.8572 -0.1851 -0.9747
 2652SOL    HW219593   3.209   4.085   4.343  0.4013  0.3976  0.8726
 2653SOL     OW19594   2.776   4.082   3.991 -0.0442  0.2461 -0.0068
 2653SOL    HW119595   2.793   4.176   3.991 -1.6566  0.5287 -0.3967
 2653SOL    HW219596   2.867   4.053   3.991 -0.1817 -0.2024  1.3749
 2654SOL     OW19597   1.109   0.011   5.658  0.2243  0.0397  0.0925
 2654SOL    HW119598   1.156   0.093   5.644  1.1763 -0.5896 -0.3677
 2654SOL    HW219599   1.071   0.019   5.746 -2.2396 -1.2910 -0.8419
 2655SOL     OW19600   3.880   2.586   6.162 -0.6601  0.3371  0.7823
 2655SOL    HW119601   3.789   2.613   6.155  0.1342  2.6714 -0.5735
 2655SOL    HW219602   3.892   2.526   6.087 -0.0424 -1.7422  2.5481
 2656SOL     OW19603   0.763   3.740  14.819  0.6512 -0.0053  0.2764
 2656SOL    HW119604   0.790   3.741  14.727 -1.5645  2.2547 -0.3639
 2656SOL    HW219605   0.672   3.767  14.801  1.1265  0.0253 -2.0970
 2657SOL     OW19606   1.986   4.407   2.619  0.0427  0.5141  0.2866
 2657SOL    HW119607   2.054   4.429   2.556  0.3408  2.8625  1.4113
 2657SOL    HW219608   2.012   4.465   2.691  1.1025  0.6908 -0.2521
 2658SOL     OW19609   0.234   2.663   3.302  0.0666 -0.1644 -0.3105
 2658SOL    HW119610   0.312   2.651   3.357  0.7423  1.0700 -0.9838
 2658SOL    HW219611   0.212   2.753   3.327 -1.4236 -0.4807 -0.4864
 2659SOL     OW19612   2.077   2.116   4.794  0.3926  0.2008  0.6288
 2659SOL    HW119613   2.144   2.179   4.821 -0.1946  0.6872  0.9522
 2659SOL    HW219614   2.123   2.053   4.740 -1.0740  0.8816 -1.4065
 2660SOL     OW19615   4.651   0.620   6.887 -0.9635  0.1077 -0.0945
 2660SOL    HW119616   4.679   0.539   6.845 -0.2892 -0.5374  1.5807
 2660SOL    HW219617   4.558   0.620   6.863 -1.2188 -1.8892  0.8499
 2661SOL     OW19618   1.487   1.923  12.238  0.0165  0.2967 -0.1978
 2661SOL    HW119619   1.489   1.837  12.197 -1.5165 -0.2671  0.8812
 2661SOL    HW219620   1.457   1.981  12.168  0.3500  1.5154  0.6747
 2662SOL     OW19621   4.411   3.699   6.737 -0.1170  0.1841  0.2944
 2662SOL    HW119622   4.383   3.633   6.673  0.1571 -0.4147  0.7908
 2662SOL    HW219623   4.327   3.712   6.781  0.5767 -0.4166  1.8005
 2663SOL     OW19624   1.732   2.208   5.842 -0.5585  0.0612 -0.1908
 2663SOL    HW119625   1.648   2.207   5.888 -0.4083 -0.0766  0.0790
 2663SOL    HW219626   1.783   2.263   5.901 -1.4481  0.7476 -0.0526
 2664SOL     OW19627   3.615   1.641  16.593  0.3068  0.7574 -0.1944
 2664SOL    HW119628   3.662   1.623  16.675  0.2529 -4.0697 -1.2139
 2664SOL    HW219629   3.685   1.681  16.542 -0.0234  1.9323  0.2719
 2665SOL     OW19630   1.520   0.622   4.884  0.1266 -0.4726  0.0641
 2665SOL    HW119631   1.585   0.570   4.932 -0.3071 -0.2919  0.8280
 2665SOL    HW219632   1.515   0.567   4.805 -0.8433  1.6642 -1.3498
 2666SOL     OW19633   3.677   2.112   6.944  0.1436 -0.3575  0.1986
 2666SOL    HW119634   3.585   2.131   6.926  0.6714  1.8093 -0.1938
 2666SOL    HW219635   3.691   2.184   7.005 -2.3880 -0.9332  1.4985
 2667SOL     OW19636   0.505   1.711  16.055  0.0414  0.2914  0.1960
 2667SOL    HW119637   0.477   1.801  16.035 -0.4475 -0.3841 -2.1161
 2667SOL    HW219638   0.486   1.717  16.149 -0.6846  0.5803  0.0377
 2668SOL     OW19639   3.009   1.978   8.594 -0.0204  0.0858 -0.0519
 2668SOL    HW119640   2.966   2.050   8.547 -1.6863 -1.3388 -0.6712
 2668SOL    HW219641   2.979   1.903   8.543  2.6736  0.0012 -1.5383
 2669SOL     OW19642   0.624   4.299   8.455 -0.4107 -0.2195 -0.0976
 2669SOL    HW119643   0.536   4.299   8.493 -0.7444  1.7940 -0.8825
 2669SOL    HW219644   0.601   4.322   8.365 -0.1553  0.2357 -0.0462
 2670SOL     OW19645   0.110   0.863  16.162  0.1075  0.0830  0.3374
 2670SOL    HW119646   0.202   0.887  16.147 -0.4951  0.2020 -3.1713
 2670SOL    HW219647   0.066   0.919  16.098  0.5598  0.0921  0.0322
 2671SOL     OW19648   0.487   0.816  12.682 -0.3426  0.0694  0.3496
 2671SOL    HW119649   0.524   0.904  12.692 -3.2793  1.2318  1.0602
 2671SOL    HW219650   0.409   0.809  12.737 -0.5110  0.1640  0.1230
 2672SOL     OW19651   0.161   3.133   2.845 -0.0015 -0.1751  0.4799
 2672SOL    HW119652   0.154   3.172   2.757 -1.0353  0.2755  0.7590
 2672SOL    HW219653   0.084   3.174   2.885  0.2292 -2.1720  2.9354
 2673SOL     OW19654   3.790   1.591   2.247 -0.0160 -0.2032  0.1273
 2673SOL    HW119655   3.724   1.565   2.312  0.1335 -1.9150 -0.4140
 2673SOL    HW219656   3.819   1.506   2.214 -1.2246  0.7462 -3.3128
 2674SOL     OW19657   3.673   0.117   1.444  0.4456  0.1158  0.0589
 2674SOL    HW119658   3.748   0.129   1.385  1.5898 -0.0543  1.5035
 2674SOL    HW219659   3.622   0.197   1.436  1.1760  0.6545  0.8276
 2675SOL     OW19660   0.670   4.661   6.889  0.2765 -0.0337 -0.1351
 2675SOL    HW119661   0.583   4.646   6.924 -0.2659 -0.3782 -1.6399
 2675SOL    HW219662   0.722   4.615   6.955 -1.2593 -1.3748  0.1303
 2676SOL     OW19663   3.226   3.326  16.273 -0.6610  0.0221 -0.9238
 2676SOL    HW119664   3.258   3.415  16.271 -0.9831  0.1313 -1.3918
 2676SOL    HW219665   3.241   3.306  16.365 -0.1544  2.0759 -0.5685
 2677SOL     OW19666   4.047   0.509  11.412  0.5962 -0.6117 -0.5948
 2677SOL    HW119667   3.991   0.580  11.442  4.1031  0.7395  2.7053
 2677SOL    HW219668   4.041   0.452  11.488 -0.0719  1.0689  0.6013
 2678SOL     OW19669   1.079   0.426   5.792  0.0061 -0.1068 -0.1307
 2678SOL    HW119670   1.080   0.516   5.824 -0.0535 -0.5539  1.1291
 2678SOL    HW219671   1.126   0.441   5.710 -0.5992  0.3440 -0.3906
 2679SOL     OW19672   4.402   2.147   6.742 -0.0849 -0.1020  0.3870
 2679SOL    HW119673   4.351   2.225   6.720 -0.7163 -0.9210 -1.0526
 2679SOL    HW219674   4.462   2.156   6.668 -2.2418  1.4526 -1.1850
 2680SOL     OW19675   1.159   2.530  10.470  0.0597 -0.2301 -0.3145
 2680SOL    HW119676   1.180   2.466  10.538  1.2183 -0.9721 -1.3423
 2680SOL    HW219677   1.214   2.512  10.393 -1.5143 -1.8775 -1.0438
 2681SOL     OW19678   1.479   1.308   9.207 -0.0864 -0.8231  0.1036
 2681SOL    HW119679   1.508   1.392   9.243  1.3246 -1.8548  1.3510
 2681SOL    HW219680   1.516   1.311   9.118 -1.3710 -1.3680 -0.4572
 2682SOL     OW19681   1.073   1.383   3.404  0.5925 -0.2225 -0.0360
 2682SOL    HW119682   1.143   1.325   3.376  0.7474  0.6622 -1.4711
 2682SOL    HW219683   1.116   1.467   3.419 -0.2795  0.4158 -1.1490
 2683SOL     OW19684   0.398   3.176  10.819 -0.5497  0.0440 -0.1190
 2683SOL    HW119685   0.339   3.143  10.886 -0.7043 -0.1036 -0.3303
 2683SOL    HW219686   0.424   3.262  10.854 -0.1719  1.5565 -3.9975
 2684SOL     OW19687   4.033   2.390   1.404  0.1539  0.2703 -0.6177
 2684SOL    HW119688   4.013   2.483   1.415  1.0932  0.4427 -0.3308
 2684SOL    HW219689   4.129   2.394   1.411  0.1275 -0.7964  0.2899
 2685SOL     OW19690   2.557   0.671   5.636  0.5666 -0.1193 -0.1429
 2685SOL    HW119691   2.577   0.764   5.650  1.4100 -0.3662  0.2370
 2685SOL    HW219692   2.543   0.669   5.541  0.6514  2.8596 -0.2248
 2686SOL     OW19693   3.508   0.408   7.841  0.3375  0.1307 -0.5487
 2686SOL    HW119694   3.433   0.356   7.870  0.7715  0.7210  1.6291
 2686SOL    HW219695   3.468   0.464   7.774  1.5805  0.7830 -0.7414
 2687SOL     OW19696   3.585   2.886  14.499  0.0347 -0.0248  0.2376
 2687SOL    HW119697   3.620   2.964  14.542  1.1553  0.2785 -1.2277
 2687SOL    HW219698   3.667   2.838  14.494 -1.2491 -2.5315  2.7517
 2688SOL     OW19699   2.988   3.857   7.017  0.0569  0.0378  0.0789
 2688SOL    HW119700   3.058   3.888   6.961  1.4351 -0.4257  1.5506
 2688SOL    HW219701   2.946   3.811   6.945  2.3319 -0.5484 -0.8599
 2689SOL     OW19702   3.006   2.004   6.712 -0.1246  0.3489  0.0701
 2689SOL    HW119703   3.071   2.056   6.760  2.0925 -0.7740 -1.7119
 2689SOL    HW219704   2.969   1.949   6.781  1.4228  0.2685  0.8519
 2690SOL     OW19705   2.928   0.628   2.267  0.6146  0.4416 -0.0375
 2690SOL    HW119706   2.939   0.558   2.203 -1.3421  0.2515 -0.1536
 2690SOL    HW219707   2.968   0.705   2.226  2.9720 -0.1403  1.1332
 2691SOL     OW19708   1.117   4.140   7.363 -0.0256 -0.1700  0.1305
 2691SOL    HW119709   1.092   4.114   7.452  0.3363  0.6641  0.4758
 2691SOL    HW219710   1.079   4.227   7.353 -1.7233 -1.0140 -0.7276
 2692SOL     OW19711   1.564   1.782  11.845 -0.2044  0.0439  0.4121
 2692SOL    HW119712   1.571   1.857  11.787 -0.2262  0.0715  0.4450
 2692SOL    HW219713   1.632   1.808  11.907 -0.1593 -0.1578  0.4469
 2693SOL     OW19714   0.094   4.451   3.786  0.5930  0.3484  0.4426
 2693SOL    HW119715   0.159   4.512   3.821  0.9511  0.0851  0.2328
 2693SOL    HW219716   0.149   4.374   3.774  0.6615  0.2747  1.2249
 2694SOL     OW19717   0.288   4.347   6.381 -0.2800 -0.2754 -1.0564
 2694SOL    HW119718   0.275   4.417   6.317  1.3366  2.8083  1.9762
 2694SOL    HW219719   0.383   4.341   6.390 -0.3756 -1.5155 -0.9493
 2695SOL     OW19720   0.752   3.007   5.637 -1.0586  0.1670 -0.2340
 2695SOL    HW119721   0.674   3.024   5.585 -1.0874  1.8415  0.3810
 2695SOL    HW219722   0.821   3.018   5.571  1.5512 -0.6345  2.3723
 2696SOL     OW19723   0.423   4.664   1.980 -0.2081  0.3543 -0.0878
 2696SOL    HW119724   0.371   4.590   1.949  0.7506  0.3076 -1.6098
 2696SOL    HW219725   0.432   4.652   2.074  0.0900  0.3897 -0.1117
 2697SOL     OW19726   3.296   3.033  11.470  0.2363 -0.0074 -0.1029
 2697SOL    HW119727   3.249   3.104  11.513  0.5662  0.5243 -0.6304
 2697SOL    HW219728   3.309   3.071  11.384 -2.2636 -0.4400 -0.6717
 2698SOL     OW19729   3.048   2.910   6.941 -0.5052 -0.2766  0.2747
 2698SOL    HW119730   3.055   2.829   6.891  0.9737 -0.3799  0.6414
 2698SOL    HW219731   2.997   2.967   6.883 -1.4625 -0.2344  1.1781
 2699SOL     OW19732   3.787   2.159  17.503 -0.5972  0.3085 -0.3098
 2699SOL    HW119733   3.730   2.092  17.465 -0.9486  0.1020  0.5985
 2699SOL    HW219734   3.721   2.212  17.547  1.6840  0.5678  2.7717
 2700SOL     OW19735   3.829   2.077   4.894 -0.3754  0.5434 -0.4853
 2700SOL    HW119736   3.797   2.042   4.810 -1.4404  1.0815 -0.3011
 2700SOL    HW219737   3.872   2.158   4.867 -1.5022  1.5065  0.5753
 2701SOL     OW19738   3.127   1.078   6.445 -0.4664  0.0290  0.0391
 2701SOL    HW119739   3.106   1.005   6.503 -1.7223  0.6724  0.4122
 2701SOL    HW219740   3.076   1.059   6.367 -0.7937 -0.4513  0.3706
 2702SOL     OW19741   4.585   0.728   5.116  0.2514 -0.1178 -0.4816
 2702SOL    HW119742   4.638   0.768   5.048 -0.4325 -0.9127 -1.4816
 2702SOL    HW219743   4.605   0.774   5.198 -3.2267 -0.7500  0.7445
 2703SOL     OW19744   1.465   3.391  17.632  0.8468  0.7106 -0.3107
 2703SOL    HW119745   1.525   3.321  17.607 -0.4077 -0.7061  0.6444
 2703SOL    HW219746   1.459   3.443  17.552 -0.2344  1.4935  0.2761
 2704SOL     OW19747   4.491   1.026  13.706  0.1540  0.3297  0.1543
 2704SOL    HW119748   4.425   0.992  13.766  2.3165 -1.4448  1.5256
 2704SOL    HW219749   4.430   1.086  13.663  2.4890  0.7632 -2.5335
 2705SOL     OW19750   2.324   2.272   9.261  0.3137 -0.2040 -0.1020
 2705SOL    HW119751   2.315   2.285   9.356 -2.4470  1.0807 -0.5221
 2705SOL    HW219752   2.311   2.178   9.249 -1.9262  0.2796 -1.5416
 2706SOL     OW19753   0.948   0.392   6.125  0.1191  0.2353 -0.1158
 2706SOL    HW119754   1.001   0.469   6.147 -0.3603 -0.2683  2.8729
 2706SOL    HW219755   0.990   0.356   6.047  0.6496  0.1414  0.2121
 2707SOL     OW19756   0.829   1.558   6.376  0.1997  0.1477 -0.2233
 2707SOL    HW119757   0.923   1.575   6.380 -0.0316  0.7420  3.1148
 2707SOL    HW219758   0.793   1.639   6.342 -0.5182  0.4414  1.2302
 2708SOL     OW19759   3.248   2.611  11.434 -0.6473 -0.3748 -0.5207
 2708SOL    HW119760   3.211   2.523  11.425  1.9428 -1.4298 -0.9954
 2708SOL    HW219761   3.334   2.606  11.391 -1.2673  1.3813 -1.9699
 2709SOL     OW19762   3.185   0.088   8.283 -0.3602 -0.3816 -0.5389
 2709SOL    HW119763   3.117   0.034   8.324 -0.9941  0.7170 -0.1385
 2709SOL    HW219764   3.153   0.178   8.290 -0.2096 -0.4886  1.4693
 2710SOL     OW19765   3.231   3.956   1.345  0.0054 -0.0541 -0.6363
 2710SOL    HW119766   3.137   3.946   1.361 -0.2524  0.5771 -1.7246
 2710SOL    HW219767   3.255   3.867   1.370 -0.5552  0.8815  3.2046
 2711SOL     OW19768   2.291   1.659   5.862  0.3277  0.8311 -0.7600
 2711SOL    HW119769   2.295   1.675   5.768 -0.9973  2.1565 -0.5811
 2711SOL    HW219770   2.263   1.748   5.882 -2.5004  0.3112 -2.3950
 2712SOL     OW19771   2.518   3.809   6.726 -0.0739  0.3681  0.2346
 2712SOL    HW119772   2.612   3.815   6.711 -0.0444  2.5934  1.3061
 2712SOL    HW219773   2.506   3.859   6.807 -4.5698 -0.7417  0.2728
 2713SOL     OW19774   2.100   1.557   7.739  0.4536  0.3035 -0.0247
 2713SOL    HW119775   2.134   1.519   7.819 -1.5923  0.4139  0.8708
 2713SOL    HW219776   2.080   1.650   7.751 -2.4172 -0.5050  1.3418
 2714SOL     OW19777   1.750   1.296   3.161  0.3403  0.7953 -0.2097
 2714SOL    HW119778   1.675   1.274   3.217 -0.6500  2.9605 -0.7032
 2714SOL    HW219779   1.820   1.308   3.225 -1.1675 -1.3517  1.8531
 2715SOL     OW19780   4.029   4.008  14.051 -0.2423  0.1853  0.6016
 2715SOL    HW119781   3.957   4.030  14.110  0.3138  0.6348  1.1103
 2715SOL    HW219782   4.058   4.095  14.025  0.6530 -0.7893 -1.6627
 2716SOL     OW19783   4.685   4.118   2.887  0.0340  0.1534  0.2120
 2716SOL    HW119784   0.036   4.088   2.902 -0.6911 -0.7887  2.5879
 2716SOL    HW219785   4.651   4.156   2.968 -2.9255 -0.0340 -0.9572
 2717SOL     OW19786   0.215   3.751   2.239 -0.0394 -0.0794  0.2139
 2717SOL    HW119787   0.294   3.796   2.210  1.3965 -2.1517  0.8508
 2717SOL    HW219788   0.235   3.660   2.215  2.1470  0.4902 -0.1085
 2718SOL     OW19789   2.217   0.374  11.688 -0.0321  0.2948 -0.1448
 2718SOL    HW119790   2.186   0.460  11.660 -2.2238 -1.5070 -3.3343
 2718SOL    HW219791   2.138   0.326  11.713 -0.7479  0.1115 -2.7519
 2719SOL     OW19792   4.091   1.721  14.713 -0.0729 -0.3161 -0.1589
 2719SOL    HW119793   4.019   1.783  14.702 -0.2237  0.0222  2.6604
 2719SOL    HW219794   4.138   1.759  14.788  0.1680 -0.4512 -0.2421
 2720SOL     OW19795   3.836   4.089   5.794  0.4202 -0.2602 -0.0402
 2720SOL    HW119796   3.893   4.128   5.727  0.4759  1.1609  0.8267
 2720SOL    HW219797   3.861   4.141   5.871  0.8397  1.2490 -1.1810
 2721SOL     OW19798   2.575   3.836  14.301  0.3418 -0.3522  0.0059
 2721SOL    HW119799   2.480   3.842  14.312  0.0771 -0.4743 -2.3545
 2721SOL    HW219800   2.579   3.839  14.206  1.6285 -1.2987  0.0296
 2722SOL     OW19801   0.943   2.037   5.597  0.3484 -0.0995  0.2507
 2722SOL    HW119802   0.958   1.971   5.664  0.6062 -1.3020 -0.9790
 2722SOL    HW219803   0.869   2.001   5.549  0.5844  2.0962 -1.7693
 2723SOL     OW19804   2.858   4.697   9.546 -0.3292  0.0127  0.0762
 2723SOL    HW119805   2.936   4.731   9.501 -0.6809  0.3359 -0.2870
 2723SOL    HW219806   2.829   0.033   9.599 -1.9762 -1.3876  1.1328
 2724SOL     OW19807   3.164   0.376   4.727  0.1875  0.3172  0.1921
 2724SOL    HW119808   3.122   0.296   4.759 -0.4149  1.5751  2.5321
 2724SOL    HW219809   3.210   0.354   4.645 -0.1833 -1.0133  0.3409
 2725SOL     OW19810   3.316   1.860   8.722 -0.5911 -0.5958 -0.5633
 2725SOL    HW119811   3.354   1.827   8.640  0.5438  1.3986 -0.8356
 2725SOL    HW219812   3.297   1.776   8.764  1.2703  0.2434  1.9532
 2726SOL     OW19813   4.245   0.425   0.397 -0.0399 -0.0536  0.2276
 2726SOL    HW119814   4.169   0.390   0.350  0.0647  0.6889 -0.5127
 2726SOL    HW219815   4.238   0.515   0.363  0.3708 -0.3108 -0.5530
 2727SOL     OW19816   4.654   0.393  13.856 -0.6635 -0.1717 -0.1388
 2727SOL    HW119817   4.653   0.331  13.929  1.4483  1.3537  1.1779
 2727SOL    HW219818   4.660   0.473  13.907 -1.8293  0.3706 -0.8546
 2728SOL     OW19819   0.312   1.299   1.801  0.0793 -0.0278  0.2497
 2728SOL    HW119820   0.390   1.319   1.751  0.1418 -1.4810 -0.2398
 2728SOL    HW219821   0.243   1.290   1.735  0.4819 -1.4602  0.0296
 2729SOL     OW19822   3.790   4.460   8.706 -0.8384 -0.0483 -0.2531
 2729SOL    HW119823   3.726   4.441   8.775  1.0592 -2.7592  0.7868
 2729SOL    HW219824   3.776   4.386   8.647  2.2360 -0.0243 -1.0230
 2730SOL     OW19825   1.113   1.563  12.983  0.0187  0.2193 -0.5871
 2730SOL    HW119826   1.043   1.565  13.048  0.8313 -0.7025  0.3080
 2730SOL    HW219827   1.135   1.473  12.960  2.5314  0.4977  0.7466
 2731SOL     OW19828   1.555   1.590   3.360  0.4279 -0.3636 -0.6505
 2731SOL    HW119829   1.601   1.594   3.276  1.6658 -1.3449 -0.0132
 2731SOL    HW219830   1.604   1.519   3.401  0.3529  0.5964  1.0788
 2732SOL     OW19831   0.977   1.870   5.785  0.6222 -0.1978 -0.1336
 2732SOL    HW119832   0.946   1.779   5.795  0.2020 -0.1273 -0.8099
 2732SOL    HW219833   1.010   1.885   5.874  1.7939  0.2360 -0.6419
 2733SOL     OW19834   4.202   0.419   0.680 -0.3308 -0.4651  0.4054
 2733SOL    HW119835   4.234   0.329   0.673 -2.1571 -1.1862  1.4170
 2733SOL    HW219836   4.209   0.453   0.591 -0.4666 -2.7795 -0.5022
 2734SOL     OW19837   0.093   0.315  16.423  0.4086 -0.5613 -0.1596
 2734SOL    HW119838   0.185   0.306  16.449  1.5858  0.9706 -3.9193
 2734SOL    HW219839   0.068   0.374  16.494  1.0714 -0.6361  0.1421
 2735SOL     OW19840   2.883   0.775   7.818  0.4269  0.1203  0.0864
 2735SOL    HW119841   2.959   0.735   7.775  0.6837 -0.6585  1.2755
 2735SOL    HW219842   2.812   0.778   7.754  0.9215 -0.5564 -0.4991
 2736SOL     OW19843   3.579   2.056   1.214 -0.1032  0.6670 -0.1621
 2736SOL    HW119844   3.646   2.080   1.277  2.2202  1.4707 -2.9668
 2736SOL    HW219845   3.639   2.058   1.140 -0.5078  0.9120 -0.4891
 2737SOL     OW19846   0.612   0.504  11.259 -0.0338 -0.0651  0.1681
 2737SOL    HW119847   0.548   0.525  11.190  0.2726 -2.6352 -0.8928
 2737SOL    HW219848   0.560   0.475  11.334 -1.1135 -1.2997 -1.0402
 2738SOL     OW19849   4.393   0.731   6.760  0.8087 -0.5332  0.0978
 2738SOL    HW119850   4.363   0.650   6.718  1.8516 -0.6172 -0.4870
 2738SOL    HW219851   4.461   0.758   6.698  1.0104  2.4132  1.6445
 2739SOL     OW19852   2.199   3.948  16.389 -0.2618  0.4932  0.0971
 2739SOL    HW119853   2.183   3.886  16.461  1.1234 -1.0396 -0.9338
 2739SOL    HW219854   2.263   3.901  16.336 -0.9131 -0.2331 -0.0463
 2740SOL     OW19855   1.707   2.655  13.465 -0.3829 -0.5384 -0.2574
 2740SOL    HW119856   1.613   2.673  13.461  0.2784  3.2269  0.7870
 2740SOL    HW219857   1.740   2.744  13.461  1.7539 -1.2231  2.1165
 2741SOL     OW19858   3.687   1.151  12.737  0.0160 -0.5331 -0.2693
 2741SOL    HW119859   3.777   1.180  12.754 -0.5756  0.7699  0.6784
 2741SOL    HW219860   3.667   1.116  12.824 -0.6797 -2.0285 -1.0421
 2742SOL     OW19861   4.171   3.129   0.933  0.2053  0.3344  0.0774
 2742SOL    HW119862   4.209   3.072   1.000 -0.8597 -0.2442  0.1862
 2742SOL    HW219863   4.250   3.153   0.884  1.4277  1.4755  2.5664
 2743SOL     OW19864   1.063   3.389   6.239 -0.2593 -0.0876 -0.0168
 2743SOL    HW119865   1.001   3.381   6.167  1.9616  0.1658 -1.9272
 2743SOL    HW219866   1.096   3.479   6.235  1.9731 -0.8782  0.9612
 2744SOL     OW19867   0.505   2.436   7.358 -0.1159  0.0643 -0.4583
 2744SOL    HW119868   0.507   2.433   7.453 -0.2630 -1.2753 -0.4981
 2744SOL    HW219869   0.477   2.527   7.353  0.1842  0.2192  0.8933
 2745SOL     OW19870   1.478   1.086   9.678  0.5401  0.2264 -0.1014
 2745SOL    HW119871   1.525   1.086   9.595 -0.7854 -0.0357 -0.8651
 2745SOL    HW219872   1.545   1.091   9.746 -0.6708  0.2994  1.0937
 2746SOL     OW19873   2.477   1.376   8.012 -0.3472  0.0867 -0.7728
 2746SOL    HW119874   2.501   1.283   8.004  1.7045  0.5996 -0.3317
 2746SOL    HW219875   2.537   1.403   8.081 -1.0025  0.9305 -0.5343
 2747SOL     OW19876   0.754   4.351   4.318  0.2510 -0.3539 -0.0034
 2747SOL    HW119877   0.825   4.295   4.352  0.0421 -0.9383 -0.5162
 2747SOL    HW219878   0.787   4.363   4.229  0.2822 -2.2467 -0.2470
 2748SOL     OW19879   1.453   0.342   0.472 -0.2533  0.4192  0.4254
 2748SOL    HW119880   1.489   0.305   0.392  0.5356 -0.3218  1.1158
 2748SOL    HW219881   1.519   0.303   0.530  1.2432 -1.1812 -2.3869
 2749SOL     OW19882   3.602   1.797   1.322  0.2066  0.2617 -0.1891
 2749SOL    HW119883   3.517   1.752   1.327  0.3058  0.5312  3.8135
 2749SOL    HW219884   3.575   1.886   1.298 -0.2446 -0.6453 -2.9767
 2750SOL     OW19885   2.600   2.953   1.115  0.0812  0.0702 -0.1439
 2750SOL    HW119886   2.518   2.956   1.066  0.1876  0.4356 -0.3010
 2750SOL    HW219887   2.657   2.898   1.061  2.1869  1.1272  1.0094
 2751SOL     OW19888   3.949   2.942   4.884  0.3992  0.4411 -0.1750
 2751SOL    HW119889   3.942   2.944   4.788  1.6304 -0.3514 -0.2755
 2751SOL    HW219890   3.870   2.892   4.901  1.0460 -0.2292  0.8480
 2752SOL     OW19891   1.148   3.721  15.827 -0.2202  0.0544  0.0770
 2752SOL    HW119892   1.224   3.693  15.877  0.2417  1.0117 -0.0797
 2752SOL    HW219893   1.156   3.815  15.843  0.8834 -0.0487  0.0748
 2753SOL     OW19894   1.963   0.991  17.623 -0.1766  0.2065 -0.1648
 2753SOL    HW119895   1.874   0.982  17.586 -0.8616 -1.2774  1.8734
 2753SOL    HW219896   1.974   0.921  17.687 -0.0232 -0.5284 -0.9899
 2754SOL     OW19897   1.601   2.965   1.799 -0.8638  0.5002 -0.0111
 2754SOL    HW119898   1.556   3.017   1.733  0.9427  1.3458 -0.5664
 2754SOL    HW219899   1.691   2.958   1.768 -1.0923  0.9883 -0.7686
 2755SOL     OW19900   4.651   0.084   2.738  0.2883  0.3828  0.6129
 2755SOL    HW119901   4.593   0.010   2.758  0.9656 -0.6419 -1.2256
 2755SOL    HW219902   4.726   0.036   2.703  0.3826 -0.3919  1.8611
 2756SOL     OW19903   0.226   1.415  12.887 -0.1858 -0.6111 -0.0223
 2756SOL    HW119904   0.157   1.396  12.824 -2.5562  1.0050  2.0890
 2756SOL    HW219905   0.305   1.424  12.834 -0.1869  0.0034  0.0780
 2757SOL     OW19906   4.598   3.763  14.909  0.5180  0.2517  0.1225
 2757SOL    HW119907   4.690   3.751  14.936  0.0015 -1.6407  1.0492
 2757SOL    HW219908   4.582   3.852  14.940 -0.8593 -0.5371  1.6988
 2758SOL     OW19909   0.606   1.091   5.136  0.0267 -0.0713 -0.1409
 2758SOL    HW119910   0.532   1.031   5.137  1.0344 -1.3291  0.7030
 2758SOL    HW219911   0.591   1.137   5.219 -2.0615 -0.1970 -0.4522
 2759SOL     OW19912   1.586   2.575   7.507  0.3232  0.2505 -0.3619
 2759SOL    HW119913   1.504   2.536   7.478  0.5403  0.0043 -0.6419
 2759SOL    HW219914   1.551   2.636   7.572  1.0347  0.9805 -0.6561
 2760SOL     OW19915   3.078   2.244   7.891 -0.2053 -0.2032  0.0075
 2760SOL    HW119916   3.081   2.240   7.796  1.3972 -0.2448  0.0537
 2760SOL    HW219917   3.169   2.223   7.912 -0.4674 -1.4004 -0.0978
 2761SOL     OW19918   3.673   3.915   9.884 -0.7005 -0.4367 -0.2877
 2761SOL    HW119919   3.665   4.011   9.885 -1.2596 -0.4917  0.4754
 2761SOL    HW219920   3.627   3.899   9.803  0.4558 -1.5092 -0.7323
 2762SOL     OW19921   0.189   4.086   1.518 -0.0213  0.1501  0.7109
 2762SOL    HW119922   0.165   4.009   1.467  2.4330  0.4215 -0.8055
 2762SOL    HW219923   0.101   4.125   1.519 -0.1370 -0.1028  0.5740
 2763SOL     OW19924   1.102   0.191   6.547  0.0084  0.1919  0.1713
 2763SOL    HW119925   1.024   0.245   6.535  0.7402  1.7463  2.4623
 2763SOL    HW219926   1.057   0.113   6.513  1.2189 -0.3587 -0.1817
 2764SOL     OW19927   4.080   2.945   9.315  0.2225 -0.1120 -0.0532
 2764SOL    HW119928   4.133   2.910   9.386 -0.8984  0.6271  1.1618
 2764SOL    HW219929   4.080   3.039   9.333  2.3914 -0.5335  2.0637
 2765SOL     OW19930   1.272   2.358   6.054 -0.6420  0.2248 -0.2318
 2765SOL    HW119931   1.222   2.277   6.064  2.5401 -1.8679 -1.3395
 2765SOL    HW219932   1.193   2.408   6.035  1.4274  2.6766 -2.4891
 2766SOL     OW19933   3.857   3.575   7.983 -0.5404 -0.3162  0.1640
 2766SOL    HW119934   3.885   3.665   7.997 -3.3027  0.6916 -0.8067
 2766SOL    HW219935   3.939   3.536   8.014  0.6711  0.4785 -2.0548
 2767SOL     OW19936   0.612   3.609   4.437  0.3784 -0.0611 -0.1554
 2767SOL    HW119937   0.563   3.682   4.475  1.0187  0.3377 -0.0921
 2767SOL    HW219938   0.634   3.649   4.352 -1.0267 -0.5194 -0.7414
 2768SOL     OW19939   0.030   0.177   7.154  0.1214 -0.1201  0.3292
 2768SOL    HW119940   0.005   0.194   7.063 -3.3716 -0.1660  1.2863
 2768SOL    HW219941   0.061   0.087   7.147 -2.6755 -1.1138  0.5642
 2769SOL     OW19942   3.962   0.146  11.106 -0.4438 -0.2719  0.3534
 2769SOL    HW119943   3.899   0.197  11.157 -1.8269 -0.9680 -0.6823
 2769SOL    HW219944   3.954   0.192  11.022  0.7607 -0.1649  0.2909
 2770SOL     OW19945   3.256   3.737   4.531  0.7668 -0.0789 -0.1819
 2770SOL    HW119946   3.235   3.666   4.470  0.1167  0.1897 -0.2693
 2770SOL    HW219947   3.291   3.805   4.474 -1.6176  0.9828 -0.3689
 2771SOL     OW19948   2.053   0.378  13.707 -0.0444 -0.0570 -0.5290
 2771SOL    HW119949   2.103   0.451  13.669  0.7171  0.2779  1.1098
 2771SOL    HW219950   1.971   0.375  13.659 -1.4940 -0.4486  2.0197
 2772SOL     OW19951   1.504   3.576   9.543  0.0198 -0.5771 -0.0012
 2772SOL    HW119952   1.432   3.603   9.600  1.0065  1.0625  0.4671
 2772SOL    HW219953   1.572   3.578   9.610 -1.6241  2.0810  1.5949
 2773SOL     OW19954   1.738   2.695   1.088 -0.0807  0.0382 -0.3807
 2773SOL    HW119955   1.777   2.675   1.003 -0.1045 -2.8838  0.2996
 2773SOL    HW219956   1.686   2.616   1.105 -1.2381  0.4218 -2.1436
 2774SOL     OW19957   1.775   1.639  14.746  0.2295  0.7670  0.5785
 2774SOL    HW119958   1.865   1.669  14.758  2.0785 -3.8101 -1.4885
 2774SOL    HW219959   1.744   1.661  14.833  0.1837  0.6136  0.6009
 2775SOL     OW19960   2.605   0.668   7.732 -0.2760  0.0710 -0.1175
 2775SOL    HW119961   2.535   0.721   7.694 -1.6811 -3.6526 -2.6383
 2775SOL    HW219962   2.586   0.670   7.826 -3.4616  0.3015 -0.7653
 2776SOL     OW19963   2.077   4.610   0.069  0.1984 -0.2320  0.1766
 2776SOL    HW119964   2.073   4.532   0.124  1.7684  0.4246  1.2428
 2776SOL    HW219965   1.993   4.606   0.024  0.7584  0.5575 -0.9580
 2777SOL     OW19966   0.537   4.226  10.865  0.1541  0.2929 -0.0719
 2777SOL    HW119967   0.475   4.284  10.910 -0.7168  0.5669 -1.6218
 2777SOL    HW219968   0.615   4.253  10.914  0.8912 -0.6366 -0.7442
 2778SOL     OW19969   0.832   2.793   3.634  0.3790 -0.0430  0.4440
 2778SOL    HW119970   0.796   2.755   3.554 -0.2689  3.1583 -0.7933
 2778SOL    HW219971   0.921   2.800   3.602  0.5537 -1.6591  0.5907
 2779SOL     OW19972   1.718   3.017   0.501 -0.0574  0.3446 -0.6448
 2779SOL    HW119973   1.760   2.937   0.468 -1.3617 -1.0003  0.9725
 2779SOL    HW219974   1.743   3.087   0.440 -0.3883  0.1327 -1.0275
 2780SOL     OW19975   2.960   4.077  10.447  0.2350 -0.7050 -0.5874
 2780SOL    HW119976   3.014   4.129  10.388  0.9035 -0.2307  0.4519
 2780SOL    HW219977   3.011   4.077  10.528  1.0402  1.3906 -1.1137
 2781SOL     OW19978   1.757   4.092  13.825 -0.1807  0.0553  0.0295
 2781SOL    HW119979   1.770   4.052  13.911  0.9238 -0.4582 -0.3699
 2781SOL    HW219980   1.685   4.041  13.789 -0.1001  2.2205 -3.1894
 2782SOL     OW19981   0.590   3.292   5.702 -0.4142 -0.0360 -0.5346
 2782SOL    HW119982   0.672   3.253   5.669 -0.9710  0.7604 -2.8727
 2782SOL    HW219983   0.555   3.324   5.619  0.2007 -0.4886 -0.9711
 2783SOL     OW19984   3.566   2.010   9.657  0.0907 -0.1075  0.1784
 2783SOL    HW119985   3.504   2.063   9.607  1.9629  1.6593 -0.2869
 2783SOL    HW219986   3.520   1.927   9.647  0.3440 -0.2369  0.0701
 2784SOL     OW19987   3.070   4.418   9.178 -0.2385 -0.0549 -0.3032
 2784SOL    HW119988   3.045   4.421   9.086 -1.3594 -0.9840 -0.0383
 2784SOL    HW219989   3.030   4.334   9.201  0.0211 -0.3278 -0.8505
 2785SOL     OW19990   2.336   2.997   6.509  0.3746  0.2094  0.4924
 2785SOL    HW119991   2.371   2.993   6.598 -0.4283  1.0483  0.8596
 2785SOL    HW219992   2.242   3.000   6.530 -0.5646 -2.0888 -3.2702
 2786SOL     OW19993   0.296   2.981   5.285  0.9437  0.0305 -0.0707
 2786SOL    HW119994   0.230   2.989   5.355  0.0995 -0.3303 -0.8263
 2786SOL    HW219995   0.267   2.893   5.259  0.4438 -0.0705  0.8019
 2787SOL     OW19996   2.867   2.934   4.368 -0.2441  0.0786 -0.5948
 2787SOL    HW119997   2.908   2.871   4.427  0.3972  0.8471 -0.2210
 2787SOL    HW219998   2.935   2.939   4.301 -0.2130  0.0229 -0.5679
 2788SOL     OW19999   1.247   0.672   1.296 -0.0235 -0.5760 -0.0853
 2788SOL    HW120000   1.188   0.680   1.371 -0.0203  0.3420 -0.1797
 2788SOL    HW220001   1.304   0.606   1.335 -0.7189 -1.5089 -0.6606
 2789SOL     OW20002   0.644   0.618   5.879  0.4636  0.0373 -0.6024
 2789SOL    HW120003   0.656   0.543   5.937  0.8402  0.1054 -0.5956
 2789SOL    HW220004   0.728   0.663   5.879  0.7158 -0.4404 -0.2188
 2790SOL     OW20005   3.854   2.508  10.717  0.4735 -0.2755 -0.1093
 2790SOL    HW120006   3.816   2.421  10.705 -3.0394  1.1329  1.0203
 2790SOL    HW220007   3.894   2.533  10.634 -2.2341 -1.8434 -1.8792
 2791SOL     OW20008   2.567   2.847   2.625  0.6024 -0.5337 -0.1368
 2791SOL    HW120009   2.623   2.912   2.669 -0.3150 -1.0039  1.7149
 2791SOL    HW220010   2.601   2.854   2.536  0.6015  0.9834 -0.0260
 2792SOL     OW20011   1.629   0.195   8.092 -0.0088 -0.5553 -0.1309
 2792SOL    HW120012   1.609   0.170   8.182 -1.2373  1.9453  0.2827
 2792SOL    HW220013   1.692   0.126   8.070  0.3598 -0.1447 -0.3418
 2793SOL     OW20014   1.104   4.529  14.588  0.0715  0.4468  0.0744
 2793SOL    HW120015   1.042   4.509  14.518 -0.4991  2.8963 -0.1293
 2793SOL    HW220016   1.181   4.484  14.554 -1.2432 -0.6040 -1.4785
 2794SOL     OW20017   4.040   3.731  16.636  0.4522  0.1574 -0.2595
 2794SOL    HW120018   3.950   3.717  16.606  0.7496  1.0081 -1.5504
 2794SOL    HW220019   4.033   3.817  16.676 -2.8520  0.0573 -0.6933
 2795SOL     OW20020   3.612   4.439   8.480 -0.3350  0.2566  0.2763
 2795SOL    HW120021   3.521   4.421   8.455  0.0406 -3.5697  1.7263
 2795SOL    HW220022   3.602   4.488   8.562  1.6529  2.0806 -0.5646
 2796SOL     OW20023   4.437   3.418   5.327  0.5511  0.0410  0.3356
 2796SOL    HW120024   4.398   3.504   5.340 -0.0833 -0.1730 -0.1663
 2796SOL    HW220025   4.513   3.430   5.270  1.2891 -0.0405  1.3070
 2797SOL     OW20026   3.515   1.858   2.020  0.3053  0.1759 -0.1902
 2797SOL    HW120027   3.446   1.851   2.086  1.9602 -2.1132  1.2873
 2797SOL    HW220028   3.464   1.902   1.952  0.0820 -0.4422 -0.4258
 2798SOL     OW20029   1.206   2.377  10.682  0.3843  0.1786  0.2516
 2798SOL    HW120030   1.211   2.292  10.726 -0.1958 -0.8377 -1.6453
 2798SOL    HW220031   1.144   2.416  10.743 -1.1418 -0.6815 -0.7510
 2799SOL     OW20032   0.455   1.807  16.307 -0.0424 -0.3294 -0.2259
 2799SOL    HW120033   0.454   1.722  16.350 -0.1963  1.4828  3.3375
 2799SOL    HW220034   0.537   1.849  16.334 -0.9483  0.7922  0.7914
 2800SOL     OW20035   3.616   1.894  10.186  0.0794 -0.4026 -0.7298
 2800SOL    HW120036   3.559   1.931  10.118 -0.5783  0.0693  0.0797
 2800SOL    HW220037   3.696   1.924  10.143 -0.4680  2.0974  0.0403
 2801SOL     OW20038   3.715   0.220  11.223  0.1048 -0.7666 -0.3893
 2801SOL    HW120039   3.681   0.220  11.313  2.6862  2.3056  0.5882
 2801SOL    HW220040   3.660   0.284  11.178  1.1712 -0.8945 -1.8649
 2802SOL     OW20041   1.148   3.668  12.609  0.2261 -0.1777 -0.3441
 2802SOL    HW120042   1.054   3.686  12.598  0.2128  0.0894  0.1923
 2802SOL    HW220043   1.186   3.720  12.539  1.2107 -2.5150 -1.5353
 2803SOL     OW20044   4.596   2.953   3.617  0.7187  0.5340  0.8365
 2803SOL    HW120045   4.526   2.915   3.670  0.8359 -3.3947 -1.8039
 2803SOL    HW220046   4.632   3.021   3.674  1.7379  1.7922 -1.3141
 2804SOL     OW20047   0.762   2.201   3.171  0.8325 -0.2096  0.3750
 2804SOL    HW120048   0.796   2.122   3.129  2.7804  0.6523  0.3115
 2804SOL    HW220049   0.775   2.163   3.258 -0.8238  0.1830  0.7802
 2805SOL     OW20050   4.516   2.500   1.925 -0.3583 -0.0211  0.5012
 2805SOL    HW120051   4.520   2.440   1.850 -0.2972  1.1858 -0.4585
 2805SOL    HW220052   4.445   2.559   1.898 -0.2242  0.0697  0.3447
 2806SOL     OW20053   3.199   3.875  14.265 -0.7018 -0.5533 -0.3284
 2806SOL    HW120054   3.275   3.850  14.212 -0.4266 -0.9534  0.2644
 2806SOL    HW220055   3.137   3.809  14.236 -0.0028 -0.9575 -0.9204
 2807SOL     OW20056   1.026   1.061  17.343 -0.6238  0.0255  0.6150
 2807SOL    HW120057   1.073   1.038  17.423 -2.8277  2.2493  2.5600
 2807SOL    HW220058   1.093   1.098  17.285 -1.4266 -1.7648 -1.4904
 2808SOL     OW20059   0.915   0.110   0.647 -0.4723 -0.5485 -0.0457
 2808SOL    HW120060   0.877   0.196   0.661  0.2578 -0.6427  2.4412
 2808SOL    HW220061   0.943   0.110   0.555  2.6475 -1.1590  0.8970
 2809SOL     OW20062   2.595   3.720   5.091 -0.1265  0.0068 -0.4525
 2809SOL    HW120063   2.573   3.635   5.055 -1.0599 -0.2315  0.6617
 2809SOL    HW220064   2.525   3.725   5.156  0.3752 -1.9001  0.2211
 2810SOL     OW20065   3.749   1.727  13.523  0.0463  0.1497  0.3465
 2810SOL    HW120066   3.785   1.788  13.460 -1.6050  1.6630  0.8622
 2810SOL    HW220067   3.755   1.786  13.599 -0.5069  0.2551  0.3105
 2811SOL     OW20068   2.489   2.085   6.684 -0.1945  0.6176  0.1629
 2811SOL    HW120069   2.498   2.068   6.591 -2.2721 -2.0645  0.4636
 2811SOL    HW220070   2.479   1.994   6.711 -1.7333  0.3558 -1.3459
 2812SOL     OW20071   0.115   1.337   3.087 -0.6402 -0.2879 -0.2552
 2812SOL    HW120072   0.205   1.315   3.109 -0.4750  0.0510 -0.5903
 2812SOL    HW220073   0.088   1.416   3.133  0.8499  0.5430 -0.7838
 2813SOL     OW20074   1.995   4.185   5.972  0.0508  0.0944  0.0627
 2813SOL    HW120075   2.033   4.167   6.058  0.6861 -0.4661 -0.3405
 2813SOL    HW220076   2.031   4.118   5.913  0.8755 -2.0449  3.0021
 2814SOL     OW20077   0.683   0.293   0.725  0.2316  0.1042 -0.0990
 2814SOL    HW120078   0.686   0.351   0.648  3.2125  0.7809  0.5379
 2814SOL    HW220079   0.704   0.350   0.798 -0.3118  1.5623 -1.0711
 2815SOL     OW20080   2.954   4.139   5.891 -0.3333  0.0337 -0.6898
 2815SOL    HW120081   3.000   4.127   5.808 -1.2729 -2.4692 -0.8691
 2815SOL    HW220082   2.863   4.127   5.863 -0.5985  0.3328  0.0526
 2816SOL     OW20083   4.014   0.678   5.095 -0.1946 -0.0737 -0.1644
 2816SOL    HW120084   3.996   0.677   5.189  2.1210  2.3454  0.2851
 2816SOL    HW220085   4.106   0.653   5.098 -0.4774 -1.2936 -1.3170
 2817SOL     OW20086   3.158   4.143   8.448  0.4812  0.1744 -0.6261
 2817SOL    HW120087   3.084   4.171   8.395  0.6627  1.3905 -0.2358
 2817SOL    HW220088   3.138   4.049   8.450  0.6331  0.1356 -0.9280
 2818SOL     OW20089   1.271   2.504   3.990  1.1194  0.1419 -0.1635
 2818SOL    HW120090   1.350   2.471   4.034  0.7453 -2.4762 -1.4414
 2818SOL    HW220091   1.302   2.587   3.954 -1.0958  1.0707  0.0656
 2819SOL     OW20092   1.596   0.957   1.131 -0.1069  0.1996  0.1757
 2819SOL    HW120093   1.649   0.888   1.170 -1.8342  0.2309  2.5543
 2819SOL    HW220094   1.525   0.960   1.195 -0.2416 -0.5556  0.0618
 2820SOL     OW20095   1.561   2.244   1.968  0.0868  0.6548  0.1175
 2820SOL    HW120096   1.484   2.223   1.916 -0.8102 -0.6768  1.9500
 2820SOL    HW220097   1.608   2.305   1.911  0.2756 -0.5393 -0.9786
 2821SOL     OW20098   0.868   2.491  17.087 -0.6510  0.1637 -0.0178
 2821SOL    HW120099   0.882   2.562  17.025  3.8072  0.2101  1.0671
 2821SOL    HW220100   0.857   2.420  17.024 -1.1256 -0.2453  0.5246
 2822SOL     OW20101   0.568   3.216   3.521 -0.2764 -0.0703 -0.9540
 2822SOL    HW120102   0.637   3.211   3.455 -0.3360 -2.1551 -0.8610
 2822SOL    HW220103   0.542   3.124   3.526  1.1683 -0.4897 -1.4081
 2823SOL     OW20104   1.243   1.570   7.844 -0.0739 -0.6053 -0.0385
 2823SOL    HW120105   1.317   1.551   7.902  0.3650  0.6743 -0.1837
 2823SOL    HW220106   1.188   1.614   7.909  0.0245 -0.0506 -0.3358
 2824SOL     OW20107   4.351   0.251   3.684  0.3266 -0.1582  0.3352
 2824SOL    HW120108   4.315   0.307   3.753 -0.6928 -0.1875 -0.1768
 2824SOL    HW220109   4.318   0.298   3.607 -0.7679 -1.2140  0.1659
 2825SOL     OW20110   1.048   3.582   4.345 -0.2684  0.0502  0.2516
 2825SOL    HW120111   1.093   3.582   4.429 -1.8454 -1.2039  1.0948
 2825SOL    HW220112   0.981   3.514   4.358  0.4511 -0.6679  0.2099
 2826SOL     OW20113   1.103   4.370   6.584 -0.4390 -0.5901  0.1016
 2826SOL    HW120114   1.160   4.423   6.527 -1.0851  0.3650  0.3447
 2826SOL    HW220115   1.073   4.432   6.650 -2.1765 -0.5876 -0.6792
 2827SOL     OW20116   0.078   2.233   7.640 -0.0181  0.3067 -0.4381
 2827SOL    HW120117   4.732   2.252   7.600 -0.2762 -1.3579 -0.7197
 2827SOL    HW220118   0.129   2.217   7.560 -0.9613 -1.1117 -0.7730
 2828SOL     OW20119   1.300   1.897   9.685 -0.7053 -0.6787 -0.3557
 2828SOL    HW120120   1.222   1.847   9.713 -2.7566  1.4693 -2.2345
 2828SOL    HW220121   1.256   1.953   9.621  1.2371  0.8842 -0.3084
 2829SOL     OW20122   1.129   3.282   6.849  0.1693 -0.2962 -0.3576
 2829SOL    HW120123   1.036   3.290   6.830  0.6363  1.0693 -2.0415
 2829SOL    HW220124   1.163   3.333   6.775  0.7734 -1.3451 -0.7998
 2830SOL     OW20125   2.587   0.781  13.133  0.2600  0.4377 -0.2722
 2830SOL    HW120126   2.603   0.813  13.044  0.5000  1.6602  0.2197
 2830SOL    HW220127   2.582   0.687  13.113 -1.7509  0.3261  0.7377
 2831SOL     OW20128   0.438   4.008  10.120 -0.3524  0.0134  0.9147
 2831SOL    HW120129   0.354   3.984  10.080 -0.0130  2.5738 -1.3440
 2831SOL    HW220130   0.426   3.972  10.208  1.9739 -2.5691  0.1400
 2832SOL     OW20131   1.333   0.643   2.583  0.3843  0.4796 -0.2544
 2832SOL    HW120132   1.369   0.726   2.553  0.8944  2.0362  4.6816
 2832SOL    HW220133   1.307   0.612   2.497  5.3333 -1.5574 -1.0012
 2833SOL     OW20134   1.253   2.832   2.826 -0.0295 -0.4795  0.3025
 2833SOL    HW120135   1.251   2.900   2.893  0.8922  0.8518 -1.0133
 2833SOL    HW220136   1.280   2.756   2.877  0.5012 -0.4035  0.1322
 2834SOL     OW20137   0.492   3.369   7.730 -0.7820  0.1219  0.2727
 2834SOL    HW120138   0.505   3.315   7.652  1.3541  0.8685  0.1194
 2834SOL    HW220139   0.467   3.303   7.795  3.2286  0.9790  2.7100
 2835SOL     OW20140   3.802   1.681   9.575  0.1090  0.1762  0.0090
 2835SOL    HW120141   3.872   1.732   9.535  0.7040 -1.6573 -1.2589
 2835SOL    HW220142   3.771   1.743   9.641 -1.4958  1.4339 -1.9207
 2836SOL     OW20143   2.768   2.896  13.091  0.3007  0.4409  0.0932
 2836SOL    HW120144   2.712   2.962  13.051 -0.8670  0.6359  2.0599
 2836SOL    HW220145   2.765   2.918  13.184  2.0583  1.3906 -0.0745
 2837SOL     OW20146   1.457   1.443   8.753  0.3992  1.0175 -0.0717
 2837SOL    HW120147   1.548   1.453   8.725  0.0541  1.9254 -0.8648
 2837SOL    HW220148   1.455   1.494   8.834 -1.1616  0.1120  0.4504
 2838SOL     OW20149   0.844   2.172   0.749 -0.3961 -0.5156 -0.9163
 2838SOL    HW120150   0.932   2.135   0.757 -0.9512 -1.0852  2.4069
 2838SOL    HW220151   0.809   2.140   0.832  0.5282 -0.6673 -0.5809
 2839SOL     OW20152   2.351   3.895   8.902 -0.5318 -0.0774  0.6560
 2839SOL    HW120153   2.302   3.903   8.983 -1.2833  1.1661  0.0771
 2839SOL    HW220154   2.329   3.806   8.875  1.4967  0.4778 -2.9514
 2840SOL     OW20155   0.175   3.804   6.332  0.4542  0.0378 -0.0481
 2840SOL    HW120156   0.149   3.867   6.399 -2.4145 -2.4132  1.1338
 2840SOL    HW220157   0.187   3.869   6.262  0.2768 -0.3288 -0.4209
 2841SOL     OW20158   2.178   3.357   5.144 -0.6564  0.3308 -0.8338
 2841SOL    HW120159   2.098   3.305   5.141  0.2469 -1.2894  2.6947
 2841SOL    HW220160   2.167   3.431   5.084 -0.1496  0.6857 -0.4916
 2842SOL     OW20161   0.166   3.898   7.482 -0.4839 -0.0699  0.2722
 2842SOL    HW120162   0.182   3.813   7.442  2.3155  1.4889 -1.8878
 2842SOL    HW220163   0.254   3.910   7.518 -0.9973 -1.2720  1.9312
 2843SOL     OW20164   4.116   2.812   4.464 -0.1999 -0.1452  0.1339
 2843SOL    HW120165   4.172   2.761   4.405  0.7776  1.9387 -0.7167
 2843SOL    HW220166   4.052   2.746   4.492 -1.0539 -0.0864 -1.6513
 2844SOL     OW20167   0.484   3.982   7.817  0.0436  0.7109 -0.4320
 2844SOL    HW120168   0.388   3.976   7.820  0.1335 -1.4346 -1.2457
 2844SOL    HW220169   0.492   4.013   7.906 -0.0596 -0.4666 -0.0092
 2845SOL     OW20170   0.787   4.446   5.380  0.3060  0.3189 -0.8166
 2845SOL    HW120171   0.790   4.535   5.413 -2.4966 -0.7794  2.3410
 2845SOL    HW220172   0.696   4.434   5.353 -0.3715  0.6092  1.3530
 2846SOL     OW20173   1.997   0.913   3.302 -0.0977  0.6539 -0.2104
 2846SOL    HW120174   2.042   0.855   3.240 -0.9490 -0.7501  0.4577
 2846SOL    HW220175   2.015   0.871   3.387 -1.2286 -0.6000 -0.5902
 2847SOL     OW20176   4.017   3.067   2.030 -0.4243 -0.1401 -0.3069
 2847SOL    HW120177   4.049   3.006   2.097  0.3977  0.7640  0.1342
 2847SOL    HW220178   4.099   3.111   2.007 -0.3208 -0.7714 -1.1207
 2848SOL     OW20179   0.810   1.975  15.016 -0.0079 -0.2478  0.2122
 2848SOL    HW120180   0.727   1.937  15.043 -0.2322 -1.3372 -1.9890
 2848SOL    HW220181   0.781   2.027  14.941 -0.7070 -0.1982  0.5172
 2849SOL     OW20182   0.386   0.150   1.854  0.0160 -0.1760 -0.2470
 2849SOL    HW120183   0.388   0.056   1.868 -1.2399  0.1317  2.0906
 2849SOL    HW220184   0.322   0.181   1.919  1.3544 -0.9451  1.4239
 2850SOL     OW20185   3.967   4.564  17.232  0.1245  0.1486  0.6334
 2850SOL    HW120186   3.967   4.488  17.175 -1.7108 -0.0918  0.9397
 2850SOL    HW220187   3.874   4.587  17.242  0.5684  2.3480 -0.1527
 2851SOL     OW20188   0.589   2.165  13.281  0.3167  0.2372  0.6589
 2851SOL    HW120189   0.574   2.236  13.343 -3.1468 -1.3514  1.6343
 2851SOL    HW220190   0.680   2.181  13.255  0.5903 -0.1146  1.4018
 2852SOL     OW20191   2.962   2.396   5.430 -0.6281 -0.6377 -0.4207
 2852SOL    HW120192   2.990   2.487   5.425  1.0648 -1.1351 -0.0818
 2852SOL    HW220193   2.886   2.405   5.488 -1.6255 -0.7496 -1.7087
 2853SOL     OW20194   2.573   3.548   6.600  0.3062 -0.0743 -0.1863
 2853SOL    HW120195   2.522   3.627   6.618 -2.9329 -1.7928 -1.8610
 2853SOL    HW220196   2.573   3.531   6.694  1.2845 -1.0040 -0.3663
 2854SOL     OW20197   0.216   3.958   2.906  0.6317  0.3443  0.1041
 2854SOL    HW120198   0.220   3.863   2.921 -0.9271  0.2272 -0.2505
 2854SOL    HW220199   0.257   3.971   2.821 -1.4665  0.2749 -0.9109
 2855SOL     OW20200   0.533   1.839  10.965  0.1329  0.1710  0.0478
 2855SOL    HW120201   0.522   1.779  11.039  0.7210 -1.1475 -0.9191
 2855SOL    HW220202   0.487   1.787  10.898  0.4129  1.9490 -1.5395
 2856SOL     OW20203   4.581   2.352   2.140 -0.0397 -0.0248  0.2283
 2856SOL    HW120204   4.593   2.430   2.086  0.7830  0.6085  1.3170
 2856SOL    HW220205   4.511   2.308   2.093  0.3694 -0.2380 -0.1847
 2857SOL     OW20206   3.098   0.424   7.547 -0.3714  0.1218  0.1806
 2857SOL    HW120207   3.032   0.444   7.613 -3.6408  0.5048 -3.2401
 2857SOL    HW220208   3.090   0.484   7.473 -1.2250 -2.6848 -2.0023
 2858SOL     OW20209   3.589   3.822   5.823  0.3487 -0.6189 -0.2050
 2858SOL    HW120210   3.593   3.737   5.867 -0.6799  0.6908  2.4492
 2858SOL    HW220211   3.606   3.888   5.891 -0.9799  0.3616 -0.8235
 2859SOL     OW20212   1.621   3.776  12.411  0.2964  0.4816 -0.3531
 2859SOL    HW120213   1.559   3.710  12.379  1.2879  0.1062 -1.4949
 2859SOL    HW220214   1.559   3.836  12.451  1.0950  1.4891 -0.6388
 2860SOL     OW20215   4.425   0.608   5.329 -0.1914  0.6170 -0.5741
 2860SOL    HW120216   4.381   0.631   5.247  0.3098  0.2997 -0.9371
 2860SOL    HW220217   4.509   0.653   5.318  0.4635 -0.2839  0.7086
 2861SOL     OW20218   3.229   2.351   1.976  0.4193  0.9181  0.0763
 2861SOL    HW120219   3.144   2.360   2.019  1.0429 -0.0228  1.4866
 2861SOL    HW220220   3.201   2.375   1.887 -0.3414  0.0989  0.0922
 2862SOL     OW20221   1.323   1.942   8.771 -0.2340 -0.0255 -0.3207
 2862SOL    HW120222   1.300   1.850   8.786  0.2887 -0.2359 -0.8106
 2862SOL    HW220223   1.237   1.983   8.772 -1.0918 -1.8780  2.2394
 2863SOL     OW20224   2.887   1.891   3.172  0.0733  0.2845 -0.0770
 2863SOL    HW120225   2.880   1.982   3.201  0.5610  0.3500 -0.1581
 2863SOL    HW220226   2.943   1.857   3.242  0.7718  2.6384  0.5321
 2864SOL     OW20227   2.192   2.552  17.658  0.2201  0.5619 -0.2207
 2864SOL    HW120228   2.204   2.485  17.725 -1.6640 -0.3886 -0.8092
 2864SOL    HW220229   2.181   2.491  17.585  1.1589  2.2550 -1.7992
 2865SOL     OW20230   2.579   3.457   3.736  0.2625  0.4693  0.0181
 2865SOL    HW120231   2.624   3.409   3.806 -2.0924  0.4591  1.5170
 2865SOL    HW220232   2.645   3.462   3.666 -0.0817 -2.3072 -0.4867
 2866SOL     OW20233   3.825   0.084   6.771 -0.0469 -0.1498  0.3700
 2866SOL    HW120234   3.898   0.056   6.714 -0.0302 -0.4325  0.5294
 2866SOL    HW220235   3.787   4.738   6.797  1.6023 -0.8726  0.4564
 2867SOL     OW20236   1.291   1.647   6.026  0.2035 -0.7523  0.0323
 2867SOL    HW120237   1.371   1.595   6.017  1.6969  1.1125  2.3931
 2867SOL    HW220238   1.222   1.581   6.027  0.3124 -0.8490  1.4856
 2868SOL     OW20239   0.540   2.744   1.953  0.0537  0.0388 -0.3304
 2868SOL    HW120240   0.589   2.682   2.008 -1.7566 -1.2228 -0.1662
 2868SOL    HW220241   0.600   2.733   1.879  0.3476  1.7571 -0.3557
 2869SOL     OW20242   3.718   1.856   7.520 -0.2056 -0.2388  0.1144
 2869SOL    HW120243   3.645   1.904   7.482 -1.3481  0.3248  3.0055
 2869SOL    HW220244   3.725   1.883   7.611  0.9080  0.5658 -0.2079
 2870SOL     OW20245   4.039   4.415   5.397 -0.1125  0.4670  0.0715
 2870SOL    HW120246   4.020   4.466   5.475  1.5888 -2.6669  2.5528
 2870SOL    HW220247   3.988   4.468   5.336 -1.0994 -0.8443 -0.2563
 2871SOL     OW20248   3.851   3.180   4.033 -0.1041  0.0580  0.4019
 2871SOL    HW120249   3.806   3.234   4.099 -3.0611 -1.2142 -0.5420
 2871SOL    HW220250   3.942   3.164   4.058  0.1490 -1.4315 -1.5480
 2872SOL     OW20251   0.767   1.536   3.462  0.0880  0.5976 -0.1511
 2872SOL    HW120252   0.674   1.511   3.459 -0.2680  2.0749 -0.8446
 2872SOL    HW220253   0.786   1.568   3.374 -0.8393  1.2221 -0.1188
 2873SOL     OW20254   4.387   1.251   6.344  0.6937  0.3188 -0.0408
 2873SOL    HW120255   4.316   1.299   6.387  1.5578  0.6126  1.0575
 2873SOL    HW220256   4.411   1.318   6.280 -0.3540 -0.3440 -1.1331
 2874SOL     OW20257   0.771   2.420   9.637  0.3327 -0.4486 -0.0596
 2874SOL    HW120258   0.781   2.332   9.602  1.9427 -0.2759 -0.0420
 2874SOL    HW220259   0.773   2.402   9.731 -2.6096  0.3841  0.1490
 2875SOL     OW20260   0.392   3.836   3.295  0.0748  0.1681  0.4073
 2875SOL    HW120261   0.463   3.844   3.231  0.1092  2.0557  0.6684
 2875SOL    HW220262   0.335   3.913   3.289  0.4420  0.1169 -4.1800
 2876SOL     OW20263   0.593   0.597   2.656  0.2526  0.0369  0.0106
 2876SOL    HW120264   0.639   0.663   2.604 -0.2304  1.3833  1.2966
 2876SOL    HW220265   0.579   0.529   2.590 -0.4805  2.1119 -1.9583
 2877SOL     OW20266   3.266   3.582  13.940  0.0658 -0.2014  0.0584
 2877SOL    HW120267   3.341   3.555  13.992 -0.2633 -0.9815  0.1271
 2877SOL    HW220268   3.209   3.624  14.005 -1.2490  1.2861 -2.0382
 2878SOL     OW20269   4.686   2.934   8.495 -0.5793  0.0914 -0.5756
 2878SOL    HW120270   4.723   2.990   8.427  0.0945 -0.0889 -0.3588
 2878SOL    HW220271   4.593   2.921   8.473 -0.0873 -2.3464 -1.2644
 2879SOL     OW20272   0.027   2.727   7.918  0.1371  0.4528  0.3196
 2879SOL    HW120273   4.729   2.642   7.893  2.7644  0.5554 -3.8190
 2879SOL    HW220274   4.704   2.785   7.873 -0.8901  0.7164  2.0738
 2880SOL     OW20275   3.779   4.197   6.519 -0.7694 -0.6511 -0.5113
 2880SOL    HW120276   3.777   4.261   6.448 -1.2718  1.3989  1.3171
 2880SOL    HW220277   3.689   4.206   6.551 -0.9508 -0.1550 -1.1748
 2881SOL     OW20278   0.160   3.618   1.793 -0.1358 -0.6639  0.3849
 2881SOL    HW120279   0.215   3.561   1.739  0.8484  1.2252 -0.5700
 2881SOL    HW220280   0.109   3.671   1.732  2.1023  2.1570  1.0117
 2882SOL     OW20281   0.090   4.370  13.012  0.0902 -0.7720  0.1123
 2882SOL    HW120282   0.168   4.315  13.008  0.9326  0.6306 -2.2416
 2882SOL    HW220283   0.117   4.462  13.007 -0.1486 -0.8857 -3.0411
 2883SOL     OW20284   4.637   3.277   8.929  0.1531 -0.2972 -0.2688
 2883SOL    HW120285   4.584   3.243   9.001 -0.3656 -1.3699 -1.1446
 2883SOL    HW220286   4.623   3.201   8.872  0.6914 -0.8217  0.2886
 2884SOL     OW20287   1.453   2.138   7.651 -0.2414 -0.1205  0.5716
 2884SOL    HW120288   1.543   2.107   7.662  0.1945  0.6637 -0.7844
 2884SOL    HW220289   1.447   2.138   7.555 -1.6432 -1.3597  0.6504
 2885SOL     OW20290   1.355   2.180   9.561 -0.2011 -0.2574  0.3178
 2885SOL    HW120291   1.281   2.237   9.580  0.6389  0.2120  2.2089
 2885SOL    HW220292   1.353   2.173   9.465  2.0541  3.3914  0.0270
 2886SOL     OW20293   3.420   1.016   2.014 -0.6192 -0.3829 -0.5578
 2886SOL    HW120294   3.482   1.030   1.943  0.1309  0.4439  0.2675
 2886SOL    HW220295   3.382   1.102   2.026  0.8987  0.6120 -2.8191
 2887SOL     OW20296   0.591   0.372   5.996  0.0493 -0.1829  0.1441
 2887SOL    HW120297   0.628   0.301   6.047  0.3221 -2.3712 -3.0798
 2887SOL    HW220298   0.500   0.342   5.991 -0.3527  0.8505  1.1587
 2888SOL     OW20299   1.016   4.222  16.506  0.0802  0.0342 -0.1687
 2888SOL    HW120300   1.020   4.130  16.480 -0.9838 -0.3017  0.8637
 2888SOL    HW220301   0.944   4.232  16.569  1.5406  2.3997  1.1203
 2889SOL     OW20302   4.011   4.355   9.105 -0.0941 -0.0830  0.3565
 2889SOL    HW120303   3.915   4.361   9.104 -0.2356 -2.1757  1.8524
 2889SOL    HW220304   4.030   4.440   9.066 -0.1094 -0.2607 -0.0379
 2890SOL     OW20305   1.107   4.369   8.223  0.2938  0.2018 -0.1962
 2890SOL    HW120306   1.163   4.360   8.146 -0.0426 -0.8375 -0.3121
 2890SOL    HW220307   1.101   4.284   8.265 -1.5085  1.0871  1.3527
 2891SOL     OW20308   1.878   3.026   8.794 -0.2021  0.0195 -0.3762
 2891SOL    HW120309   1.888   2.977   8.875  2.4919  0.5434 -0.4144
 2891SOL    HW220310   1.839   2.972   8.725  0.6517 -2.5699  1.1974
 2892SOL     OW20311   0.303   4.006   2.651  0.1593  0.1501  0.2980
 2892SOL    HW120312   0.245   4.048   2.588 -1.1869 -0.3093  1.2271
 2892SOL    HW220313   0.261   3.923   2.627  0.2430  0.2931 -0.3338
 2893SOL     OW20314   2.745   2.772   4.107 -0.5272 -0.0681 -0.5446
 2893SOL    HW120315   2.710   2.786   4.195  1.3553  0.5131  0.1143
 2893SOL    HW220316   2.830   2.731   4.118 -0.8288 -1.0713 -1.9877
 2894SOL     OW20317   1.082   1.186   6.248  0.4716 -0.0597  0.6893
 2894SOL    HW120318   1.147   1.144   6.191  0.4385 -1.5834  1.7659
 2894SOL    HW220319   1.084   1.114   6.312 -1.1774 -0.0851  0.6914
 2895SOL     OW20320   2.211   1.817   3.903  0.5323 -0.1725  0.5649
 2895SOL    HW120321   2.170   1.756   3.965 -1.3392 -0.7585 -1.2307
 2895SOL    HW220322   2.241   1.750   3.841  0.8721  1.3094 -0.8642
 2896SOL     OW20323   2.335   1.511   6.082  0.4296  0.2287 -0.4237
 2896SOL    HW120324   2.341   1.588   6.025 -2.9979  0.2764 -0.7004
 2896SOL    HW220325   2.304   1.449   6.017  1.2347 -0.0733 -0.5151
 2897SOL     OW20326   3.960   0.370   8.803  0.2149  0.0435 -0.2005
 2897SOL    HW120327   3.934   0.456   8.835 -1.7972 -0.2375 -1.0804
 2897SOL    HW220328   3.872   0.338   8.780  1.5918 -3.4635 -0.6740
 2898SOL     OW20329   3.085   3.186   7.644  0.1111  0.8042 -0.7363
 2898SOL    HW120330   3.162   3.191   7.701 -0.5899 -0.8185  0.3512
 2898SOL    HW220331   3.026   3.232   7.704 -1.0809 -1.7655  0.0211
 2899SOL     OW20332   2.023   2.246  16.296 -0.0458 -0.5468 -0.0328
 2899SOL    HW120333   1.963   2.306  16.340 -0.5641 -0.7444 -0.4746
 2899SOL    HW220334   1.956   2.188  16.261 -0.3686 -0.7047  0.8743
 2900SOL     OW20335   2.849   3.762  16.713 -0.3107 -0.3373  0.3809
 2900SOL    HW120336   2.824   3.671  16.727  1.2710 -0.3352  3.2692
 2900SOL    HW220337   2.873   3.793  16.801  1.4985  1.2481 -0.6635
 2901SOL     OW20338   3.092   2.703  15.797 -0.3921  0.5253  0.3507
 2901SOL    HW120339   3.092   2.775  15.733  0.2748  0.0554 -0.1743
 2901SOL    HW220340   3.081   2.628  15.738 -2.4856 -0.6228  2.1950
 2902SOL     OW20341   0.945   1.233   5.989  0.0486 -0.4494 -0.5273
 2902SOL    HW120342   0.873   1.291   6.015 -0.3265 -1.4548  0.6839
 2902SOL    HW220343   1.000   1.251   6.066 -0.2963 -1.1586 -0.1177
 2903SOL     OW20344   0.040   3.178   7.930  0.1592  0.0450 -0.3403
 2903SOL    HW120345   0.009   3.214   8.013  0.7027  3.6909 -1.7590
 2903SOL    HW220346   0.084   3.098   7.960 -1.3221 -0.4381  0.5568
 2904SOL     OW20347   2.369   4.065   2.661  0.2893 -0.1173  0.3402
 2904SOL    HW120348   2.440   4.005   2.637 -0.6911 -0.3668 -2.0281
 2904SOL    HW220349   2.421   4.145   2.668 -0.0564  0.1506 -0.0897
 2905SOL     OW20350   3.194   2.736   6.025  0.2677  0.6177 -0.2518
 2905SOL    HW120351   3.126   2.672   6.047  0.1572  0.3533 -1.3361
 2905SOL    HW220352   3.139   2.807   5.990 -2.5525 -1.8276 -0.7960
 2906SOL     OW20353   1.309   1.607  16.875  0.2313  0.4483  0.2798
 2906SOL    HW120354   1.346   1.526  16.839  0.1004  0.4737  0.0896
 2906SOL    HW220355   1.220   1.580  16.895  0.4286 -0.4370 -0.0332
 2907SOL     OW20356   1.187   1.592   4.146 -0.5074 -0.0563  0.7970
 2907SOL    HW120357   1.094   1.572   4.159 -0.5187  0.7769  2.0289
 2907SOL    HW220358   1.209   1.528   4.079  1.1042  1.0411  0.2813
 2908SOL     OW20359   1.167   3.737   3.605 -0.3532 -0.3251 -0.2651
 2908SOL    HW120360   1.219   3.766   3.679  1.9927 -3.2111 -0.7696
 2908SOL    HW220361   1.136   3.654   3.643  1.8975 -0.7262  0.6929
 2909SOL     OW20362   1.572   1.629   5.114  0.4389 -0.2108 -0.2103
 2909SOL    HW120363   1.495   1.603   5.164  0.0631 -1.4899 -1.4634
 2909SOL    HW220364   1.604   1.541   5.098  0.0037 -0.1696 -1.2802
 2910SOL     OW20365   3.699   3.687   4.468 -0.4510 -0.6471  1.0462
 2910SOL    HW120366   3.657   3.669   4.552  0.4236 -2.4454  1.1138
 2910SOL    HW220367   3.707   3.782   4.460 -0.6225 -0.6446  0.9083
 2911SOL     OW20368   2.047   2.288  11.253  0.4197  0.2441  0.1292
 2911SOL    HW120369   1.981   2.294  11.184  1.1830 -0.4132 -0.6556
 2911SOL    HW220370   2.119   2.338  11.214  0.0275  1.2164  0.6432
 2912SOL     OW20371   0.451   2.986  12.259  0.0206  0.9732  0.8248
 2912SOL    HW120372   0.543   2.988  12.233  0.2624  1.6042  1.7229
 2912SOL    HW220373   0.461   3.015  12.350  1.5565 -1.5934  1.4857
 2913SOL     OW20374   1.138   0.975   6.438 -0.0463 -0.3139  0.6411
 2913SOL    HW120375   1.204   0.906   6.434  0.2632  0.0137  0.1574
 2913SOL    HW220376   1.064   0.917   6.456 -0.5348  0.8248  2.3161
 2914SOL     OW20377   4.325   2.136   4.577 -0.0615  0.5551  0.1357
 2914SOL    HW120378   4.356   2.175   4.659 -1.5913 -0.3668  1.1538
 2914SOL    HW220379   4.405   2.132   4.525 -0.1061  0.1777  0.0922
 2915SOL     OW20380   0.370   2.617   8.642 -0.2561  0.2351  0.2576
 2915SOL    HW120381   0.338   2.565   8.716  0.1928  0.2813  0.4846
 2915SOL    HW220382   0.295   2.673   8.624  2.9800  4.1477 -0.9140
 2916SOL     OW20383   4.645   2.767  12.814 -0.0176 -0.1732 -0.3269
 2916SOL    HW120384   4.644   2.671  12.819  0.9987 -0.3078 -2.6039
 2916SOL    HW220385   4.586   2.780  12.740 -1.9531 -1.2892  1.0236
 2917SOL     OW20386   4.495   2.325   1.688  0.2106  0.0628  0.0084
 2917SOL    HW120387   4.483   2.233   1.710  3.0471 -0.2279  0.2415
 2917SOL    HW220388   4.590   2.326   1.693  0.1988 -2.0181  0.5587
 2918SOL     OW20389   3.212   0.355   2.278 -0.2557 -0.0615  0.6042
 2918SOL    HW120390   3.117   0.349   2.268 -0.3167  2.9036 -0.5856
 2918SOL    HW220391   3.242   0.355   2.187 -2.9396  1.1531 -0.2708
 2919SOL     OW20392   1.258   0.805  14.689 -0.2488  0.0808  0.0353
 2919SOL    HW120393   1.174   0.781  14.729  0.3109 -0.4389  0.9206
 2919SOL    HW220394   1.226   0.874  14.632 -1.6573 -0.5577  0.0466
 2920SOL     OW20395   1.048   2.922   7.282 -0.3373  0.8115 -0.2855
 2920SOL    HW120396   1.100   2.975   7.343 -0.8522  1.5038 -0.4436
 2920SOL    HW220397   0.960   2.922   7.318  0.1369 -0.8850  0.8530
 2921SOL     OW20398   4.715   4.129   5.142 -0.4340  0.4803  0.2957
 2921SOL    HW120399   0.005   4.046   5.105 -2.9420 -0.6344  0.8964
 2921SOL    HW220400   4.662   4.098   5.216  1.0480  0.6679  1.4384
 2922SOL     OW20401   0.640   1.963   1.690 -0.5354  0.3118 -0.1497
 2922SOL    HW120402   0.636   1.880   1.738 -1.5080  0.4005 -0.0917
 2922SOL    HW220403   0.618   2.021   1.763  1.1288  0.9461 -0.1378
 2923SOL     OW20404   1.057   4.262   2.477 -0.0885  0.3121  0.3740
 2923SOL    HW120405   1.121   4.292   2.541 -0.6962  1.3095  0.5047
 2923SOL    HW220406   1.089   4.309   2.400 -0.8961  2.9919  1.6789
 2924SOL     OW20407   3.667   2.921   3.609 -0.2219  0.0178 -0.1224
 2924SOL    HW120408   3.732   2.974   3.654 -2.0894  2.0155  0.2271
 2924SOL    HW220409   3.711   2.882   3.534  2.2549 -0.9312  1.8488
 2925SOL     OW20410   2.209   4.697   9.401  0.1872 -0.5974 -0.0522
 2925SOL    HW120411   2.243   4.710   9.490  0.1337 -0.7850 -0.0048
 2925SOL    HW220412   2.282   4.683   9.340  0.0557 -0.8343 -0.1564
 2926SOL     OW20413   1.217   0.507   5.550  0.3954 -0.1203 -0.2415
 2926SOL    HW120414   1.281   0.558   5.501 -1.1345 -0.3830 -2.5175
 2926SOL    HW220415   1.135   0.507   5.499 -0.8925  1.2318  1.8332
 2927SOL     OW20416   2.468   4.212  17.207  0.2639 -0.5201 -0.6813
 2927SOL    HW120417   2.537   4.234  17.144  1.4403  0.7477  1.0142
 2927SOL    HW220418   2.408   4.168  17.148  0.0643 -1.9153  0.5724
 2928SOL     OW20419   2.908   1.028   6.186  0.1893 -0.5779  0.1972
 2928SOL    HW120420   2.990   0.979   6.186  1.4569  1.5035 -1.9174
 2928SOL    HW220421   2.857   0.974   6.126 -1.8494 -0.6869  2.0235
 2929SOL     OW20422   1.926   1.302  15.657  0.0742  0.3797 -0.7762
 2929SOL    HW120423   1.950   1.248  15.732 -0.2493  0.0659 -0.8945
 2929SOL    HW220424   1.902   1.240  15.589  1.2133  0.2862 -1.0792
 2930SOL     OW20425   0.583   0.432   2.433  0.3552  0.8192  0.2452
 2930SOL    HW120426   0.516   0.440   2.365  0.0284  1.8754  0.6750
 2930SOL    HW220427   0.659   0.464   2.385  0.2459  0.5892 -0.0834
 2931SOL     OW20428   0.311   0.746  17.395 -0.3767  0.3209 -0.7560
 2931SOL    HW120429   0.302   0.833  17.433  0.0281 -1.6501  3.7666
 2931SOL    HW220430   0.240   0.693  17.432  2.1300  0.3082  4.0040
 2932SOL     OW20431   0.091   4.690   7.515 -0.0845  0.0732 -0.3019
 2932SOL    HW120432   0.004   4.729   7.508 -0.2008  0.0193  0.8274
 2932SOL    HW220433   0.086   4.611   7.570  0.1085 -0.1418 -0.5900
 2933SOL     OW20434   1.535   2.282   8.014 -0.3794  0.3912 -0.3286
 2933SOL    HW120435   1.584   2.309   8.091 -0.9774  0.3232  0.0753
 2933SOL    HW220436   1.451   2.322   8.037  0.6961  2.2448  0.3230
 2934SOL     OW20437   4.620   3.815   6.248  0.4700 -0.0444  0.3101
 2934SOL    HW120438   4.612   3.885   6.313  0.4234 -0.0005  0.2566
 2934SOL    HW220439   4.713   3.795   6.253  0.2046 -1.7525 -1.7368
 2935SOL     OW20440   1.080   0.142  12.546 -0.7086  0.6804  0.2351
 2935SOL    HW120441   1.032   0.154  12.463 -2.0607  0.5017  0.9854
 2935SOL    HW220442   1.168   0.161  12.514 -0.4954 -1.7818 -0.6049
 2936SOL     OW20443   1.084   0.665   4.082 -0.4454 -0.2076  0.0063
 2936SOL    HW120444   1.104   0.759   4.088  1.4548 -0.7066  1.1923
 2936SOL    HW220445   0.996   0.667   4.121  0.6827  1.2706  2.4486
 2937SOL     OW20446   3.425   0.882   9.592  0.0230 -0.0896 -0.1115
 2937SOL    HW120447   3.491   0.950   9.580 -1.5734  1.3751 -0.7002
 2937SOL    HW220448   3.359   0.915   9.531 -0.7562  1.9888  1.8710
 2938SOL     OW20449   1.954   4.583   6.087  0.2156 -0.4266 -0.5604
 2938SOL    HW120450   1.860   4.588   6.104  0.4240  1.9869 -0.0228
 2938SOL    HW220451   1.977   4.507   6.141  1.7026  0.1611 -0.3863
 2939SOL     OW20452   1.037   0.565   6.511 -0.4745 -0.0080 -0.3816
 2939SOL    HW120453   0.948   0.548   6.481 -0.7569  0.5164  0.1596
 2939SOL    HW220454   1.025   0.659   6.527 -1.4590  0.3264 -3.0594
 2940SOL     OW20455   0.095   1.012   6.147 -0.1881  0.5889 -0.3752
 2940SOL    HW120456   0.086   0.922   6.114 -0.6900  0.7042 -0.5467
 2940SOL    HW220457   0.189   1.000   6.162 -0.3528 -1.2099 -0.7588
 2941SOL     OW20458   3.471   0.227   1.181  0.1196 -0.1765  0.1901
 2941SOL    HW120459   3.482   0.295   1.247  1.1101  0.6217 -0.8008
 2941SOL    HW220460   3.557   0.230   1.139  1.4564 -0.8447  2.8924
 2942SOL     OW20461   0.661   1.403  12.155  0.5879  0.6463  0.1457
 2942SOL    HW120462   0.595   1.340  12.126 -1.7740  3.4550 -0.7089
 2942SOL    HW220463   0.601   1.476  12.172  3.3838  2.2403  3.0612
 2943SOL     OW20464   1.349   2.952   7.934 -0.1456  0.0473 -0.2771
 2943SOL    HW120465   1.376   3.037   7.899 -0.6663  0.5951  0.6641
 2943SOL    HW220466   1.436   2.919   7.957 -1.3464 -1.0441  2.8026
 2944SOL     OW20467   2.364   1.272   8.685  0.2576  0.1363 -0.6269
 2944SOL    HW120468   2.424   1.231   8.622 -0.5622  0.2746 -1.4861
 2944SOL    HW220469   2.281   1.237   8.653  0.0290  0.7526 -0.7052
 2945SOL     OW20470   1.298   3.726  14.198  0.2558 -0.8134 -0.2767
 2945SOL    HW120471   1.253   3.806  14.171 -0.8647 -0.8355  1.5355
 2945SOL    HW220472   1.341   3.757  14.278  0.3228  0.3811 -0.7854
 2946SOL     OW20473   1.552   1.127  13.230 -0.5959 -0.1690 -0.1226
 2946SOL    HW120474   1.520   1.126  13.320 -2.0846  0.9823 -0.6538
 2946SOL    HW220475   1.524   1.210  13.194 -1.7445 -0.6733 -0.3780
 2947SOL     OW20476   3.937   4.012   6.411 -0.3071  0.2614  0.0305
 2947SOL    HW120477   3.966   3.970   6.492 -2.3812  0.0277  0.6420
 2947SOL    HW220478   3.891   4.088   6.446 -1.9538  0.1415 -1.8446
 2948SOL     OW20479   3.720   0.885   8.441 -0.1107  0.2537  0.4891
 2948SOL    HW120480   3.810   0.908   8.463  0.0652  0.6302 -0.6516
 2948SOL    HW220481   3.735   0.795   8.415  1.9381  0.7642 -0.0659
 2949SOL     OW20482   4.100   1.990   4.693 -0.4880 -0.5246 -0.5661
 2949SOL    HW120483   4.140   2.075   4.713 -0.1492 -0.2943 -2.2658
 2949SOL    HW220484   4.053   2.010   4.612 -2.2367 -1.6935  0.1528
 2950SOL     OW20485   1.961   3.194   5.070  0.0847  0.5505 -0.2540
 2950SOL    HW120486   1.963   3.126   5.137  0.0882 -0.0527 -0.8722
 2950SOL    HW220487   1.968   3.150   4.986  0.3054  1.9646 -0.9719
 2951SOL     OW20488   2.102   0.285   3.650 -0.1959  0.4735 -0.7260
 2951SOL    HW120489   2.129   0.218   3.587 -0.1552  0.4380 -0.6705
 2951SOL    HW220490   2.095   0.227   3.726  3.0039 -0.8984 -1.4976
 2952SOL     OW20491   2.177   3.922   1.357 -0.0915 -0.0725 -0.1821
 2952SOL    HW120492   2.113   3.858   1.387 -1.2872  0.3578 -1.8127
 2952SOL    HW220493   2.245   3.858   1.335 -1.4565 -1.7596  0.4969
 2953SOL     OW20494   3.243   3.575  15.002 -0.6370 -0.1835  0.0694
 2953SOL    HW120495   3.205   3.639  14.942  2.1391  1.4585  0.0911
 2953SOL    HW220496   3.321   3.545  14.956 -1.6942  0.0239 -1.8506
 2954SOL     OW20497   2.390   1.254   4.504  0.4101  0.4306 -0.0625
 2954SOL    HW120498   2.456   1.201   4.459 -0.5653 -1.1586  0.4104
 2954SOL    HW220499   2.396   1.236   4.597  1.9264 -0.9714 -0.4268
 2955SOL     OW20500   0.236   3.761   4.762 -0.3080  0.5587  0.4817
 2955SOL    HW120501   0.278   3.756   4.848  0.2374  0.4835  0.2073
 2955SOL    HW220502   0.198   3.848   4.761 -2.5922 -0.4417 -0.0393
 2956SOL     OW20503   0.145   0.560   1.692 -0.5028 -0.1275 -0.5622
 2956SOL    HW120504   0.172   0.537   1.603  2.8994 -0.3068  0.5296
 2956SOL    HW220505   0.091   0.484   1.713  0.6879 -0.3309  1.7616
 2957SOL     OW20506   2.740   2.304  12.861  0.4851 -0.2169 -0.1437
 2957SOL    HW120507   2.809   2.319  12.925 -0.1068 -0.8760  0.6390
 2957SOL    HW220508   2.765   2.223  12.815  1.3087 -1.1994  2.0586
 2958SOL     OW20509   4.731   3.382   1.831  0.4824 -0.4901 -0.3171
 2958SOL    HW120510   0.022   3.360   1.919 -0.4867  1.7750  0.5644
 2958SOL    HW220511   0.019   3.473   1.819 -0.7379 -0.3550 -1.9198
 2959SOL     OW20512   2.905   4.236   9.394  0.4226 -0.7659 -0.5552
 2959SOL    HW120513   2.964   4.199   9.460 -0.6150  1.2112  1.4819
 2959SOL    HW220514   2.822   4.228   9.440 -0.8277 -0.2647 -2.7054
 2960SOL     OW20515   0.822   1.907  15.721 -0.2388 -0.1856  0.5351
 2960SOL    HW120516   0.798   1.999  15.731 -0.5860 -0.3894  1.5787
 2960SOL    HW220517   0.911   1.905  15.686 -0.2827 -0.6501  0.4539
 2961SOL     OW20518   3.746   0.556  10.511  0.2304 -0.1508  0.6197
 2961SOL    HW120519   3.660   0.586  10.538 -0.3555  0.4393 -1.9230
 2961SOL    HW220520   3.775   0.634  10.463 -0.1820  0.8876  2.0799
 2962SOL     OW20521   2.185   2.182   6.004  0.0611  0.3826 -0.9904
 2962SOL    HW120522   2.259   2.221   6.051 -1.3214  0.7084  0.9506
 2962SOL    HW220523   2.171   2.264   5.957  3.6859  1.5929  0.0544
 2963SOL     OW20524   0.003   1.420   8.891  0.0320  0.3439 -0.3267
 2963SOL    HW120525   4.709   1.332   8.872 -1.6519  1.5428 -3.0004
 2963SOL    HW220526   0.054   1.409   8.972 -0.9551  1.3627  0.4224
 2964SOL     OW20527   2.511   1.174   0.851  0.2334 -1.1967  1.0418
 2964SOL    HW120528   2.477   1.120   0.922  1.3642 -3.0450  0.1650
 2964SOL    HW220529   2.570   1.107   0.816  1.8439  0.9320 -0.3811
 2965SOL     OW20530   2.967   0.565   9.466  0.5283  0.4826 -0.1110
 2965SOL    HW120531   2.982   0.630   9.535  0.0636 -1.2001  1.5812
 2965SOL    HW220532   3.038   0.596   9.410  1.7877 -0.4534  0.9756
 2966SOL     OW20533   1.667   3.351   7.733 -0.5686 -0.4020 -0.1301
 2966SOL    HW120534   1.705   3.438   7.723 -0.9118  0.0336  2.5016
 2966SOL    HW220535   1.624   3.338   7.648  0.5990  0.4935 -0.8551
 2967SOL     OW20536   1.458   1.338   0.281 -0.8836  0.6337 -0.0077
 2967SOL    HW120537   1.410   1.291   0.349 -0.5972  0.2021 -0.0990
 2967SOL    HW220538   1.547   1.302   0.284 -0.6319  1.3014  0.4171
 2968SOL     OW20539   3.221   3.395  12.716 -0.3767 -0.9851  0.3792
 2968SOL    HW120540   3.207   3.309  12.757  3.1109 -1.0657  1.3946
 2968SOL    HW220541   3.128   3.415  12.709  0.2222  1.9201  0.8771
 2969SOL     OW20542   3.124   0.340   8.317  0.2174  0.3985  0.1737
 2969SOL    HW120543   3.088   0.424   8.290 -0.6942 -0.2510 -0.6550
 2969SOL    HW220544   3.188   0.371   8.381  0.1485 -2.4810  1.6527
 2970SOL     OW20545   4.686   1.517   5.311 -0.2957 -0.1656 -0.2915
 2970SOL    HW120546   4.605   1.538   5.264  0.1391  1.8319 -0.1684
 2970SOL    HW220547   0.011   1.513   5.240  2.0681  1.7280  1.7230
 2971SOL     OW20548   2.966   2.339   7.399  0.1089 -0.0622  0.0601
 2971SOL    HW120549   2.889   2.304   7.445 -0.2744  1.0102  0.2511
 2971SOL    HW220550   3.026   2.334   7.473 -1.4829 -1.1336  1.2995
 2972SOL     OW20551   3.253   1.325   3.667 -0.1459 -0.6822 -0.0891
 2972SOL    HW120552   3.326   1.265   3.681  2.1492  1.8604 -1.2206
 2972SOL    HW220553   3.213   1.326   3.754  0.5131  1.8606  0.1738
 2973SOL     OW20554   2.827   3.113   3.480  0.4606 -0.1876  0.2399
 2973SOL    HW120555   2.838   3.028   3.522 -2.3800 -0.4890  0.4208
 2973SOL    HW220556   2.765   3.086   3.412  0.9520  1.3253 -0.7847
 2974SOL     OW20557   0.819   0.781   5.110  0.1778  0.4389 -0.0905
 2974SOL    HW120558   0.843   0.797   5.201 -0.3099 -0.8940  0.2815
 2974SOL    HW220559   0.739   0.833   5.106 -0.4080 -0.5011 -0.7426
 2975SOL     OW20560   2.704   4.172   6.475 -0.3468  0.1546 -0.4619
 2975SOL    HW120561   2.744   4.248   6.433  2.9826  0.9082  4.0486
 2975SOL    HW220562   2.672   4.222   6.550 -0.4469  4.9108 -3.6635
 2976SOL     OW20563   3.243   1.505   0.472  0.8946  0.7002  0.5843
 2976SOL    HW120564   3.219   1.598   0.468 -0.6902  0.2666 -0.2815
 2976SOL    HW220565   3.271   1.483   0.383  1.0404 -1.2438  1.1001
 2977SOL     OW20566   1.847   2.821  15.673 -0.2737  0.0513  0.4593
 2977SOL    HW120567   1.816   2.743  15.626  3.2974 -1.5718  0.7848
 2977SOL    HW220568   1.764   2.840  15.716  0.6926  2.3925  1.2921
 2978SOL     OW20569   3.968   2.142  11.752  0.2619 -0.1469 -0.1153
 2978SOL    HW120570   4.020   2.197  11.694  1.4677  1.2252  2.2540
 2978SOL    HW220571   4.017   2.059  11.749 -0.7740 -0.7413 -0.5695
 2979SOL     OW20572   1.539   1.126   3.522  0.5384 -0.4916  0.0018
 2979SOL    HW120573   1.620   1.162   3.559  0.8898 -0.4246 -0.8236
 2979SOL    HW220574   1.485   1.200   3.492 -0.2500 -0.3528  1.7468
 2980SOL     OW20575   1.796   3.121  15.640  0.3895 -0.4189 -0.1688
 2980SOL    HW120576   1.705   3.119  15.611  0.1629 -3.0794  0.7614
 2980SOL    HW220577   1.823   3.174  15.565  1.8808  1.9638  2.0401
 2981SOL     OW20578   1.918   3.436   4.496  0.7186 -0.1615  0.1854
 2981SOL    HW120579   1.829   3.451   4.527  0.6077  0.0782 -0.2453
 2981SOL    HW220580   1.919   3.482   4.412  0.9149 -0.1404  0.2002
 2982SOL     OW20581   1.605   3.529   2.197  0.2919 -0.1337  0.5972
 2982SOL    HW120582   1.644   3.479   2.125  1.5276  0.8298  0.6040
 2982SOL    HW220583   1.646   3.488   2.273  1.8186  0.0389 -0.1265
 2983SOL     OW20584   4.467   2.020   1.334  0.0962 -0.8071 -0.7187
 2983SOL    HW120585   4.381   2.019   1.377  0.3310  1.6856 -0.2287
 2983SOL    HW220586   4.462   1.924   1.329  0.7657 -0.8936  0.4748
 2984SOL     OW20587   4.311   1.257   4.728 -0.6170  0.3786  0.5989
 2984SOL    HW120588   4.274   1.184   4.777 -1.1658  0.5209  0.3966
 2984SOL    HW220589   4.246   1.259   4.658  1.9637  0.1872 -1.8334
 2985SOL     OW20590   3.735   1.041   5.260  0.2160  0.3290  0.4801
 2985SOL    HW120591   3.788   1.121   5.265  2.3024 -1.0183 -0.1531
 2985SOL    HW220592   3.798   0.986   5.308  0.5676  0.3663  0.0627
 2986SOL     OW20593   2.406   1.570   6.920  0.4815  0.0681  0.0139
 2986SOL    HW120594   2.490   1.612   6.936  0.0043  0.5800  1.1840
 2986SOL    HW220595   2.423   1.475   6.920 -0.5636 -0.1169 -1.2350
 2987SOL     OW20596   3.106   2.461  10.995  0.8333  0.6820  0.1880
 2987SOL    HW120597   3.129   2.540  10.946 -1.2124  0.9970 -0.2337
 2987SOL    HW220598   3.127   2.397  10.927 -0.5197  0.7113 -0.2502
 2988SOL     OW20599   2.375   0.244   6.513  0.1147 -0.3797  0.2653
 2988SOL    HW120600   2.333   0.316   6.466  3.9164  2.3894  1.0724
 2988SOL    HW220601   2.432   0.223   6.438  1.6355  2.7080  0.5582
 2989SOL     OW20602   4.699   0.947   0.125 -0.0717  0.2270 -0.0597
 2989SOL    HW120603   4.663   0.863   0.154 -0.0039  0.4025  0.5336
 2989SOL    HW220604   0.048   0.920   0.096 -0.9773 -2.1359 -0.5917
 2990SOL     OW20605   1.765   3.045   8.175  0.0677 -0.2209  0.1724
 2990SOL    HW120606   1.815   3.096   8.111 -1.3275  1.7819  0.6920
 2990SOL    HW220607   1.709   2.995   8.116  0.1618  1.8656 -1.6754
 2991SOL     OW20608   4.402   0.344   7.911  0.4636 -0.0677  0.5848
 2991SOL    HW120609   4.335   0.276   7.921 -1.6721  1.6302 -2.0970
 2991SOL    HW220610   4.416   0.353   7.816  1.2523 -2.5111  0.4700
 2992SOL     OW20611   4.422   1.113   2.418 -0.2953 -0.6122  0.1063
 2992SOL    HW120612   4.366   1.075   2.350  0.0826  0.8868 -1.0512
 2992SOL    HW220613   4.373   1.092   2.498 -0.4762 -1.1958 -0.1548
 2993SOL     OW20614   0.490   1.616   6.789 -0.2532  0.1889 -0.7450
 2993SOL    HW120615   0.559   1.551   6.794 -1.4082 -0.8659  1.6579
 2993SOL    HW220616   0.517   1.659   6.708  0.4540  2.7460  0.8564
 2994SOL     OW20617   1.776   4.367   3.851 -0.5892  0.1812  0.7354
 2994SOL    HW120618   1.744   4.383   3.762 -0.0608  1.6457  0.8047
 2994SOL    HW220619   1.871   4.363   3.841 -1.1044 -3.9895 -2.5484
 2995SOL     OW20620   1.707   3.908   8.599 -0.0362 -0.2173  0.3777
 2995SOL    HW120621   1.640   3.840   8.602 -1.4630  1.1529 -0.7653
 2995SOL    HW220622   1.781   3.859   8.563 -0.3163 -1.1385  1.0577
 2996SOL     OW20623   1.620   1.974   9.530  0.4235  0.0697  0.4212
 2996SOL    HW120624   1.700   2.010   9.492 -1.3485  2.2053 -1.2676
 2996SOL    HW220625   1.566   2.051   9.545 -0.2680 -0.4660  0.6396
 2997SOL     OW20626   3.611   1.328   5.595 -0.4369 -0.2933  0.3867
 2997SOL    HW120627   3.613   1.413   5.552  0.1886 -1.5917 -2.1988
 2997SOL    HW220628   3.698   1.314   5.632  0.2243  0.7048 -0.8023
 2998SOL     OW20629   4.686   4.046   8.628 -0.3465  0.0675 -0.3881
 2998SOL    HW120630   4.701   4.022   8.719  0.3172 -1.5508 -0.9316
 2998SOL    HW220631   4.700   3.960   8.589  1.3650 -0.5336  1.5640
 2999SOL     OW20632   0.880   2.157   9.553  0.2902  0.4407  0.2840
 2999SOL    HW120633   0.925   2.087   9.506 -1.1903 -2.6843  3.5068
 2999SOL    HW220634   0.808   2.114   9.599 -1.3140  2.3022 -0.5158
 3000SOL     OW20635   2.428   0.655   6.055  0.1061  0.8597 -0.0250
 3000SOL    HW120636   2.393   0.647   5.966 -1.9859  1.5130  0.7384
 3000SOL    HW220637   2.379   0.585   6.098  1.3910 -0.1875 -0.2427
 3001SOL     OW20638   1.456   2.776   9.401  0.3251  0.2986 -0.1231
 3001SOL    HW120639   1.537   2.745   9.441  0.9241  1.9739 -0.0276
 3001SOL    HW220640   1.403   2.806   9.475  2.2946 -2.0217  2.1841
 3002SOL     OW20641   2.242   3.934   9.169  0.0919 -0.4282 -0.7516
 3002SOL    HW120642   2.200   3.956   9.252  0.6925  0.5254 -0.7019
 3002SOL    HW220643   2.251   3.839   9.182  4.8496  0.1993  0.4407
 3003SOL     OW20644   0.993   0.486   1.339  0.3029  0.1000 -0.2169
 3003SOL    HW120645   0.956   0.488   1.251  2.6776  0.2634 -1.1977
 3003SOL    HW220646   1.018   0.574   1.368 -0.2929 -0.5887  2.4074
 3004SOL     OW20647   4.343   0.034   3.371  0.1036  0.2184  0.1839
 3004SOL    HW120648   4.298   4.697   3.332 -1.6930  1.5242 -0.2837
 3004SOL    HW220649   4.434   0.012   3.354 -0.2447 -0.5896 -0.6684
 3005SOL     OW20650   0.553   4.049   6.749 -0.0610 -0.2719 -0.4218
 3005SOL    HW120651   0.459   4.063   6.734 -0.2708 -1.0666  0.1690
 3005SOL    HW220652   0.557   4.029   6.842 -1.3707  1.6372  0.0531
 3006SOL     OW20653   1.677   0.343   3.195  0.2603 -0.0277  0.2017
 3006SOL    HW120654   1.651   0.395   3.271 -0.1539  0.4362 -0.2485
 3006SOL    HW220655   1.760   0.301   3.217 -0.8619 -2.4111 -0.1046
 3007SOL     OW20656   2.939   0.777   3.057  0.6592 -0.1137 -0.4676
 3007SOL    HW120657   3.016   0.735   3.018 -0.6591 -1.5550 -1.5258
 3007SOL    HW220658   2.882   0.783   2.980 -0.9932 -1.0800  0.6857
 3008SOL     OW20659   1.621   2.872   8.331  0.0201 -0.8480  0.0380
 3008SOL    HW120660   1.637   2.939   8.265 -1.3773 -1.0957 -0.5475
 3008SOL    HW220661   1.707   2.830   8.337  0.0752 -0.8737 -0.8734
 3009SOL     OW20662   1.665   2.956   4.963  0.6694  0.2056 -0.2961
 3009SOL    HW120663   1.593   2.994   5.014  1.0304 -1.1338  1.2140
 3009SOL    HW220664   1.697   2.897   5.031 -3.5636 -0.5887  1.0439
 3010SOL     OW20665   1.186   1.117   9.015  0.2746 -0.3034  0.2432
 3010SOL    HW120666   1.144   1.095   8.931 -0.7685  1.3367  0.3162
 3010SOL    HW220667   1.275   1.131   8.983 -0.0638 -0.5437 -0.8169
 3011SOL     OW20668   3.899   4.216   4.389 -0.7250 -0.3708  0.0459
 3011SOL    HW120669   3.914   4.213   4.295  1.3767 -1.4311  0.4199
 3011SOL    HW220670   3.856   4.300   4.405 -0.4332 -0.0037 -1.1133
 3012SOL     OW20671   2.199   3.954   8.419 -0.1573  0.3510 -0.5011
 3012SOL    HW120672   2.158   3.874   8.449  0.9532 -0.0437 -0.0290
 3012SOL    HW220673   2.201   3.998   8.503 -1.6597  1.0999 -0.8668
 3013SOL     OW20674   3.113   0.183   5.406  0.7573  0.0124  0.5240
 3013SOL    HW120675   3.201   0.198   5.441  1.2712 -1.2056 -0.2746
 3013SOL    HW220676   3.089   0.271   5.376  1.1389  0.1294  0.5550
 3014SOL     OW20677   2.054   1.721  16.523  0.0982  0.6801  0.3668
 3014SOL    HW120678   2.120   1.783  16.556  1.4405  0.0552 -1.1877
 3014SOL    HW220679   2.032   1.686  16.610 -2.7691  0.2989 -0.5288
 3015SOL     OW20680   2.058   2.773   2.026  0.0867 -0.0398 -0.2495
 3015SOL    HW120681   2.114   2.831   2.079  1.4599  0.3431 -2.1087
 3015SOL    HW220682   2.123   2.722   1.978  0.4410  2.2030 -2.1941
 3016SOL     OW20683   3.079   0.431  17.449  0.4367  0.0426  0.8696
 3016SOL    HW120684   3.011   0.374  17.413 -0.6458  0.8803  1.6084
 3016SOL    HW220685   3.135   0.369  17.494  2.2492  0.7602 -0.3664
 3017SOL     OW20686   0.448   0.651   8.333 -0.1512 -0.4015 -0.6471
 3017SOL    HW120687   0.394   0.586   8.376 -1.9096  1.1494 -0.4937
 3017SOL    HW220688   0.515   0.597   8.291  1.2018 -0.7507  1.9977
 3018SOL     OW20689   2.124   0.697   3.102 -0.3635 -0.1302 -0.2920
 3018SOL    HW120690   2.193   0.758   3.076 -0.3018  0.5646  1.5139
 3018SOL    HW220691   2.097   0.672   3.014 -0.1351 -0.5941 -0.2326
 3019SOL     OW20692   3.982   2.459   2.540  0.1412 -0.0299  0.2653
 3019SOL    HW120693   3.919   2.408   2.490  1.6709 -1.6961  0.0386
 3019SOL    HW220694   3.930   2.532   2.573 -1.5960  0.4950 -3.7027
 3020SOL     OW20695   2.347   3.319   6.654  0.1082 -0.3109  0.3420
 3020SOL    HW120696   2.255   3.297   6.644  0.4452 -0.5882 -2.1373
 3020SOL    HW220697   2.352   3.284   6.743  3.1446 -1.0704 -0.1227
 3021SOL     OW20698   0.610   1.573  15.689 -0.0102  0.2682 -0.5589
 3021SOL    HW120699   0.560   1.654  15.681 -3.1760 -1.4734  1.0544
 3021SOL    HW220700   0.690   1.598  15.735  0.3306 -1.2972 -0.3067
 3022SOL     OW20701   2.419   0.939   6.091 -0.1672  0.1251 -0.9373
 3022SOL    HW120702   2.332   0.934   6.128 -0.3381 -0.3364 -1.3946
 3022SOL    HW220703   2.432   0.845   6.090 -0.2248  0.1133  0.2236
 3023SOL     OW20704   3.381   2.237   2.308  0.2966 -0.4612 -0.5295
 3023SOL    HW120705   3.320   2.288   2.254  0.2055 -0.1570 -0.1330
 3023SOL    HW220706   3.350   2.153   2.273  0.2812 -0.3772 -0.7217
 3024SOL     OW20707   0.490   2.991  12.519  0.7172 -0.4925  0.4632
 3024SOL    HW120708   0.427   3.001  12.590  2.5023  2.1168  1.7093
 3024SOL    HW220709   0.562   2.965  12.576  2.2731 -2.8673 -2.5459
 3025SOL     OW20710   2.325   2.794   9.326 -0.4096 -0.0528  0.4842
 3025SOL    HW120711   2.319   2.703   9.354  0.6287 -0.2412  0.1087
 3025SOL    HW220712   2.337   2.833   9.413 -0.7164  0.8074  0.1417
 3026SOL     OW20713   1.377   1.434   1.273 -0.6892 -0.4328  0.1296
 3026SOL    HW120714   1.371   1.430   1.178 -0.0501 -0.8314  0.1068
 3026SOL    HW220715   1.420   1.351   1.293 -0.6554 -0.5268 -0.3432
 3027SOL     OW20716   3.555   2.832   9.193  0.1232  0.0376  0.4843
 3027SOL    HW120717   3.600   2.905   9.235  1.1892 -0.5327  0.3412
 3027SOL    HW220718   3.517   2.870   9.113 -0.2525  1.3345  1.2740
 3028SOL     OW20719   2.107   3.246   3.459 -0.4026  0.2314  0.5028
 3028SOL    HW120720   2.196   3.270   3.434 -0.0042 -0.4314  1.2723
 3028SOL    HW220721   2.110   3.268   3.552  0.5960  2.9579 -0.1987
 3029SOL     OW20722   0.760   2.162  14.794  0.0624  0.0281  0.2785
 3029SOL    HW120723   0.797   2.118  14.718 -0.9066 -0.8945  0.3494
 3029SOL    HW220724   0.671   2.165  14.760  0.2027 -0.6595 -0.1483
 3030SOL     OW20725   1.751   2.043   3.329  0.0026 -0.0564  0.1177
 3030SOL    HW120726   1.745   2.023   3.422  1.1003 -2.1119 -0.2601
 3030SOL    HW220727   1.742   2.138   3.322  1.0027  0.0428  0.1936
 3031SOL     OW20728   2.310   3.683  17.742  0.1073 -0.2144 -0.1405
 3031SOL    HW120729   2.364   3.681   0.070 -0.8796  2.4002  0.5721
 3031SOL    HW220730   2.283   3.775  17.743 -3.3339 -1.1765 -1.5223
 3032SOL     OW20731   0.593   0.194   6.843 -0.2761  0.3982 -0.1635
 3032SOL    HW120732   0.604   0.288   6.854 -1.0997  0.3679  0.9128
 3032SOL    HW220733   0.673   0.167   6.888  1.3636  1.5413 -2.3917
 3033SOL     OW20734   4.064   4.042  14.535  0.2734 -0.0585 -0.0677
 3033SOL    HW120735   4.098   4.081  14.455 -2.9344 -1.3188 -2.0464
 3033SOL    HW220736   4.074   4.117  14.594  0.4036 -0.2482  0.1489
 3034SOL     OW20737   0.803   2.955  10.410  0.5835 -0.6314  0.0119
 3034SOL    HW120738   0.756   2.926  10.332 -0.2024 -1.7232  0.8971
 3034SOL    HW220739   0.738   3.012  10.451  0.4419 -0.6159 -0.2334
 3035SOL     OW20740   3.494   1.367   2.250 -0.1189 -0.2446 -0.2523
 3035SOL    HW120741   3.453   1.453   2.255 -0.6303 -0.5218  0.2987
 3035SOL    HW220742   3.417   1.321   2.215  0.8377 -0.9216 -1.4657
 3036SOL     OW20743   3.436   2.709  15.949  0.3819  0.1457 -0.1443
 3036SOL    HW120744   3.526   2.690  15.923  0.6354  2.3592 -0.8208
 3036SOL    HW220745   3.439   2.804  15.952  2.0037  0.0635  0.8334
 3037SOL     OW20746   4.113   1.396  14.819  0.4170 -0.0214  0.3745
 3037SOL    HW120747   4.118   1.302  14.807  1.7612  0.2099 -0.7355
 3037SOL    HW220748   4.193   1.430  14.781  0.8623 -0.8182  0.6108
 3038SOL     OW20749   4.284   1.017   7.647 -0.1564  0.5929 -0.0718
 3038SOL    HW120750   4.374   0.989   7.662 -0.4511 -0.9414 -1.1764
 3038SOL    HW220751   4.287   1.078   7.573 -0.4868  1.5427  0.7094
 3039SOL     OW20752   2.294   3.948   6.141  1.0350 -0.0257 -0.6733
 3039SOL    HW120753   2.388   3.942   6.160  0.8349  1.3320  0.7897
 3039SOL    HW220754   2.300   3.934   6.047 -3.5809  2.6763 -1.3456
 3040SOL     OW20755   2.151   2.676   6.291 -0.1748  0.0324 -0.4016
 3040SOL    HW120756   2.223   2.697   6.351 -0.4051  1.0937 -0.5040
 3040SOL    HW220757   2.129   2.588   6.323 -1.5127  0.7524  0.6762
 3041SOL     OW20758   0.115   0.768  16.408 -1.0569 -0.2635  0.0706
 3041SOL    HW120759   0.188   0.707  16.397  0.4557  1.6558 -0.5168
 3041SOL    HW220760   0.091   0.785  16.317 -1.1722 -0.1116  0.1299
 3042SOL     OW20761   3.651   4.517   1.827  0.2908  0.4014  0.3640
 3042SOL    HW120762   3.558   4.527   1.807  0.6527  2.3984 -0.3210
 3042SOL    HW220763   3.679   4.561   1.747  1.7081 -0.8555  0.1682
 3043SOL     OW20764   1.191   4.093  12.623  0.0899 -0.2918  0.2507
 3043SOL    HW120765   1.249   4.169  12.623  2.3572 -2.0120  0.9412
 3043SOL    HW220766   1.157   4.090  12.712  0.0912  0.4863  0.2789
 3044SOL     OW20767   1.146   3.162  15.437 -0.1535 -0.1129  0.4986
 3044SOL    HW120768   1.186   3.216  15.505 -1.7577  1.4575  0.2011
 3044SOL    HW220769   1.130   3.082  15.488  3.3938 -0.8564  0.4197
 3045SOL     OW20770   2.521   1.131   4.017 -0.0154  0.4749  0.0602
 3045SOL    HW120771   2.594   1.072   4.034  1.8236  2.2243 -1.7507
 3045SOL    HW220772   2.575   1.210   4.013  1.0369 -0.1474  2.4047
 3046SOL     OW20773   3.336   2.475   7.586 -0.2550 -0.1416  0.2745
 3046SOL    HW120774   3.419   2.499   7.626  0.1281 -2.0652  0.6381
 3046SOL    HW220775   3.320   2.545   7.522  1.7820 -0.8515 -0.9979
 3047SOL     OW20776   0.896   0.989  14.326  0.3459 -0.1429 -0.3755
 3047SOL    HW120777   0.866   1.080  14.331 -1.1974 -0.7012  0.1495
 3047SOL    HW220778   0.831   0.958  14.264  0.5401 -0.9096 -0.1971
 3048SOL     OW20779   1.780   3.259   6.698  0.4614 -0.0002  0.6756
 3048SOL    HW120780   1.728   3.182   6.674 -0.3024  0.7342 -0.0181
 3048SOL    HW220781   1.747   3.284   6.784 -0.8562  2.0331 -0.4180
 3049SOL     OW20782   1.164   0.191  10.790  0.3100  0.6641  0.2915
 3049SOL    HW120783   1.225   0.126  10.824 -0.1794  0.0375 -0.0050
 3049SOL    HW220784   1.078   0.157  10.815  0.1136  0.2328 -0.9557
 3050SOL     OW20785   2.628   4.736   8.103 -0.3714  0.7599  0.6338
 3050SOL    HW120786   2.716   4.703   8.086 -0.8913 -0.1619 -0.2600
 3050SOL    HW220787   2.567   4.679   8.056  0.8544  1.0899 -1.3501
 3051SOL     OW20788   1.360   0.154   0.204  0.4662  0.3279  0.4456
 3051SOL    HW120789   1.335   0.246   0.206 -2.8916 -0.6302  2.9381
 3051SOL    HW220790   1.452   0.163   0.230  0.2368  0.0615  1.3533
 3052SOL     OW20791   3.039   3.227  15.116 -0.1249  0.3753  0.7730
 3052SOL    HW120792   3.105   3.253  15.180  0.4518  0.2759  0.2234
 3052SOL    HW220793   3.091   3.227  15.035 -1.6228  0.4347 -0.1845
 3053SOL     OW20794   1.243   4.702   0.378  0.1734  0.0167  0.2923
 3053SOL    HW120795   1.216   4.611   0.387 -1.4594 -0.0223 -4.8412
 3053SOL    HW220796   1.298   4.696   0.299 -0.3763  0.4979 -0.1290
 3054SOL     OW20797   2.632   3.011   5.979 -0.3320 -0.3464 -0.2349
 3054SOL    HW120798   2.649   3.047   5.893 -2.5491  1.7665  0.2169
 3054SOL    HW220799   2.716   3.036   6.017 -0.7760 -1.9278  1.8222
 3055SOL     OW20800   1.697   4.375   3.593 -0.3153 -0.0168  0.0343
 3055SOL    HW120801   1.728   4.329   3.516  2.6812  0.1659  1.1408
 3055SOL    HW220802   1.610   4.335   3.594  0.9811 -2.8415 -2.2424
 3056SOL     OW20803   4.698   1.304   4.958  0.2157 -0.0492  0.0717
 3056SOL    HW120804   4.643   1.248   5.013  0.3143  1.1918  1.4303
 3056SOL    HW220805   4.640   1.313   4.881  1.3781  1.2001 -0.6618
 3057SOL     OW20806   4.162   3.213   8.364 -0.6027  0.1042  0.0074
 3057SOL    HW120807   4.067   3.197   8.359 -0.4177 -0.6699 -0.9636
 3057SOL    HW220808   4.167   3.197   8.458 -1.0057 -5.1773 -0.8875
 3058SOL     OW20809   0.027   2.142  13.042  0.4257 -0.3955  0.0054
 3058SOL    HW120810   0.085   2.174  12.973 -1.0814 -2.8105 -2.3636
 3058SOL    HW220811   0.066   2.171  13.124  0.6026  0.6676 -0.4520
 3059SOL     OW20812   2.032   1.625   3.993  0.3050 -0.1378 -0.0802
 3059SOL    HW120813   2.112   1.574   3.983  0.7602  1.0502 -2.4134
 3059SOL    HW220814   1.965   1.561   3.969  0.8043 -1.5491  2.2704
 3060SOL     OW20815   0.373   4.045   8.077 -0.2044 -0.4182 -0.4240
 3060SOL    HW120816   0.289   4.003   8.058 -0.3914  0.0932 -0.7367
 3060SOL    HW220817   0.346   4.135   8.100  0.5700 -0.5550  1.0184
 3061SOL     OW20818   0.811   3.014   3.161 -0.1919  0.1295 -0.1570
 3061SOL    HW120819   0.811   3.036   3.067 -0.3620 -0.4663 -0.2978
 3061SOL    HW220820   0.801   3.093   3.214 -0.7044  1.3773 -2.0924
 3062SOL     OW20821   1.581   4.024  17.502  0.1749  0.1508 -0.1149
 3062SOL    HW120822   1.559   4.088  17.570  0.3551  0.3473 -0.2450
 3062SOL    HW220823   1.495   3.991  17.476  1.6159 -1.7045 -2.5082
 3063SOL     OW20824   1.872   1.554  12.453  0.2541 -0.2622  0.1089
 3063SOL    HW120825   1.801   1.606  12.415 -0.5884 -0.7336  1.0458
 3063SOL    HW220826   1.937   1.622  12.437 -0.8558  0.4081 -1.5934
 3064SOL     OW20827   4.104   3.268   1.846 -0.4682  0.1933  0.2021
 3064SOL    HW120828   4.082   3.223   1.764 -2.4244 -0.2062  0.9573
 3064SOL    HW220829   4.019   3.292   1.883  0.6732  3.0690  0.9526
 3065SOL     OW20830   0.745   4.369  14.192 -0.0662  0.0424  0.0637
 3065SOL    HW120831   0.661   4.385  14.150  0.0672 -1.1465 -0.6566
 3065SOL    HW220832   0.712   4.318  14.266 -0.6894  0.0131 -0.2455
 3066SOL     OW20833   2.515   0.546  13.707  0.3635  0.2214 -0.1675
 3066SOL    HW120834   2.519   0.466  13.654  2.2169  0.0519  0.2312
 3066SOL    HW220835   2.485   0.618  13.652  2.0346  1.4317  0.5145
 3067SOL     OW20836   1.266   1.451  15.262 -0.0302  0.3190 -0.4253
 3067SOL    HW120837   1.239   1.539  15.289 -0.2588  0.1256 -0.0106
 3067SOL    HW220838   1.273   1.403  15.344  2.4977  0.6715 -0.4567
 3068SOL     OW20839   3.865   1.650   9.905  0.1947  0.3861 -0.4279
 3068SOL    HW120840   3.799   1.715   9.880 -0.8152 -0.7374 -0.7076
 3068SOL    HW220841   3.813   1.571   9.893  1.6463 -0.3718 -1.6319
 3069SOL     OW20842   1.598   3.691  17.531 -0.3955 -0.1235  0.1454
 3069SOL    HW120843   1.550   3.705  17.613 -0.4043 -0.4737  0.2020
 3069SOL    HW220844   1.660   3.763  17.522  1.3672 -1.6523  0.1795
 3070SOL     OW20845   4.549   0.389   5.466 -0.0718 -0.1182 -0.0690
 3070SOL    HW120846   4.492   0.443   5.410  0.1277  0.7311  0.5426
 3070SOL    HW220847   4.608   0.348   5.403 -0.0731 -1.5329  0.8657
 3071SOL     OW20848   2.230   2.043   5.065  0.0795 -0.4297 -0.4804
 3071SOL    HW120849   2.296   2.108   5.091 -1.4649  1.4160 -1.2304
 3071SOL    HW220850   2.146   2.085   5.082 -0.0114 -0.9309  0.2870
 3072SOL     OW20851   2.560   1.311   3.688  0.3360  0.6244  0.3636
 3072SOL    HW120852   2.497   1.238   3.684 -0.8248  1.6960 -0.7139
 3072SOL    HW220853   2.554   1.359   3.606 -0.3412  0.6629  0.4328
 3073SOL     OW20854   1.149   2.460  14.435 -0.4448 -0.8254  0.2524
 3073SOL    HW120855   1.211   2.448  14.363  0.6241 -2.0058  1.3666
 3073SOL    HW220856   1.113   2.371  14.438 -0.7567 -0.7090 -0.0206
 3074SOL     OW20857   2.338   1.709   4.436  0.3811 -0.3553 -0.7549
 3074SOL    HW120858   2.430   1.681   4.435  0.3298 -0.5007 -1.7899
 3074SOL    HW220859   2.297   1.629   4.403 -0.3546 -0.8675  1.4156
 3075SOL     OW20860   3.307   3.209   3.967  0.1371  0.0028  0.6659
 3075SOL    HW120861   3.396   3.205   3.934 -1.1952  0.3698 -2.9497
 3075SOL    HW220862   3.314   3.297   4.005  1.6870  0.2169 -0.1077
 3076SOL     OW20863   1.620   0.428   2.505 -0.2223  0.2277  0.3358
 3076SOL    HW120864   1.636   0.486   2.580  0.0567  2.4530 -1.4613
 3076SOL    HW220865   1.700   0.375   2.508 -0.0547  0.4510 -0.3286
 3077SOL     OW20866   2.095   4.070   3.545  0.5328 -0.1465  0.0359
 3077SOL    HW120867   2.116   3.977   3.555  1.2367  0.1963  1.6651
 3077SOL    HW220868   2.164   4.100   3.486 -0.1957 -0.6444 -1.0785
 3078SOL     OW20869   3.964   0.262  12.067 -0.2028  0.2574 -0.3166
 3078SOL    HW120870   3.929   0.217  11.990  0.5424 -2.3244  0.8298
 3078SOL    HW220871   3.902   0.230  12.133  0.1514 -0.6754 -0.4301
 3079SOL     OW20872   2.283   1.803   7.702 -0.2774  0.5853  0.6135
 3079SOL    HW120873   2.254   1.847   7.782  3.0625  1.6939  1.1955
 3079SOL    HW220874   2.343   1.743   7.748  0.8066  1.1316 -0.0962
 3080SOL     OW20875   1.604   2.450   8.790  0.4857  0.4065  0.1292
 3080SOL    HW120876   1.697   2.431   8.776  0.5913  1.8855 -1.1240
 3080SOL    HW220877   1.609   2.439   8.885  4.1949 -0.5593 -0.1460
 3081SOL     OW20878   2.398   2.976   1.977 -0.0766 -0.0017 -0.2428
 3081SOL    HW120879   2.385   2.890   1.938 -0.2627 -0.6244  1.1806
 3081SOL    HW220880   2.394   2.960   2.072 -1.4094  0.4237 -0.2356
 3082SOL     OW20881   4.664   3.845   9.956  0.0292  0.3267  0.8330
 3082SOL    HW120882   4.673   3.765   9.904  2.3793  0.9333  0.2804
 3082SOL    HW220883   0.006   3.835  10.008 -0.5584 -2.3950  1.1701
 3083SOL     OW20884   0.902   2.799   7.075 -0.1806  0.1217  0.4814
 3083SOL    HW120885   0.965   2.826   7.142  0.1481  1.8740 -0.5098
 3083SOL    HW220886   0.874   2.887   7.047 -0.0642  0.3133  0.9646
 3084SOL     OW20887   3.165   0.381   3.022 -0.3178  0.0709  0.0059
 3084SOL    HW120888   3.230   0.449   3.043 -0.3802  0.6475 -1.7300
 3084SOL    HW220889   3.083   0.424   3.046 -1.0388 -1.1923 -0.2062
 3085SOL     OW20890   0.692   1.949   3.573 -0.1128 -0.3562 -0.1878
 3085SOL    HW120891   0.762   1.884   3.571 -1.7516 -2.1658  1.1418
 3085SOL    HW220892   0.728   1.999   3.646  0.5659 -1.9862  0.6091
 3086SOL     OW20893   0.132   3.886  14.435  0.1423 -0.7948  0.7603
 3086SOL    HW120894   0.209   3.929  14.399 -0.5180 -2.5745 -2.7643
 3086SOL    HW220895   0.066   3.906  14.368  1.2709 -1.1634 -0.4504
 3087SOL     OW20896   4.219   2.637   1.473 -0.6526  0.9437  0.0735
 3087SOL    HW120897   4.190   2.682   1.393  2.2495 -0.0591 -1.5524
 3087SOL    HW220898   4.296   2.690   1.494 -0.9789  2.2479 -1.9690
 3088SOL     OW20899   3.646   0.110   5.191  0.6458 -0.1262  0.0025
 3088SOL    HW120900   3.675   0.184   5.245 -1.0440  0.7416 -0.2823
 3088SOL    HW220901   3.593   0.061   5.253  0.4923  0.6052  0.4463
 3089SOL     OW20902   4.431   4.684   8.053  0.2322 -0.2897 -0.3126
 3089SOL    HW120903   4.427   0.013   8.121 -1.3637  0.1782 -0.8781
 3089SOL    HW220904   4.419   4.738   7.974  0.1336 -0.7245 -0.5974
 3090SOL     OW20905   4.583   1.262   4.695 -0.1586 -0.2222  0.6228
 3090SOL    HW120906   4.603   1.173   4.668  1.7359 -0.3939  2.5621
 3090SOL    HW220907   4.490   1.246   4.710 -0.0973 -0.0138  1.2341
 3091SOL     OW20908   2.899   4.400   3.165 -0.2839 -0.1902  0.3312
 3091SOL    HW120909   2.885   4.456   3.241 -0.6380 -1.0509  0.9045
 3091SOL    HW220910   2.889   4.457   3.089  1.5107  0.2130  0.3839
 3092SOL     OW20911   4.578   1.686   7.956  0.4385 -0.8420 -0.4567
 3092SOL    HW120912   4.546   1.690   7.866  1.1976  1.3855 -0.6238
 3092SOL    HW220913   4.576   1.591   7.972 -0.3527 -1.0648 -1.8529
 3093SOL     OW20914   1.833   1.520   2.019  0.7458 -0.6026 -0.1440
 3093SOL    HW120915   1.796   1.606   2.000 -1.3636 -1.5415 -0.3052
 3093SOL    HW220916   1.758   1.459   2.019  0.2562  0.0247 -2.4345
 3094SOL     OW20917   3.574   1.519  10.942  0.2155 -0.2875  0.0163
 3094SOL    HW120918   3.535   1.594  10.898 -0.4577  0.3736  1.7363
 3094SOL    HW220919   3.647   1.554  10.992  0.2991 -1.1979  0.5496
 3095SOL     OW20920   2.775   1.606   1.908 -0.1465 -1.0332  0.3195
 3095SOL    HW120921   2.719   1.622   1.832 -0.1434  0.0011  0.5281
 3095SOL    HW220922   2.746   1.666   1.976 -0.0587  1.1665 -1.5805
 3096SOL     OW20923   1.588   0.570   1.402 -0.3139 -0.2016 -0.2995
 3096SOL    HW120924   1.497   0.585   1.429  0.0126 -0.4620  0.9223
 3096SOL    HW220925   1.615   0.495   1.455  0.1079 -1.1294 -1.8317
 3097SOL     OW20926   1.564   0.144   6.089  0.4493  0.9955 -0.3190
 3097SOL    HW120927   1.550   0.137   5.995  1.6516  0.8954 -0.4878
 3097SOL    HW220928   1.616   0.065   6.104 -1.3045 -0.1952 -0.5111
 3098SOL     OW20929   3.921   4.647   3.379 -0.1866  0.2450 -0.1580
 3098SOL    HW120930   3.884   4.732   3.355 -1.1851 -0.1666 -0.0775
 3098SOL    HW220931   3.865   4.585   3.332 -0.6148 -0.0330  0.7284
 3099SOL     OW20932   3.665   1.165   2.335  0.2835 -0.4535 -0.1922
 3099SOL    HW120933   3.607   1.089   2.336 -1.2276  0.6840 -2.1135
 3099SOL    HW220934   3.600   1.233   2.318 -2.0129 -2.7073 -0.4517
 3100SOL     OW20935   2.021   0.146   9.252  0.6180  0.0959 -0.0905
 3100SOL    HW120936   2.000   0.228   9.296 -0.8158 -1.1575  1.5629
 3100SOL    HW220937   2.090   0.107   9.305  0.6589 -2.4136 -1.9637
 3101SOL     OW20938   1.228   3.495  17.744  0.2118  0.1498  0.5577
 3101SOL    HW120939   1.280   3.419  17.718  0.1940  0.4548 -0.3888
 3101SOL    HW220940   1.221   3.534  17.657 -0.8868 -2.0133 -0.3326
 3102SOL     OW20941   1.478   3.152   1.664 -0.7167 -0.2058  0.1964
 3102SOL    HW120942   1.508   3.196   1.584  0.8172  0.1782  0.9712
 3102SOL    HW220943   1.389   3.132   1.636 -0.1920 -3.4834  0.8533
 3103SOL     OW20944   2.257   2.530   3.198 -0.6051  0.2368 -0.0188
 3103SOL    HW120945   2.181   2.589   3.200 -0.3089  0.5410  2.4689
 3103SOL    HW220946   2.277   2.530   3.104 -3.2788 -1.8204 -0.6018
 3104SOL     OW20947   2.010   4.238   6.508 -0.0683 -0.0204  0.1388
 3104SOL    HW120948   2.056   4.322   6.497  1.5564 -0.6837  1.8931
 3104SOL    HW220949   2.063   4.185   6.449  1.1250  1.4754 -0.1430
 3105SOL     OW20950   4.622   2.379   2.861 -0.0803  0.1760  0.2246
 3105SOL    HW120951   4.675   2.449   2.899 -1.5408  1.0612  0.6496
 3105SOL    HW220952   4.650   2.375   2.770 -0.0081 -0.3309  0.2677
 3106SOL     OW20953   3.081   1.301   0.113  0.3395 -0.0443  0.4251
 3106SOL    HW120954   3.107   1.354   0.038 -0.9970  0.7598  0.5436
 3106SOL    HW220955   3.015   1.347   0.164  0.0327  0.6897 -0.6447
 3107SOL     OW20956   2.034   0.932   8.921 -0.0794  0.5676 -0.4656
 3107SOL    HW120957   1.981   0.984   8.860 -0.1671  1.4637  0.3769
 3107SOL    HW220958   2.110   0.927   8.864 -0.9874  0.6476 -1.6824
 3108SOL     OW20959   0.075   3.976  15.195 -0.2229 -0.0103  0.0252
 3108SOL    HW120960   0.104   3.911  15.259 -0.8271  0.2496  0.5629
 3108SOL    HW220961   0.157   3.987  15.148 -1.3935  0.4227 -1.9425
 3109SOL     OW20962   0.700   2.939   0.261 -0.5117 -0.3062 -0.0684
 3109SOL    HW120963   0.616   2.900   0.286  0.0500 -0.4575  1.6041
 3109SOL    HW220964   0.709   3.007   0.327  3.9002 -0.9317 -0.0506
 3110SOL     OW20965   3.112   2.585   8.633 -0.2153 -0.3158  0.2412
 3110SOL    HW120966   3.057   2.568   8.710 -1.2079 -2.8274 -1.0222
 3110SOL    HW220967   3.140   2.493   8.631  1.3552  0.1862 -1.2138
 3111SOL     OW20968   3.016   1.760   1.905 -0.4921 -0.0189 -0.3755
 3111SOL    HW120969   3.004   1.847   1.866  1.0429  0.1476 -0.4821
 3111SOL    HW220970   2.932   1.733   1.942 -0.3871 -2.5722 -2.0122
 3112SOL     OW20971   3.515   3.925   1.721 -0.5997  0.4343 -0.2497
 3112SOL    HW120972   3.597   3.974   1.718 -0.5997  0.4074 -0.6999
 3112SOL    HW220973   3.466   4.003   1.747 -0.4522  0.2117  0.6938
 3113SOL     OW20974   2.637   0.887   9.677  0.3391  0.0206  0.3838
 3113SOL    HW120975   2.597   0.973   9.668  0.6550  0.2335  1.0944
 3113SOL    HW220976   2.724   0.908   9.644  0.4064  0.8987  1.1441
 3114SOL     OW20977   3.777   1.081  17.300 -0.4587 -0.1449  0.1920
 3114SOL    HW120978   3.771   1.145  17.230  0.1119  0.3596  0.6114
 3114SOL    HW220979   3.840   1.022  17.258 -1.4467 -1.4708  0.5479
 3115SOL     OW20980   1.918   1.519   8.156 -0.1577 -0.8853  0.0412
 3115SOL    HW120981   2.014   1.511   8.158 -0.1781 -1.1685 -0.1070
 3115SOL    HW220982   1.912   1.531   8.251 -1.0619  1.1051 -0.2828
 3116SOL     OW20983   3.572   0.822   7.737  0.1465 -0.4573 -0.0390
 3116SOL    HW120984   3.523   0.904   7.738 -0.0163 -0.5652  0.6019
 3116SOL    HW220985   3.626   0.819   7.816  0.2814  1.8805 -0.0311
 3117SOL     OW20986   4.361   3.439   8.274 -0.1700 -0.0564  0.0787
 3117SOL    HW120987   4.409   3.429   8.357  0.8473  1.8408 -0.2764
 3117SOL    HW220988   4.280   3.394   8.300 -0.1693 -1.1517 -1.8361
 3118SOL     OW20989   0.778   1.627   9.284  0.2602  0.1108  0.4798
 3118SOL    HW120990   0.797   1.602   9.194 -1.5140 -0.3304  0.2342
 3118SOL    HW220991   0.752   1.545   9.327 -1.9767 -0.6472 -2.3421
 3119SOL     OW20992   0.503   0.630   8.712  0.0108  0.0250 -0.4883
 3119SOL    HW120993   0.435   0.689   8.679  0.3411  0.7013  0.0373
 3119SOL    HW220994   0.455   0.548   8.725 -1.4342  0.5896 -2.1646
 3120SOL     OW20995   0.803   2.662   2.863 -0.4919  0.5189 -0.1148
 3120SOL    HW120996   0.761   2.704   2.787 -2.2000  0.9245  1.0584
 3120SOL    HW220997   0.730   2.620   2.908 -0.6356  0.3934 -0.4650
 3121SOL     OW20998   4.451   1.102   8.717 -0.1036 -0.1650  0.1458
 3121SOL    HW120999   4.424   1.175   8.772  0.3793 -0.7967  1.2116
 3121SOL    HW221000   4.511   1.061   8.780 -0.9937  0.9508  1.7082
 3122SOL     OW21001   0.760   4.039  10.354 -0.1356 -0.4571 -0.8802
 3122SOL    HW121002   0.812   4.052  10.275 -0.1379 -2.1153 -1.1476
 3122SOL    HW221003   0.758   4.130  10.385  1.9040 -1.1296  1.2233
 3123SOL     OW21004   4.672   2.135   1.209 -0.2686 -0.6390  1.0107
 3123SOL    HW121005   4.612   2.089   1.268 -0.8551  0.5313  1.3153
 3123SOL    HW221006   4.682   2.064   1.146 -0.1842  0.2562  0.0189
 3124SOL     OW21007   0.318   2.123  17.501 -0.0723  0.0516 -0.1008
 3124SOL    HW121008   0.225   2.100  17.506 -0.4095  1.3143 -0.3580
 3124SOL    HW221009   0.354   2.078  17.577  1.6915  0.3108 -0.7775
 3125SOL     OW21010   3.308   1.200   0.611 -0.7089 -0.1925  0.4639
 3125SOL    HW121011   3.321   1.288   0.574 -1.0429  0.0681  0.9631
 3125SOL    HW221012   3.271   1.154   0.536  1.6200 -2.7492  0.9000
 3126SOL     OW21013   4.392   2.051  12.742  0.4014 -0.2351  0.5526
 3126SOL    HW121014   4.461   2.032  12.805 -1.8102 -3.5559  1.9866
 3126SOL    HW221015   4.426   2.001  12.667 -0.4186  2.7551 -1.8151
 3127SOL     OW21016   2.352   4.019  16.640 -0.3102 -0.6093 -0.1062
 3127SOL    HW121017   2.301   4.020  16.558  0.3261 -0.9730 -0.5081
 3127SOL    HW221018   2.415   4.086  16.613 -0.9811 -0.4081 -1.2365
 3128SOL     OW21019   4.625   0.805   5.361  0.2376 -0.0845  0.3842
 3128SOL    HW121020   4.588   0.818   5.448  0.2102 -0.7390  0.4699
 3128SOL    HW221021   4.660   0.893   5.351 -0.8769  0.3173  0.0703
 3129SOL     OW21022   3.956   3.340   8.976 -0.1949  0.2925  0.1086
 3129SOL    HW121023   3.938   3.359   8.884  2.4482  1.2003 -0.2336
 3129SOL    HW221024   3.880   3.379   9.021  1.8316  2.5545  1.5958
 3130SOL     OW21025   3.668   1.389   8.552 -0.6161  0.4957 -0.6395
 3130SOL    HW121026   3.574   1.391   8.570 -0.6006  2.1772 -0.7093
 3130SOL    HW221027   3.700   1.301   8.572 -0.3544  1.1282  1.6444
 3131SOL     OW21028   0.746   1.284  12.488 -0.0547 -0.2781  0.0884
 3131SOL    HW121029   0.780   1.324  12.567 -0.7800  1.6945 -0.5957
 3131SOL    HW221030   0.822   1.311  12.436 -0.9190  0.6005 -0.7377
 3132SOL     OW21031   0.439   3.730   2.787 -0.2054  0.4488  0.2139
 3132SOL    HW121032   0.422   3.680   2.707 -0.7717  1.1037 -0.0793
 3132SOL    HW221033   0.369   3.702   2.845 -0.5803  1.1230  0.0869
 3133SOL     OW21034   4.240   0.134   0.596  0.6648  0.7607  0.0556
 3133SOL    HW121035   4.198   0.049   0.609  2.9611 -0.2960  0.6974
 3133SOL    HW221036   4.181   0.183   0.539 -2.1862 -1.2616  1.2555
 3134SOL     OW21037   0.828   1.930   0.581  0.1773  0.5469 -0.7802
 3134SOL    HW121038   0.832   2.006   0.638 -0.0027  0.5531 -0.7772
 3134SOL    HW221039   0.860   1.856   0.633  0.4414  1.1542 -0.0828
 3135SOL     OW21040   2.408   0.423   6.739  0.4307  0.5360  0.1553
 3135SOL    HW121041   2.334   0.474   6.708 -0.6595 -0.6421  0.8486
 3135SOL    HW221042   2.403   0.356   6.671  2.8963  1.6072 -1.0902
 3136SOL     OW21043   4.582   0.079   7.458 -0.4843 -0.0951  0.4791
 3136SOL    HW121044   4.493   0.099   7.429 -0.3725 -1.2703 -0.7030
 3136SOL    HW221045   4.628   0.155   7.423 -1.5118 -0.0189 -0.7321
 3137SOL     OW21046   4.366   4.126   1.319  0.3992 -0.0817  0.0391
 3137SOL    HW121047   4.395   4.036   1.338 -0.2120 -0.1713  0.5375
 3137SOL    HW221048   4.440   4.174   1.357 -0.0786  1.6841 -1.2805
 3138SOL     OW21049   2.565   3.384   7.561 -0.0109 -0.8579 -0.2095
 3138SOL    HW121050   2.602   3.472   7.567  3.7867 -2.4856  0.8657
 3138SOL    HW221051   2.550   3.374   7.467 -0.2208  2.5773 -0.5463
 3139SOL     OW21052   0.136   2.025   2.404  0.1660  0.3616  0.0812
 3139SOL    HW121053   0.081   1.947   2.389  0.5007  0.2096 -0.3423
 3139SOL    HW221054   0.071   2.094   2.391 -1.0536 -0.5191  1.4085
 3140SOL     OW21055   4.427   3.093   2.805 -0.1203 -0.6454  0.1833
 3140SOL    HW121056   4.385   3.047   2.878 -0.3394  0.5281  0.7978
 3140SOL    HW221057   4.468   3.022   2.756 -0.7269  0.1387 -1.4374
 3141SOL     OW21058   1.790   0.031   7.436  0.5117 -0.4713  0.0839
 3141SOL    HW121059   1.792   4.674   7.428 -2.3928 -0.6826  1.8805
 3141SOL    HW221060   1.768   0.051   7.344  2.4344 -1.7203 -0.6366
 3142SOL     OW21061   4.296   0.192   2.131  0.5633  0.1143  0.1728
 3142SOL    HW121062   4.231   0.254   2.099  0.5232  0.3512  0.7133
 3142SOL    HW221063   4.284   0.210   2.224 -0.3563  0.9428 -0.1166
 3143SOL     OW21064   1.579   1.480   5.655  0.9568 -0.8043 -0.0684
 3143SOL    HW121065   1.649   1.461   5.593 -0.9833  0.1903 -2.5909
 3143SOL    HW221066   1.522   1.411   5.620  1.5997 -0.4192 -1.8605
 3144SOL     OW21067   0.632   3.136   0.055  0.1440 -0.2963 -0.1992
 3144SOL    HW121068   0.657   3.055   0.099  0.0978  1.1665  2.5081
 3144SOL    HW221069   0.610   3.191   0.130 -0.0911  2.6240 -2.3907
 3145SOL     OW21070   0.448   4.401   3.650  0.2301 -0.1977  0.4184
 3145SOL    HW121071   0.430   4.322   3.701 -1.8641  0.1850  0.2719
 3145SOL    HW221072   0.360   4.413   3.614  1.6753  0.5714 -2.8957
 3146SOL     OW21073   3.226   0.101   0.875 -0.0603 -0.5084  0.3270
 3146SOL    HW121074   3.307   0.052   0.864 -0.8949 -1.4805 -1.4877
 3146SOL    HW221075   3.157   0.036   0.862 -1.9095  1.5748 -0.3448
 3147SOL     OW21076   0.008   1.405   0.541  0.7096 -0.2013 -0.5195
 3147SOL    HW121077   0.031   1.362   0.459  1.0838  1.5902 -1.3357
 3147SOL    HW221078   0.061   1.484   0.533  1.2691 -0.5281 -0.0878
 3148SOL     OW21079   0.629   0.914  14.838 -0.2100  0.3651 -0.4431
 3148SOL    HW121080   0.561   0.893  14.902 -0.2864 -1.4937 -1.1409
 3148SOL    HW221081   0.585   0.977  14.781 -0.0213  2.4149  1.6755
 3149SOL     OW21082   2.948   4.149   7.218  0.4063  0.0253  0.3569
 3149SOL    HW121083   2.932   4.224   7.275 -2.4834  0.1465 -0.5768
 3149SOL    HW221084   3.042   4.152   7.203  0.4627  0.3735  0.7661
 3150SOL     OW21085   4.304   2.896  10.587 -0.2140 -0.0036 -0.0916
 3150SOL    HW121086   4.381   2.886  10.643  0.5188  0.2438 -1.0442
 3150SOL    HW221087   4.347   2.892  10.501 -0.0047 -0.8039  0.0528
 3151SOL     OW21088   2.201   3.147  16.265  0.2194  0.0757  0.2992
 3151SOL    HW121089   2.115   3.123  16.229  0.1270  0.3217  0.3557
 3151SOL    HW221090   2.190   3.169  16.357 -3.1622 -1.6234  0.2963
 3152SOL     OW21091   4.570   3.473   4.658 -0.3149 -0.5079 -0.1586
 3152SOL    HW121092   4.609   3.487   4.571  0.0815 -1.8512 -0.1884
 3152SOL    HW221093   4.489   3.431   4.630  0.4706 -1.0049 -1.6944
 3153SOL     OW21094   4.196   0.097   1.824 -0.5572 -0.3901  0.0762
 3153SOL    HW121095   4.145   0.153   1.883  1.2869  1.1824  0.1713
 3153SOL    HW221096   4.224   0.164   1.761 -1.3920 -0.1631 -0.0605
 3154SOL     OW21097   3.058   1.596   6.438 -0.0791  0.3495  0.5370
 3154SOL    HW121098   3.090   1.510   6.461 -0.5254  0.0216 -0.0659
 3154SOL    HW221099   3.018   1.620   6.522 -0.6913 -0.6885  0.5367
 3155SOL     OW21100   0.623   2.165   6.582 -0.0869 -0.5890  0.0758
 3155SOL    HW121101   0.631   2.147   6.676  0.6111 -0.5152  0.0338
 3155SOL    HW221102   0.558   2.105   6.544 -2.0501  2.4085 -1.2573
 3156SOL     OW21103   4.009   4.651  12.266 -0.0149 -0.2549  0.6518
 3156SOL    HW121104   4.098   4.616  12.256  0.7869  2.3311 -1.2863
 3156SOL    HW221105   3.985   4.598  12.342  1.3734 -0.7973  0.7108
 3157SOL     OW21106   1.563   0.980  11.418 -0.0371 -0.1614 -0.1729
 3157SOL    HW121107   1.553   1.001  11.325 -1.9825  0.3582  0.1611
 3157SOL    HW221108   1.630   1.047  11.428 -0.8656  0.6930 -0.3290
 3158SOL     OW21109   4.183   1.367   6.506  0.0587  0.1984 -0.1935
 3158SOL    HW121110   4.102   1.401   6.544  0.7152  0.5658  0.8875
 3158SOL    HW221111   4.149   1.278   6.508 -0.6892  0.4881  0.1527
 3159SOL     OW21112   3.615   3.569   5.923 -0.0562  0.3252 -0.0415
 3159SOL    HW121113   3.654   3.524   5.998  1.5934  1.4686 -0.1958
 3159SOL    HW221114   3.556   3.500   5.895 -0.4976  0.7230 -0.0811
 3160SOL     OW21115   2.149   0.168  13.530  0.4171 -0.3719 -0.0614
 3160SOL    HW121116   2.142   0.252  13.576  0.5322  0.4458 -1.5429
 3160SOL    HW221117   2.166   0.213  13.447 -2.4511 -0.7344 -0.8700
 3161SOL     OW21118   4.178   1.061  14.385  0.1507 -0.1264  0.3352
 3161SOL    HW121119   4.145   1.003  14.316 -0.1524 -0.5960  0.8667
 3161SOL    HW221120   4.119   1.135  14.373  0.6456 -0.1266 -2.1471
 3162SOL     OW21121   4.512   2.658   6.819  0.3817  0.6570 -0.3612
 3162SOL    HW121122   4.587   2.640   6.876  0.8615  4.3790  0.1703
 3162SOL    HW221123   4.541   2.732   6.766  2.4840 -0.5495 -0.9141
 3163SOL     OW21124   0.934   1.579   8.463 -0.4609 -0.1875 -0.0378
 3163SOL    HW121125   1.016   1.625   8.479  0.5059 -1.3215 -1.7292
 3163SOL    HW221126   0.896   1.651   8.413 -0.6187 -0.8870 -0.9203
 3164SOL     OW21127   1.273   4.275  10.959  0.1348  0.4655 -0.1655
 3164SOL    HW121128   1.361   4.243  10.943 -0.2084 -0.4197 -0.2650
 3164SOL    HW221129   1.268   4.276  11.054  0.9259  1.2796 -0.1352
 3165SOL     OW21130   2.571   3.737   3.799  0.3389 -0.1035 -0.3690
 3165SOL    HW121131   2.540   3.647   3.794  1.7332 -0.6504  0.5809
 3165SOL    HW221132   2.604   3.753   3.711  1.4126 -1.0103 -0.1390
 3166SOL     OW21133   3.669   3.018  16.171  0.5651 -0.2707  0.4075
 3166SOL    HW121134   3.626   2.954  16.114 -1.4454  1.8732 -0.4937
 3166SOL    HW221135   3.676   3.088  16.105  0.6846  1.5067  2.3020
 3167SOL     OW21136   1.803   3.020   7.096 -0.0110 -0.3193 -0.0002
 3167SOL    HW121137   1.709   3.030   7.082  0.1104  0.8447 -0.0068
 3167SOL    HW221138   1.801   2.937   7.144 -2.4975 -0.5675 -0.5065
 3168SOL     OW21139   2.428   3.260   2.460 -0.6209  0.4377  0.2599
 3168SOL    HW121140   2.401   3.188   2.518 -0.8801  1.5523  1.5264
 3168SOL    HW221141   2.432   3.337   2.517  2.6336 -0.6934  1.5850
 3169SOL     OW21142   0.058   3.932   4.183 -0.0857  0.4827 -0.2171
 3169SOL    HW121143   4.736   3.873   4.228 -1.2599 -0.4862 -3.0708
 3169SOL    HW221144   0.143   3.899   4.213 -0.4531  0.0876  0.3872
 3170SOL     OW21145   0.191   2.993   8.900  0.4550  0.4061 -0.0750
 3170SOL    HW121146   0.179   3.013   8.993  0.4236  2.2364 -0.4855
 3170SOL    HW221147   0.124   2.928   8.879  1.2450 -0.0729 -1.1323
 3171SOL     OW21148   0.293   3.168   2.167  0.0414 -0.1955 -0.4760
 3171SOL    HW121149   0.325   3.078   2.178  2.8000  0.6383 -1.5461
 3171SOL    HW221150   0.349   3.217   2.227 -0.1168 -1.8184  1.0067
 3172SOL     OW21151   2.958   3.756   4.913  0.4024  0.0038  0.4898
 3172SOL    HW121152   2.936   3.664   4.923 -1.4090 -0.0477 -4.0375
 3172SOL    HW221153   2.877   3.803   4.930  1.1602  0.9792  1.4603
 3173SOL     OW21154   4.356   4.133  14.931  0.5640 -0.8113 -0.4373
 3173SOL    HW121155   4.443   4.094  14.930  1.2179  0.6361  0.0516
 3173SOL    HW221156   4.334   4.112  15.021 -1.0231  0.7955 -0.4428
 3174SOL     OW21157   3.332   3.165  16.082  0.6656 -0.5688  1.0090
 3174SOL    HW121158   3.418   3.203  16.066  0.8267 -0.8576  1.1945
 3174SOL    HW221159   3.302   3.213  16.160  1.2160  0.7140  0.4229
 3175SOL     OW21160   1.921   0.754  12.986 -0.7799  0.6951 -0.1868
 3175SOL    HW121161   1.883   0.683  13.037  1.3892 -1.3359 -1.4086
 3175SOL    HW221162   1.847   0.802  12.947  2.0006  3.1429 -2.4246
 3176SOL     OW21163   0.206   0.058  16.614 -0.3024 -0.2258 -0.3380
 3176SOL    HW121164   0.121   0.080  16.575 -0.1395 -0.5255 -0.8620
 3176SOL    HW221165   0.208   0.107  16.696 -0.1134 -0.2899 -0.3046
 3177SOL     OW21166   1.160   1.421  15.602  0.3632  0.0700 -0.0924
 3177SOL    HW121167   1.093   1.451  15.541 -1.0463 -0.5916  1.1591
 3177SOL    HW221168   1.181   1.507  15.640  0.1050  0.8823 -1.7736
 3178SOL     OW21169   1.973   3.875   6.336 -0.2026  0.3881  0.0825
 3178SOL    HW121170   1.953   3.812   6.266  1.2671 -0.5087  0.4690
 3178SOL    HW221171   1.926   3.832   6.408  1.4999  0.8471  1.4602
 3179SOL     OW21172   3.469   0.588  16.817 -0.1969 -0.1959 -0.2031
 3179SOL    HW121173   3.558   0.579  16.782  0.5159  0.3844  1.4461
 3179SOL    HW221174   3.484   0.601  16.910  0.7948  0.5696 -0.4701
 3180SOL     OW21175   4.416   1.776   8.716 -0.5052 -0.2125 -0.0855
 3180SOL    HW121176   4.447   1.796   8.805 -0.6052  1.8838 -0.5084
 3180SOL    HW221177   4.395   1.684   8.728 -0.4427 -0.6040 -3.2321
 3181SOL     OW21178   3.945   3.229  10.119 -0.3850  0.2628 -0.4457
 3181SOL    HW121179   4.010   3.259  10.056 -0.3672  0.3764 -0.3727
 3181SOL    HW221180   3.876   3.292  10.101  0.3058  1.6707  1.9959
 3182SOL     OW21181   2.421   0.012   9.586  0.3342  0.2303 -0.2682
 3182SOL    HW121182   2.466   4.688   9.643 -1.2215  1.3439  2.1901
 3182SOL    HW221183   2.452   4.729   9.498 -0.4854  0.4818 -0.6200
 3183SOL     OW21184   3.138   2.435   3.725  0.1852 -0.0089  0.5476
 3183SOL    HW121185   3.159   2.391   3.807  0.1937  1.6894  1.4463
 3183SOL    HW221186   3.085   2.370   3.679 -0.7702  0.7447  0.5730
 3184SOL     OW21187   3.849   2.830   9.513  0.9471 -0.2166  0.5230
 3184SOL    HW121188   3.832   2.846   9.606  2.1546 -0.9624  0.8591
 3184SOL    HW221189   3.929   2.780   9.505 -0.0844 -2.1080  1.9999
 3185SOL     OW21190   2.321   0.604  13.326  0.0363 -0.1358 -0.0536
 3185SOL    HW121191   2.339   0.684  13.375  2.9103 -2.1627  2.1981
 3185SOL    HW221192   2.398   0.548  13.332 -0.8799 -1.4630 -0.7196
 3186SOL     OW21193   3.820   2.824   0.226 -0.2729  0.0147  0.3266
 3186SOL    HW121194   3.808   2.911   0.189 -0.4992 -0.1824 -0.0545
 3186SOL    HW221195   3.848   2.784   0.144 -3.1094  0.3849 -0.7930
 3187SOL     OW21196   3.523   0.942   6.827 -0.1212  0.1785 -0.1233
 3187SOL    HW121197   3.516   0.968   6.735  0.5408 -0.1123 -0.2525
 3187SOL    HW221198   3.437   0.966   6.862  0.5852 -0.2315  1.8847
 3188SOL     OW21199   2.699   3.907   2.106  0.6642  0.5563 -0.3419
 3188SOL    HW121200   2.649   3.956   2.171  1.8232 -0.8963  1.6656
 3188SOL    HW221201   2.787   3.944   2.100  1.2668 -0.8823 -0.2868
 3189SOL     OW21202   3.013   0.181   2.898 -0.3820 -0.0626  0.7028
 3189SOL    HW121203   2.959   0.255   2.868  0.3301  0.3305  0.3996
 3189SOL    HW221204   3.068   0.224   2.964  1.8625 -1.9441  0.0595
 3190SOL     OW21205   0.316   0.224   5.054  0.4123  0.1928  0.2733
 3190SOL    HW121206   0.255   0.281   5.007 -0.0579  0.1798  0.8756
 3190SOL    HW221207   0.331   0.152   4.993 -2.1734 -0.9069  0.9224
 3191SOL     OW21208   1.337   2.651   3.056  0.5566  0.2111 -0.8019
 3191SOL    HW121209   1.407   2.714   3.073  0.3112  0.1983  0.2586
 3191SOL    HW221210   1.385   2.589   3.001 -1.1543 -1.8481  0.0455
 3192SOL     OW21211   3.335   1.551   4.022  0.4215 -0.0652  0.0853
 3192SOL    HW121212   3.245   1.582   4.029 -0.0553 -1.3501 -0.3828
 3192SOL    HW221213   3.368   1.573   3.935 -1.4930 -0.0884 -0.6421
 3193SOL     OW21214   3.533   1.997   7.392  0.2007 -0.2295  0.2444
 3193SOL    HW121215   3.509   1.974   7.303  2.4029  0.1807 -0.4665
 3193SOL    HW221216   3.472   1.941   7.438 -1.9169  2.0500  0.2028
 3194SOL     OW21217   1.804   0.854  16.810 -0.9584 -0.2467 -0.1758
 3194SOL    HW121218   1.810   0.950  16.804  1.4508 -0.5547 -2.7736
 3194SOL    HW221219   1.722   0.845  16.762 -0.8989 -0.5218 -0.2229
 3195SOL     OW21220   0.429   1.457  12.686  0.1137  0.1850  0.3457
 3195SOL    HW121221   0.420   1.509  12.607  0.0229 -2.7324 -1.5429
 3195SOL    HW221222   0.524   1.464  12.691 -0.1406  2.4890  1.9205
 3196SOL     OW21223   1.008   1.463   6.659 -0.2889  0.2087 -0.3388
 3196SOL    HW121224   0.996   1.390   6.598 -0.8693 -0.0365  0.0660
 3196SOL    HW221225   1.033   1.526   6.592  1.7653  1.2823  1.4275
 3197SOL     OW21226   3.059   0.789   7.006 -0.0638 -0.3709  0.3066
 3197SOL    HW121227   2.981   0.743   6.975 -1.0029  0.6833  1.0932
 3197SOL    HW221228   3.120   0.717   7.017 -0.7162 -1.2710 -2.0597
 3198SOL     OW21229   4.497   2.278   3.528  0.5212  0.2292 -0.0323
 3198SOL    HW121230   4.563   2.234   3.474  1.7008  2.7724 -0.6662
 3198SOL    HW221231   4.483   2.209   3.593  0.5354 -1.1618 -1.4861
 3199SOL     OW21232   2.018   2.917   4.567 -0.1398  0.5140 -0.2311
 3199SOL    HW121233   1.955   2.846   4.578 -0.8815  1.2625  0.3499
 3199SOL    HW221234   2.036   2.932   4.660  1.1054 -1.3250 -0.1845
 3200SOL     OW21235   1.819   1.527   9.541 -0.7681  0.2943 -0.2447
 3200SOL    HW121236   1.800   1.605   9.593  0.1066  0.0947  0.3665
 3200SOL    HW221237   1.737   1.480   9.532 -0.3648 -0.5972  0.7738
 3201SOL     OW21238   1.117   1.386  11.355  0.3913  0.6270  0.2506
 3201SOL    HW121239   1.107   1.449  11.284  1.2190 -0.7711 -1.0878
 3201SOL    HW221240   1.189   1.338  11.315  1.9541  1.9573  1.4420
 3202SOL     OW21241   4.276   2.659   4.176  0.2005 -0.3727 -0.3582
 3202SOL    HW121242   4.365   2.696   4.181  0.1364 -0.2108 -0.4365
 3202SOL    HW221243   4.274   2.598   4.250 -1.8846 -0.5839 -0.5912
 3203SOL     OW21244   0.396   0.826   3.123  0.0242  0.1269 -0.5557
 3203SOL    HW121245   0.463   0.893   3.137 -0.6799  0.7719 -0.2724
 3203SOL    HW221246   0.421   0.786   3.040 -0.7659 -0.9474 -0.2758
 3204SOL     OW21247   1.125   2.136   6.029  0.0727 -0.0856  0.9095
 3204SOL    HW121248   1.122   2.144   5.933 -0.8156 -0.1266  0.9401
 3204SOL    HW221249   1.047   2.082   6.042  2.6020 -3.9190  0.3832
 3205SOL     OW21250   3.226   0.852   1.542  0.3529  0.3362  0.2671
 3205SOL    HW121251   3.152   0.897   1.584 -0.0099 -0.8299  0.8733
 3205SOL    HW221252   3.191   0.853   1.453  0.7130  1.6283  0.1358
 3206SOL     OW21253   1.997   3.437   1.386 -0.4282 -0.2842 -0.2080
 3206SOL    HW121254   1.999   3.356   1.335  0.4661 -1.5249  1.8166
 3206SOL    HW221255   1.934   3.414   1.454  0.2125 -0.1705  0.4284
 3207SOL     OW21256   0.823   0.296  17.390 -0.0579  0.2320  0.2939
 3207SOL    HW121257   0.808   0.349  17.469  3.6269 -1.3021  2.0424
 3207SOL    HW221258   0.869   0.361  17.337  0.9032 -2.6093 -2.3475
 3208SOL     OW21259   4.321   0.126   4.124 -0.2510  0.0098  0.0554
 3208SOL    HW121260   4.380   0.111   4.197  1.2548  0.7380 -1.0078
 3208SOL    HW221261   4.349   0.053   4.068 -0.9966  0.6145 -1.1019
 3209SOL     OW21262   2.758   1.995   8.082 -0.1892 -0.2017  0.6651
 3209SOL    HW121263   2.762   2.089   8.065 -1.0451 -0.5235 -1.3348
 3209SOL    HW221264   2.716   1.962   8.003  1.7125 -0.1257 -0.3784
 3210SOL     OW21265   3.166   1.775  16.403  0.1600  0.2983  0.4636
 3210SOL    HW121266   3.110   1.780  16.481 -0.3500  0.3677  0.0947
 3210SOL    HW221267   3.231   1.716  16.442 -0.6999 -1.3261 -0.5559
 3211SOL     OW21268   1.299   3.452   4.274  0.3390 -0.1046  0.5518
 3211SOL    HW121269   1.293   3.376   4.215  1.8486 -1.3213  1.9747
 3211SOL    HW221270   1.227   3.511   4.252  1.2474  0.5042 -0.7882
 3212SOL     OW21271   2.289   1.426  17.201 -0.3774 -0.0963 -0.2042
 3212SOL    HW121272   2.220   1.493  17.198 -0.5638 -0.3173 -0.7603
 3212SOL    HW221273   2.351   1.443  17.131 -1.1932 -2.2333 -1.4580
 3213SOL     OW21274   0.689   1.073   3.558 -0.0423  0.1012 -0.4270
 3213SOL    HW121275   0.771   1.122   3.559 -0.0030  0.0276  0.2534
 3213SOL    HW221276   0.724   0.994   3.518 -0.9675 -1.1707  1.2874
 3214SOL     OW21277   1.044   3.111   9.042  0.0783 -0.1820  1.0532
 3214SOL    HW121278   1.012   3.182   9.098 -1.4118 -0.2466  0.2768
 3214SOL    HW221279   0.970   3.103   8.981  1.3063  2.5927 -0.8524
 3215SOL     OW21280   2.341   1.100   6.474 -0.0557 -0.1469  0.5078
 3215SOL    HW121281   2.283   1.167   6.509 -0.0037 -0.5520  1.3576
 3215SOL    HW221282   2.379   1.142   6.397  1.7165 -2.1294  0.2851
 3216SOL     OW21283   1.417   0.706   4.102  0.1971 -0.0337 -0.6881
 3216SOL    HW121284   1.480   0.773   4.127  0.3603  0.0572 -1.3452
 3216SOL    HW221285   1.400   0.673   4.191  0.1627  1.9850  0.0604
 3217SOL     OW21286   1.758   0.715   2.936 -0.6116 -0.0399  0.3624
 3217SOL    HW121287   1.775   0.778   3.006  2.0435 -0.6292  0.2578
 3217SOL    HW221288   1.689   0.660   2.973  0.2287 -1.0361  0.4516
 3218SOL     OW21289   2.453   1.524   4.928  0.4227 -0.2202 -0.2535
 3218SOL    HW121290   2.390   1.539   4.857  2.4724  2.3436 -1.5348
 3218SOL    HW221291   2.467   1.615   4.954  3.4600 -0.6682 -0.3306
 3219SOL     OW21292   1.310   4.735   6.923  0.3500 -0.2698  0.1973
 3219SOL    HW121293   1.343   4.730   7.013 -2.0179  3.8751  1.3229
 3219SOL    HW221294   1.369   4.679   6.873  0.7223 -0.1955  0.5544
 3220SOL     OW21295   2.421   2.980   3.499  0.0516 -0.1802 -0.2354
 3220SOL    HW121296   2.378   2.898   3.475 -0.8830  0.0773  0.5588
 3220SOL    HW221297   2.351   3.027   3.545 -0.0012 -0.0330 -0.4650
 3221SOL     OW21298   1.733   2.982   3.281 -0.0788  0.2283 -0.4269
 3221SOL    HW121299   1.735   3.064   3.331  1.4110 -1.8100  2.8037
 3221SOL    HW221300   1.647   2.942   3.299 -0.3841  1.5066  0.9731
 3222SOL     OW21301   3.553   4.584   2.568 -0.0387 -0.4205  0.1792
 3222SOL    HW121302   3.636   4.631   2.577 -1.7220  2.3899  0.9209
 3222SOL    HW221303   3.570   4.519   2.500  3.2124 -0.3000  0.8339
 3223SOL     OW21304   3.193   4.002  12.252  0.5967  0.2122 -0.1191
 3223SOL    HW121305   3.247   3.972  12.178 -2.6498  2.6547 -3.4752
 3223SOL    HW221306   3.142   3.922  12.266 -1.5522  1.9540  1.9194
 3224SOL     OW21307   3.124   3.690   6.224 -0.0140  0.1279 -0.1584
 3224SOL    HW121308   3.193   3.634   6.188 -1.5829 -1.3431 -0.9170
 3224SOL    HW221309   3.169   3.771   6.247  1.7432 -1.0556  0.6075
 3225SOL     OW21310   1.230   1.607   2.361 -0.0740  0.0269 -0.6798
 3225SOL    HW121311   1.179   1.554   2.300  0.0648  0.8998 -1.5491
 3225SOL    HW221312   1.203   1.576   2.447  0.1278  0.1860 -0.5594
 3226SOL     OW21313   2.607   4.382   0.557 -0.3218  0.0496 -0.0901
 3226SOL    HW121314   2.657   4.459   0.529 -0.6307  0.2235 -0.1538
 3226SOL    HW221315   2.535   4.397   0.496 -0.1929  2.0167  0.2490
 3227SOL     OW21316   1.706   2.067   7.644 -0.4938 -0.0729  0.3728
 3227SOL    HW121317   1.694   2.058   7.739  1.4360  0.0475  0.6350
 3227SOL    HW221318   1.718   1.977   7.614 -0.1329  0.2648 -0.4802
 3228SOL     OW21319   2.541   1.529  16.573 -0.1323 -0.4778  0.4704
 3228SOL    HW121320   2.483   1.591  16.529 -0.9029 -2.4856 -1.3775
 3228SOL    HW221321   2.512   1.444  16.542 -2.2411 -0.0120  1.1936
 3229SOL     OW21322   0.917   3.742   0.208  0.2759  0.0475  0.3410
 3229SOL    HW121323   0.845   3.802   0.224 -0.8519 -1.2013 -0.0317
 3229SOL    HW221324   0.902   3.686   0.284  0.4945  0.9108  1.0163
 3230SOL     OW21325   0.043   4.540   5.976  0.3023 -0.1664 -0.0474
 3230SOL    HW121326   4.715   4.507   5.916  1.3259 -0.3683 -1.0559
 3230SOL    HW221327   0.004   4.627   5.988  0.2951 -0.2092  0.2278
 3231SOL     OW21328   1.441   2.254   8.693  0.2014 -0.4394 -0.0281
 3231SOL    HW121329   1.521   2.201   8.697  1.0214  0.6734 -1.8733
 3231SOL    HW221330   1.475   2.340   8.719 -1.8941  0.6033 -0.8069
 3232SOL     OW21331   1.048   3.369  13.953 -0.0192 -0.1029 -0.1364
 3232SOL    HW121332   1.002   3.336  13.876 -0.8920 -0.9116  0.7274
 3232SOL    HW221333   1.119   3.415  13.908 -0.5054  1.3544  0.6122
 3233SOL     OW21334   4.623   0.827   8.418 -0.2433  0.0197 -0.0404
 3233SOL    HW121335   4.577   0.823   8.334 -0.7437  1.0955  0.1805
 3233SOL    HW221336   4.554   0.849   8.480 -0.5314  0.7782 -0.6200
 3234SOL     OW21337   3.850   0.964   1.979  0.3057 -0.2808 -0.1252
 3234SOL    HW121338   3.923   0.923   1.932  1.0557  0.8243  0.0750
 3234SOL    HW221339   3.902   1.038   2.010  1.4850 -0.0611 -2.6060
 3235SOL     OW21340   1.096   3.779  14.793 -0.0286 -0.4354 -0.1192
 3235SOL    HW121341   1.089   3.867  14.828 -1.7009 -0.1690 -1.1169
 3235SOL    HW221342   1.051   3.781  14.708 -0.6916  1.1482  0.2829
 3236SOL     OW21343   4.661   1.542   1.683  0.0177 -0.5342  0.0018
 3236SOL    HW121344   4.674   1.447   1.683  0.6103 -0.4516 -0.3297
 3236SOL    HW221345   4.722   1.559   1.755  1.5779  1.4559 -1.8054
 3237SOL     OW21346   0.195   2.426   8.821 -1.0734 -0.2267 -0.0880
 3237SOL    HW121347   0.130   2.411   8.890  0.3636 -1.0419  1.1054
 3237SOL    HW221348   0.147   2.410   8.740  0.6883 -2.1532 -0.7427
 3238SOL     OW21349   4.131   3.172   6.441 -0.1246 -0.0815 -0.1390
 3238SOL    HW121350   4.165   3.116   6.372  0.3271 -0.1795  0.1592
 3238SOL    HW221351   4.203   3.173   6.504  0.9806  1.2226 -1.4289
 3239SOL     OW21352   4.232   3.136   0.195 -0.2706  0.0334  0.1724
 3239SOL    HW121353   4.245   3.114   0.288  1.5380 -1.5243 -0.4317
 3239SOL    HW221354   4.181   3.215   0.210  1.4897  1.0140  1.0417
 3240SOL     OW21355   0.005   1.659   8.769 -0.4235  0.4532 -0.4815
 3240SOL    HW121356   0.006   1.571   8.807  1.0201  1.4265  1.7516
 3240SOL    HW221357   4.668   1.706   8.803  1.0236  1.9998  0.6381
 3241SOL     OW21358   2.310   0.394   8.889  0.1678  0.2616 -0.1457
 3241SOL    HW121359   2.293   0.463   8.953  0.1136 -0.3733  0.5312
 3241SOL    HW221360   2.381   0.346   8.933 -1.5182 -1.9991  0.0948
 3242SOL     OW21361   0.826   4.400   8.622  0.1109  0.2252 -0.5855
 3242SOL    HW121362   0.824   4.495   8.637 -0.1271 -0.0615  1.1693
 3242SOL    HW221363   0.763   4.392   8.550  0.3299 -0.1131 -0.7392
 3243SOL     OW21364   0.697   3.604   6.379  0.2208 -0.4562 -0.6354
 3243SOL    HW121365   0.656   3.654   6.450  0.6009 -1.8786  0.5957
 3243SOL    HW221366   0.731   3.678   6.330 -0.5777  0.2044 -0.1914
 3244SOL     OW21367   0.007   1.944   0.998 -0.3170 -0.4356  0.2259
 3244SOL    HW121368   4.657   1.980   0.999  0.6038  1.8074  1.3557
 3244SOL    HW221369   0.038   1.943   0.907  0.3322  2.8492  0.4382
 3245SOL     OW21370   0.524   4.070   5.554  0.3861 -0.2809 -0.7131
 3245SOL    HW121371   0.559   4.072   5.643  0.8674  2.6090 -0.9520
 3245SOL    HW221372   0.461   4.139   5.573 -1.3465 -1.7331 -1.1995
 3246SOL     OW21373   0.918   1.577   2.282 -0.1873 -0.1279  0.1338
 3246SOL    HW121374   0.923   1.604   2.373  1.6149  1.8274 -0.5389
 3246SOL    HW221375   0.875   1.492   2.295  1.4716 -1.2289 -1.4282
 3247SOL     OW21376   1.426   1.967   7.193 -0.2807  0.1074 -0.4361
 3247SOL    HW121377   1.359   2.019   7.149 -0.5943  1.5143  1.6895
 3247SOL    HW221378   1.431   1.888   7.140  1.8898  0.7773 -1.2205
 3248SOL     OW21379   3.662   3.153  16.656 -0.0251 -0.3200 -0.2263
 3248SOL    HW121380   3.647   3.134  16.564  0.5302  1.0266 -0.5876
 3248SOL    HW221381   3.652   3.247  16.643  1.7288 -0.1823 -0.5546
 3249SOL     OW21382   3.154   0.817   4.654  0.5119  0.0473  0.4809
 3249SOL    HW121383   3.112   0.761   4.720 -1.2831  2.1061  1.0891
 3249SOL    HW221384   3.141   0.763   4.576  0.5905  1.0484 -0.2253
 3250SOL     OW21385   3.439   3.653   5.182  0.0091  0.3839  0.4697
 3250SOL    HW121386   3.375   3.613   5.124 -0.6894  1.6862  0.3310
 3250SOL    HW221387   3.392   3.731   5.212 -0.0154  0.6874 -0.3624
 3251SOL     OW21388   0.541   3.853   1.598  0.1867  0.0004  0.4721
 3251SOL    HW121389   0.596   3.788   1.640 -0.0284 -0.4668  0.0281
 3251SOL    HW221390   0.597   3.931   1.599  2.5405 -1.7339  3.0025
 3252SOL     OW21391   2.364   3.420   1.693  0.6561  0.0600 -0.2354
 3252SOL    HW121392   2.442   3.395   1.741 -0.8358 -0.8295  1.7455
 3252SOL    HW221393   2.309   3.455   1.763  3.5916 -1.0070  2.5771
 3253SOL     OW21394   2.810   2.257   5.179  0.4800 -0.1979  0.1052
 3253SOL    HW121395   2.838   2.234   5.268 -1.6538 -1.1410  0.5477
 3253SOL    HW221396   2.716   2.275   5.187  0.7675  1.9450 -1.3152
 3254SOL     OW21397   2.501   1.829   6.765 -0.0690 -0.2661  0.1306
 3254SOL    HW121398   2.546   1.786   6.692  4.0228  2.0150  1.3194
 3254SOL    HW221399   2.538   1.780   6.838 -1.2782 -0.5386  0.5708
 3255SOL     OW21400   3.004   4.680   0.834  0.1220 -0.2573  0.4003
 3255SOL    HW121401   2.996   4.656   0.926  0.7464  0.1972  0.5728
 3255SOL    HW221402   2.918   4.656   0.797  0.0371 -0.6914  0.8803
 3256SOL     OW21403   2.106   4.062  12.350 -0.2020 -0.0094  0.1604
 3256SOL    HW121404   2.055   4.143  12.343  0.3103  0.2889 -0.1063
 3256SOL    HW221405   2.170   4.078  12.281  0.2449 -1.2412  0.2939
 3257SOL     OW21406   3.806   1.148   6.776 -0.1915  0.0614  0.4532
 3257SOL    HW121407   3.756   1.227   6.795 -0.4657  0.5580 -2.3841
 3257SOL    HW221408   3.814   1.114   6.866 -2.1263 -2.6124 -0.3707
 3258SOL     OW21409   4.295   4.372   8.866 -0.5635  0.4789  0.3318
 3258SOL    HW121410   4.282   4.398   8.957 -0.9713  0.8028  0.1795
 3258SOL    HW221411   4.240   4.430   8.814  0.4633 -1.1482 -2.5874
 3259SOL     OW21412   0.404   3.033   4.396 -0.1185  0.3475 -0.2403
 3259SOL    HW121413   0.350   3.057   4.320 -0.0170 -1.8650 -1.0066
 3259SOL    HW221414   0.465   3.106   4.391 -1.3203  1.3208 -0.7304
 3260SOL     OW21415   4.171   2.954   3.241  0.0533 -0.0455 -0.0968
 3260SOL    HW121416   4.121   3.009   3.181  0.5760 -0.4473 -0.9100
 3260SOL    HW221417   4.141   2.973   3.330  0.2713 -1.6230  0.3155
 3261SOL     OW21418   0.659   1.324   4.627  0.0600  0.0252  0.7791
 3261SOL    HW121419   0.600   1.296   4.557 -0.1084 -2.1997  1.8044
 3261SOL    HW221420   0.674   1.234   4.656 -0.2310 -0.6104 -1.0104
 3262SOL     OW21421   1.376   4.684   2.308  0.0775 -0.2504  0.2557
 3262SOL    HW121422   1.468   4.695   2.284  0.5358 -2.4122  1.0479
 3262SOL    HW221423   1.331   4.730   2.237 -1.3825 -2.2755 -0.1021
 3263SOL     OW21424   0.622   1.877   0.424 -0.2221  0.1117  0.1912
 3263SOL    HW121425   0.685   1.912   0.488 -1.4049  2.0273  0.3093
 3263SOL    HW221426   0.670   1.908   0.347  0.5146  0.0963  0.6330
 3264SOL     OW21427   0.902   4.038   7.840  0.2642 -0.7341  0.2672
 3264SOL    HW121428   0.948   4.016   7.921  0.2924 -2.3043 -0.1750
 3264SOL    HW221429   0.855   3.956   7.823 -0.9998 -0.3583  1.8956
 3265SOL     OW21430   0.579   2.680   6.244 -0.1242 -0.1892 -0.1096
 3265SOL    HW121431   0.553   2.614   6.308  2.0017 -0.0699  0.8673
 3265SOL    HW221432   0.491   2.709   6.219  0.0928  1.5350  1.1667
 3266SOL     OW21433   4.513   0.157   1.956  0.0055  0.1136  0.5066
 3266SOL    HW121434   4.607   0.168   1.973  0.1974 -2.1414  0.8818
 3266SOL    HW221435   4.467   0.168   2.040 -0.0292 -1.1824  0.6574
 3267SOL     OW21436   2.958   1.803   6.918  0.5270 -0.6232  0.2348
 3267SOL    HW121437   3.017   1.797   6.993 -0.2790 -0.6667  0.8694
 3267SOL    HW221438   2.886   1.850   6.960  2.2717  0.1575  2.2994
 3268SOL     OW21439   4.632   3.142   4.701 -0.4704 -0.2763 -0.2144
 3268SOL    HW121440   4.653   3.211   4.764 -0.1242 -1.8338  1.3768
 3268SOL    HW221441   4.721   3.121   4.674 -0.3226 -2.5673  2.0331
 3269SOL     OW21442   2.502   4.039   2.254 -0.1148 -0.1162  0.1092
 3269SOL    HW121443   2.439   4.098   2.295  1.2982  1.5637 -0.1243
 3269SOL    HW221444   2.435   3.971   2.248  0.6889 -0.8740 -0.2260
 3270SOL     OW21445   4.198   0.001   8.470  0.1107  0.7218 -0.0443
 3270SOL    HW121446   4.116   0.020   8.424 -0.0938 -1.1281 -0.4774
 3270SOL    HW221447   4.173   0.014   8.561 -0.5159 -3.4391  0.3771
 3271SOL     OW21448   4.457   2.943   7.927 -0.5080  0.6527  0.1249
 3271SOL    HW121449   4.382   2.895   7.963  1.0879 -0.1181  2.4760
 3271SOL    HW221450   4.464   3.017   7.988  1.3017 -0.4369  1.2478
 3272SOL     OW21451   0.472   1.596   5.327 -0.5377  0.2722 -0.0795
 3272SOL    HW121452   0.468   1.508   5.290  2.5173  0.2098 -0.2418
 3272SOL    HW221453   0.449   1.649   5.250 -0.3856 -0.4111 -0.5945
 3273SOL     OW21454   1.155   4.337   7.932  0.0553  0.2316  0.7111
 3273SOL    HW121455   1.223   4.318   7.867  1.4565  2.3078  1.5417
 3273SOL    HW221456   1.117   4.250   7.937 -2.8935  1.4340 -0.5948
 3274SOL     OW21457   2.941   3.343   5.555  0.1394 -0.6799  0.1152
 3274SOL    HW121458   2.860   3.305   5.521  0.3034  0.1982 -1.2340
 3274SOL    HW221459   2.919   3.372   5.644 -2.1505 -1.2026 -0.2729
 3275SOL     OW21460   1.971   1.815   7.780  0.2548 -0.3007  0.3782
 3275SOL    HW121461   2.007   1.889   7.731  2.8068 -1.0043  1.1894
 3275SOL    HW221462   1.879   1.821   7.753  1.1530  1.0447 -2.3511
 3276SOL     OW21463   1.452   1.274  12.905 -0.6478  0.2019  0.2739
 3276SOL    HW121464   1.501   1.341  12.951  1.5563 -0.2241 -1.4298
 3276SOL    HW221465   1.426   1.324  12.827 -1.2555  1.4342  1.2800
 3277SOL     OW21466   2.421   1.748  10.210 -0.3232  0.2088 -0.3709
 3277SOL    HW121467   2.458   1.661  10.192  0.6948 -0.0602  3.1309
 3277SOL    HW221468   2.429   1.779  10.300 -1.1284  1.3078 -0.6734
 3278SOL     OW21469   3.545   3.418   2.190  0.1734  0.0849 -0.4628
 3278SOL    HW121470   3.473   3.364   2.222 -0.1795 -0.4857 -2.2092
 3278SOL    HW221471   3.616   3.379   2.242  0.1641  0.3575 -0.2400
 3279SOL     OW21472   3.126   4.262   6.942  0.0490  0.3431  0.1947
 3279SOL    HW121473   3.078   4.288   6.864 -0.4475 -3.0198 -0.6048
 3279SOL    HW221474   3.193   4.330   6.947 -0.5214  0.8264  1.4504
 3280SOL     OW21475   1.305   0.393   1.982  0.3812 -0.7395  0.0199
 3280SOL    HW121476   1.234   0.362   2.038  1.2503  0.7824  2.0003
 3280SOL    HW221477   1.380   0.361   2.033  1.4926  3.5280  1.1094
 3281SOL     OW21478   2.387   2.332   1.534 -0.2275 -0.3038  0.1620
 3281SOL    HW121479   2.481   2.348   1.531 -0.3933  0.6495 -0.0373
 3281SOL    HW221480   2.391   2.256   1.592  1.9329 -0.6781 -0.4746
 3282SOL     OW21481   2.188   2.341   6.363  0.3899  0.4510 -0.7869
 3282SOL    HW121482   2.279   2.336   6.391  0.4445 -2.1013 -1.4296
 3282SOL    HW221483   2.201   2.334   6.268  0.3830 -0.2521 -0.7365
 3283SOL     OW21484   2.362   2.535   9.375 -0.2871 -0.1503  0.0353
 3283SOL    HW121485   2.339   2.474   9.445 -0.7430  0.8715  0.7709
 3283SOL    HW221486   2.402   2.480   9.307  1.2937 -1.0661  1.6941
 3284SOL     OW21487   0.113   4.464   8.342  0.1915  0.0474  0.2608
 3284SOL    HW121488   0.036   4.520   8.330  1.5377  1.3757 -2.1937
 3284SOL    HW221489   0.076   4.376   8.350 -0.7823  0.5496  1.3751
 3285SOL     OW21490   3.651   3.987   2.472  0.3007  0.1183  0.7890
 3285SOL    HW121491   3.610   3.972   2.558 -3.2555 -0.8270 -1.0582
 3285SOL    HW221492   3.683   4.075   2.490  0.0303  0.7249 -1.7151
 3286SOL     OW21493   0.752   2.152   6.017  0.0467  0.4376 -0.2179
 3286SOL    HW121494   0.699   2.231   6.025  0.9318  0.8900  1.2167
 3286SOL    HW221495   0.755   2.142   5.922 -0.3059 -1.4216 -0.0493
 3287SOL     OW21496   4.542   1.439  15.866  0.8330 -0.0979  0.2338
 3287SOL    HW121497   4.557   1.344  15.869 -2.9000 -0.7000  0.4400
 3287SOL    HW221498   4.571   1.469  15.952  2.7885 -2.1729  0.3088
 3288SOL     OW21499   0.347   4.593   9.344  0.4615 -0.1699 -0.0354
 3288SOL    HW121500   0.308   4.519   9.298  0.2423  0.4462 -0.8333
 3288SOL    HW221501   0.291   4.604   9.421  0.4784  2.0051 -0.3563
 3289SOL     OW21502   1.311   1.837   5.810  0.0011 -0.2512 -0.2622
 3289SOL    HW121503   1.404   1.833   5.788  0.2694  0.9955  0.7040
 3289SOL    HW221504   1.311   1.791   5.894 -0.3158  2.9512  1.4570
 3290SOL     OW21505   3.687   0.785   5.671 -0.5817  0.0988  0.2706
 3290SOL    HW121506   3.724   0.697   5.663  0.6638  0.4094  2.7781
 3290SOL    HW221507   3.611   0.762   5.725 -0.3648 -0.0741  0.4968
 3291SOL     OW21508   2.219   3.634  16.868  0.0137  0.8982 -0.5148
 3291SOL    HW121509   2.273   3.563  16.832  0.1089  1.7035 -1.9641
 3291SOL    HW221510   2.153   3.585  16.917  2.4121 -0.8114  1.0152
 3292SOL     OW21511   3.963   4.364  10.733 -0.0635  0.3648 -0.1888
 3292SOL    HW121512   4.052   4.395  10.754  0.6761 -1.1331 -1.1203
 3292SOL    HW221513   3.941   4.404  10.649 -0.5430  1.1462  0.3035
 3293SOL     OW21514   1.042   4.244  13.816  0.1447  0.4784 -0.2547
 3293SOL    HW121515   0.980   4.312  13.840  0.4915  0.0319  1.9049
 3293SOL    HW221516   1.107   4.245  13.887  0.5418 -0.0622 -0.6105
 3294SOL     OW21517   4.487   0.969   3.716  0.0281 -0.0664  0.7860
 3294SOL    HW121518   4.404   0.967   3.765 -0.6040 -1.5837 -0.3473
 3294SOL    HW221519   4.487   0.887   3.666 -0.4243  0.7568 -0.5856
 3295SOL     OW21520   1.175   1.390   2.160  0.2176 -0.0053  0.4173
 3295SOL    HW121521   1.234   1.317   2.140  1.0410  0.6885  0.3555
 3295SOL    HW221522   1.197   1.462   2.100  0.3520  0.5116  1.0905
 3296SOL     OW21523   3.680   0.009  12.312 -0.8081 -0.6666  0.2634
 3296SOL    HW121524   3.677   0.083  12.251 -1.3428  0.2514  1.3928
 3296SOL    HW221525   3.694   4.682  12.243  1.7747  0.4893 -0.3010
 3297SOL     OW21526   1.509   3.863   0.049  0.4011  0.8264  0.1977
 3297SOL    HW121527   1.501   3.778   0.093 -1.7300  0.1848 -1.4121
 3297SOL    HW221528   1.421   3.900   0.053  0.7941  1.9362 -1.4129
 3298SOL     OW21529   3.918   4.141   3.011  0.5240 -0.2918  0.1677
 3298SOL    HW121530   3.999   4.190   2.999  1.3293 -1.5188  0.6242
 3298SOL    HW221531   3.892   4.106   2.926  0.6961 -0.2630  0.1032
 3299SOL     OW21532   1.272   2.861   8.579 -0.2858 -0.0055 -0.2097
 3299SOL    HW121533   1.324   2.791   8.620 -1.7586  0.1916  2.0021
 3299SOL    HW221534   1.209   2.816   8.523  0.8841  0.0089 -1.5280
 3300SOL     OW21535   2.727   0.645  16.928  0.2721  0.7914  0.1111
 3300SOL    HW121536   2.786   0.570  16.927 -0.9172 -0.1572  0.3141
 3300SOL    HW221537   2.724   0.667  16.834 -0.4517 -1.5422 -0.4108
 3301SOL     OW21538   1.916   1.288   4.270 -0.4132  0.3683  0.1397
 3301SOL    HW121539   2.008   1.315   4.264 -0.3148 -0.2676 -1.2802
 3301SOL    HW221540   1.926   1.207   4.319  2.9471  1.1424  0.7490
 3302SOL     OW21541   1.930   0.126   6.105 -0.2186  0.3508  0.0062
 3302SOL    HW121542   2.022   0.147   6.087 -0.2003  0.0770 -0.2275
 3302SOL    HW221543   1.945   0.032   6.105 -2.1964  0.0612  1.4189
 3303SOL     OW21544   3.176   2.651  12.362 -0.5030 -0.4879 -0.7704
 3303SOL    HW121545   3.122   2.622  12.435 -0.7113  0.6386 -0.4712
 3303SOL    HW221546   3.119   2.634  12.287  2.4415 -1.9796 -2.6630
 3304SOL     OW21547   0.180   3.136   7.692  0.7907 -0.2842 -0.0553
 3304SOL    HW121548   0.141   3.150   7.779  2.6610 -1.8585  1.0391
 3304SOL    HW221549   0.249   3.073   7.713  1.0762  0.0480  0.0079
 3305SOL     OW21550   1.738   3.045  17.602 -0.3233  0.2138  0.4524
 3305SOL    HW121551   1.784   2.974  17.647  2.1375  1.0067 -0.7894
 3305SOL    HW221552   1.817   3.085  17.566 -0.0105 -0.7919  0.0292
 3306SOL     OW21553   3.638   0.338   0.279  0.6109  1.3034 -0.1633
 3306SOL    HW121554   3.566   0.401   0.273 -0.0267  0.4849 -1.1269
 3306SOL    HW221555   3.650   0.305   0.190  1.6241  1.2227  0.0069
 3307SOL     OW21556   2.353   4.037   5.051  0.1922  0.3086  0.4426
 3307SOL    HW121557   2.356   4.053   5.145  0.2986 -0.9477  0.6621
 3307SOL    HW221558   2.423   4.094   5.019 -0.0061 -0.5549 -1.5668
 3308SOL     OW21559   1.373   3.860   5.823  0.2621  0.3965  0.1021
 3308SOL    HW121560   1.332   3.941   5.791  0.5304  1.0812  1.5104
 3308SOL    HW221561   1.297   3.807   5.848  0.4852  0.0544  0.0404
 3309SOL     OW21562   0.489   4.709   5.088 -0.1126  0.4951 -0.2973
 3309SOL    HW121563   0.582   4.721   5.071  0.0458  2.4265  1.9788
 3309SOL    HW221564   0.450   4.691   5.002 -1.2606  1.3138  0.0495
 3310SOL     OW21565   1.826   1.295   7.346 -0.0950  0.0531  0.2444
 3310SOL    HW121566   1.828   1.206   7.311  0.6409  0.0625  0.2433
 3310SOL    HW221567   1.806   1.288   7.439 -0.2214 -3.1352 -0.0043
 3311SOL     OW21568   3.968   1.646   6.862  0.1221 -0.0323 -0.2155
 3311SOL    HW121569   4.041   1.695   6.900 -0.2648  1.3900 -1.3303
 3311SOL    HW221570   3.892   1.687   6.902  0.3186 -0.2794  0.4266
 3312SOL     OW21571   4.251   0.066  14.136  0.1896 -0.3709 -0.0264
 3312SOL    HW121572   4.306   0.008  14.083 -1.0675 -1.5982  0.0026
 3312SOL    HW221573   4.271   0.155  14.107 -1.0575 -0.3927 -0.9987
 3313SOL     OW21574   2.611   2.859   7.362 -0.0120 -0.2493  0.7275
 3313SOL    HW121575   2.656   2.808   7.295 -1.1479  0.9814 -0.9676
 3313SOL    HW221576   2.562   2.913   7.300  0.9711  0.2155  0.3560
 3314SOL     OW21577   1.667   4.117  10.651 -0.1956  0.4374 -0.3286
 3314SOL    HW121578   1.736   4.128  10.585  2.3688  2.3592  2.6354
 3314SOL    HW221579   1.721   4.100  10.728 -3.2228  0.3196  1.7489
 3315SOL     OW21580   0.358   2.819   6.176  0.6020 -0.0919  0.0535
 3315SOL    HW121581   0.406   2.805   6.095 -1.8395 -0.8648 -1.2294
 3315SOL    HW221582   0.269   2.787   6.162 -0.3314  0.6122  4.3524
 3316SOL     OW21583   1.890   4.228   4.246 -0.4330  0.0531  0.5552
 3316SOL    HW121584   1.928   4.191   4.326 -1.0078 -0.4742  0.5795
 3316SOL    HW221585   1.868   4.317   4.272  1.2694  0.8017 -0.5147
 3317SOL     OW21586   2.521   3.304   8.354  0.2826  0.4054  0.1334
 3317SOL    HW121587   2.534   3.386   8.306  1.7226  0.4583  0.6049
 3317SOL    HW221588   2.487   3.332   8.439  0.4204  0.9845  0.0034
 3318SOL     OW21589   0.337   4.655   8.309  0.2888  0.0453  0.6247
 3318SOL    HW121590   0.275   4.607   8.363 -1.1602  1.2791  0.0443
 3318SOL    HW221591   0.276   4.693   8.246  0.9760  0.1938  0.0511
 3319SOL     OW21592   3.097   2.370   2.891 -0.1988 -0.1288  0.6032
 3319SOL    HW121593   3.138   2.297   2.937 -0.7060 -1.3271 -0.8102
 3319SOL    HW221594   3.161   2.400   2.826 -0.8627 -1.2467 -0.5632
 3320SOL     OW21595   4.234   1.360   3.879 -0.2875  0.0798 -0.1408
 3320SOL    HW121596   4.155   1.345   3.931 -0.7751 -1.3914 -1.3115
 3320SOL    HW221597   4.196   1.371   3.792 -0.5346 -1.1244 -0.1828
 3321SOL     OW21598   3.142   4.249   3.197  0.3470 -0.3106  0.3912
 3321SOL    HW121599   3.076   4.306   3.159 -0.7756 -1.5552  0.4631
 3321SOL    HW221600   3.092   4.199   3.263 -1.6810  0.9386 -0.2112
 3322SOL     OW21601   0.479   1.697   3.191  0.0721  0.0146 -0.1886
 3322SOL    HW121602   0.422   1.649   3.251 -0.4590 -1.2128 -1.6711
 3322SOL    HW221603   0.442   1.784   3.201  0.3414  0.2470 -1.2530
 3323SOL     OW21604   3.464   1.758  17.509 -0.2191  0.1218  0.2608
 3323SOL    HW121605   3.375   1.753  17.473  0.5041 -0.4492 -1.4761
 3323SOL    HW221606   3.458   1.681  17.566 -0.3842 -0.1129 -0.0689
 3324SOL     OW21607   3.623   1.264  12.227  0.2348  0.6240  0.0712
 3324SOL    HW121608   3.628   1.357  12.206 -1.5531  0.6385 -0.3412
 3324SOL    HW221609   3.597   1.263  12.319 -3.2065 -1.5542 -0.8994
 3325SOL     OW21610   2.731   3.786   4.688  0.1892 -0.3030  0.2315
 3325SOL    HW121611   2.810   3.837   4.672 -0.6947  0.7585 -0.6971
 3325SOL    HW221612   2.692   3.825   4.766 -0.0258  1.2109 -0.6480
 3326SOL     OW21613   2.147   2.513   9.859 -0.1615 -0.0293  0.0420
 3326SOL    HW121614   2.101   2.588   9.822  0.4559 -0.9634 -2.5748
 3326SOL    HW221615   2.189   2.560   9.932 -0.3379  2.0980 -1.2221
 3327SOL     OW21616   3.775   2.518   4.035  0.1744  0.1867 -0.2512
 3327SOL    HW121617   3.759   2.586   3.970 -0.4368 -0.3961 -0.7098
 3327SOL    HW221618   3.704   2.533   4.098  2.4493  0.7307  2.1564
 3328SOL     OW21619   0.203   2.939   1.753 -0.1808  0.4464 -0.6631
 3328SOL    HW121620   0.224   2.847   1.739  0.5226  0.3616  0.9579
 3328SOL    HW221621   0.111   2.928   1.780 -0.4068  3.2771 -0.3170
 3329SOL     OW21622   0.167   2.237  17.080 -0.0395  0.8916 -0.4709
 3329SOL    HW121623   0.188   2.327  17.108 -0.1638  1.3229 -1.7637
 3329SOL    HW221624   0.136   2.252  16.991 -1.2551  0.2739 -0.1498
 3330SOL     OW21625   2.563   3.314   3.313  0.6341  0.0752  0.0916
 3330SOL    HW121626   2.627   3.371   3.270  0.5308 -0.7492 -1.1419
 3330SOL    HW221627   2.567   3.233   3.262  0.3280  0.9333 -1.3073
 3331SOL     OW21628   1.292   4.044   3.877 -0.5484 -0.0789  0.1458
 3331SOL    HW121629   1.292   4.140   3.883  1.2792 -0.0463 -0.4591
 3331SOL    HW221630   1.257   4.039   3.788 -3.9185  1.0187  1.4080
 3332SOL     OW21631   1.058   3.248  14.848 -0.5468  0.4631 -0.1390
 3332SOL    HW121632   1.006   3.295  14.783  1.4052  1.4510 -0.9874
 3332SOL    HW221633   1.055   3.310  14.921 -0.8147  0.1506  0.1160
 3333SOL     OW21634   3.464   0.318   9.384 -0.1509  0.0742 -0.5382
 3333SOL    HW121635   3.491   0.232   9.415  1.2373  0.9515  0.6702
 3333SOL    HW221636   3.541   0.357   9.342 -0.2074  0.2894 -0.4397
 3334SOL     OW21637   2.738   1.077  13.813  0.1484 -0.0103 -0.1215
 3334SOL    HW121638   2.643   1.076  13.822  0.0067 -1.6541 -2.0862
 3334SOL    HW221639   2.768   1.007  13.871  1.2376 -0.2746 -1.0304
 3335SOL     OW21640   3.782   1.720   7.063  0.0941  0.5270  0.4180
 3335SOL    HW121641   3.830   1.777   7.123 -0.6797 -0.9981  2.4873
 3335SOL    HW221642   3.733   1.662   7.121 -0.1700 -1.6620 -2.0009
 3336SOL     OW21643   0.315   3.698   1.501 -0.8920  0.0357 -0.5523
 3336SOL    HW121644   0.272   3.739   1.426 -0.5293  1.5584  0.0766
 3336SOL    HW221645   0.378   3.767   1.520 -0.5765  0.0094 -1.4650
 3337SOL     OW21646   1.556   3.382  11.262 -0.2812 -0.4148 -0.3670
 3337SOL    HW121647   1.617   3.402  11.333  0.4028  1.2857 -1.4321
 3337SOL    HW221648   1.547   3.287  11.267 -0.2400 -0.3054  1.9440
 3338SOL     OW21649   1.794   2.089   1.397  0.3869 -0.1127 -0.4320
 3338SOL    HW121650   1.718   2.032   1.386 -1.1454  2.1357 -1.5396
 3338SOL    HW221651   1.782   2.131   1.482 -2.5299 -0.0784 -0.8539
 3339SOL     OW21652   4.593   0.370   0.791  0.5471 -0.6256  0.7421
 3339SOL    HW121653   4.653   0.427   0.742 -0.0628  0.9102  1.7816
 3339SOL    HW221654   4.576   0.314   0.715 -2.1684  1.3938 -0.1435
 3340SOL     OW21655   4.460   2.740   7.745  0.1959  0.4215  0.1462
 3340SOL    HW121656   4.380   2.778   7.710  0.3744  2.1177  1.5685
 3340SOL    HW221657   4.479   2.811   7.807  0.3537  0.6924 -0.2125
 3341SOL     OW21658   4.221   3.648  15.047  0.0255 -0.0546 -0.2179
 3341SOL    HW121659   4.226   3.696  15.129 -1.5771  1.3503 -0.9273
 3341SOL    HW221660   4.273   3.570  15.066  2.1070  1.4759  0.4386
 3342SOL     OW21661   0.719   1.136   6.238 -0.0770  0.1653  0.1726
 3342SOL    HW121662   0.723   1.072   6.309 -0.5897 -1.1977 -1.0247
 3342SOL    HW221663   0.723   1.208   6.301 -1.2289  0.2172  0.1959
 3343SOL     OW21664   2.735   2.203   2.805 -0.4128  0.2885  1.1024
 3343SOL    HW121665   2.779   2.137   2.752  0.5659  1.1722  0.8057
 3343SOL    HW221666   2.806   2.268   2.807 -0.7732  0.7490 -1.2604
 3344SOL     OW21667   1.692   2.538  11.944 -0.3792  0.1527  0.6417
 3344SOL    HW121668   1.751   2.537  11.868 -0.8466 -0.3559  0.2839
 3344SOL    HW221669   1.668   2.445  11.949 -0.0393 -0.0588 -1.7165
 3345SOL     OW21670   1.786   2.338   3.771  0.0934  0.2498 -0.4002
 3345SOL    HW121671   1.705   2.367   3.814 -0.1403  0.8610 -1.2530
 3345SOL    HW221672   1.765   2.360   3.680  0.2999 -1.4609 -0.8604
 3346SOL     OW21673   2.533   0.452  15.135  0.0185 -0.2391  0.3779
 3346SOL    HW121674   2.622   0.417  15.143  0.2225  0.3214  0.4960
 3346SOL    HW221675   2.526   0.457  15.040 -0.1892  1.0837  0.4677
 3347SOL     OW21676   4.273   0.021  16.580 -0.3375 -0.3618 -0.1291
 3347SOL    HW121677   4.314   0.086  16.522 -3.2186 -0.2470 -2.0460
 3347SOL    HW221678   4.291   0.056  16.667 -0.1781  1.8366 -1.0171
 3348SOL     OW21679   3.831   3.584   4.038  0.3115 -0.0758 -0.1221
 3348SOL    HW121680   3.876   3.621   4.114 -1.3591 -0.1848  0.9161
 3348SOL    HW221681   3.786   3.511   4.081 -0.9010  0.0186 -1.2360
 3349SOL     OW21682   0.161   3.453   6.147 -0.5262 -0.1490 -0.3039
 3349SOL    HW121683   0.176   3.524   6.085 -0.8044  1.0516  0.9762
 3349SOL    HW221684   0.233   3.393   6.130  0.1695  0.9898 -1.3644
 3350SOL     OW21685   3.230   3.830  11.127  0.1043 -0.6523  0.6469
 3350SOL    HW121686   3.305   3.777  11.100 -0.7322 -1.2903 -0.3904
 3350SOL    HW221687   3.248   3.901  11.064  0.9375 -0.6232  0.9083
 3351SOL     OW21688   3.534   3.633   7.491 -0.4233 -0.0111 -0.0699
 3351SOL    HW121689   3.517   3.571   7.420  0.2941 -2.7394  2.1378
 3351SOL    HW221690   3.513   3.575   7.564  1.7456  1.1677  1.4903
 3352SOL     OW21691   4.528   2.100   4.402  0.3450 -0.4614  0.8691
 3352SOL    HW121692   4.569   2.168   4.349  1.8789  0.1486  2.8274
 3352SOL    HW221693   4.563   2.024   4.354 -1.4549 -0.6203 -0.1982
 3353SOL     OW21694   3.419   2.241   3.476 -0.4111  0.1887 -0.1620
 3353SOL    HW121695   3.467   2.257   3.557 -0.2881  1.4812 -0.4886
 3353SOL    HW221696   3.371   2.161   3.495 -0.8167  0.0974 -1.5562
 3354SOL     OW21697   0.805   4.365   2.412 -0.1798 -0.5530  0.3912
 3354SOL    HW121698   0.884   4.317   2.437 -1.0022 -1.6547  0.9225
 3354SOL    HW221699   0.769   4.311   2.342 -1.3545 -2.9464  2.8309
 3355SOL     OW21700   4.159   2.045   6.383 -0.0955 -0.4418 -0.1266
 3355SOL    HW121701   4.083   2.065   6.329 -0.5841 -1.8705  0.0561
 3355SOL    HW221702   4.126   2.012   6.466 -1.5812 -0.1176 -0.5941
 3356SOL     OW21703   0.217   2.993   4.730 -0.5671  0.5837  0.2165
 3356SOL    HW121704   0.257   3.077   4.751 -0.1880  0.2157  0.9977
 3356SOL    HW221705   0.297   2.950   4.699 -0.8058  0.3153 -0.0320
 3357SOL     OW21706   3.669   2.515  16.581  0.6201 -0.2717 -0.3269
 3357SOL    HW121707   3.718   2.437  16.603  0.1871 -1.3784 -3.2565
 3357SOL    HW221708   3.727   2.564  16.523 -0.7226  1.5732 -0.1302
 3358SOL     OW21709   4.545   1.133   5.107  0.1772  0.8289  0.1508
 3358SOL    HW121710   4.571   1.100   5.193  1.0742 -1.0071 -0.8136
 3358SOL    HW221711   4.481   1.200   5.129 -0.5644  0.7380 -1.7320
 3359SOL     OW21712   0.804   0.860   5.375  0.4549 -0.5185 -0.1928
 3359SOL    HW121713   0.828   0.868   5.468  2.4136  0.2478 -0.7632
 3359SOL    HW221714   0.805   0.953   5.354  1.3354 -0.1844  1.3196
 3360SOL     OW21715   2.863   0.475  16.038  0.1521 -0.3059  0.4962
 3360SOL    HW121716   2.904   0.561  16.034 -2.2794  0.8080 -0.6256
 3360SOL    HW221717   2.897   0.457  16.126 -0.7496 -1.6603  0.5686
 3361SOL     OW21718   2.580   2.592  10.725  0.0414  0.4851  0.9242
 3361SOL    HW121719   2.497   2.600  10.677 -1.2422 -1.6047  2.7895
 3361SOL    HW221720   2.590   2.497  10.712 -0.4865  0.3936  1.1764
 3362SOL     OW21721   3.199   0.500  12.054 -0.6326 -0.3437 -0.9100
 3362SOL    HW121722   3.202   0.443  11.977  2.5424  0.2190 -1.1915
 3362SOL    HW221723   3.140   0.573  12.034 -1.4329 -1.3196 -2.1179
 3363SOL     OW21724   0.197   1.244   6.805  0.0040  0.2058 -0.4174
 3363SOL    HW121725   0.241   1.276   6.884  0.6161 -0.0931 -0.6385
 3363SOL    HW221726   0.142   1.172   6.836 -0.6028  0.2428 -1.4163
 3364SOL     OW21727   2.182   3.133   0.771 -1.4655 -0.2914 -0.5498
 3364SOL    HW121728   2.151   3.081   0.845 -0.7701  0.5924  0.3713
 3364SOL    HW221729   2.107   3.117   0.714 -1.2640  0.1385 -0.9309
 3365SOL     OW21730   2.034   1.792   4.721 -0.2052  0.0678 -0.4369
 3365SOL    HW121731   1.993   1.744   4.650 -1.7301  1.6349 -0.5986
 3365SOL    HW221732   1.974   1.769   4.791 -0.7289  0.2455 -0.8330
 3366SOL     OW21733   3.094   3.735  16.584 -0.3638 -0.2754 -0.4645
 3366SOL    HW121734   3.013   3.766  16.626  1.3923  0.9775  1.9702
 3366SOL    HW221735   3.153   3.751  16.658 -1.4891 -0.4771  0.4859
 3367SOL     OW21736   3.718   3.532   8.565 -0.0148  0.0679  0.3528
 3367SOL    HW121737   3.719   3.457   8.506  1.5731  1.0048 -0.7856
 3367SOL    HW221738   3.623   3.544   8.570 -0.1320 -1.5875  1.9125
 3368SOL     OW21739   4.701   4.458   8.011  0.3560  0.0286  0.1752
 3368SOL    HW121740   4.641   4.531   8.027  0.1220 -0.5399  1.9547
 3368SOL    HW221741   0.008   4.470   7.928 -1.0127  1.0268 -0.4279
 3369SOL     OW21742   3.103   1.082   8.632 -0.5629  0.0324  0.0049
 3369SOL    HW121743   3.186   1.035   8.629 -0.1975  0.5520  1.7383
 3369SOL    HW221744   3.060   1.049   8.711 -0.9313  0.3555 -0.0618
 3370SOL     OW21745   1.601   1.743  13.389 -0.0067 -0.5697  0.4975
 3370SOL    HW121746   1.594   1.650  13.414 -1.3973  0.1092  2.6018
 3370SOL    HW221747   1.695   1.754  13.375 -0.4351  0.7422 -1.2800
 3371SOL     OW21748   0.391   4.265   4.448  0.1426  0.6926 -0.0636
 3371SOL    HW121749   0.347   4.216   4.379 -1.2643  1.9854 -0.0816
 3371SOL    HW221750   0.438   4.336   4.405 -2.2080  2.6012  0.5832
 3372SOL     OW21751   1.868   4.097   4.977  0.2047  0.1472  0.3123
 3372SOL    HW121752   1.938   4.077   5.038 -0.1041 -0.9625  0.3046
 3372SOL    HW221753   1.873   4.020   4.920 -0.4339  0.1707  0.2216
 3373SOL     OW21754   0.517   3.611   8.592  0.1738 -0.0918  0.0078
 3373SOL    HW121755   0.456   3.548   8.631 -0.1945 -0.3713 -1.0233
 3373SOL    HW221756   0.548   3.549   8.525 -0.4749 -0.7874  0.3493
 3374SOL     OW21757   0.395   3.193   7.921  0.2172 -0.0011 -0.1903
 3374SOL    HW121758   0.344   3.223   7.996  1.3473  1.1974  0.0927
 3374SOL    HW221759   0.449   3.125   7.962  0.2381 -0.8322 -1.5918
 3375SOL     OW21760   3.671   3.759   3.911 -0.1371  0.3813  0.6140
 3375SOL    HW121761   3.741   3.781   3.849 -1.4276 -1.2257 -1.3913
 3375SOL    HW221762   3.722   3.729   3.987  1.0612  1.5642  0.2834
 3376SOL     OW21763   3.830   4.365  10.972 -0.3698  0.1489  0.2921
 3376SOL    HW121764   3.874   4.378  10.888 -0.3744  0.8576  0.3994
 3376SOL    HW221765   3.815   4.456  10.998  0.6355 -0.0358  1.5280
 3377SOL     OW21766   1.608   2.042   5.073  0.0956  0.5374  0.8032
 3377SOL    HW121767   1.549   1.991   5.018  0.5827 -0.5488  1.2853
 3377SOL    HW221768   1.693   2.046   5.028 -1.2457  1.7716 -1.6016
 3378SOL     OW21769   1.734   2.191   9.378  0.5550  0.1703  0.7482
 3378SOL    HW121770   1.743   2.174   9.284 -0.3759 -3.4532  1.3044
 3378SOL    HW221771   1.676   2.267   9.377  1.4114  0.8185  0.8492
 3379SOL     OW21772   0.489   3.290   2.336 -0.0663 -0.2604 -0.4970
 3379SOL    HW121773   0.544   3.334   2.400  0.3735  1.9949 -2.4351
 3379SOL    HW221774   0.558   3.244   2.288  1.3348  1.1932  0.1136
 3380SOL     OW21775   2.165   3.437  12.481  0.1173 -0.6218 -0.7395
 3380SOL    HW121776   2.159   3.363  12.541 -1.8776  0.5840  0.5683
 3380SOL    HW221777   2.245   3.475  12.518 -1.1027  0.6622  0.6174
 3381SOL     OW21778   3.715   0.283   9.248  0.6585  0.3313  0.2263
 3381SOL    HW121779   3.811   0.285   9.248  0.6293  1.3760 -0.0408
 3381SOL    HW221780   3.695   0.372   9.220  0.6719  0.4660  0.6394
 3382SOL     OW21781   0.146   0.584   4.602 -0.1548 -0.0509 -0.3474
 3382SOL    HW121782   0.097   0.663   4.624 -0.3767 -0.4602  0.6144
 3382SOL    HW221783   0.133   0.515   4.667 -2.3068 -0.9173 -1.7203
 3383SOL     OW21784   0.691   3.477   7.242 -0.4196 -0.5095  0.1863
 3383SOL    HW121785   0.726   3.466   7.153 -1.2942 -2.4563  0.1013
 3383SOL    HW221786   0.610   3.440   7.207  0.3711 -1.6456 -0.4458
 3384SOL     OW21787   1.283   4.319   3.925 -0.4743 -0.0044  0.0966
 3384SOL    HW121788   1.287   4.334   3.830 -1.4201 -0.7114 -0.0430
 3384SOL    HW221789   1.263   4.410   3.948 -1.3942  0.5086 -2.7704
 3385SOL     OW21790   1.623   0.912   7.175 -0.5037 -0.2625  0.5103
 3385SOL    HW121791   1.532   0.896   7.154 -0.2577  0.3478 -0.9913
 3385SOL    HW221792   1.649   0.847   7.241  2.1687 -2.6376 -2.8736
 3386SOL     OW21793   1.352   0.384  15.475  0.2301 -0.1639 -0.3141
 3386SOL    HW121794   1.336   0.462  15.422  0.8505 -2.5989 -4.0822
 3386SOL    HW221795   1.317   0.319  15.414 -1.6706  0.3831  0.1960
 3387SOL     OW21796   1.249   3.878   4.571  0.1600 -0.6181  0.0807
 3387SOL    HW121797   1.234   3.900   4.663  2.1589  0.4039  0.1802
 3387SOL    HW221798   1.173   3.926   4.539 -0.0082  1.8186  4.0414
 3388SOL     OW21799   4.188   3.913   5.480  0.3211 -0.2207 -0.2548
 3388SOL    HW121800   4.217   3.902   5.571 -1.8103  0.9822  0.5717
 3388SOL    HW221801   4.094   3.920   5.500  0.3231 -0.1239 -0.2823
 3389SOL     OW21802   1.158   0.239   6.924 -0.1384  0.2224  0.2619
 3389SOL    HW121803   1.170   0.293   6.846  1.4260 -1.2894 -0.5420
 3389SOL    HW221804   1.190   0.153   6.896  1.1228  0.4330  1.0240
 3390SOL     OW21805   1.931   3.033   2.271 -0.0278 -0.2759 -0.1491
 3390SOL    HW121806   1.889   3.038   2.357  1.0781  2.5543  0.2200
 3390SOL    HW221807   1.928   3.122   2.237 -0.7141  0.2386  1.2684
 3391SOL     OW21808   4.676   3.899   4.974  0.0416 -0.1660 -0.0081
 3391SOL    HW121809   4.644   3.972   4.921  1.6746 -0.8089 -1.8856
 3391SOL    HW221810   4.596   3.846   4.977 -1.9470  2.7092 -2.5619
 3392SOL     OW21811   1.207   4.083   4.161  0.0125 -0.0366  0.2832
 3392SOL    HW121812   1.237   4.054   4.074  0.5796  3.0625 -0.5727
 3392SOL    HW221813   1.149   4.156   4.139  0.4206  0.2481  0.1328
 3393SOL     OW21814   3.341   2.046   8.949 -0.1445  0.0630  0.1018
 3393SOL    HW121815   3.320   2.138   8.933  1.5278  0.5351  0.6958
 3393SOL    HW221816   3.342   1.997   8.866  0.8938 -0.0753  0.1910
 3394SOL     OW21817   3.034   0.713   8.449  0.2002 -0.0657 -0.4454
 3394SOL    HW121818   3.000   0.663   8.374 -0.7098 -0.1947  0.0567
 3394SOL    HW221819   2.950   0.748   8.476  0.7194 -0.6720  1.9447
 3395SOL     OW21820   1.728   0.893   4.955 -0.1150 -0.5391  0.1266
 3395SOL    HW121821   1.777   0.951   4.896 -0.6387 -0.7939 -0.5472
 3395SOL    HW221822   1.744   0.812   4.907 -0.2036  0.6816 -1.9432
 3396SOL     OW21823   3.585   0.564   9.284  0.3322 -0.2018  0.3621
 3396SOL    HW121824   3.584   0.629   9.355 -1.2190 -0.3894  0.5192
 3396SOL    HW221825   3.505   0.578   9.234  0.3258 -0.5282  0.2812
 3397SOL     OW21826   1.691   4.382   4.922  0.1192 -0.2414  0.3955
 3397SOL    HW121827   1.632   4.413   4.854 -0.9851 -0.8934  1.0553
 3397SOL    HW221828   1.781   4.383   4.888  0.5508 -2.9375  1.3949
 3398SOL     OW21829   3.269   3.928   3.837 -0.1373 -0.0426  0.4103
 3398SOL    HW121830   3.303   3.840   3.820  0.7575 -0.1068  2.4822
 3398SOL    HW221831   3.268   3.965   3.749 -1.6729  0.0127  0.4472
 3399SOL     OW21832   0.952   1.524   4.751  0.9463 -0.3143 -0.1073
 3399SOL    HW121833   0.870   1.551   4.793  1.2440 -0.5436  0.6239
 3399SOL    HW221834   1.017   1.572   4.802  0.4374 -0.0660  0.3111
 3400SOL     OW21835   4.409   0.643  15.287 -0.0945  0.0463  0.1294
 3400SOL    HW121836   4.412   0.633  15.382 -1.6371 -1.6589 -0.0060
 3400SOL    HW221837   4.446   0.559  15.257 -0.2349  0.2425 -0.6123
 3401SOL     OW21838   3.539   3.304   2.936  0.0737 -0.6025 -0.6018
 3401SOL    HW121839   3.626   3.340   2.918  0.5286 -1.3438  0.1186
 3401SOL    HW221840   3.496   3.388   2.952  1.4832 -0.1776  0.9754
 3402SOL     OW21841   0.727   0.630   8.891  0.0280  0.0173  0.0015
 3402SOL    HW121842   0.661   0.674   8.838  1.1569  0.0855 -1.3450
 3402SOL    HW221843   0.738   0.692   8.963  0.7093  2.0701 -1.8798
 3403SOL     OW21844   1.413   2.765   4.244  0.8745 -0.1092 -0.1324
 3403SOL    HW121845   1.406   2.771   4.340  0.0076 -0.1926 -0.1912
 3403SOL    HW221846   1.322   2.741   4.226  1.1197 -0.1879 -1.2603
 3404SOL     OW21847   2.904   3.963   2.493 -0.2386  0.4206  0.1346
 3404SOL    HW121848   2.957   3.919   2.426  0.7117 -0.4635  1.4803
 3404SOL    HW221849   2.969   3.964   2.563  1.9750 -3.0460 -1.9221
 3405SOL     OW21850   1.813   2.833   5.449  0.1216 -0.1565 -0.0326
 3405SOL    HW121851   1.882   2.785   5.494  0.7397 -0.5204 -1.3585
 3405SOL    HW221852   1.754   2.821   5.523  0.1489 -0.7473 -0.1054
 3406SOL     OW21853   0.168   1.072  13.009  0.3517  0.3353 -0.0292
 3406SOL    HW121854   0.178   1.023  12.926  1.0333  0.8597 -0.2499
 3406SOL    HW221855   0.135   1.158  12.983 -1.6815 -0.2287  0.6641
 3407SOL     OW21856   0.217   0.491   1.401 -0.2371 -0.6445  0.0562
 3407SOL    HW121857   0.245   0.402   1.379  1.8727 -0.4626  1.9092
 3407SOL    HW221858   0.125   0.488   1.378 -0.3433  0.5906  0.2987
 3408SOL     OW21859   1.451   3.513   6.036 -0.1884  0.2110  0.1636
 3408SOL    HW121860   1.374   3.565   6.061 -0.1734 -0.7988  2.3198
 3408SOL    HW221861   1.412   3.435   6.075 -1.8480  0.4190 -1.0731
 3409SOL     OW21862   3.722   3.591   9.887  0.1206 -0.2670 -0.3103
 3409SOL    HW121863   3.725   3.655   9.958 -1.6582 -1.3342  0.7365
 3409SOL    HW221864   3.650   3.535   9.916 -0.9336  0.2429 -1.9290
 3410SOL     OW21865   2.280   0.053  13.261  0.2531  0.4998  0.0744
 3410SOL    HW121866   2.337   0.029  13.334 -1.2878 -0.7102  0.9026
 3410SOL    HW221867   2.293   0.148  13.258  1.4435  0.2105 -3.7099
 3411SOL     OW21868   0.449   2.021   6.394  0.1573 -0.0366 -0.8719
 3411SOL    HW121869   0.432   2.113   6.374 -0.4061  0.1283  0.3552
 3411SOL    HW221870   0.378   1.977   6.347  0.2020 -1.5045  0.4213
 3412SOL     OW21871   0.421   4.560   6.010  0.0118  0.3189 -1.2557
 3412SOL    HW121872   0.467   4.528   5.932 -0.0462  0.4078 -1.3270
 3412SOL    HW221873   0.489   4.612   6.052 -0.0685  1.0650 -2.0481
 3413SOL     OW21874   4.330   4.234   7.231  0.0781 -0.2735  0.2000
 3413SOL    HW121875   4.425   4.232   7.220  0.0036 -0.0928 -0.5030
 3413SOL    HW221876   4.299   4.230   7.141  1.1561  0.9549 -0.2208
 3414SOL     OW21877   0.495   4.211  17.496 -0.0153 -0.2509  0.5326
 3414SOL    HW121878   0.442   4.223  17.417  0.1656  1.7284  0.7102
 3414SOL    HW221879   0.569   4.182  17.442 -0.9953 -0.3744 -0.7432
 3415SOL     OW21880   2.450   2.930   7.976 -0.7483 -0.1360  0.3320
 3415SOL    HW121881   2.366   2.905   8.016 -0.9834  2.8425  1.7103
 3415SOL    HW221882   2.494   2.847   7.995  0.3130  0.9688  2.7312
 3416SOL     OW21883   4.040   3.443   4.378  0.2231  0.3226 -0.1407
 3416SOL    HW121884   4.120   3.397   4.353 -0.2890  0.2903 -1.7254
 3416SOL    HW221885   3.969   3.380   4.365  1.4308 -0.7590 -1.4608
 3417SOL     OW21886   0.478   3.510   5.896 -0.0554  0.2762  0.6487
 3417SOL    HW121887   0.495   3.422   5.862 -1.2845  1.5634 -3.3103
 3417SOL    HW221888   0.537   3.516   5.971 -0.5127 -0.1611  1.0394
 3418SOL     OW21889   4.615   0.439   8.457  0.2107 -0.1513  0.4009
 3418SOL    HW121890   4.536   0.440   8.403  1.6190 -0.5399 -1.6765
 3418SOL    HW221891   4.613   0.348   8.487  1.2450 -0.2630  0.1468
 3419SOL     OW21892   3.781   3.133   2.141 -1.0602  0.0978  0.1690
 3419SOL    HW121893   3.806   3.200   2.078  1.1629  1.0585  2.0569
 3419SOL    HW221894   3.861   3.081   2.131 -0.3372  1.4009 -0.8590
 3420SOL     OW21895   0.512   0.961   5.943 -0.0191 -0.1656 -0.4050
 3420SOL    HW121896   0.443   1.025   5.927 -0.5789 -0.5711  0.3522
 3420SOL    HW221897   0.508   0.916   5.859  0.0657  3.7972 -2.5093
 3421SOL     OW21898   1.429   2.894   9.143  0.3816  0.2550 -0.4202
 3421SOL    HW121899   1.434   2.983   9.178  0.0626  0.4425 -0.8456
 3421SOL    HW221900   1.434   2.842   9.223  2.8559  1.2972  0.0932
 3422SOL     OW21901   3.759   2.075  11.929 -0.0415 -0.1006  0.4768
 3422SOL    HW121902   3.741   2.030  11.847  0.1061 -2.2203  1.6212
 3422SOL    HW221903   3.826   2.127  11.884  0.2459 -0.0208  0.9963
 3423SOL     OW21904   0.080   1.215   8.554 -0.4011  0.0524 -0.7296
 3423SOL    HW121905   0.139   1.229   8.629 -0.6127 -1.6782 -0.2378
 3423SOL    HW221906   0.012   1.278   8.575  1.1875  0.8264  2.1103
 3424SOL     OW21907   4.596   0.658   1.834  0.1679  0.2226  0.0692
 3424SOL    HW121908   4.690   0.656   1.852  0.1661 -0.7251 -0.0775
 3424SOL    HW221909   4.561   0.605   1.906 -0.0372  1.6651  1.0373
 3425SOL     OW21910   0.260   4.401   2.191  0.3435 -0.2657  0.0422
 3425SOL    HW121911   0.317   4.478   2.197  1.6263 -1.2841  1.0857
 3425SOL    HW221912   0.314   4.328   2.222 -1.0012 -0.9838  0.7092
 3426SOL     OW21913   3.187   0.987   3.522 -0.6805 -0.3951 -0.0196
 3426SOL    HW121914   3.111   0.949   3.479 -0.3824  0.0203 -0.9203
 3426SOL    HW221915   3.156   0.986   3.612 -1.0460 -0.5638 -0.1499
 3427SOL     OW21916   1.979   1.519   0.266 -0.4532  0.4778  0.3387
 3427SOL    HW121917   1.945   1.502   0.354 -0.3649  2.3305  0.7176
 3427SOL    HW221918   1.992   1.613   0.266 -0.2275  0.4459  0.3599
 3428SOL     OW21919   3.364   2.974  10.839 -0.2238  0.0801  0.1820
 3428SOL    HW121920   3.293   2.911  10.823 -0.7773  0.7330  0.0545
 3428SOL    HW221921   3.433   2.914  10.865 -1.5204 -0.8418  1.4790
 3429SOL     OW21922   1.500   0.385   3.577  0.4686  0.0111 -0.6839
 3429SOL    HW121923   1.582   0.357   3.536  2.0035  2.2759  0.8826
 3429SOL    HW221924   1.446   0.305   3.577  2.5475 -1.4053 -0.8476
 3430SOL     OW21925   2.960   2.820   8.604 -0.4831  0.2791  0.0713
 3430SOL    HW121926   2.916   2.825   8.689 -3.2724 -1.7552 -1.2681
 3430SOL    HW221927   3.023   2.749   8.619  0.9877  1.6999  0.7149
 3431SOL     OW21928   3.148   1.236  10.914 -0.6003 -0.3180  0.1066
 3431SOL    HW121929   3.208   1.168  10.883 -0.0163 -0.6056  1.8559
 3431SOL    HW221930   3.188   1.319  10.888 -2.4183  0.6517  0.4379
 3432SOL     OW21931   2.717   0.370   3.789 -0.3003  0.2111 -0.7701
 3432SOL    HW121932   2.687   0.338   3.874  2.7492 -1.1782 -0.2185
 3432SOL    HW221933   2.734   0.462   3.808 -2.8641  0.4810  0.2307
 3433SOL     OW21934   2.942   1.658   7.352 -0.0035  0.2373  0.6843
 3433SOL    HW121935   2.928   1.600   7.277  0.2864  0.7604  0.2211
 3433SOL    HW221936   3.000   1.714   7.301 -0.4854  0.6648  0.6032
 3434SOL     OW21937   1.562   1.770   5.795  0.6246  0.0638  0.5781
 3434SOL    HW121938   1.634   1.801   5.742  0.4654  1.0463  0.9337
 3434SOL    HW221939   1.572   1.676   5.782 -0.0237  0.4256 -2.3784
 3435SOL     OW21940   3.835   0.219  14.925 -0.4206 -0.6173 -0.9606
 3435SOL    HW121941   3.819   0.210  15.019 -0.0016  0.1428 -0.8151
 3435SOL    HW221942   3.878   0.305  14.918 -0.8387 -0.2458  1.0171
 3436SOL     OW21943   1.219   4.484   6.025 -0.7341 -0.7015 -0.3423
 3436SOL    HW121944   1.270   4.418   5.977  0.3135  0.7114 -1.1603
 3436SOL    HW221945   1.286   4.504   6.089 -0.8150  0.6442 -0.6819
 3437SOL     OW21946   0.516   3.385   5.460  0.1896 -0.2744  0.0957
 3437SOL    HW121947   0.458   3.437   5.403 -0.0104  0.8480  1.3343
 3437SOL    HW221948   0.582   3.352   5.399  0.8901  1.6133 -0.1650
 3438SOL     OW21949   3.171   0.889   5.993  0.1445 -0.0037 -0.0172
 3438SOL    HW121950   3.166   0.822   6.061  1.3425 -1.4386 -1.3542
 3438SOL    HW221951   3.187   0.962   6.053 -0.7227  2.6822 -3.0445
 3439SOL     OW21952   1.552   2.873   4.724  0.2491  0.2595  0.1819
 3439SOL    HW121953   1.566   2.946   4.663  1.5256  0.0626  0.2254
 3439SOL    HW221954   1.589   2.909   4.805  0.3065  2.1624 -0.6856
 3440SOL     OW21955   3.046   2.154   5.955  0.1548 -0.2300  0.3228
 3440SOL    HW121956   2.977   2.118   5.899  0.8433  0.0090 -0.6939
 3440SOL    HW221957   3.110   2.181   5.888  1.7688  0.3690  2.1123
 3441SOL     OW21958   4.416   0.937   4.964 -0.4225  0.0035  0.2539
 3441SOL    HW121959   4.506   0.915   4.942 -0.1984  1.8406 -0.6523
 3441SOL    HW221960   4.423   1.011   5.024  1.3803  1.3140 -1.5651
 3442SOL     OW21961   3.448   2.377   6.783 -0.1541 -0.2689 -0.5258
 3442SOL    HW121962   3.537   2.383   6.750 -0.2315  0.1871 -0.6549
 3442SOL    HW221963   3.466   2.367   6.877  0.7916  0.9924 -0.5713
 3443SOL     OW21964   3.363   1.391   7.135  0.8861 -0.0250  0.1900
 3443SOL    HW121965   3.369   1.345   7.219  1.8914  0.3652  0.3305
 3443SOL    HW221966   3.304   1.329   7.092 -2.0616  1.1485  2.5720
 3444SOL     OW21967   2.471   0.473   4.153 -0.2471 -0.6300 -0.2209
 3444SOL    HW121968   2.475   0.424   4.236  0.9023  2.2993  1.4672
 3444SOL    HW221969   2.456   0.406   4.087 -0.4250  1.0717 -1.9247
 3445SOL     OW21970   1.415   3.401   4.782 -0.2730  0.3154 -0.5770
 3445SOL    HW121971   1.436   3.484   4.826 -0.4244 -0.5159  1.0763
 3445SOL    HW221972   1.501   3.361   4.794 -0.7713 -0.2687  1.1386
 3446SOL     OW21973   2.705   3.188  13.529  0.4658  0.1106 -1.0033
 3446SOL    HW121974   2.787   3.212  13.574 -0.7334 -1.5373  2.0621
 3446SOL    HW221975   2.662   3.273  13.528  0.2296  0.0143  0.4990
 3447SOL     OW21976   2.839   2.340  11.993 -0.2376  0.5316  0.0567
 3447SOL    HW121977   2.859   2.274  12.059 -1.1285  0.2372  0.0308
 3447SOL    HW221978   2.760   2.311  11.947  0.6738  0.5315 -1.4999
 3448SOL     OW21979   0.835   0.056   5.911  0.4388 -0.0868  0.8018
 3448SOL    HW121980   0.903   0.119   5.934  0.4673  0.2896 -0.3635
 3448SOL    HW221981   0.866   4.716   5.957  2.0342 -0.5138 -0.9947
 3449SOL     OW21982   2.544   3.604   5.528  0.3523  0.0640  0.3558
 3449SOL    HW121983   2.471   3.600   5.466  0.8625 -1.9539 -0.1138
 3449SOL    HW221984   2.499   3.641   5.604 -0.4742 -0.3100  0.0530
 3450SOL     OW21985   3.488   1.175  14.887 -0.0432  0.5965 -0.3565
 3450SOL    HW121986   3.571   1.171  14.935 -0.9632 -3.6731  0.8301
 3450SOL    HW221987   3.463   1.083  14.894 -0.9544  0.9061  0.4939
 3451SOL     OW21988   3.011   1.555   8.566  0.0944 -0.9261 -0.7295
 3451SOL    HW121989   2.963   1.626   8.522  0.7755  0.6793  1.1665
 3451SOL    HW221990   3.082   1.549   8.501  1.8759  2.4626  0.9368
 3452SOL     OW21991   4.336   3.896   4.485  0.1414  0.2810  0.1135
 3452SOL    HW121992   4.344   3.990   4.468  0.9438  0.1213 -0.4080
 3452SOL    HW221993   4.321   3.897   4.579  2.2948 -2.0916  0.4865
 3453SOL     OW21994   4.103   4.684   2.970  0.3176  0.6820 -0.3098
 3453SOL    HW121995   4.163   4.676   2.896 -0.2825 -2.1785 -0.4886
 3453SOL    HW221996   4.019   4.683   2.924  0.0351  0.3815  0.2112
 3454SOL     OW21997   1.709   2.563   4.410 -0.1660 -0.1127  0.0003
 3454SOL    HW121998   1.637   2.524   4.459 -1.5588  3.2269  0.6809
 3454SOL    HW221999   1.747   2.480   4.383  0.0369 -0.2857  0.8230
 3455SOL     OW22000   3.337   0.787   7.946  0.3167  0.5825  0.8354
 3455SOL    HW122001   3.291   0.723   7.892  0.8277  1.4536 -0.6326
 3455SOL    HW222002   3.322   0.871   7.903 -1.2075  0.3967  0.9863
 3456SOL     OW22003   4.730   0.483   2.595  0.1201  0.1478 -0.3098
 3456SOL    HW122004   0.027   0.438   2.672 -0.0890  0.2525 -0.1534
 3456SOL    HW222005   4.669   0.417   2.562  1.9627 -1.3229 -0.7835
 3457SOL     OW22006   0.882   0.766   3.744  0.0029  0.6570 -0.5101
 3457SOL    HW122007   0.886   0.675   3.714 -1.2879  1.2794 -2.5784
 3457SOL    HW222008   0.907   0.807   3.661 -0.0766 -0.5721 -1.1370
 3458SOL     OW22009   4.630   1.649   4.706  1.0683 -0.6134 -0.3029
 3458SOL    HW122010   4.546   1.614   4.736 -0.5488  3.6818  0.1588
 3458SOL    HW222011   4.621   1.744   4.705 -0.6166 -0.7139  2.5120
 3459SOL     OW22012   3.124   3.985   2.744 -0.4335 -0.3220  0.1610
 3459SOL    HW122013   3.040   4.017   2.777 -0.4349 -1.2330  1.0114
 3459SOL    HW222014   3.174   3.983   2.826 -0.0428 -1.6818 -0.1132
 3460SOL     OW22015   2.270   1.922   4.633  0.5187  0.0966  0.0011
 3460SOL    HW122016   2.315   1.855   4.582 -0.4677  0.8961 -1.9502
 3460SOL    HW222017   2.189   1.874   4.653  0.5772  0.0228  0.0600
 3461SOL     OW22018   3.446   4.039  11.096  0.4205 -0.4095  0.0497
 3461SOL    HW122019   3.492   4.072  11.174  0.2921 -0.8700  0.3273
 3461SOL    HW222020   3.443   3.944  11.110  0.0366 -0.4482 -0.3108
 3462SOL     OW22021   3.893   0.897   5.444  0.4915  0.2570  0.1963
 3462SOL    HW122022   3.978   0.857   5.465  0.3905  0.0040  0.1237
 3462SOL    HW222023   3.875   0.948   5.522 -0.2202  2.6552 -1.5347
 3463SOL     OW22024   2.029   2.746   5.594  0.5363 -0.1489  0.3982
 3463SOL    HW122025   2.103   2.776   5.540  0.1515 -0.0601 -0.0783
 3463SOL    HW222026   2.061   2.665   5.635  0.0149  0.0625  1.2163
 3464SOL     OW22027   4.518   1.605   2.717  0.1086 -0.0333  0.0743
 3464SOL    HW122028   4.593   1.573   2.667 -1.0552  0.6683 -2.0994
 3464SOL    HW222029   4.450   1.539   2.701  1.2207 -1.4637  1.1896
 3465SOL     OW22030   4.322   0.101  11.652  0.0805 -0.7824  0.3406
 3465SOL    HW122031   4.341   0.191  11.680  0.6358 -0.7720 -0.0795
 3465SOL    HW222032   4.410   0.071  11.633  0.3006 -0.6216  1.1107
 3466SOL     OW22033   1.492   2.263   2.246 -0.0799  0.0926 -0.2299
 3466SOL    HW122034   1.507   2.239   2.155  0.0079  0.3562 -0.2858
 3466SOL    HW222035   1.472   2.356   2.239 -0.0042 -0.0888 -2.8501
 3467SOL     OW22036   1.079   1.085  14.691 -0.4078 -0.6975 -0.2331
 3467SOL    HW122037   1.014   1.021  14.721 -0.4237  0.1702  1.5564
 3467SOL    HW222038   1.083   1.067  14.597  0.7380  1.8614 -0.6655
 3468SOL     OW22039   3.729   0.083  16.594  0.1193 -0.1305 -0.0434
 3468SOL    HW122040   3.794   0.099  16.662 -1.4154 -1.7528  1.8116
 3468SOL    HW222041   3.701   0.174  16.593 -2.3049 -0.8426  2.2655
 3469SOL     OW22042   3.080   3.821   5.698  0.3646  0.4246  0.2921
 3469SOL    HW122043   3.056   3.762   5.626 -1.6958 -0.0353  1.3653
 3469SOL    HW222044   3.154   3.771   5.734 -0.9190 -2.4767 -1.0504
 3470SOL     OW22045   3.697   3.960   4.338 -0.4496 -0.2068  0.2835
 3470SOL    HW122046   3.783   3.936   4.302  0.5339  2.2065  1.0608
 3470SOL    HW222047   3.722   4.044   4.376 -1.2545  1.1667 -2.1910
 3471SOL     OW22048   4.057   0.172   7.415 -0.0933 -0.1135  0.7839
 3471SOL    HW122049   4.051   0.098   7.354 -0.1520 -0.2079  0.9039
 3471SOL    HW222050   3.967   0.195   7.437  0.3543 -0.2979  2.7742
 3472SOL     OW22051   2.297   0.830   6.552 -0.1271 -0.9583 -0.6130
 3472SOL    HW122052   2.286   0.925   6.547  0.4276 -0.7991  1.0128
 3472SOL    HW222053   2.337   0.814   6.467 -0.4866 -1.7856 -0.6244
 3473SOL     OW22054   3.171   3.236   6.869  0.7877 -0.4674  0.0936
 3473SOL    HW122055   3.258   3.263   6.898 -0.4529  0.4780  2.9056
 3473SOL    HW222056   3.127   3.278   6.943  1.0146  0.1364 -0.1165
 3474SOL     OW22057   4.167   4.407   2.931 -0.0983  0.4006 -0.0342
 3474SOL    HW122058   4.159   4.502   2.941  0.1847  0.3122  1.1257
 3474SOL    HW222059   4.084   4.396   2.884 -1.0193 -0.6321  1.8007
 3475SOL     OW22060   2.454   2.740  16.364  0.5404 -0.0370  0.4924
 3475SOL    HW122061   2.506   2.695  16.431 -0.0092 -1.5720 -0.1141
 3475SOL    HW222062   2.445   2.668  16.302 -3.0168  0.9789 -0.1854
 3476SOL     OW22063   1.472   1.694   5.527  0.0574  0.1714  0.3048
 3476SOL    HW122064   1.541   1.758   5.544  0.4649 -0.6355  1.7479
 3476SOL    HW222065   1.512   1.625   5.580 -0.0310  0.3699  0.6297
 3477SOL     OW22066   0.913   3.163   0.152  0.0760  0.2220 -0.3298
 3477SOL    HW122067   0.889   3.255   0.161 -0.4708 -0.1675  2.1791
 3477SOL    HW222068   0.875   3.146   0.066 -3.1070  1.1737  0.8845
 3478SOL     OW22069   3.142   4.723   5.100  0.4078 -0.7909  0.1551
 3478SOL    HW122070   3.226   4.723   5.146  1.2017  1.6937 -1.3198
 3478SOL    HW222071   3.119   4.631   5.086  0.6814 -0.7857 -0.3105
 3479SOL     OW22072   1.595   4.203  12.919  0.0233 -0.1578  0.3832
 3479SOL    HW122073   1.602   4.183  12.826 -0.3846 -0.9411  0.5192
 3479SOL    HW222074   1.550   4.127  12.955 -2.0280  0.9471  0.1170
 3480SOL     OW22075   2.131   1.238   3.133 -0.1398 -0.4061 -0.3216
 3480SOL    HW122076   2.216   1.206   3.165 -0.6186  0.2219  1.5345
 3480SOL    HW222077   2.084   1.254   3.215  1.4466 -0.4180  0.6032
 3481SOL     OW22078   0.356   0.178   7.914  0.3200 -0.3246 -0.2347
 3481SOL    HW122079   0.321   0.136   7.836  0.1726 -0.9923  0.1933
 3481SOL    HW222080   0.365   0.268   7.883 -0.4243 -0.7703 -1.7310
 3482SOL     OW22081   4.104   3.511   7.719 -0.0672 -0.2132  0.2930
 3482SOL    HW122082   4.009   3.508   7.712  0.0713 -1.0393 -1.1190
 3482SOL    HW222083   4.122   3.454   7.645 -0.1459 -0.0476  0.1467
 3483SOL     OW22084   1.091   4.462   8.762 -0.0171 -0.2871  0.1817
 3483SOL    HW122085   1.104   4.368   8.775 -1.9851 -0.4918  0.5588
 3483SOL    HW222086   1.092   4.459   8.666  0.9634 -1.1507  0.2241
 3484SOL     OW22087   4.230   1.898   6.823  0.0304 -0.8451  0.0502
 3484SOL    HW122088   4.246   1.992   6.834 -0.5223 -0.6992 -0.3779
 3484SOL    HW222089   4.195   1.866   6.906 -2.1588 -0.0032 -0.5563
 3485SOL     OW22090   2.740   2.702   2.853 -0.3705  0.2898 -0.8861
 3485SOL    HW122091   2.700   2.736   2.933  0.4905  0.1520 -0.4013
 3485SOL    HW222092   2.669   2.655   2.809 -0.5243 -1.1492  0.9475
 3486SOL     OW22093   3.152   2.626   4.263  0.1399  0.0264  0.0441
 3486SOL    HW122094   3.220   2.563   4.239 -0.1423 -0.0884 -0.4577
 3486SOL    HW222095   3.073   2.573   4.265  1.1707 -1.6536 -3.0995
 3487SOL     OW22096   3.400   4.510  10.654  0.5850  0.2887 -0.1590
 3487SOL    HW122097   3.488   4.528  10.688  0.1991  0.3358  0.8214
 3487SOL    HW222098   3.354   4.594  10.663  1.1783  0.5281  0.6651
 3488SOL     OW22099   3.842   0.505   7.668 -0.4988 -0.3044 -0.7860
 3488SOL    HW122100   3.937   0.500   7.659 -0.2182  0.5593  1.6121
 3488SOL    HW222101   3.822   0.596   7.644  1.8701  0.1405 -1.0642
 3489SOL     OW22102   3.152   1.525   8.820 -0.1169  0.0658 -0.0281
 3489SOL    HW122103   3.084   1.572   8.772  1.0874  0.8104 -1.0056
 3489SOL    HW222104   3.127   1.543   8.911 -1.4369 -1.5924 -0.0719
 3490SOL     OW22105   2.692   0.966   4.875 -0.6445 -0.2393  0.2879
 3490SOL    HW122106   2.702   0.923   4.960 -1.2167  1.5310  1.2433
 3490SOL    HW222107   2.711   1.057   4.898 -1.2587 -0.0629  0.1200
 3491SOL     OW22108   2.558   0.474  13.387  0.0587  0.0730 -0.9075
 3491SOL    HW122109   2.549   0.381  13.409 -4.7966  1.1386  1.6198
 3491SOL    HW222110   2.648   0.479  13.355  0.5691  1.4928  0.7705
 3492SOL     OW22111   4.449   0.041   1.202  0.4717 -0.5159  0.0558
 3492SOL    HW122112   4.377   0.044   1.139 -1.2970  0.8012  2.1116
 3492SOL    HW222113   4.436   4.691   1.237 -1.9226  0.0568  0.6613
 3493SOL     OW22114   2.284   1.048  17.558  0.6251  0.0064  0.1337
 3493SOL    HW122115   2.284   1.131  17.512 -0.3327 -0.9810 -1.6570
 3493SOL    HW222116   2.212   1.075  17.616  0.4965 -0.2550  0.0993
 3494SOL     OW22117   3.435   4.481   3.433  0.7103  0.0862  0.0841
 3494SOL    HW122118   3.365   4.535   3.398  0.4551  0.2323  0.8349
 3494SOL    HW222119   3.433   4.402   3.378  2.0021  0.1885 -0.1212
 3495SOL     OW22120   1.840   2.784   3.122 -0.5562  0.0620  0.0825
 3495SOL    HW122121   1.749   2.768   3.095 -0.5298 -0.1272  0.1050
 3495SOL    HW222122   1.813   2.860   3.174 -0.7944  0.0052  0.0426
 3496SOL     OW22123   1.528   1.034   8.263 -0.0740 -0.4952 -0.0118
 3496SOL    HW122124   1.499   1.045   8.172  3.0345 -2.8096 -1.2812
 3496SOL    HW222125   1.623   1.034   8.251  0.0617 -1.0689  1.0805
 3497SOL     OW22126   0.337   1.264   9.242  0.3359 -0.4032 -0.0682
 3497SOL    HW122127   0.369   1.175   9.228 -1.4312 -1.0807  0.1440
 3497SOL    HW222128   0.280   1.254   9.318  2.0386 -3.0917  0.8401
 3498SOL     OW22129   1.936   3.874  12.015 -0.0518 -0.6456  0.6249
 3498SOL    HW122130   1.844   3.884  11.989  0.1591  0.1637  0.1783
 3498SOL    HW222131   1.925   3.852  12.108 -1.0048 -0.4597  0.5575
 3499SOL     OW22132   0.608   4.604  15.971  0.1601 -0.0224  0.2615
 3499SOL    HW122133   0.531   4.642  15.929 -1.0029  0.3399  2.7148
 3499SOL    HW222134   0.572   4.517  15.986  0.2731 -0.1001  0.0790
 3500SOL     OW22135   3.000   1.772   4.408 -0.1202  0.1608 -0.3013
 3500SOL    HW122136   2.936   1.840   4.387  0.2915  0.9113  0.8988
 3500SOL    HW222137   3.015   1.799   4.498 -2.0107 -1.1618  0.4112
 3501SOL     OW22138   0.898   1.482   1.916  0.1315 -0.0691 -0.0935
 3501SOL    HW122139   0.919   1.397   1.954  1.6101  0.7471  0.9234
 3501SOL    HW222140   0.803   1.488   1.919 -0.0052 -1.2593 -1.6014
 3502SOL     OW22141   3.088   3.663   8.614 -0.1873 -0.5581  0.2010
 3502SOL    HW122142   3.056   3.588   8.563 -1.9485 -0.1044  0.6497
 3502SOL    HW222143   3.142   3.705   8.547 -1.1515  0.8130  0.2790
 3503SOL     OW22144   4.216   1.680   5.102 -0.2871  0.0287  0.0051
 3503SOL    HW122145   4.155   1.722   5.041 -1.9633 -1.7472  0.4598
 3503SOL    HW222146   4.192   1.730   5.180  0.4185  0.6947 -0.2082
 3504SOL     OW22147   2.743   2.967   2.099 -0.1402  0.2172  0.7664
 3504SOL    HW122148   2.837   2.975   2.086  0.1507 -2.4016  1.1676
 3504SOL    HW222149   2.730   2.920   2.016 -2.1842  4.0226 -1.0546
 3505SOL     OW22150   4.007   2.557   4.482 -0.3441 -0.5462 -0.0013
 3505SOL    HW122151   3.913   2.574   4.482 -0.1579  0.4580 -0.3735
 3505SOL    HW222152   4.006   2.478   4.428  0.4405 -0.2414 -0.4528
 3506SOL     OW22153   2.984   1.172   2.459  0.3393  0.3535 -0.1673
 3506SOL    HW122154   3.049   1.125   2.406 -0.2556 -0.0710 -0.5154
 3506SOL    HW222155   2.964   1.246   2.402  0.3467  1.2240  0.9857
 3507SOL     OW22156   4.143   1.734   5.640  1.2799 -0.0341  0.1570
 3507SOL    HW122157   4.132   1.824   5.610  0.5709  0.1336  0.8955
 3507SOL    HW222158   4.053   1.701   5.640  2.0061 -2.0477  0.6052
 3508SOL     OW22159   0.729   2.242  17.624  0.9023  0.2739 -0.7580
 3508SOL    HW122160   0.747   2.334  17.642 -0.6474  0.6948 -1.3060
 3508SOL    HW222161   0.678   2.254  17.544 -1.6836  0.5100  0.8993
 3509SOL     OW22162   4.713   0.404   1.985  0.2779 -0.6582  0.3280
 3509SOL    HW122163   4.719   0.374   1.894 -0.5288 -0.9591  0.3723
 3509SOL    HW222164   0.067   0.393   2.010  0.1495  0.7869  1.4641
 3510SOL     OW22165   0.165   3.561  12.150  0.1698 -0.4953 -0.2526
 3510SOL    HW122166   0.157   3.483  12.095 -1.6035  1.4861 -2.7713
 3510SOL    HW222167   0.186   3.627  12.084  0.6483 -0.3144  0.0784
 3511SOL     OW22168   1.796   4.706   5.409  0.4174  0.4086 -0.7199
 3511SOL    HW122169   1.862   4.709   5.478 -1.3199 -1.8223  1.0531
 3511SOL    HW222170   1.794   4.615   5.379  2.6469 -0.4917  1.8506
 3512SOL     OW22171   1.173   1.657   4.829 -0.1981 -0.6148 -0.1945
 3512SOL    HW122172   1.215   1.574   4.806  0.3544 -1.1732  2.8721
 3512SOL    HW222173   1.160   1.650   4.924  0.8557 -3.0624 -0.2318
 3513SOL     OW22174   2.123   4.366   5.682 -0.1062 -0.5448  0.0038
 3513SOL    HW122175   2.105   4.427   5.753 -0.2107 -2.1419  1.3505
 3513SOL    HW222176   2.049   4.305   5.686 -1.8228  1.4787 -1.1457
 3514SOL     OW22177   3.849   4.705   0.702 -0.4277  0.7596  0.4809
 3514SOL    HW122178   3.825   4.624   0.657  0.1671  1.4234 -1.0435
 3514SOL    HW222179   3.844   0.034   0.634  0.4190 -0.0969 -0.4323
 3515SOL     OW22180   1.261   0.164   0.563 -0.1899  0.2287 -0.1104
 3515SOL    HW122181   1.337   0.222   0.555  0.1234 -0.2088 -0.3236
 3515SOL    HW222182   1.263   0.102   0.491 -0.7301  1.1907 -0.9531
 3516SOL     OW22183   2.181   1.263   6.609 -0.0006 -0.3413 -0.0596
 3516SOL    HW122184   2.088   1.282   6.621  0.1501  0.6030 -0.3827
 3516SOL    HW222185   2.218   1.348   6.632 -2.5955  0.8969 -0.5381
 3517SOL     OW22186   4.383   3.268   2.011 -0.2720  0.1336 -0.2830
 3517SOL    HW122187   4.288   3.276   2.004 -0.3032  3.4097  3.8258
 3517SOL    HW222188   4.419   3.357   2.013  1.3600 -0.5365 -0.0097
 3518SOL     OW22189   1.278   0.879   2.862 -1.0909  0.3205  0.4856
 3518SOL    HW122190   1.373   0.889   2.861 -0.8432 -1.7597  2.3973
 3518SOL    HW222191   1.255   0.908   2.774 -1.1305  0.7192  0.6274
 3519SOL     OW22192   2.337   2.495   1.783 -0.4615 -0.0852  0.4572
 3519SOL    HW122193   2.334   2.490   1.687  1.2861  0.0483  0.4041
 3519SOL    HW222194   2.418   2.446   1.796  0.4063  1.2721  0.1495
 3520SOL     OW22195   3.048   1.919   6.323 -0.3862 -0.2231  0.3730
 3520SOL    HW122196   3.139   1.898   6.347 -0.4499 -0.2196  0.6124
 3520SOL    HW222197   3.056   2.012   6.302  1.4235 -0.0336  1.8635
 3521SOL     OW22198   1.878   3.059  15.891  0.3250 -0.1773  0.2406
 3521SOL    HW122199   1.838   3.093  15.811  1.1568 -0.2296 -0.2022
 3521SOL    HW222200   1.867   3.131  15.953  0.9642 -0.7653  1.0417
 3522SOL     OW22201   1.230   0.184  13.720 -0.5308 -0.2019  0.1291
 3522SOL    HW122202   1.265   0.134  13.646 -2.8178  0.4813 -1.4060
 3522SOL    HW222203   1.227   0.273  13.686  0.7914 -0.2533 -0.1358
 3523SOL     OW22204   3.433   0.206   5.844  0.5071 -0.4358 -0.4279
 3523SOL    HW122205   3.488   0.250   5.909 -0.3195  0.4160 -0.3031
 3523SOL    HW222206   3.452   0.112   5.855  0.6021 -0.3821 -0.1285
 3524SOL     OW22207   2.966   3.029   3.833  0.3094  0.0634 -0.1683
 3524SOL    HW122208   3.058   3.055   3.820  0.2378 -0.1807 -1.1640
 3524SOL    HW222209   2.946   3.010   3.741  2.2031  2.4278 -1.0976
 3525SOL     OW22210   2.145   3.112   2.486  0.7319  0.3753  0.1230
 3525SOL    HW122211   2.170   3.153   2.403  1.2728 -0.7664 -0.2701
 3525SOL    HW222212   2.234   3.106   2.522  0.4969  0.5358  0.7336
 3526SOL     OW22213   0.028   0.293   7.685  0.0926  0.2740 -0.6812
 3526SOL    HW122214   0.021   0.281   7.590  2.8803 -3.5405 -0.3985
 3526SOL    HW222215   0.080   0.373   7.692 -2.4585  1.8130  1.1225
 3527SOL     OW22216   3.508   0.929  17.329 -0.6816  0.1799 -1.0803
 3527SOL    HW122217   3.506   0.944  17.235 -0.2083 -0.0037 -1.1196
 3527SOL    HW222218   3.589   0.978  17.344  0.0648 -1.0713 -1.0360
 3528SOL     OW22219   1.977   4.490   6.854  0.2885 -0.1151 -0.4419
 3528SOL    HW122220   2.062   4.448   6.837 -0.3396 -1.4796 -0.2505
 3528SOL    HW222221   1.996   4.566   6.908  0.4061 -1.2524  1.1067
 3529SOL     OW22222   1.129   2.733   5.800  0.3127  0.2485  0.6002
 3529SOL    HW122223   1.162   2.669   5.737 -0.0581  0.4876  0.1618
 3529SOL    HW222224   1.210   2.754   5.847  0.6486  0.4908 -0.0954
 3530SOL     OW22225   3.844   2.521  11.794  0.0494  0.4691 -0.0829
 3530SOL    HW122226   3.778   2.480  11.850 -1.1101  1.3138 -0.8321
 3530SOL    HW222227   3.873   2.597  11.844  1.1655  0.5857 -0.9176
 3531SOL     OW22228   4.452   3.389   7.859  0.4016  0.4938  0.1286
 3531SOL    HW122229   4.364   3.379   7.894  0.2294  1.6730  0.0395
 3531SOL    HW222230   4.488   3.306   7.891 -0.7279  0.3118  0.9167
 3532SOL     OW22231   4.390   2.504   9.991  0.0857 -0.3797 -0.3451
 3532SOL    HW122232   4.482   2.512  10.016 -0.0499 -0.5122  0.1968
 3532SOL    HW222233   4.344   2.501  10.075  0.1416  0.0320 -0.2964
 3533SOL     OW22234   3.084   3.556   2.906 -0.0620 -0.0199  0.2301
 3533SOL    HW122235   3.018   3.486   2.904 -2.4957  2.2095  1.9079
 3533SOL    HW222236   3.168   3.511   2.902 -1.1501 -1.7150 -3.2619
 3534SOL     OW22237   0.354   3.711  17.189 -1.0439 -0.6268  0.1251
 3534SOL    HW122238   0.446   3.737  17.201 -0.6152 -2.6594  1.2901
 3534SOL    HW222239   0.351   3.626  17.233 -1.0529 -1.4384 -1.4236
 3535SOL     OW22240   3.843   0.313  12.640  0.1281  0.3565 -0.3124
 3535SOL    HW122241   3.780   0.240  12.638  0.8075 -0.1430 -3.1976
 3535SOL    HW222242   3.915   0.279  12.587 -0.8558 -1.4757 -0.4884
 3536SOL     OW22243   4.121   4.066  10.299  0.4577  0.1710  0.6654
 3536SOL    HW122244   4.027   4.083  10.296  0.6100  0.6544 -1.0385
 3536SOL    HW222245   4.167   4.139  10.259  0.5501 -1.1550 -1.6437
 3537SOL     OW22246   0.312   0.123   6.225  0.0333 -0.4231  0.0786
 3537SOL    HW122247   0.407   0.120   6.209  0.0495 -2.6344  0.6427
 3537SOL    HW222248   0.314   0.103   6.319 -0.6938  2.1537  0.6568
 3538SOL     OW22249   3.158   2.978   5.699 -0.2659  0.3501  0.0123
 3538SOL    HW122250   3.152   3.031   5.619 -3.8273  1.1549  0.7961
 3538SOL    HW222251   3.229   2.919   5.675 -0.2491  0.3112  0.1594
 3539SOL     OW22252   1.870   2.138   6.480  0.7110 -0.1915  0.1530
 3539SOL    HW122253   1.812   2.197   6.431  1.1860 -0.0269 -0.2055
 3539SOL    HW222254   1.850   2.175   6.566  1.3620 -2.6855  1.3565
 3540SOL     OW22255   4.589   3.616   3.058  0.0070 -0.1553 -0.0697
 3540SOL    HW122256   4.607   3.561   3.134 -1.1962 -0.6548 -0.1544
 3540SOL    HW222257   4.648   3.577   2.993  0.2891 -2.0015  1.2925
 3541SOL     OW22258   2.283   0.046   2.314  0.1580  0.6085 -0.3445
 3541SOL    HW122259   2.265   0.047   2.220 -1.1725  2.2238 -0.0639
 3541SOL    HW222260   2.378   0.036   2.319  0.1961  0.8966 -0.5420
 3542SOL     OW22261   2.476   4.651  15.250  0.1551  0.2408 -0.3161
 3542SOL    HW122262   2.461   4.597  15.173  1.3376 -0.1618 -0.2698
 3542SOL    HW222263   2.466   4.737  15.209 -4.2708  0.2408  0.8706
 3543SOL     OW22264   3.258   3.237  16.534 -0.1765  0.8551 -0.6018
 3543SOL    HW122265   3.217   3.166  16.583  3.8037 -2.0229 -1.4460
 3543SOL    HW222266   3.297   3.288  16.604 -0.2486  0.7094 -0.4550
 3544SOL     OW22267   1.830   4.176   2.567 -0.1376 -0.0738 -0.1029
 3544SOL    HW122268   1.829   4.146   2.477  1.7186 -1.5606  0.3628
 3544SOL    HW222269   1.901   4.241   2.569 -0.3916  0.1687  1.0322
 3545SOL     OW22270   4.493   0.242   5.698  0.0004  0.2775  0.0124
 3545SOL    HW122271   4.402   0.259   5.723  0.1380  1.2940 -0.1875
 3545SOL    HW222272   4.520   0.305   5.631 -3.0758  1.3696 -0.2169
 3546SOL     OW22273   3.265   3.274  15.593  0.7409 -0.3794 -0.7353
 3546SOL    HW122274   3.197   3.279  15.526  1.2635 -0.2939 -1.2568
 3546SOL    HW222275   3.214   3.261  15.673  1.0362  0.9525 -0.3204
 3547SOL     OW22276   4.034   1.931   5.944 -0.8524  0.1417 -0.5960
 3547SOL    HW122277   4.027   2.006   6.004 -2.7235 -0.4423 -0.0694
 3547SOL    HW222278   4.077   1.857   5.986  1.9769  1.2637 -1.5615
 3548SOL     OW22279   2.923   3.227  12.641  0.5189  0.3028 -0.0162
 3548SOL    HW122280   2.936   3.133  12.643 -0.0186  0.2680  2.4250
 3548SOL    HW222281   2.902   3.250  12.732 -1.3988  1.3375 -0.7112
 3549SOL     OW22282   1.039   2.117   1.044 -0.0620  0.1647  0.2815
 3549SOL    HW122283   1.034   2.206   1.011  0.8834  0.4839  1.0039
 3549SOL    HW222284   0.959   2.071   1.019 -0.2102  0.2055  0.6696
 3550SOL     OW22285   3.299   3.516  15.277 -0.1203 -0.2283  0.1964
 3550SOL    HW122286   3.394   3.519  15.279 -0.0699 -1.5562 -0.4135
 3550SOL    HW222287   3.277   3.556  15.193  1.3044 -0.7345 -0.4097
 3551SOL     OW22288   2.442   3.327   9.671 -0.6561 -0.9499 -0.1602
 3551SOL    HW122289   2.396   3.410   9.685 -0.4808 -0.7466 -0.7903
 3551SOL    HW222290   2.505   3.362   9.608 -1.3603  1.5140  0.5044
 3552SOL     OW22291   4.425   2.362   4.089 -0.0314 -0.3704 -0.0093
 3552SOL    HW122292   4.341   2.349   4.132 -0.5208 -0.7427 -1.0727
 3552SOL    HW222293   4.401   2.369   3.997  1.2484 -0.7514 -0.3667
 3553SOL     OW22294   1.635   0.130   8.920  0.3645  0.3946  0.1979
 3553SOL    HW122295   1.722   0.110   8.955 -0.1939 -0.2932  1.2006
 3553SOL    HW222296   1.584   0.078   8.982 -0.9530  2.3043  0.7008
 3554SOL     OW22297   1.251   3.369   1.676  0.3888 -0.1836  0.1799
 3554SOL    HW122298   1.160   3.354   1.648  0.3802  1.1788 -0.5240
 3554SOL    HW222299   1.272   3.417   1.596 -0.1528 -0.4419 -0.1178
 3555SOL     OW22300   2.161   2.134   1.213 -0.1704  0.0995  0.5762
 3555SOL    HW122301   2.078   2.166   1.249  0.8083  0.8839  2.0857
 3555SOL    HW222302   2.137   2.103   1.125 -0.1420  1.3268  0.1349
 3556SOL     OW22303   1.739   1.431   8.790  0.4347 -0.1465  0.3680
 3556SOL    HW122304   1.781   1.351   8.760  1.7421  1.1522 -1.2533
 3556SOL    HW222305   1.739   1.412   8.884  1.6414  0.2549  0.4562
 3557SOL     OW22306   0.623   4.238  12.062 -0.6263  0.3771 -0.7198
 3557SOL    HW122307   0.664   4.305  12.116  0.5745 -1.3546  0.5137
 3557SOL    HW222308   0.688   4.169  12.049 -0.8781 -0.1256  0.7220
 3558SOL     OW22309   1.553   4.110   7.883 -0.2442 -0.3337  0.0471
 3558SOL    HW122310   1.581   4.060   7.959  0.6994  1.3930  0.8285
 3558SOL    HW222311   1.598   4.061   7.814 -1.1284  1.3167 -1.7093
 3559SOL     OW22312   3.923   0.171   5.261  0.1183 -0.5697  0.5379
 3559SOL    HW122313   3.868   0.249   5.251  0.2338 -0.4800  0.5943
 3559SOL    HW222314   3.942   0.158   5.168 -1.6924  0.4578  0.0283
 3560SOL     OW22315   0.384   1.358   5.124  0.0280 -0.4334  0.4152
 3560SOL    HW122316   0.332   1.294   5.173 -1.8956  0.4833 -0.4579
 3560SOL    HW222317   0.460   1.307   5.096 -0.7119 -0.6134 -1.2955
 3561SOL     OW22318   2.469   0.504   9.588 -0.3146 -0.1066 -0.1214
 3561SOL    HW122319   2.464   0.419   9.631 -2.1279  0.2397  0.3351
 3561SOL    HW222320   2.554   0.495   9.545 -0.9329 -2.6128 -0.7693
 3562SOL     OW22321   4.356   1.521   8.737  0.1447 -0.3880  0.4751
 3562SOL    HW122322   4.401   1.489   8.659 -1.1406  0.1769 -0.4933
 3562SOL    HW222323   4.366   1.448   8.799  1.9641  0.6519  1.4127
 3563SOL     OW22324   1.337   0.581   4.324 -0.5685 -0.1140 -0.8631
 3563SOL    HW122325   1.247   0.548   4.329  0.6302 -3.1181  1.0705
 3563SOL    HW222326   1.359   0.591   4.417 -0.5281 -0.2143 -0.8616
 3564SOL     OW22327   3.808   0.607   8.647 -0.1882  0.3200  0.1196
 3564SOL    HW122328   3.892   0.654   8.641  0.6658 -1.5653 -2.5876
 3564SOL    HW222329   3.789   0.599   8.554  0.6565  1.1840 -0.1336
 3565SOL     OW22330   2.994   3.973  12.925  1.2304 -0.2129 -0.0527
 3565SOL    HW122331   2.906   3.973  12.888  0.8184  0.4363  0.9542
 3565SOL    HW222332   2.990   4.055  12.974 -0.8677 -0.7899  0.7239
 3566SOL     OW22333   1.548   2.941  17.412  0.6822  0.5756 -0.0367
 3566SOL    HW122334   1.506   3.027  17.411  0.1441  0.2923 -1.1007
 3566SOL    HW222335   1.595   2.950  17.495 -1.8914  0.9656  1.3813
 3567SOL     OW22336   4.075   3.271  14.130 -0.0269 -0.7067 -0.4691
 3567SOL    HW122337   4.092   3.307  14.217  2.4973  0.4717 -1.4669
 3567SOL    HW222338   3.979   3.274  14.120 -0.4385 -1.5110  3.2965
 3568SOL     OW22339   3.587   4.242  13.941 -0.6195 -0.4574  0.1740
 3568SOL    HW122340   3.676   4.268  13.918 -0.5890  0.1991  1.0269
 3568SOL    HW222341   3.541   4.240  13.857 -0.9669  1.7506  0.3101
 3569SOL     OW22342   2.127   0.002   4.749 -0.0933  0.2604  0.2132
 3569SOL    HW122343   2.039   4.720   4.780  0.4432 -1.8489  0.3767
 3569SOL    HW222344   2.186   4.738   4.824  1.6572  2.3706 -1.0870
 3570SOL     OW22345   1.503   1.773   6.525 -0.0917  0.1102  0.2361
 3570SOL    HW122346   1.545   1.835   6.465 -1.7407  1.1445  0.1350
 3570SOL    HW222347   1.432   1.824   6.563  0.8880  0.8472  1.0754
 3571SOL     OW22348   0.871   4.422  10.098 -0.1363 -0.0917  0.1476
 3571SOL    HW122349   0.938   4.361  10.066 -1.4662 -0.4325 -1.9965
 3571SOL    HW222350   0.818   4.424  10.018 -0.2999  0.7118  0.2814
 3572SOL     OW22351   3.921   1.159  16.635  0.0404  0.9168  0.9071
 3572SOL    HW122352   3.826   1.150  16.640  0.2771 -0.7434  2.0489
 3572SOL    HW222353   3.935   1.254  16.632 -2.3196  1.2728  1.1368
 3573SOL     OW22354   2.939   0.303   7.269  0.3260 -0.0474 -0.1702
 3573SOL    HW122355   2.950   0.235   7.336 -1.3435  0.5499  0.7219
 3573SOL    HW222356   2.949   0.381   7.324 -1.4193 -0.4695  0.7499
 3574SOL     OW22357   0.379   4.168   7.140 -0.2292 -0.5036 -0.0277
 3574SOL    HW122358   0.297   4.180   7.092  0.5138 -0.9065 -1.4070
 3574SOL    HW222359   0.430   4.245   7.115 -1.5828  0.2679 -0.4370
 3575SOL     OW22360   0.249   3.953   5.897 -0.7231  0.1807 -0.5453
 3575SOL    HW122361   0.253   4.039   5.940  1.3153  0.6775 -1.7123
 3575SOL    HW222362   0.189   3.966   5.824 -1.7460 -1.4026  0.0290
 3576SOL     OW22363   1.514   1.388   4.168  0.3500  0.1468 -0.1222
 3576SOL    HW122364   1.525   1.372   4.074  0.0090  1.4838 -0.3854
 3576SOL    HW222365   1.570   1.318   4.202 -0.2125 -1.0540 -1.6447
 3577SOL     OW22366   0.483   2.662  12.857  0.0653 -0.2293  0.1659
 3577SOL    HW122367   0.544   2.589  12.864  2.5556  1.7255 -1.3943
 3577SOL    HW222368   0.409   2.619  12.902 -2.2623  1.5756 -1.9434
 3578SOL     OW22369   2.178   1.325   4.160 -0.0620 -0.4103  0.1933
 3578SOL    HW122370   2.219   1.359   4.080 -0.3333 -0.9961 -0.1998
 3578SOL    HW222371   2.223   1.240   4.164 -1.4927 -1.2265 -1.1428
 3579SOL     OW22372   3.949   0.501   1.347 -0.3446  0.1419 -0.1327
 3579SOL    HW122373   4.026   0.496   1.291 -0.0269  0.8381  0.2356
 3579SOL    HW222374   3.945   0.597   1.344  0.4957  0.2636  2.2869
 3580SOL     OW22375   4.271   2.267   6.059 -0.3057 -0.5545 -0.5052
 3580SOL    HW122376   4.355   2.238   6.024 -0.1490 -0.1384 -0.4790
 3580SOL    HW222377   4.261   2.348   6.007  0.8133 -0.0736  0.0404
 3581SOL     OW22378   2.394   0.514   5.280 -0.5618 -0.2200 -0.2347
 3581SOL    HW122379   2.432   0.459   5.212  1.3995 -0.7231  1.2778
 3581SOL    HW222380   2.441   0.597   5.273 -2.8326  0.8998 -2.3118
 3582SOL     OW22381   0.098   1.010   1.608  0.0809  0.6090  0.7998
 3582SOL    HW122382   0.147   1.007   1.526 -0.9573 -1.8270  0.2871
 3582SOL    HW222383   0.155   0.949   1.655 -1.3804 -1.0028  0.5013
 3583SOL     OW22384   4.359   0.120  13.428  0.7080  0.0232 -0.0008
 3583SOL    HW122385   4.397   0.044  13.473 -0.0979  0.7120  1.8093
 3583SOL    HW222386   4.437   0.145  13.378  1.8734 -3.3297  0.0862
 3584SOL     OW22387   1.244   4.458   7.591  0.5403 -0.1781 -0.2899
 3584SOL    HW122388   1.303   4.525   7.559  0.8837 -0.7967 -0.9457
 3584SOL    HW222389   1.305   4.407   7.645  1.3454  1.9287  0.7972
 3585SOL     OW22390   4.076   3.816   4.711 -0.1501 -0.5591  0.2888
 3585SOL    HW122391   4.082   3.731   4.667 -3.4752 -0.4734 -0.3574
 3585SOL    HW222392   4.044   3.866   4.636 -1.0744 -1.5042  0.0515
 3586SOL     OW22393   2.197   0.731   4.155  0.0195 -0.7994 -0.1088
 3586SOL    HW122394   2.262   0.724   4.084  1.7985 -1.2517  1.5598
 3586SOL    HW222395   2.252   0.788   4.208  0.9306  0.7128 -2.6632
 3587SOL     OW22396   0.804   1.679  17.077  0.7032  0.6903  0.0733
 3587SOL    HW122397   0.732   1.631  17.037  0.1405  0.6412  1.1655
 3587SOL    HW222398   0.755   1.759  17.097 -3.5374 -2.0247  0.4047
 3588SOL     OW22399   3.779   0.502   5.586  0.5972 -0.1474 -0.0808
 3588SOL    HW122400   3.858   0.465   5.549  0.7839 -1.0301  1.1884
 3588SOL    HW222401   3.716   0.431   5.573  1.1782 -0.9487  1.4314
 3589SOL     OW22402   3.530   1.930  15.165 -0.0912  0.2369  0.3434
 3589SOL    HW122403   3.581   1.995  15.117 -0.7232  1.5609  1.4685
 3589SOL    HW222404   3.468   1.908  15.095  0.1409 -1.5675  0.7102
 3590SOL     OW22405   3.129   4.494   5.825  0.0693 -0.1286 -0.0766
 3590SOL    HW122406   3.155   4.421   5.769  0.7351  1.2579 -1.5609
 3590SOL    HW222407   3.039   4.473   5.848  0.7969 -1.4075  1.6471
 3591SOL     OW22408   0.809   3.648   8.636 -0.0144  0.1306  0.2608
 3591SOL    HW122409   0.735   3.707   8.619 -0.6758 -0.7047  0.2541
 3591SOL    HW222410   0.830   3.612   8.550  1.1027  0.5094  0.3777
 3592SOL     OW22411   2.659   3.632   4.490  0.4647 -0.2505  0.0544
 3592SOL    HW122412   2.686   3.657   4.401 -1.7924 -2.5731 -1.2810
 3592SOL    HW222413   2.685   3.702   4.550  3.6396  0.0269 -1.6244
 3593SOL     OW22414   0.609   2.371   1.838 -0.0205  0.5250  0.3510
 3593SOL    HW122415   0.536   2.339   1.892  0.3151 -1.4220 -0.3619
 3593SOL    HW222416   0.559   2.393   1.759 -0.7711 -0.2473  0.6095
 3594SOL     OW22417   2.474   3.637   2.858  1.0180 -0.2244 -0.4152
 3594SOL    HW122418   2.386   3.659   2.888  1.2806  0.5352 -0.1799
 3594SOL    HW222419   2.493   3.555   2.904  1.6248 -0.1865 -0.5903
 3595SOL     OW22420   0.893   2.827   8.998  0.0685  0.2825 -0.1021
 3595SOL    HW122421   0.863   2.911   8.963  2.1229  0.7895 -0.6165
 3595SOL    HW222422   0.984   2.842   9.021 -0.3240  0.4438  1.3595
 3596SOL     OW22423   3.941   2.928   8.334 -0.4127  0.3552 -0.5663
 3596SOL    HW122424   3.929   2.835   8.316  0.1466  0.1069  0.3369
 3596SOL    HW222425   3.866   2.976   8.301 -2.1286 -1.5673  0.5650
 3597SOL     OW22426   1.015   4.283   3.788  0.0359  0.3003  0.7776
 3597SOL    HW122427   1.001   4.226   3.863 -1.2843 -0.8295 -0.3174
 3597SOL    HW222428   0.929   4.324   3.778 -0.7701 -1.7080 -0.5810
 3598SOL     OW22429   3.085   1.850  16.840 -0.5417 -0.2144  0.1011
 3598SOL    HW122430   3.075   1.811  16.753 -0.4868  0.5302 -0.2436
 3598SOL    HW222431   3.117   1.931  16.800  0.8002 -0.2481  1.1236
 3599SOL     OW22432   1.549   4.114  12.665 -0.6207  0.3772  0.0803
 3599SOL    HW122433   1.514   4.156  12.587  1.8119  1.3668 -0.4839
 3599SOL    HW222434   1.498   4.033  12.667  2.1200 -1.3743 -1.5914
 3600SOL     OW22435   0.848   2.834   6.511  0.7008 -0.7979  0.1670
 3600SOL    HW122436   0.765   2.852   6.467  0.0651 -1.4999  1.0633
 3600SOL    HW222437   0.909   2.893   6.466 -2.5797  1.8862 -0.7258
 3601SOL     OW22438   1.665   4.536   4.138 -0.2728  0.0823  0.9016
 3601SOL    HW122439   1.599   4.531   4.070  0.8150  1.6274 -0.2623
 3601SOL    HW222440   1.626   4.475   4.201 -1.7084 -0.1783 -0.2577
 3602SOL     OW22441   0.689   4.244   3.826 -0.0858 -0.5711 -0.3242
 3602SOL    HW122442   0.645   4.184   3.886  1.6785  0.8530  2.3896
 3602SOL    HW222443   0.686   4.181   3.754 -0.6134 -0.1550 -0.6680
 3603SOL     OW22444   0.724   0.915  16.340 -0.5053 -0.1508  0.7273
 3603SOL    HW122445   0.652   0.912  16.277 -0.8555  0.4516  1.1119
 3603SOL    HW222446   0.797   0.902  16.279 -0.4260  3.6181  0.0312
 3604SOL     OW22447   4.302   0.994   5.608 -0.1507  0.3179  0.8393
 3604SOL    HW122448   4.249   0.916   5.590  0.5687 -0.5706  2.5551
 3604SOL    HW222449   4.245   1.069   5.589 -0.0694 -0.4164 -2.2399
 3605SOL     OW22450   2.159   2.122   2.338 -0.2223  0.1199 -0.4416
 3605SOL    HW122451   2.096   2.181   2.295 -1.0248 -0.2665  0.2076
 3605SOL    HW222452   2.191   2.173   2.412 -0.3567  3.7993 -2.8655
 3606SOL     OW22453   0.612   2.284  14.474 -0.6328 -0.0456 -0.3999
 3606SOL    HW122454   0.690   2.331  14.504  0.3360 -0.1478 -2.7663
 3606SOL    HW222455   0.631   2.295  14.381 -0.1138 -0.5238 -0.3469
 3607SOL     OW22456   1.233   2.891   6.749 -0.1693 -0.0268 -0.1052
 3607SOL    HW122457   1.261   2.899   6.841 -0.8910 -0.6003  0.1673
 3607SOL    HW222458   1.165   2.957   6.764 -0.9238 -0.9357  0.5007
 3608SOL     OW22459   2.907   3.464  12.359 -0.0110 -0.3006  0.2155
 3608SOL    HW122460   2.960   3.390  12.329 -1.2800 -1.2063  0.2393
 3608SOL    HW222461   2.851   3.477  12.283 -0.2491  0.0837  0.4596
 3609SOL     OW22462   1.704   0.132  13.757 -0.0097 -0.0024  0.2992
 3609SOL    HW122463   1.680   0.125  13.665  2.1530  1.7420 -0.3793
 3609SOL    HW222464   1.733   0.045  13.784  0.5825  0.7087  1.9539
 3610SOL     OW22465   4.555   2.510  11.578 -0.1031 -0.2716 -0.2662
 3610SOL    HW122466   4.524   2.556  11.500  0.6493 -0.3946 -0.6330
 3610SOL    HW222467   4.600   2.574  11.633 -0.9377 -0.3443  0.4976
 3611SOL     OW22468   0.747   4.185  16.505 -0.0972 -0.4601  0.0907
 3611SOL    HW122469   0.658   4.166  16.476  0.8569 -0.9874 -2.4808
 3611SOL    HW222470   0.783   4.194  16.417 -0.3934  1.6341  0.1718
 3612SOL     OW22471   1.665   4.437   7.402  0.2393 -0.0819 -0.0824
 3612SOL    HW122472   1.720   4.435   7.324 -1.8137  3.1507 -1.6218
 3612SOL    HW222473   1.576   4.455   7.371  0.3240 -0.9530 -0.8393
 3613SOL     OW22474   4.535   3.495   6.414  0.4835 -0.2312 -0.3292
 3613SOL    HW122475   4.617   3.448   6.398  0.3550 -0.3747 -0.5698
 3613SOL    HW222476   4.574   3.582   6.408  0.1223 -0.0551 -0.0912
 3614SOL     OW22477   0.842   0.459   8.032  0.6601  0.0732 -0.1007
 3614SOL    HW122478   0.920   0.513   8.023 -0.2473  1.8048  2.4606
 3614SOL    HW222479   0.885   0.384   8.072 -0.5379  0.2945  1.5910
 3615SOL     OW22480   0.151   2.201   9.013 -0.1430  0.7993 -0.2111
 3615SOL    HW122481   0.218   2.235   9.072  0.7695 -0.8981 -0.2604
 3615SOL    HW222482   0.183   2.117   8.982 -0.0053 -0.1707  2.5878
 3616SOL     OW22483   3.175   1.795   0.822 -0.2007 -0.9057 -0.4715
 3616SOL    HW122484   3.112   1.758   0.884  1.5117  2.2553  3.1612
 3616SOL    HW222485   3.120   1.812   0.745 -0.8662 -1.8142 -0.1994
 3617SOL     OW22486   1.145   3.783   2.557 -0.3031 -0.3407  0.3760
 3617SOL    HW122487   1.183   3.699   2.532  0.5807 -0.3631  1.7779
 3617SOL    HW222488   1.221   3.833   2.587 -2.2990  1.7611  1.9917
 3618SOL     OW22489   1.408   1.255   5.287 -0.5387 -0.1815  0.0610
 3618SOL    HW122490   1.380   1.265   5.378  1.5812  0.6862  0.6313
 3618SOL    HW222491   1.472   1.185   5.303 -0.0181  0.4977  1.0099
 3619SOL     OW22492   4.398   0.115  12.102 -0.2002  0.0972  0.1790
 3619SOL    HW122493   4.344   0.069  12.037  0.0637  0.9468 -0.6446
 3619SOL    HW222494   4.330   0.148  12.160 -1.1658  0.9969 -1.4899
 3620SOL     OW22495   1.136   2.142   3.405 -0.0504 -0.2883  0.1346
 3620SOL    HW122496   1.135   2.234   3.379  0.1378 -0.5909 -0.9418
 3620SOL    HW222497   1.216   2.126   3.455  0.4202 -3.3857 -1.6068
 3621SOL     OW22498   2.219   3.421   8.408  0.3650  0.2206 -0.0149
 3621SOL    HW122499   2.199   3.327   8.412  0.3218  0.1648 -1.2853
 3621SOL    HW222500   2.134   3.465   8.410  0.1950 -0.1014 -0.0319
 3622SOL     OW22501   1.172   4.110  12.089  0.0504 -0.2216 -0.4383
 3622SOL    HW122502   1.231   4.111  12.014  2.0621  0.7018  1.1481
 3622SOL    HW222503   1.236   4.123  12.159  0.4726  1.7844 -1.1887
 3623SOL     OW22504   1.386   1.352   3.476  0.5827 -0.7155  0.0753
 3623SOL    HW122505   1.312   1.315   3.525  0.3594  1.3451  1.2937
 3623SOL    HW222506   1.361   1.326   3.387  0.2239  1.2880 -0.4224
 3624SOL     OW22507   1.079   1.329   9.555  0.5729  0.7626  0.8475
 3624SOL    HW122508   1.027   1.250   9.538 -0.0734  1.5407 -0.7791
 3624SOL    HW222509   1.094   1.335   9.649 -0.5298  0.0263  1.0735
 3625SOL     OW22510   0.326   4.186  16.220 -0.3484 -0.1414 -0.3131
 3625SOL    HW122511   0.292   4.237  16.147 -1.2576  2.2264  1.7875
 3625SOL    HW222512   0.253   4.124  16.225 -0.1941 -0.3743 -0.8097
 3626SOL     OW22513   3.034   2.920  13.432 -0.1062  0.1146 -0.1931
 3626SOL    HW122514   3.042   2.886  13.343 -1.6091  0.0564 -0.2967
 3626SOL    HW222515   2.949   2.963  13.427  0.9036  2.1570 -0.0948
 3627SOL     OW22516   4.380   0.809   9.197  0.4556  0.0448 -0.3857
 3627SOL    HW122517   4.449   0.837   9.258 -1.7102  1.5849  1.3587
 3627SOL    HW222518   4.404   0.718   9.180  0.5294  0.1884 -1.0572
 3628SOL     OW22519   1.957   0.266   5.041  0.3396  0.2381 -0.1037
 3628SOL    HW122520   1.976   0.271   4.948  2.6522  0.6525  0.3871
 3628SOL    HW222521   1.871   0.224   5.050  0.8939 -1.1110 -1.1613
 3629SOL     OW22522   0.814   4.234   8.845  0.8165  0.9538 -0.0844
 3629SOL    HW122523   0.822   4.290   8.767 -1.6052  0.7479 -0.4639
 3629SOL    HW222524   0.849   4.287   8.917 -0.5771  2.7096 -0.6969
 3630SOL     OW22525   1.346   0.701   6.648  0.0912  0.6939 -0.1111
 3630SOL    HW122526   1.331   0.733   6.737  1.0938 -0.9569  0.6501
 3630SOL    HW222527   1.421   0.754   6.619  2.4110 -1.3178  2.1870
 3631SOL     OW22528   4.602   1.151  16.668 -0.0933 -0.4234  0.0940
 3631SOL    HW122529   4.662   1.109  16.730 -0.5296 -0.8803  0.1964
 3631SOL    HW222530   4.643   1.123  16.586 -0.6593 -0.1254 -0.2952
 3632SOL     OW22531   4.451   1.161   6.618  0.2534  0.2391  0.0368
 3632SOL    HW122532   4.446   1.240   6.565 -1.4412  1.1763  1.5847
 3632SOL    HW222533   4.378   1.184   6.676  0.3594  0.2685  0.1595
 3633SOL     OW22534   1.611   3.492   7.140  0.1938 -0.4486 -0.6871
 3633SOL    HW122535   1.568   3.413   7.171 -0.1843 -0.3581 -0.9912
 3633SOL    HW222536   1.650   3.511   7.226  0.2196  2.8219 -1.4161
 3634SOL     OW22537   0.693   3.973   3.347  0.3256 -0.7561  0.2564
 3634SOL    HW122538   0.761   4.039   3.360  0.0855 -1.0602  3.1301
 3634SOL    HW222539   0.625   4.025   3.305  0.1907  0.2083  1.6404
 3635SOL     OW22540   3.294   3.213   7.832  0.1598  0.3338 -0.1107
 3635SOL    HW122541   3.260   3.292   7.789 -0.4117 -0.2999 -0.8156
 3635SOL    HW222542   3.291   3.240   7.924  1.0170  1.4267 -0.4022
 3636SOL     OW22543   3.019   0.622   2.523  0.4429  0.2985 -0.5242
 3636SOL    HW122544   3.016   0.715   2.546 -1.5304  0.5571 -1.9315
 3636SOL    HW222545   2.988   0.623   2.433  1.7069  2.5860 -0.9216
 3637SOL     OW22546   1.095   0.365   9.573 -0.4809  0.3677  0.0526
 3637SOL    HW122547   1.093   0.335   9.664  1.1206  1.4623  0.4381
 3637SOL    HW222548   1.172   0.316   9.544  0.0327  1.7091 -0.8691
 3638SOL     OW22549   4.520   1.580   7.342 -0.1974 -0.4368  0.0313
 3638SOL    HW122550   4.433   1.620   7.341 -1.1705 -2.5374 -0.0100
 3638SOL    HW222551   4.571   1.639   7.286 -1.0734 -0.8957 -1.2404
 3639SOL     OW22552   4.050   0.048   6.643 -0.3161  0.1999 -0.1342
 3639SOL    HW122553   4.079   4.699   6.615 -1.9511 -0.7441  1.1416
 3639SOL    HW222554   4.104   0.058   6.721 -0.2131 -0.4866 -0.1179
 3640SOL     OW22555   3.194   0.740   5.745 -0.5438 -0.2473  0.2548
 3640SOL    HW122556   3.202   0.805   5.815  1.3011 -1.7662  1.4498
 3640SOL    HW222557   3.177   0.780   5.660  0.5738 -2.0122 -0.7811
 3641SOL     OW22558   0.370   4.155  12.121 -0.7122 -0.3430 -0.6360
 3641SOL    HW122559   0.345   4.103  12.045  0.6626 -1.6707 -0.1926
 3641SOL    HW222560   0.463   4.169  12.104 -0.8335 -0.1398 -1.1338
 3642SOL     OW22561   4.230   2.417   8.054  0.7141 -0.3425 -0.1098
 3642SOL    HW122562   4.305   2.418   7.995 -0.1040  0.7368 -1.1411
 3642SOL    HW222563   4.164   2.386   7.992  0.1335 -0.3532  0.5103
 3643SOL     OW22564   0.441   4.436   7.768  0.3303 -0.8897 -0.1314
 3643SOL    HW122565   0.423   4.488   7.846 -1.5091 -2.0373  0.2081
 3643SOL    HW222566   0.536   4.425   7.775  0.0978 -0.8750  2.8792
 3644SOL     OW22567   3.568   3.019   6.862  0.3130  0.7063  0.5415
 3644SOL    HW122568   3.499   2.973   6.910  0.3223 -0.5543 -0.6638
 3644SOL    HW222569   3.534   3.012   6.772 -0.6966  0.7957  0.9164
 3645SOL     OW22570   3.916   2.028   9.849  0.2563  0.0853 -0.4519
 3645SOL    HW122571   3.892   2.035   9.757 -2.4391 -2.2139  0.0736
 3645SOL    HW222572   3.972   1.951   9.847  0.4859  0.1984  1.4622
 3646SOL     OW22573   2.059   3.622   5.739 -0.7423  0.0254 -0.2454
 3646SOL    HW122574   2.059   3.545   5.682 -0.1712 -0.2103  0.0820
 3646SOL    HW222575   1.971   3.654   5.719 -1.1950 -1.4042 -0.5543
 3647SOL     OW22576   0.850   3.375   6.425 -0.4674 -0.2593  0.6513
 3647SOL    HW122577   0.811   3.462   6.420 -0.5306 -0.5071 -2.6282
 3647SOL    HW222578   0.918   3.392   6.360 -2.1314  1.3236 -0.6601
 3648SOL     OW22579   0.014   0.024  17.293 -0.0883 -0.1815  0.7200
 3648SOL    HW122580   0.023   0.061  17.381 -0.3038  0.4129  0.4960
 3648SOL    HW222581   0.035   0.104  17.245 -0.9208  0.7100  1.8417
 3649SOL     OW22582   1.011   2.722   3.952  0.1562 -0.0577  0.1145
 3649SOL    HW122583   0.998   2.643   3.900 -0.3358  0.3508 -0.3965
 3649SOL    HW222584   0.920   2.743   3.974 -0.0407  1.6418 -2.2434
 3650SOL     OW22585   4.042   0.141  12.474 -0.1839 -0.7641  0.1478
 3650SOL    HW122586   4.080   0.174  12.555  0.4757 -2.1368  0.3980
 3650SOL    HW222587   3.994   0.061  12.496 -0.1881 -0.6608  0.4998
 3651SOL     OW22588   4.119   0.423   4.097  0.2990 -0.3065 -0.2100
 3651SOL    HW122589   4.137   0.425   4.191 -1.0805 -1.5167  0.0780
 3651SOL    HW222590   4.056   0.351   4.089 -1.3026  0.8344  2.2298
 3652SOL     OW22591   1.680   3.554   9.749  0.7061  0.0852 -0.2693
 3652SOL    HW122592   1.702   3.483   9.809  1.3011  0.4951 -0.0089
 3652SOL    HW222593   1.694   3.634   9.799  2.9947  0.2997 -1.2979
 3653SOL     OW22594   2.335   0.147   4.946 -0.5278  0.4057  0.0226
 3653SOL    HW122595   2.363   0.238   4.947 -2.7247  1.0737  0.6725
 3653SOL    HW222596   2.299   0.149   5.035 -0.4710 -1.2157  0.0943
 3654SOL     OW22597   2.726   2.569   7.447  0.2864  0.2029  0.1578
 3654SOL    HW122598   2.721   2.517   7.366 -2.0053 -1.9220  1.6674
 3654SOL    HW222599   2.702   2.654   7.409 -2.0950 -0.9971 -1.0184
 3655SOL     OW22600   3.310   1.735   8.221  0.3340  0.0896 -0.1071
 3655SOL    HW122601   3.245   1.667   8.201  0.1653  0.0719  0.4838
 3655SOL    HW222602   3.335   1.760   8.133  1.5334 -0.9688 -0.0735
 3656SOL     OW22603   2.092   1.391   2.919 -0.2885  0.6957  0.4257
 3656SOL    HW122604   2.125   1.338   2.992 -0.0153 -0.5405 -0.5952
 3656SOL    HW222605   2.090   1.476   2.964 -1.7183  0.6498  0.4619
 3657SOL     OW22606   0.740   3.040   1.692  0.2968  0.0061 -0.5330
 3657SOL    HW122607   0.651   3.037   1.726  0.7546  2.2311  0.9053
 3657SOL    HW222608   0.746   2.950   1.660  1.1727  0.0027 -0.3483
 3658SOL     OW22609   3.577   4.229   8.871 -0.3133  0.4174 -0.3025
 3658SOL    HW122610   3.665   4.205   8.840 -0.5758 -2.1033  0.8925
 3658SOL    HW222611   3.525   4.244   8.792 -0.0952 -3.7687 -1.2453
 3659SOL     OW22612   0.351   2.994   7.220  0.1625 -0.3003 -0.1292
 3659SOL    HW122613   0.422   2.931   7.227  0.3341 -0.1318 -0.3822
 3659SOL    HW222614   0.394   3.075   7.248 -1.6257  0.8718 -0.7291
 3660SOL     OW22615   1.477   1.734   7.021  0.3600 -0.0761  0.3485
 3660SOL    HW122616   1.518   1.650   7.001  0.2291 -0.0721  0.0604
 3660SOL    HW222617   1.399   1.734   6.965 -0.3890 -2.9972  1.4165
 3661SOL     OW22618   4.053   0.891   2.525  0.2214 -0.7344  0.1376
 3661SOL    HW122619   3.976   0.931   2.566  0.1034 -1.1019  0.2754
 3661SOL    HW222620   4.008   0.877   2.442 -0.1913 -1.7401  0.5353
 3662SOL     OW22621   2.040   0.424   9.668 -0.3843  0.3128 -0.5043
 3662SOL    HW122622   2.101   0.470   9.610  1.8903 -1.4791  0.4103
 3662SOL    HW222623   2.082   0.338   9.670 -1.3636 -0.1212  1.3870
 3663SOL     OW22624   2.023   1.542  15.718  0.2639 -0.2537 -0.0491
 3663SOL    HW122625   2.055   1.454  15.700  0.0992 -0.0608 -1.2679
 3663SOL    HW222626   1.946   1.551  15.663  0.1027  0.6813  0.3264
 3664SOL     OW22627   0.568   1.564   7.844 -0.7045  0.0641 -0.6044
 3664SOL    HW122628   0.493   1.536   7.897 -1.7902  0.1285 -2.1235
 3664SOL    HW222629   0.528   1.556   7.757 -0.6828  1.1099 -0.7123
 3665SOL     OW22630   0.760   1.379   0.196 -0.5231  0.3679  0.2389
 3665SOL    HW122631   0.688   1.332   0.153 -0.6721 -2.1469  3.2054
 3665SOL    HW222632   0.815   1.408   0.124 -2.3626  0.9674 -0.9193
 3666SOL     OW22633   4.008   1.426  16.575 -0.0068  0.6831 -0.4020
 3666SOL    HW122634   4.094   1.469  16.571  0.6849 -0.6617 -0.0905
 3666SOL    HW222635   3.959   1.506  16.558  0.8150  1.1969 -0.3874
 3667SOL     OW22636   2.129   0.828   7.892 -0.0348 -0.2935  0.5175
 3667SOL    HW122637   2.127   0.755   7.831 -2.1876 -0.1686  0.4479
 3667SOL    HW222638   2.052   0.874   7.860 -0.3691 -2.1129 -1.3111
 3668SOL     OW22639   3.170   4.044   5.009  0.4671 -0.3509  0.1047
 3668SOL    HW122640   3.214   3.981   4.953  0.7700 -0.8496  0.9056
 3668SOL    HW222641   3.217   4.122   4.978  2.0852 -1.0190  0.8697
 3669SOL     OW22642   1.473   0.843   5.077 -0.1452 -0.0299  0.2392
 3669SOL    HW122643   1.499   0.751   5.072 -0.4294 -0.0810 -0.2715
 3669SOL    HW222644   1.559   0.880   5.056  0.5362 -1.9920 -0.4201
 3670SOL     OW22645   3.604   0.306  11.732  0.5336  0.0061 -0.3884
 3670SOL    HW122646   3.670   0.330  11.797  1.3624  2.5667 -2.1951
 3670SOL    HW222647   3.581   0.214  11.747  0.9377 -0.0001  0.2316
 3671SOL     OW22648   3.744   2.134   5.508  0.3997  0.0730 -0.1425
 3671SOL    HW122649   3.835   2.123   5.481  0.6443  0.3888  0.5435
 3671SOL    HW222650   3.746   2.091   5.594 -0.1886  1.5991  0.6352
 3672SOL     OW22651   2.453   2.572   6.545  0.2821  0.8928 -0.0139
 3672SOL    HW122652   2.449   2.640   6.477 -1.7599 -0.5121 -1.3161
 3672SOL    HW222653   2.520   2.605   6.604 -1.4944  1.9259  1.4086
 3673SOL     OW22654   2.747   1.834   9.940 -0.3266  0.0367 -0.2681
 3673SOL    HW122655   2.680   1.876   9.994  1.5813 -0.2570  2.3854
 3673SOL    HW222656   2.783   1.907   9.890 -0.7989 -0.0950 -0.7924
 3674SOL     OW22657   1.535   1.301  14.446 -0.1787  0.3066  0.1365
 3674SOL    HW122658   1.486   1.314  14.365 -0.1868  2.0045  0.4193
 3674SOL    HW222659   1.608   1.362  14.435  0.7058 -1.0289 -1.4777
 3675SOL     OW22660   4.671   4.589   2.131  0.5563 -0.3076  1.0386
 3675SOL    HW122661   4.675   4.495   2.116  0.9940 -0.5128  2.5036
 3675SOL    HW222662   4.576   4.605   2.125  0.8975  0.9245 -1.0737
 3676SOL     OW22663   2.646   2.627   1.392  0.1008  0.0933  0.1374
 3676SOL    HW122664   2.727   2.659   1.430 -0.4870  0.2660  1.2223
 3676SOL    HW222665   2.668   2.542   1.354 -1.5193  0.3545 -1.3780
 3677SOL     OW22666   0.784   2.093  12.400 -0.3433 -0.7314 -0.4755
 3677SOL    HW122667   0.868   2.048  12.411  0.4455  1.1957  1.4139
 3677SOL    HW222668   0.820   2.182  12.408 -2.2367 -0.0653  0.5789
 3678SOL     OW22669   1.379   4.704  10.798  0.6230  0.1041 -0.1115
 3678SOL    HW122670   1.322   4.629  10.783  2.2407 -0.9916 -0.7684
 3678SOL    HW222671   1.425   4.679  10.878 -1.4409 -1.9535  0.4392
 3679SOL     OW22672   3.082   0.822   1.271 -0.0232 -0.0186 -0.3533
 3679SOL    HW122673   3.129   0.871   1.203 -0.6507 -0.5921 -1.2011
 3679SOL    HW222674   3.031   0.891   1.313  2.7978  1.7804  0.0800
 3680SOL     OW22675   0.108   3.366   1.405  0.4170 -0.6822 -0.1994
 3680SOL    HW122676   0.096   3.460   1.416 -1.2602 -1.0421  0.9543
 3680SOL    HW222677   0.069   3.342   1.320  0.9435  0.4390 -0.7579
 3681SOL     OW22678   1.127   0.987  14.446  0.0884 -0.0437  0.3325
 3681SOL    HW122679   1.052   0.992  14.386  1.2131  0.3734 -1.0381
 3681SOL    HW222680   1.202   0.975  14.388  0.2572  1.7142  0.1867
 3682SOL     OW22681   3.637   2.657   9.381 -0.1789 -0.0292 -0.1403
 3682SOL    HW122682   3.599   2.717   9.316  0.3426  0.7226  0.2493
 3682SOL    HW222683   3.707   2.714   9.413 -0.6395 -0.5830  1.8365
 3683SOL     OW22684   3.340   2.926   1.351  0.2572 -0.3504  0.1130
 3683SOL    HW122685   3.255   2.952   1.385  0.7346  1.4825 -0.0732
 3683SOL    HW222686   3.392   2.921   1.431  1.2193 -0.5539 -0.5225
 3684SOL     OW22687   1.662   1.192  10.849 -0.2064 -0.2495 -0.1104
 3684SOL    HW122688   1.748   1.181  10.890  0.0163  1.7110 -0.0689
 3684SOL    HW222689   1.684   1.187  10.756 -0.4650 -2.1540 -0.0743
 3685SOL     OW22690   0.878   3.887  17.260 -0.4077  0.9892 -0.0426
 3685SOL    HW122691   0.939   3.961  17.258  0.4834  0.2447 -0.6347
 3685SOL    HW222692   0.938   3.816  17.236 -0.3274  1.4840 -1.2912
 3686SOL     OW22693   0.139   3.787   2.625  0.1738  0.1028  0.1926
 3686SOL    HW122694   0.158   3.693   2.623  1.6065  0.4011 -0.1295
 3686SOL    HW222695   0.044   3.783   2.617  0.1277 -1.7211  1.4112
 3687SOL     OW22696   0.016   4.435   7.290  0.4568  0.0853  0.7579
 3687SOL    HW122697   0.065   4.376   7.347 -2.0486 -2.8118 -0.0954
 3687SOL    HW222698   4.703   4.477   7.359 -3.4851  0.2730 -2.3259
 3688SOL     OW22699   2.360   0.993  15.666 -0.2305  0.1358  0.4971
 3688SOL    HW122700   2.345   0.900  15.648  0.7573  0.1612 -0.4868
 3688SOL    HW222701   2.373   1.026  15.577 -2.0144 -1.1747 -0.2473
 3689SOL     OW22702   3.497   1.844   4.886 -0.2337 -0.3429 -0.4134
 3689SOL    HW122703   3.480   1.794   4.966 -3.0014  2.9395  1.0679
 3689SOL    HW222704   3.556   1.779   4.847  1.0972 -0.2032  1.3528
 3690SOL     OW22705   2.999   0.744   3.917 -0.1095 -0.0414  0.2390
 3690SOL    HW122706   3.019   0.675   3.980  0.6836 -0.5199 -0.5216
 3690SOL    HW222707   3.026   0.828   3.953 -1.2010  0.3239  0.1927
 3691SOL     OW22708   2.701   4.003  13.267 -0.2211  0.6866 -0.4616
 3691SOL    HW122709   2.768   4.031  13.329 -0.4455  0.1852  0.0062
 3691SOL    HW222710   2.669   4.081  13.222 -1.9038  0.0105 -0.4600
 3692SOL     OW22711   1.631   1.118  10.465 -0.5972 -0.7863 -0.6770
 3692SOL    HW122712   1.591   1.077  10.541  1.0702 -2.1030 -0.4918
 3692SOL    HW222713   1.551   1.146  10.422 -0.6123 -0.7545 -0.6275
 3693SOL     OW22714   1.814   2.869   6.257 -0.1787  0.2353  0.7450
 3693SOL    HW122715   1.718   2.874   6.252 -0.1946 -1.2982 -0.6590
 3693SOL    HW222716   1.835   2.962   6.262  1.1105 -0.0641  0.7272
 3694SOL     OW22717   1.453   0.171   4.310 -0.1780 -0.3556  0.4812
 3694SOL    HW122718   1.391   0.200   4.376 -1.3602 -1.3785 -0.1985
 3694SOL    HW222719   1.525   0.228   4.340  0.7464 -0.9869 -0.5536
 3695SOL     OW22720   0.994   3.932   3.205  0.0150  0.2326  0.0560
 3695SOL    HW122721   0.994   3.878   3.284 -0.7500 -0.2944 -0.3022
 3695SOL    HW222722   0.982   4.021   3.238  0.3927  0.7876 -1.2748
 3696SOL     OW22723   2.326   4.664   6.007  0.1851  0.3130  0.5205
 3696SOL    HW122724   2.351   4.579   5.971 -0.3602  0.1954  0.4179
 3696SOL    HW222725   2.372   4.661   6.090  1.3478  0.2636 -0.1293
 3697SOL     OW22726   4.707   2.375   3.879 -0.2686 -0.4185 -0.0355
 3697SOL    HW122727   0.059   2.342   3.887  0.2634  1.1301  0.3929
 3697SOL    HW222728   4.662   2.291   3.867  2.1592 -2.2560  3.5789
 3698SOL     OW22729   4.289   0.795   7.189  0.2415 -0.1128  0.3689
 3698SOL    HW122730   4.377   0.765   7.211  0.6917  0.8081 -0.1939
 3698SOL    HW222731   4.240   0.713   7.178  0.5901  0.0865 -2.8126
 3699SOL     OW22732   1.055   3.202   8.566 -0.4840 -0.0676  0.2019
 3699SOL    HW122733   1.097   3.262   8.628 -0.8333  0.6555 -0.2622
 3699SOL    HW222734   1.118   3.199   8.494 -0.7643  0.6398 -0.0760
 3700SOL     OW22735   1.435   1.862   3.332  0.5050  0.1913  0.0690
 3700SOL    HW122736   1.461   1.784   3.382 -1.2183 -1.0143 -0.9509
 3700SOL    HW222737   1.405   1.921   3.401 -2.6993 -0.3636 -0.8714
 3701SOL     OW22738   4.208   4.113   8.072 -0.0817 -0.2676 -0.2529
 3701SOL    HW122739   4.208   4.022   8.102  1.4677  0.2145  1.2464
 3701SOL    HW222740   4.174   4.111   7.983 -0.2877  0.5397 -0.1940
 3702SOL     OW22741   2.093   3.154  12.311  0.4908  0.4683 -0.5681
 3702SOL    HW122742   2.028   3.140  12.380  1.1736 -1.6205 -0.3725
 3702SOL    HW222743   2.172   3.140  12.364  0.0388  3.0952  0.8391
 3703SOL     OW22744   4.025   4.393   4.885 -0.2948 -0.6892  0.2083
 3703SOL    HW122745   4.007   4.427   4.798  2.6770  0.0502 -0.1170
 3703SOL    HW222746   4.025   4.300   4.864  0.5012 -0.9710  1.4252
 3704SOL     OW22747   1.823   3.624   1.912 -0.3905  0.0228 -0.5155
 3704SOL    HW122748   1.840   3.584   1.827  1.1073  2.4734 -1.3660
 3704SOL    HW222749   1.769   3.554   1.951  0.0034  0.1199  0.1999
 3705SOL     OW22750   1.076   2.598  16.354  0.0121 -0.3764 -0.1503
 3705SOL    HW122751   1.142   2.661  16.326 -1.4599  1.1515 -0.2270
 3705SOL    HW222752   1.118   2.545  16.421 -2.0233 -0.3285  1.1706
 3706SOL     OW22753   3.161   0.041   4.098 -0.1374  0.2068 -0.8124
 3706SOL    HW122754   3.103   0.084   4.161  2.8935 -2.3095  3.7429
 3706SOL    HW222755   3.131   0.069   4.012  0.9731  0.3980 -1.1410
 3707SOL     OW22756   2.133   4.414   7.163  0.1877 -0.3568 -0.4935
 3707SOL    HW122757   2.090   4.496   7.186 -0.5359 -0.2976 -2.0619
 3707SOL    HW222758   2.127   4.368   7.247 -0.2565  1.7368  0.6188
 3708SOL     OW22759   0.372   1.156   4.674 -0.3366 -0.1029  0.1780
 3708SOL    HW122760   0.352   1.081   4.618  0.8635 -0.3024  0.0092
 3708SOL    HW222761   0.320   1.146   4.754 -1.6550  1.8967 -0.4343
 3709SOL     OW22762   1.248   2.168  10.381  0.2003  0.2665  0.4156
 3709SOL    HW122763   1.297   2.246  10.408  0.2771  0.0249  0.9695
 3709SOL    HW222764   1.316   2.119  10.335 -0.0214  0.1087  0.2522
 3710SOL     OW22765   0.671   4.076   8.136 -0.1378  0.3823 -0.3093
 3710SOL    HW122766   0.580   4.081   8.108 -0.2890  2.9845  0.6520
 3710SOL    HW222767   0.686   4.171   8.146  2.9103 -0.0232 -0.8329
 3711SOL     OW22768   2.460   0.684   3.709  0.1652  0.0634  0.1361
 3711SOL    HW122769   2.499   0.678   3.622  2.2371 -0.1186  1.0641
 3711SOL    HW222770   2.415   0.599   3.714 -0.9404  0.4851 -3.0089
 3712SOL     OW22771   4.278   4.709  12.634  0.1330 -0.4012 -0.0079
 3712SOL    HW122772   4.229   4.634  12.666  0.1458 -0.8121 -0.9423
 3712SOL    HW222773   4.237   0.033  12.693 -1.7363 -1.6728  0.0065
 3713SOL     OW22774   1.711   1.218   1.921  0.2542 -0.0808  0.6826
 3713SOL    HW122775   1.646   1.283   1.892 -0.0026  0.0428  1.5265
 3713SOL    HW222776   1.759   1.185   1.845 -0.9535 -1.8302  0.7076
 3714SOL     OW22777   4.009   0.179   2.614  0.1652  0.3070 -0.6524
 3714SOL    HW122778   4.067   0.203   2.687 -2.1431  0.4690  1.1068
 3714SOL    HW222779   4.034   0.237   2.542  1.2139  0.0169 -0.5201
 3715SOL     OW22780   0.140   3.483  11.191  0.2773  0.2420 -0.7490
 3715SOL    HW122781   0.131   3.561  11.135  1.8334  2.4986  2.1552
 3715SOL    HW222782   0.207   3.517  11.250 -1.5762  1.4044  0.6843
 3716SOL     OW22783   3.883   1.143  13.425 -0.7370 -0.0688 -0.0849
 3716SOL    HW122784   3.850   1.221  13.471  0.0922  1.5005 -2.1632
 3716SOL    HW222785   3.826   1.149  13.349 -1.7861  1.1587  0.7902
 3717SOL     OW22786   0.052   1.242   1.712 -0.6842 -0.4507 -0.1446
 3717SOL    HW122787   0.068   1.152   1.682  0.9390 -0.0962 -0.3780
 3717SOL    HW222788   0.013   1.233   1.799  3.0533 -1.5308  1.4490
 3718SOL     OW22789   3.869   4.610   4.426 -0.1372 -0.2276  0.3952
 3718SOL    HW122790   3.830   4.671   4.364  0.7941  1.4666  1.4689
 3718SOL    HW222791   3.838   4.526   4.393 -0.8103  0.2456 -0.1822
 3719SOL     OW22792   0.732   3.785   6.171  0.3973 -0.2618  1.0744
 3719SOL    HW122793   0.661   3.751   6.116 -1.1474  0.0836  2.8480
 3719SOL    HW222794   0.718   3.879   6.170  0.1767 -0.2903  1.4055
 3720SOL     OW22795   3.417   3.034   8.742  0.1201  0.4110 -0.1486
 3720SOL    HW122796   3.470   2.959   8.716  1.5757  1.5490 -0.4788
 3720SOL    HW222797   3.364   3.042   8.663 -0.3577 -0.4965  0.0832
 3721SOL     OW22798   3.592   2.874   7.385 -0.3133 -0.0952 -0.4465
 3721SOL    HW122799   3.578   2.964   7.413  1.3805 -0.2798  1.0109
 3721SOL    HW222800   3.656   2.841   7.448  1.1787  0.8867 -1.4596
 3722SOL     OW22801   3.003   0.829   3.303  0.0529  0.1793  0.0422
 3722SOL    HW122802   2.969   0.752   3.349 -0.9678  1.3403  1.2058
 3722SOL    HW222803   2.973   0.812   3.213 -1.2891  1.8131  0.1821
 3723SOL     OW22804   0.995   0.609  13.096  0.1602  0.2412 -0.1797
 3723SOL    HW122805   0.965   0.521  13.071 -3.4265  0.9147  1.8148
 3723SOL    HW222806   1.087   0.607  13.072  0.6539 -0.2135  1.7825
 3724SOL     OW22807   0.406   2.202   7.226  0.5652 -0.3707 -0.3231
 3724SOL    HW122808   0.461   2.202   7.148  0.1549  1.0904 -0.6162
 3724SOL    HW222809   0.446   2.277   7.270  0.8625  0.0688 -1.3368
 3725SOL     OW22810   3.830   3.008  10.786 -0.1332  0.5377  0.4658
 3725SOL    HW122811   3.884   3.080  10.753 -1.1398  2.1136  2.2963
 3725SOL    HW222812   3.901   2.949  10.814 -1.2504 -0.1790  1.7322
 3726SOL     OW22813   3.569   4.073   5.712 -0.2677 -0.0453  0.0506
 3726SOL    HW122814   3.550   3.980   5.714  0.8980 -0.3047 -0.8654
 3726SOL    HW222815   3.664   4.071   5.724 -0.4212 -1.3572  1.0762
 3727SOL     OW22816   3.908   1.461   8.232  0.3098 -0.9891  0.0482
 3727SOL    HW122817   3.991   1.495   8.266 -0.7288  2.3840 -0.7416
 3727SOL    HW222818   3.900   1.404   8.308  0.1851 -2.0486 -0.7714
 3728SOL     OW22819   2.591   2.986  11.267  0.0520  0.6487 -0.1694
 3728SOL    HW122820   2.668   2.949  11.224 -0.4445  1.0386 -1.3696
 3728SOL    HW222821   2.636   2.996  11.351  1.3743 -1.3506 -0.6452
 3729SOL     OW22822   3.304   3.804  16.747  0.4591  0.0499  0.0603
 3729SOL    HW122823   3.269   3.893  16.757 -2.1935 -0.7041 -2.3165
 3729SOL    HW222824   3.317   3.779  16.838 -0.4478 -0.6689 -0.0110
 3730SOL     OW22825   3.309   2.478   0.315 -0.1525  0.3227  0.2364
 3730SOL    HW122826   3.287   2.522   0.232 -1.1635  2.0197  1.4136
 3730SOL    HW222827   3.387   2.432   0.285 -0.6668 -1.1253  1.0961
 3731SOL     OW22828   0.863   0.019  13.078 -0.1879  0.4110 -0.0679
 3731SOL    HW122829   0.881   4.691  13.146 -0.3247 -0.3818 -0.8074
 3731SOL    HW222830   0.880   4.712  12.996 -1.7000  0.3701 -0.3490
 3732SOL     OW22831   3.413   0.363   6.561 -0.0308  0.5445  0.1159
 3732SOL    HW122832   3.482   0.386   6.498 -0.5494  1.1890 -0.2210
 3732SOL    HW222833   3.412   0.269   6.542  1.0741  0.7715 -1.1313
 3733SOL     OW22834   3.394   3.381   6.911  0.4213  0.7279  0.1147
 3733SOL    HW122835   3.473   3.334   6.940  1.1358  0.1099 -2.8688
 3733SOL    HW222836   3.421   3.379   6.819 -1.4066  1.6583 -0.4228
 3734SOL     OW22837   1.778   2.312   3.321 -0.3305 -0.1759  0.4000
 3734SOL    HW122838   1.772   2.329   3.227  0.3756  1.6829  0.6849
 3734SOL    HW222839   1.867   2.347   3.325 -0.1332 -0.7299  0.7738
 3735SOL     OW22840   0.749   4.331   3.552 -0.7045  0.0547 -0.4435
 3735SOL    HW122841   0.654   4.341   3.544 -0.5282  1.9754 -0.2242
 3735SOL    HW222842   0.752   4.311   3.646  2.5177  4.0500  0.3114
 3736SOL     OW22843   2.386   3.014   5.690  0.0779 -0.4116 -0.7398
 3736SOL    HW122844   2.368   2.970   5.774 -1.5396 -1.3244 -1.5563
 3736SOL    HW222845   2.449   3.083   5.709 -1.0023  0.3768 -0.0549
 3737SOL     OW22846   4.459   1.025  12.513 -0.1176 -1.0369  0.0220
 3737SOL    HW122847   4.455   1.006  12.607  0.1356  0.1244  0.2592
 3737SOL    HW222848   4.364   1.027  12.498 -0.3690 -0.1440  1.7394
 3738SOL     OW22849   1.891   3.157   7.736  0.1918  0.0586 -0.4161
 3738SOL    HW122850   1.820   3.221   7.744 -0.3703 -0.4914 -1.0175
 3738SOL    HW222851   1.966   3.213   7.714  0.4782  0.5688  1.8403
 3739SOL     OW22852   1.411   3.036   7.568  0.0877  0.1401  0.1529
 3739SOL    HW122853   1.420   3.092   7.645  0.3190 -0.7506  0.7788
 3739SOL    HW222854   1.328   3.057   7.526  0.9953  0.3114 -1.5899
 3740SOL     OW22855   2.346   2.008   5.834  0.3293  0.0536 -0.2842
 3740SOL    HW122856   2.298   2.082   5.871  1.5618  0.1354  1.1423
 3740SOL    HW222857   2.272   1.948   5.824  0.7804 -0.3412 -1.1953
 3741SOL     OW22858   2.868   1.012   4.281 -0.2066 -0.7564  0.3657
 3741SOL    HW122859   2.919   0.937   4.250 -0.6692 -1.4133  1.2071
 3741SOL    HW222860   2.901   1.030   4.369 -0.2978 -0.6271  0.3732
 3742SOL     OW22861   2.967   2.570  12.526 -0.3966  0.1850  0.1648
 3742SOL    HW122862   2.890   2.602  12.479 -1.9684 -1.3554  1.6713
 3742SOL    HW222863   2.957   2.475  12.530 -0.8624  0.1795 -1.1805
 3743SOL     OW22864   1.477   1.235   7.764  0.5711 -0.4015  0.7418
 3743SOL    HW122865   1.553   1.228   7.705  0.0420  2.9184 -0.3239
 3743SOL    HW222866   1.517   1.243   7.851  0.3539 -1.5554  0.9409
 3744SOL     OW22867   0.858   1.189   2.086 -0.8791  0.0069 -0.5184
 3744SOL    HW122868   0.789   1.250   2.112  2.4337  3.9466 -0.9873
 3744SOL    HW222869   0.884   1.154   2.172  0.5722  1.4617 -0.3618
 3745SOL     OW22870   0.336   1.225   3.166  0.4070  0.0124 -0.1455
 3745SOL    HW122871   0.365   1.151   3.112 -1.0471  0.0243 -0.9524
 3745SOL    HW222872   0.396   1.221   3.241 -0.7290 -0.5549  0.7432
 3746SOL     OW22873   0.173   2.657   6.066 -0.3927 -0.1880 -0.4225
 3746SOL    HW122874   0.122   2.724   6.020  0.9942  0.7893 -0.5509
 3746SOL    HW222875   0.116   2.581   6.053 -1.0061  0.1906  0.0065
 3747SOL     OW22876   0.593   4.422  10.502  0.2164  0.6434 -0.3251
 3747SOL    HW122877   0.620   4.353  10.562 -2.2768 -0.6976 -0.7411
 3747SOL    HW222878   0.572   4.372  10.423 -0.6181  1.9496 -0.9515
 3748SOL     OW22879   1.060   3.481  13.618  0.0885  0.6336 -0.7056
 3748SOL    HW122880   0.986   3.437  13.660  0.7675  0.7394  0.6088
 3748SOL    HW222881   1.062   3.568  13.659  0.0124  0.7515 -0.9506
 3749SOL     OW22882   2.651   3.445   4.165  0.5579  0.4302 -0.1974
 3749SOL    HW122883   2.719   3.430   4.099  0.1760  0.0776 -0.5102
 3749SOL    HW222884   2.573   3.408   4.123  0.6958 -2.0093  1.6727
 3750SOL     OW22885   1.662   2.034   8.688 -0.4051  0.7276  0.0949
 3750SOL    HW122886   1.657   2.065   8.779 -0.8079 -0.5174  0.4962
 3750SOL    HW222887   1.742   1.981   8.685 -0.2697  0.7348  3.2980
 3751SOL     OW22888   3.642   2.833   0.603 -0.3323 -0.0010  0.0466
 3751SOL    HW122889   3.612   2.918   0.571 -0.9905  0.1431  1.0469
 3751SOL    HW222890   3.575   2.773   0.571  0.0788 -1.2114  1.4347
 3752SOL     OW22891   0.667   0.907  14.175  0.5064 -0.4548  0.3499
 3752SOL    HW122892   0.603   0.939  14.111  3.2353  2.2534 -0.9944
 3752SOL    HW222893   0.616   0.847  14.231 -0.5087  0.3747  0.3206
 3753SOL     OW22894   3.645   2.957  11.515 -0.3355  0.4774 -0.1046
 3753SOL    HW122895   3.609   2.961  11.426 -0.3416 -0.9273 -0.1723
 3753SOL    HW222896   3.657   2.865  11.537 -0.8771  0.0823 -1.4486
 3754SOL     OW22897   2.748   3.484   3.200  0.3126 -0.3878  0.0077
 3754SOL    HW122898   2.840   3.456   3.193  0.5505  0.1642  0.8994
 3754SOL    HW222899   2.752   3.579   3.190 -0.9931 -0.2964  0.4485
 3755SOL     OW22900   3.467   0.626   9.700  0.7971  0.0737  0.2811
 3755SOL    HW122901   3.519   0.608   9.777 -0.1204 -2.1123  0.3836
 3755SOL    HW222902   3.430   0.711   9.721 -0.8416 -0.0958 -1.8563
 3756SOL     OW22903   3.454   0.665   3.550  0.6274  0.3308  0.0326
 3756SOL    HW122904   3.481   0.735   3.491 -0.1753 -0.6661 -1.5013
 3756SOL    HW222905   3.436   0.599   3.484 -0.0302 -0.0647  0.6039
 3757SOL     OW22906   1.459   2.217   4.907  0.2803 -0.5802  0.3742
 3757SOL    HW122907   1.404   2.158   4.958  1.3643 -1.3856  0.6201
 3757SOL    HW222908   1.409   2.292   4.876  1.5889  0.1038 -0.0833
 3758SOL     OW22909   1.472   3.650   3.241  0.8372 -0.2530 -0.0480
 3758SOL    HW122910   1.480   3.744   3.254  3.4876 -0.6888  1.5379
 3758SOL    HW222911   1.500   3.639   3.150 -0.2516  0.3304 -0.4537
 3759SOL     OW22912   3.598   3.264   9.275  0.4667 -0.4422 -0.6876
 3759SOL    HW122913   3.612   3.170   9.287  0.2628 -0.2887  0.6667
 3759SOL    HW222914   3.554   3.284   9.357  0.4732 -2.2755 -0.2392
 3760SOL     OW22915   3.469   2.253   0.243 -0.2150  0.3927 -0.3754
 3760SOL    HW122916   3.475   2.195   0.319  0.3599 -0.3656 -1.0016
 3760SOL    HW222917   3.535   2.317   0.267 -0.1596  0.1926  0.0015
 3761SOL     OW22918   0.843   2.072   3.744 -0.2711  0.1204 -0.0996
 3761SOL    HW122919   0.853   2.097   3.836  0.1570 -0.7953  0.1086
 3761SOL    HW222920   0.938   2.068   3.730 -0.4551  0.5237 -1.3832
 3762SOL     OW22921   2.174   4.574   3.165  0.1886  0.5829 -0.7726
 3762SOL    HW122922   2.126   4.523   3.100 -2.0842  1.3992  0.2582
 3762SOL    HW222923   2.111   4.593   3.235 -1.4449  1.3843 -2.4436
 3763SOL     OW22924   1.429   3.219   2.146  0.0853  0.7555 -0.1292
 3763SOL    HW122925   1.508   3.165   2.137 -0.8272 -1.2862  4.0607
 3763SOL    HW222926   1.425   3.246   2.054 -0.3844  0.5496 -0.1695
 3764SOL     OW22927   3.175   0.122   6.446  0.6491  0.5434 -0.4532
 3764SOL    HW122928   3.241   0.093   6.509 -0.0495  0.1547  0.0946
 3764SOL    HW222929   3.228   0.114   6.367 -0.2414  0.4777 -1.0400
 3765SOL     OW22930   4.682   1.087   2.363 -0.1371  0.0213 -0.1356
 3765SOL    HW122931   4.687   1.167   2.311 -0.0499 -1.2121 -2.0346
 3765SOL    HW222932   4.590   1.088   2.388 -0.1392 -0.0385 -0.1416
 3766SOL     OW22933   4.073   4.356   1.955 -0.5330 -0.4960  0.1588
 3766SOL    HW122934   4.080   4.417   2.029 -0.2489  0.4910 -0.6900
 3766SOL    HW222935   4.121   4.413   1.895  0.9672 -0.9530  0.9289
 3767SOL     OW22936   4.618   3.911   1.111 -0.6511 -0.2623  0.2776
 3767SOL    HW122937   4.683   3.980   1.096 -2.7960  0.9762 -3.4132
 3767SOL    HW222938   4.594   3.930   1.202  0.2122  0.1203  0.4294
 3768SOL     OW22939   0.189   2.527  17.110 -0.3425  0.6313  0.7873
 3768SOL    HW122940   0.097   2.550  17.097 -0.5371 -0.4044  0.3098
 3768SOL    HW222941   0.209   2.552  17.200  0.9495  1.7338  0.1952
 3769SOL     OW22942   3.253   4.032  10.894  0.1990 -0.2301 -0.0276
 3769SOL    HW122943   3.204   4.099  10.940 -0.3574 -0.2629 -0.5737
 3769SOL    HW222944   3.342   4.049  10.927  0.4201  0.1818 -0.8318
 3770SOL     OW22945   0.264   3.923  16.574 -0.1770  0.0324 -0.7920
 3770SOL    HW122946   0.207   3.999  16.583  0.3483  0.1781  1.2383
 3770SOL    HW222947   0.224   3.877  16.648  1.0754 -0.3764 -0.3663
 3771SOL     OW22948   0.382   3.761   5.019  0.3681  0.2509  0.2875
 3771SOL    HW122949   0.306   3.771   5.075  0.7754 -1.3205  1.1187
 3771SOL    HW222950   0.449   3.732   5.081  0.3642 -1.1183 -0.3328
 3772SOL     OW22951   3.546   3.303  14.537 -0.3584 -0.1943 -0.1297
 3772SOL    HW122952   3.542   3.397  14.551 -1.6731 -0.5796  2.0901
 3772SOL    HW222953   3.573   3.289  14.446 -0.2860  1.1983 -0.3224
 3773SOL     OW22954   3.306   3.586  15.554  0.5477  0.6996  0.0857
 3773SOL    HW122955   3.296   3.583  15.459  3.5397  2.1314 -0.2692
 3773SOL    HW222956   3.263   3.503  15.578  3.0651 -0.3879  0.8332
 3774SOL     OW22957   0.897   0.968   3.127 -0.3347  0.5224  0.0794
 3774SOL    HW122958   0.897   1.043   3.186  2.1014  0.1187  0.5832
 3774SOL    HW222959   0.949   0.905   3.176  1.9776  2.0966 -0.3397
 3775SOL     OW22960   4.022   4.665   7.036 -0.1903 -0.3729  0.3883
 3775SOL    HW122961   4.098   4.661   7.093  0.0609  0.2943  0.1049
 3775SOL    HW222962   4.052   0.008   6.994  0.1517  0.2496  1.8479
 3776SOL     OW22963   2.239   1.303   5.044 -0.0086 -0.5449  0.0427
 3776SOL    HW122964   2.308   1.243   5.016 -0.0250 -1.6902  2.4658
 3776SOL    HW222965   2.235   1.369   4.975 -2.4094  0.0459  0.7468
 3777SOL     OW22966   3.326   1.085   3.812  0.0805  0.7647 -0.6664
 3777SOL    HW122967   3.356   1.098   3.902 -1.8736 -0.4121  0.1614
 3777SOL    HW222968   3.345   0.993   3.795 -1.0348  0.7024 -1.5372
 3778SOL     OW22969   0.658   3.553   2.086  0.2090  0.4791 -0.1272
 3778SOL    HW122970   0.710   3.494   2.140 -0.4345  0.6739  0.7087
 3778SOL    HW222971   0.720   3.620   2.058  1.9277 -0.4474  1.5059
 3779SOL     OW22972   2.419   3.579   9.789 -0.6023 -0.2075 -0.1695
 3779SOL    HW122973   2.323   3.578   9.785 -0.6575 -0.9537  1.8396
 3779SOL    HW222974   2.439   3.653   9.731  0.5267  0.0535  0.5479
 3780SOL     OW22975   0.429   3.606   5.336  0.1445 -0.6174 -0.0959
 3780SOL    HW122976   0.407   3.684   5.388 -1.3523 -1.1290  0.0371
 3780SOL    HW222977   0.512   3.637   5.299 -0.5520  1.4244  0.0277
 3781SOL     OW22978   3.033   3.726   4.163 -0.4817 -0.4107 -0.5155
 3781SOL    HW122979   3.101   3.706   4.098 -0.7032 -1.7889 -0.3187
 3781SOL    HW222980   2.955   3.705   4.111 -0.2066 -0.7777 -0.7839
 3782SOL     OW22981   3.564   2.730   0.315  0.5118 -0.7075  0.2406
 3782SOL    HW122982   3.651   2.751   0.281 -0.4092  1.3070 -0.8778
 3782SOL    HW222983   3.538   2.818   0.344 -2.4947 -1.7061  0.5906
 3783SOL     OW22984   3.683   2.048   3.169 -0.2283 -0.1597  0.0567
 3783SOL    HW122985   3.674   2.142   3.188  2.2185  0.0862 -0.0829
 3783SOL    HW222986   3.770   2.037   3.207  0.3228  1.5441 -0.6955
 3784SOL     OW22987   2.125   3.389   5.561  0.3761 -0.3050  0.3027
 3784SOL    HW122988   2.072   3.342   5.497 -0.6459  0.3220  0.7000
 3784SOL    HW222989   2.125   3.333   5.638 -3.0378  0.2377  0.6631
 3785SOL     OW22990   1.506   1.838   9.855 -0.4811 -0.1435 -0.0468
 3785SOL    HW122991   1.444   1.884   9.798 -0.5118 -0.3636 -0.1900
 3785SOL    HW222992   1.577   1.819   9.793  3.0641  3.7406  2.8385
 3786SOL     OW22993   4.057   2.356  16.452  0.0965 -0.6189  0.9281
 3786SOL    HW122994   4.053   2.451  16.460 -0.8093 -0.7037  1.5081
 3786SOL    HW222995   4.035   2.343  16.359  0.8672 -1.6302  0.8802
 3787SOL     OW22996   2.373   0.049   1.030  0.1682  0.1143  0.3500
 3787SOL    HW122997   2.357   4.698   1.059 -4.3363  0.3646 -1.3194
 3787SOL    HW222998   2.299   0.064   0.971  1.2768  1.0816 -0.8037
 3788SOL     OW22999   0.803   3.715   5.616 -0.2223  0.0975 -0.4909
 3788SOL    HW123000   0.798   3.633   5.566 -0.2542 -0.3387  0.2413
 3788SOL    HW223001   0.828   3.772   5.543  0.4652  1.4449  0.8133
 3789SOL     OW23002   4.414   0.027   7.797 -0.4631  0.1224  0.6870
 3789SOL    HW123003   4.486   4.711   7.765 -1.1667 -0.8366  0.7439
 3789SOL    HW223004   4.403   0.100   7.736  0.4895  0.3711  0.8050
 3790SOL     OW23005   0.350   0.952   6.195  0.2438 -0.0037 -0.6630
 3790SOL    HW123006   0.426   0.953   6.137 -1.8068  3.1142 -3.2674
 3790SOL    HW223007   0.353   0.862   6.228 -2.7804 -0.2555 -1.0613
 3791SOL     OW23008   0.404   2.632  16.958 -0.1512 -0.1311  0.2335
 3791SOL    HW123009   0.336   2.581  17.001  0.8404 -2.9978 -1.5069
 3791SOL    HW223010   0.480   2.635  17.016  0.1581 -0.8044 -0.1296
 3792SOL     OW23011   0.513   3.588   2.327 -0.1739  0.6427  0.0216
 3792SOL    HW123012   0.449   3.532   2.283  1.1757 -1.2301  0.4429
 3792SOL    HW223013   0.548   3.651   2.264 -0.8632 -1.0790 -2.0773
 3793SOL     OW23014   2.622   1.093   2.886  0.1327  0.0694 -0.0178
 3793SOL    HW123015   2.650   1.160   2.824 -1.3569  1.3030  0.6332
 3793SOL    HW223016   2.529   1.085   2.866 -0.3626 -0.0146  2.3366
 3794SOL     OW23017   3.632   1.307   4.028  0.1635 -0.0548  0.2384
 3794SOL    HW123018   3.599   1.383   4.076 -0.4295 -0.1471 -0.0236
 3794SOL    HW223019   3.645   1.360   3.949 -0.3654  0.8176  0.7401
 3795SOL     OW23020   3.155   3.209   6.608  0.0007  0.0811 -0.1749
 3795SOL    HW123021   3.167   3.228   6.701 -0.1913  0.9733 -0.3399
 3795SOL    HW223022   3.076   3.248   6.572 -0.3101 -1.1234 -0.8121
 3796SOL     OW23023   3.077   0.872   5.404 -0.2675  0.2770  0.7390
 3796SOL    HW123024   3.151   0.929   5.424  0.7783 -0.3537 -1.2740
 3796SOL    HW223025   3.009   0.937   5.388  1.5611  1.9243 -0.2885
 3797SOL     OW23026   0.639   2.901  17.312 -0.4966  0.1359 -0.0213
 3797SOL    HW123027   0.689   2.898  17.393  0.9981  1.4434 -0.8882
 3797SOL    HW223028   0.614   2.993  17.306  2.1984  1.0708  3.1113
 3798SOL     OW23029   2.463   2.051   1.628  0.1320 -0.3608  0.1930
 3798SOL    HW123030   2.389   2.008   1.586  0.5212 -0.9825  0.1518
 3798SOL    HW223031   2.439   2.049   1.721  0.6741  1.7580  0.3772
 3799SOL     OW23032   0.822   2.762   8.101 -0.1008 -0.1549 -0.1651
 3799SOL    HW123033   0.807   2.847   8.059 -0.2983 -0.1603 -0.1048
 3799SOL    HW223034   0.879   2.727   8.033  0.6109  1.6444 -0.4939
 3800SOL     OW23035   1.603   4.425  14.358  0.2118  0.7117  0.0092
 3800SOL    HW123036   1.657   4.425  14.437  0.4861  2.4664 -0.1813
 3800SOL    HW223037   1.610   4.518  14.333  2.1141  0.7710  0.7498
 3801SOL     OW23038   0.232   4.325   8.069 -0.5370  0.3677 -0.2688
 3801SOL    HW123039   0.194   4.351   8.153  1.2526  0.9936  0.3576
 3801SOL    HW223040   0.153   4.296   8.024  0.0892 -0.8359 -0.5815
 3802SOL     OW23041   3.572   4.284   5.479 -0.1305  0.2843 -0.4426
 3802SOL    HW123042   3.548   4.241   5.561 -1.2104  1.2921 -0.2150
 3802SOL    HW223043   3.600   4.371   5.509  0.4892 -0.0201 -0.1506
 3803SOL     OW23044   2.873   0.187   0.884  0.0877  0.5783  0.3629
 3803SOL    HW123045   2.923   0.114   0.848  1.0179  2.6075 -2.5164
 3803SOL    HW223046   2.945   0.248   0.901  0.2504  0.3344  0.5498
 3804SOL     OW23047   2.756   0.465   7.100  0.0611  0.1461  1.0593
 3804SOL    HW123048   2.827   0.411   7.135 -0.2484 -1.0161 -0.0901
 3804SOL    HW223049   2.800   0.523   7.037  0.3785  0.9717  2.0385
 3805SOL     OW23050   1.604   3.483   0.340 -0.2027  0.2911 -0.0861
 3805SOL    HW123051   1.548   3.507   0.265  1.0119 -1.4789 -1.5626
 3805SOL    HW223052   1.666   3.555   0.333 -1.2958  1.2945  0.4536
 3806SOL     OW23053   0.307   3.598   4.005 -0.0478 -0.2933  0.2918
 3806SOL    HW123054   0.239   3.636   3.950 -0.2627 -0.9882  0.0701
 3806SOL    HW223055   0.319   3.516   3.956  0.9063  0.8152 -1.3216
 3807SOL     OW23056   2.650   3.533   8.250  0.3712 -0.3287 -0.2826
 3807SOL    HW123057   2.558   3.557   8.254  0.6186  0.7244 -0.7417
 3807SOL    HW223058   2.671   3.583   8.329  1.4248  0.1789 -0.8763
 3808SOL     OW23059   3.623   3.207   8.841 -0.0368  0.2497 -0.3757
 3808SOL    HW123060   3.671   3.222   8.759  1.4274  2.5572  0.9162
 3808SOL    HW223061   3.543   3.177   8.799 -0.3570 -0.0499  0.4562
 3809SOL     OW23062   2.605   3.192  17.341  0.6169  0.0334 -0.4966
 3809SOL    HW123063   2.686   3.209  17.293 -1.1029 -0.3022 -3.4994
 3809SOL    HW223064   2.539   3.232  17.284 -0.2623  1.3255  1.4092
 3810SOL     OW23065   1.004   2.542   9.889  0.3881  0.2398 -0.4003
 3810SOL    HW123066   0.923   2.493   9.877  0.3991  0.0628  0.2712
 3810SOL    HW223067   1.033   2.506   9.973 -2.1183  1.9002  1.1928
 3811SOL     OW23068   0.824   1.757  17.638  0.2541 -0.0316 -0.3039
 3811SOL    HW123069   0.764   1.831  17.627  0.3865  0.3872  1.7158
 3811SOL    HW223070   0.875   1.750  17.557 -0.3306 -1.2215 -0.5669
 3812SOL     OW23071   2.513   4.075   4.333  0.9706  0.1664  0.1994
 3812SOL    HW123072   2.445   4.011   4.313  1.6007  0.1607 -1.8987
 3812SOL    HW223073   2.495   4.078   4.427  1.6358 -0.3268  0.3412
 3813SOL     OW23074   0.158   0.673   2.949  0.1666 -0.2114  0.4484
 3813SOL    HW123075   0.244   0.692   2.988  0.7515  2.2273 -2.0856
 3813SOL    HW223076   0.181   0.613   2.879 -3.0464 -0.2190 -0.6136
 3814SOL     OW23077   3.676   1.462   6.731  0.0893  0.5878 -0.0526
 3814SOL    HW123078   3.675   1.423   6.818 -1.6830  1.6269  0.3951
 3814SOL    HW223079   3.618   1.537   6.747  0.2157  0.2090  2.1227
 3815SOL     OW23080   2.369   4.380  16.309  0.4185 -0.1042 -0.0341
 3815SOL    HW123081   2.295   4.433  16.339  1.4957  2.1235 -1.3315
 3815SOL    HW223082   2.385   4.414  16.221  0.9417 -0.5583 -0.1145
 3816SOL     OW23083   0.061   2.731  11.075  0.3986  0.0656 -0.3849
 3816SOL    HW123084   0.077   2.644  11.037  0.0288 -0.3886  0.4957
 3816SOL    HW223085   0.053   2.699  11.165 -0.2315  0.2206 -0.3915
 3817SOL     OW23086   0.620   0.473  16.674  0.5011 -0.5417 -0.0511
 3817SOL    HW123087   0.660   0.532  16.610  0.8528 -1.8148 -1.0072
 3817SOL    HW223088   0.652   0.385  16.653 -1.0995 -1.5639  1.8415
 3818SOL     OW23089   1.020   4.549  16.653  0.0776  0.5616 -0.1304
 3818SOL    HW123090   0.938   4.522  16.696 -0.3690  1.8155 -0.1938
 3818SOL    HW223091   1.028   4.642  16.674  0.8615  0.1974  1.1256
 3819SOL     OW23092   4.648   1.284   3.422  0.0793  0.6293  0.0265
 3819SOL    HW123093   4.575   1.318   3.369  0.4708 -0.1971 -1.0390
 3819SOL    HW223094   4.618   1.302   3.511 -0.0095 -0.6439  0.2530
 3820SOL     OW23095   2.321   1.539   8.748 -0.0038  0.1444  1.0424
 3820SOL    HW123096   2.233   1.516   8.780 -0.1060 -1.7021 -0.5109
 3820SOL    HW223097   2.345   1.447   8.734  1.3366  0.4296  1.5512
 3821SOL     OW23098   4.139   4.600   4.379 -0.3698  0.4971  0.6283
 3821SOL    HW123099   4.055   4.580   4.421 -0.7204 -0.1547 -0.3992
 3821SOL    HW223100   4.106   4.579   4.292 -0.2233  2.0579  0.1903
 3822SOL     OW23101   3.391   1.347  12.758  0.4046 -0.3694 -0.6198
 3822SOL    HW123102   3.358   1.427  12.718 -2.5750 -1.0763  0.4427
 3822SOL    HW223103   3.383   1.291  12.681 -0.4955 -0.6518 -0.3174
 3823SOL     OW23104   4.150   2.300  10.768 -0.5777 -0.4127 -0.3101
 3823SOL    HW123105   4.096   2.241  10.716 -4.5126  2.6061  0.3595
 3823SOL    HW223106   4.148   2.382  10.719  2.2975  0.6220  1.3108
 3824SOL     OW23107   0.145   4.235   8.655  0.3852  0.4258 -0.2873
 3824SOL    HW123108   0.170   4.144   8.670  1.1310  0.7331  0.3102
 3824SOL    HW223109   0.070   4.223   8.595  0.1044  0.2969  0.0901
 3825SOL     OW23110   4.658   4.164   7.865  0.1041  0.5402  0.1038
 3825SOL    HW123111   4.639   4.235   7.803 -0.0551 -0.9063 -1.5241
 3825SOL    HW223112   4.695   4.102   7.803 -3.4876 -0.1858 -1.3472
 3826SOL     OW23113   2.564   1.052   6.619 -0.2837  0.2187  0.0698
 3826SOL    HW123114   2.636   1.062   6.556  0.3071 -0.4283  0.6406
 3826SOL    HW223115   2.486   1.078   6.569  0.3655  0.2292 -0.9519
 3827SOL     OW23116   4.156   2.573   0.270 -0.2006  0.3942 -0.7914
 3827SOL    HW123117   4.218   2.504   0.248 -0.3061 -0.3348  1.2458
 3827SOL    HW223118   4.178   2.636   0.201 -0.8938  1.2222 -0.2608
 3828SOL     OW23119   2.252   1.496   3.887 -0.2172  0.1312  0.3951
 3828SOL    HW123120   2.243   1.493   3.792 -1.0303 -2.2938  0.5459
 3828SOL    HW223121   2.341   1.465   3.901 -0.1287  0.7638  1.2518
 3829SOL     OW23122   4.658   0.055   5.596  0.1107  0.1766  0.6854
 3829SOL    HW123123   4.727   0.098   5.647  1.6104 -0.2519 -0.9616
 3829SOL    HW223124   4.587   0.116   5.614  0.3502 -0.2005  2.8573
 3830SOL     OW23125   3.744   3.742   8.327  0.0936  0.3763  0.9836
 3830SOL    HW123126   3.829   3.756   8.286 -0.3267 -0.4654 -0.1746
 3830SOL    HW223127   3.778   3.724   8.415  3.7837  4.5112  0.3813
 3831SOL     OW23128   4.272   3.701   6.011  0.6756  0.6353 -0.5007
 3831SOL    HW123129   4.308   3.658   6.089  0.1531  1.2585  0.0783
 3831SOL    HW223130   4.355   3.731   5.973  1.2480  0.3407  0.5279
 3832SOL     OW23131   3.345   1.119   5.826 -0.4874 -0.1580 -0.1422
 3832SOL    HW123132   3.363   1.136   5.734  0.6702  3.0226  0.6973
 3832SOL    HW223133   3.313   1.202   5.861  0.7714  0.4380 -0.3961
 3833SOL     OW23134   3.799   0.400   5.192  0.0527  0.1070  0.3200
 3833SOL    HW123135   3.784   0.468   5.257  2.0165  1.8987 -1.0917
 3833SOL    HW223136   3.810   0.466   5.124 -1.2607 -1.3066 -1.2675
 3834SOL     OW23137   0.283   4.433   1.914  0.6416 -0.4294  0.2398
 3834SOL    HW123138   0.257   4.381   1.990 -2.2319 -1.1877 -1.2726
 3834SOL    HW223139   0.252   4.377   1.843 -1.0388  1.4401 -0.4836
 3835SOL     OW23140   4.076   4.258  12.781  0.2451 -0.5266 -0.1192
 3835SOL    HW123141   4.113   4.248  12.868 -0.3262 -3.1291 -0.1739
 3835SOL    HW223142   4.095   4.170  12.749 -3.7895 -1.3523 -0.2691
 3836SOL     OW23143   2.599   0.550  16.069  0.0370 -0.5947  0.2181
 3836SOL    HW123144   2.619   0.591  16.154  0.5823  1.0043 -0.6791
 3836SOL    HW223145   2.684   0.510  16.050  0.4481  2.3092 -3.9560
 3837SOL     OW23146   1.215   2.294   2.325  0.1921  0.5304 -0.4405
 3837SOL    HW123147   1.206   2.383   2.293  1.7536 -0.5112 -3.7504
 3837SOL    HW223148   1.304   2.273   2.298  0.9559  1.1267  1.5970
 3838SOL     OW23149   2.760   4.504   7.852  0.3518  0.0625  0.9028
 3838SOL    HW123150   2.754   4.408   7.851  0.3516  0.0646  0.7675
 3838SOL    HW223151   2.830   4.522   7.914 -0.2014 -0.8126  1.8027
 3839SOL     OW23152   1.954   2.584   0.035  0.5754 -0.2626 -0.3832
 3839SOL    HW123153   2.021   2.564  17.722  0.4200 -2.4541  0.1251
 3839SOL    HW223154   1.989   2.654   0.091  0.2387 -1.5312  1.4103
 3840SOL     OW23155   2.245   3.472   6.438 -0.2078 -0.5970  0.6343
 3840SOL    HW123156   2.335   3.488   6.467 -0.0372 -0.2125 -0.1072
 3840SOL    HW223157   2.236   3.548   6.381 -1.9332 -2.5144 -1.6609
 3841SOL     OW23158   1.858   3.731   6.833  0.3610 -0.0033  0.3029
 3841SOL    HW123159   1.911   3.800   6.872 -0.1766  0.2090  0.6509
 3841SOL    HW223160   1.779   3.748   6.884 -0.0321  1.7334 -0.8765
 3842SOL     OW23161   2.953   2.467  15.943  0.1652  0.0850 -0.0091
 3842SOL    HW123162   3.012   2.530  15.902  1.2589 -0.0232  1.3969
 3842SOL    HW223163   2.870   2.515  15.942 -0.0854 -0.3610 -1.0626
 3843SOL     OW23164   1.597   4.507   7.696  0.0875 -0.4469  0.5684
 3843SOL    HW123165   1.635   4.448   7.630 -1.0518 -0.4045 -0.1142
 3843SOL    HW223166   1.593   4.448   7.771 -1.4999 -1.7316 -0.5082
 3844SOL     OW23167   4.333   0.846   1.849 -0.1071 -0.0575  0.8435
 3844SOL    HW123168   4.379   0.929   1.843  0.7830 -0.5027  1.4296
 3844SOL    HW223169   4.404   0.786   1.827 -0.5921 -0.6288  0.8258
 3845SOL     OW23170   3.691   4.588   1.118  0.2500 -0.1854 -0.6481
 3845SOL    HW123171   3.613   4.591   1.063  0.0823  0.5349 -0.3753
 3845SOL    HW223172   3.754   4.644   1.073 -3.3286  3.1613 -1.4869
 3846SOL     OW23173   2.621   0.267   1.544  0.4937  0.1861 -0.4169
 3846SOL    HW123174   2.572   0.315   1.477 -0.8616  0.4728  0.7892
 3846SOL    HW223175   2.563   0.191   1.551  1.8764 -0.7694  0.6636
 3847SOL     OW23176   2.907   0.876   9.629 -0.2590  0.1802  0.3286
 3847SOL    HW123177   2.902   0.884   9.534  2.6530 -0.3927  0.1470
 3847SOL    HW223178   2.987   0.826   9.643 -0.5573 -0.3564  0.1192
 3848SOL     OW23179   2.846   4.148   1.495 -0.2234  0.0887 -0.8906
 3848SOL    HW123180   2.939   4.141   1.517 -0.7157  0.0590  1.2048
 3848SOL    HW223181   2.841   4.153   1.400  0.1825 -2.0988 -1.0291
 3849SOL     OW23182   2.230   3.567   7.153 -0.2003 -0.3377  0.5321
 3849SOL    HW123183   2.151   3.530   7.115 -1.6448  1.6648  1.6075
 3849SOL    HW223184   2.260   3.603   7.069 -1.9184 -0.1619  0.0030
 3850SOL     OW23185   2.504   1.508   6.304  0.0479 -0.2168  0.4619
 3850SOL    HW123186   2.443   1.520   6.231  2.7615 -0.6070 -1.8476
 3850SOL    HW223187   2.507   1.413   6.310 -3.1948 -0.4230 -1.2354
 3851SOL     OW23188   1.976   3.484   6.890 -0.6280 -0.4575 -0.1030
 3851SOL    HW123189   1.896   3.456   6.847  0.5639 -1.7431 -1.4442
 3851SOL    HW223190   1.959   3.578   6.883 -2.5518 -0.7836  0.0675
 3852SOL     OW23191   1.350   0.446   7.654  0.1591  0.1722 -1.0225
 3852SOL    HW123192   1.413   0.431   7.583 -1.5178 -0.0195 -2.4549
 3852SOL    HW223193   1.396   0.409   7.729 -2.9801  0.4827  1.0475
 3853SOL     OW23194   2.901   0.415   3.082 -0.5190 -0.0738 -0.2737
 3853SOL    HW123195   2.876   0.406   2.990  3.1049 -0.7871 -1.2164
 3853SOL    HW223196   2.877   0.326   3.108  0.1062  0.3593  1.7787
 3854SOL     OW23197   3.246   2.936  13.590 -0.3258  0.2338 -0.1365
 3854SOL    HW123198   3.168   2.952  13.538 -1.3438 -2.9927  0.3862
 3854SOL    HW223199   3.307   3.001  13.558  0.3606 -0.3232  0.0308
 3855SOL     OW23200   0.451   2.474   7.630  0.6384 -0.0144 -0.0487
 3855SOL    HW123201   0.437   2.437   7.717 -0.9596 -0.6327 -0.5730
 3855SOL    HW223202   0.416   2.562   7.648 -2.6326 -1.5966  1.2328
 3856SOL     OW23203   2.310   1.452   7.312  0.0608  0.5291 -0.1470
 3856SOL    HW123204   2.319   1.539   7.273 -1.7162  0.7069 -0.1588
 3856SOL    HW223205   2.219   1.434   7.291 -1.0483  3.8697  1.8782
 3857SOL     OW23206   2.095   0.707   3.751  0.0656  0.1462 -0.9479
 3857SOL    HW123207   2.177   0.658   3.753 -0.8062 -1.2417  0.4952
 3857SOL    HW223208   2.032   0.635   3.755  0.4020 -0.1614 -1.1900
 3858SOL     OW23209   0.341   1.776  12.378 -0.3914 -0.1353 -0.2904
 3858SOL    HW123210   0.314   1.691  12.343 -0.0527 -0.4167  0.1368
 3858SOL    HW223211   0.275   1.788  12.446  2.0621  3.5057  1.4275
 3859SOL     OW23212   3.431   0.497  10.376 -0.0474  0.5823 -0.4371
 3859SOL    HW123213   3.506   0.504  10.316 -0.4472  0.1004 -0.9849
 3859SOL    HW223214   3.374   0.569  10.349  0.9810  0.6569 -2.4028
 3860SOL     OW23215   2.071   1.350  12.415  0.0346  0.6314  0.3573
 3860SOL    HW123216   2.023   1.287  12.362  0.2523 -0.7417  1.7838
 3860SOL    HW223217   2.006   1.414  12.446 -0.5341  0.7852 -1.1948
 3861SOL     OW23218   0.679   0.451  17.636  0.7455 -0.3171 -0.5023
 3861SOL    HW123219   0.729   0.526  17.668  0.0059  0.5559 -1.4248
 3861SOL    HW223220   0.607   0.487  17.585  1.8612  0.9830 -1.1586
 3862SOL     OW23221   2.210   1.489   7.982  0.6647  0.7505  0.3472
 3862SOL    HW123222   2.206   1.546   8.058 -1.0724  2.4377 -1.0346
 3862SOL    HW223223   2.299   1.453   7.991  0.5570  0.7334  1.3663
 3863SOL     OW23224   0.125   3.102  12.543 -0.1698 -0.1910  1.0208
 3863SOL    HW123225   0.073   3.182  12.544  0.8554  0.4800 -1.3852
 3863SOL    HW223226   0.068   3.039  12.499  1.5841 -0.0166 -1.4965
 3864SOL     OW23227   1.009   1.332   5.157 -0.7197  0.0899 -0.0313
 3864SOL    HW123228   1.017   1.325   5.252 -1.4087  1.2976  0.1230
 3864SOL    HW223229   1.094   1.295   5.137  0.0458  1.3531  0.8498
 3865SOL     OW23230   1.608   4.250  16.590  0.6725 -0.4921 -0.7465
 3865SOL    HW123231   1.594   4.300  16.510  0.2367  0.8356  0.1577
 3865SOL    HW223232   1.697   4.216  16.578  1.0359 -1.0014  3.4184
 3866SOL     OW23233   3.561   3.888   3.282 -0.8216 -0.5373 -0.4814
 3866SOL    HW123234   3.586   3.941   3.206 -1.8252  0.4348 -0.1338
 3866SOL    HW223235   3.564   3.957   3.348 -0.3988 -0.0961 -0.9655
 3867SOL     OW23236   4.539   1.868   5.859  0.1318  0.0326  0.1934
 3867SOL    HW123237   4.623   1.874   5.815  0.0799  2.0139  0.3533
 3867SOL    HW223238   4.551   1.775   5.877  0.8643  0.0066 -0.4402
 3868SOL     OW23239   4.120   3.104  10.298  0.1424  0.1357 -0.8070
 3868SOL    HW123240   4.213   3.127  10.296  0.1279  0.2570 -0.0617
 3868SOL    HW223241   4.072   3.142  10.224 -2.2935  1.6105  1.4989
 3869SOL     OW23242   3.387   2.159  10.805 -0.4045 -0.2414  0.0506
 3869SOL    HW123243   3.407   2.248  10.835  2.4491 -1.3590  1.4852
 3869SOL    HW223244   3.423   2.147  10.717 -1.0226 -1.5117 -0.0382
 3870SOL     OW23245   3.418   1.635   8.851 -0.2503 -0.4575 -0.3191
 3870SOL    HW123246   3.498   1.666   8.807  1.1077 -0.0446  2.4761
 3870SOL    HW223247   3.431   1.540   8.841  1.6443 -0.2123 -0.2336
 3871SOL     OW23248   4.166   2.992   8.175  0.5119  0.1952 -0.8699
 3871SOL    HW123249   4.181   3.078   8.214  1.7777  0.1338 -1.2236
 3871SOL    HW223250   4.121   2.951   8.248 -1.5524  2.5558 -0.8351
 3872SOL     OW23251   2.933   1.551   7.121 -0.0953  0.1625  0.5280
 3872SOL    HW123252   2.861   1.489   7.131  0.1469 -0.1095  0.6142
 3872SOL    HW223253   2.974   1.513   7.043 -1.1275  0.4650 -0.1601
 3873SOL     OW23254   3.036   0.533   4.075  0.3749 -0.4672 -0.5154
 3873SOL    HW123255   2.981   0.469   4.121  2.3170 -1.4849  0.4140
 3873SOL    HW223256   3.113   0.524   4.132  1.9350 -0.0038 -2.5841
 3874SOL     OW23257   3.559   4.433   2.303  0.0499  0.0829  0.1730
 3874SOL    HW123258   3.617   4.426   2.227 -1.2138  1.0668 -0.8735
 3874SOL    HW223259   3.555   4.527   2.316  0.6517  0.0173  0.8365
 3875SOL     OW23260   0.430   4.237  15.825  0.2998 -0.5695  0.4805
 3875SOL    HW123261   0.361   4.268  15.767 -0.0267 -3.7233 -0.8060
 3875SOL    HW223262   0.409   4.150  15.859 -0.0965 -0.5526  0.2704
 3876SOL     OW23263   1.700   4.521  15.564 -0.0620  0.0218  0.5321
 3876SOL    HW123264   1.772   4.571  15.525 -1.7554  0.1022 -2.5155
 3876SOL    HW223265   1.626   4.582  15.559 -1.8277 -2.0326  1.0276
 3877SOL     OW23266   3.342   4.694   3.685  0.2838  0.3795  0.4384
 3877SOL    HW123267   3.411   4.717   3.746  0.4467  1.6943 -0.2168
 3877SOL    HW223268   3.296   4.623   3.728  0.2028 -0.5395 -1.1662
 3878SOL     OW23269   4.655   3.081  16.281 -0.1292  0.4482  0.1001
 3878SOL    HW123270   4.655   3.129  16.198  0.3172  0.7182  0.2557
 3878SOL    HW223271   4.708   3.005  16.255 -2.4783 -0.4595 -1.9812
 3879SOL     OW23272   2.270   2.898  11.304  0.3511  0.0771 -0.1961
 3879SOL    HW123273   2.231   2.962  11.244 -1.8334  1.0652  2.2691
 3879SOL    HW223274   2.353   2.893  11.257  0.6456 -2.0995  0.5780
 3880SOL     OW23275   0.667   2.544   8.049 -0.1159 -0.1143  1.2142
 3880SOL    HW123276   0.732   2.609   8.074  0.2828  0.8151 -2.2199
 3880SOL    HW223277   0.690   2.552   7.956 -1.9391  1.9043  0.9438
 3881SOL     OW23278   0.600   2.006  16.773  0.3553  0.2644  0.2303
 3881SOL    HW123279   0.655   1.995  16.850 -0.1718 -1.5781  0.3460
 3881SOL    HW223280   0.555   2.088  16.794 -0.4205  0.0642 -0.6609
 3882SOL     OW23281   0.077   1.054   2.602 -0.1872 -0.1286  0.4590
 3882SOL    HW123282   0.009   1.066   2.668 -0.0676 -0.4151  0.6347
 3882SOL    HW223283   0.024   1.054   2.523 -0.1472  2.4864  0.4253
 3883SOL     OW23284   3.542   1.712   6.445 -0.2208 -0.6207 -0.6079
 3883SOL    HW123285   3.459   1.720   6.399 -0.8821  0.2297  0.7304
 3883SOL    HW223286   3.527   1.702   6.539  0.6557 -1.4403 -0.5564
 3884SOL     OW23287   1.413   2.714   8.243  0.2564 -0.3217  0.6674
 3884SOL    HW123288   1.447   2.666   8.318  0.2437 -2.4455 -0.6880
 3884SOL    HW223289   1.471   2.788   8.262 -1.0965  0.5284  1.4398
 3885SOL     OW23290   2.282   0.447   3.793  0.2447 -0.3736  0.4583
 3885SOL    HW123291   2.210   0.391   3.764  0.3502  1.2636 -2.9849
 3885SOL    HW223292   2.347   0.377   3.797 -1.8220 -2.3864 -0.5750
 3886SOL     OW23293   4.316   4.156   3.536 -0.1867 -0.1747  0.2219
 3886SOL    HW123294   4.272   4.209   3.469  0.6131  1.0499  0.6757
 3886SOL    HW223295   4.283   4.070   3.508 -1.1513  0.2101  0.1532
 3887SOL     OW23296   0.916   0.026  17.383 -0.0232  0.2232 -0.4398
 3887SOL    HW123297   0.864   0.106  17.394 -0.5151 -0.1548  0.0216
 3887SOL    HW223298   0.843   4.704  17.396  1.7358 -1.3928  1.8938
 3888SOL     OW23299   3.814   0.576   6.547 -0.2525  0.0876 -0.4884
 3888SOL    HW123300   3.899   0.619   6.531  0.3907 -0.1280  2.3406
 3888SOL    HW223301   3.835   0.510   6.613 -1.8720 -0.9631 -1.0262
 3889SOL     OW23302   4.200   3.390   7.938 -0.0815 -0.1809  0.0561
 3889SOL    HW123303   4.164   3.431   8.017 -0.1560  1.0411 -0.6159
 3889SOL    HW223304   4.174   3.445   7.865  0.8189  1.6728  1.1165
 3890SOL     OW23305   4.442   4.673   5.195  0.2685  0.0795  0.4660
 3890SOL    HW123306   4.524   4.695   5.152 -0.4750  2.2642  0.1843
 3890SOL    HW223307   4.464   4.584   5.222 -0.3598 -0.5351 -1.0611
 3891SOL     OW23308   2.277   1.860   9.681 -0.0731  0.2246  0.4446
 3891SOL    HW123309   2.274   1.813   9.765  0.7302 -2.2789 -0.9058
 3891SOL    HW223310   2.289   1.787   9.620 -3.1258  0.7947 -0.8115
 3892SOL     OW23311   2.781   4.313   7.094  0.4085 -0.7138  0.1648
 3892SOL    HW123312   2.825   4.397   7.102 -0.7955 -0.0447 -0.2519
 3892SOL    HW223313   2.848   4.255   7.129  1.7951  0.1062 -1.1335
 3893SOL     OW23314   1.796   3.783   5.181  0.6614 -0.6747  0.0451
 3893SOL    HW123315   1.801   3.836   5.260  1.4328 -0.3507 -0.2235
 3893SOL    HW223316   1.705   3.754   5.191  0.9262 -1.2126  0.9069
 3894SOL     OW23317   3.977   3.979   4.520  0.3746  0.0616  0.1399
 3894SOL    HW123318   3.970   4.065   4.478 -1.5774 -1.3255 -2.3190
 3894SOL    HW223319   3.893   3.944   4.491  0.8057 -1.6782  1.0430
 3895SOL     OW23320   3.852   3.699   2.764 -0.0979  0.3366  0.3384
 3895SOL    HW123321   3.934   3.654   2.787 -0.2572  0.9418  2.0292
 3895SOL    HW223322   3.827   3.658   2.681  0.8895 -0.6326  0.5185
 3896SOL     OW23323   1.823   2.742   4.594  0.0408  0.7311 -0.1596
 3896SOL    HW123324   1.747   2.753   4.651 -0.5173 -0.2248 -0.7363
 3896SOL    HW223325   1.799   2.658   4.556  0.4616  0.4112  0.2832
 3897SOL     OW23326   0.038   4.528   5.320 -0.2029 -0.3987  0.4181
 3897SOL    HW123327   0.110   4.578   5.283  0.1422 -2.1187 -1.2552
 3897SOL    HW223328   0.003   4.497   5.236  1.8198 -0.2183 -0.4963
 3898SOL     OW23329   1.807   1.678   7.234 -0.0306 -0.7400  0.5037
 3898SOL    HW123330   1.867   1.739   7.190 -1.9966  1.5232  0.9488
 3898SOL    HW223331   1.727   1.728   7.251 -0.1296 -0.1490 -1.6343
 3899SOL     OW23332   2.316   2.477   2.946 -0.3092  0.0273  0.0314
 3899SOL    HW123333   2.395   2.445   2.901  1.3675  0.4010  2.6704
 3899SOL    HW223334   2.249   2.435   2.893 -0.4084  0.8071 -0.4583
 3900SOL     OW23335   1.049   2.530   5.964 -0.0979  0.6522  0.1439
 3900SOL    HW123336   0.953   2.537   5.964 -0.0116  1.7497  1.2570
 3900SOL    HW223337   1.073   2.573   5.881  1.3368 -1.4209 -0.4937
 3901SOL     OW23338   2.409   3.274  14.915 -0.3889  0.0571  0.2142
 3901SOL    HW123339   2.464   3.349  14.939 -0.0360  0.0041 -0.4351
 3901SOL    HW223340   2.334   3.298  14.970 -1.9844  0.0421 -1.9611
 3902SOL     OW23341   2.405   4.697   8.696 -0.1472 -0.3209 -0.4875
 3902SOL    HW123342   2.425   0.041   8.650  0.5609 -1.3045 -1.9397
 3902SOL    HW223343   2.489   4.671   8.733 -0.5553 -1.4061 -0.3187
 3903SOL     OW23344   1.054   0.402  17.685  0.3786  0.0174 -0.5762
 3903SOL    HW123345   1.086   0.365  17.603 -1.2836 -1.1042 -0.7278
 3903SOL    HW223346   1.034   0.324  17.738  1.7753 -0.3154 -0.5490
 3904SOL     OW23347   3.831   2.013   3.844 -0.0476  0.5956 -0.1830
 3904SOL    HW123348   3.740   2.029   3.871 -0.0963  0.5467 -0.3191
 3904SOL    HW223349   3.866   2.102   3.855  2.5560 -0.4275 -0.1080
 3905SOL     OW23350   0.852   3.608   8.360 -0.3894 -0.3425 -0.4174
 3905SOL    HW123351   0.861   3.703   8.354 -1.1895 -0.0951  2.3308
 3905SOL    HW223352   0.912   3.589   8.288  1.9925 -2.1177  2.0306
 3906SOL     OW23353   3.595   1.985  17.405  0.2453 -0.1497 -0.1904
 3906SOL    HW123354   3.558   1.916  17.460  0.3441 -0.2820 -0.2905
 3906SOL    HW223355   3.520   2.033  17.368  1.5299  0.9357 -1.3853
 3907SOL     OW23356   1.887   4.614  12.962 -0.0240 -0.1709  0.2185
 3907SOL    HW123357   1.961   4.660  13.003  1.1632 -1.2855 -0.6618
 3907SOL    HW223358   1.820   4.681  12.978  4.0107  4.1136 -0.5418
 3908SOL     OW23359   1.474   1.002  13.011 -0.8443 -0.0776 -0.0100
 3908SOL    HW123360   1.510   1.037  13.093  0.5218 -0.3556 -0.4856
 3908SOL    HW223361   1.469   1.082  12.959  0.2469 -0.1328 -0.2064
 3909SOL     OW23362   1.383   4.093  13.744 -0.1380  0.0341  0.6424
 3909SOL    HW123363   1.453   4.028  13.738 -0.8100 -0.4199 -2.0745
 3909SOL    HW223364   1.393   4.158  13.675 -1.1563 -0.5270 -0.0349
 3910SOL     OW23365   2.211   1.262  13.712  0.1797  0.7352  0.2299
 3910SOL    HW123366   2.187   1.324  13.643 -1.9251  1.5405  1.6744
 3910SOL    HW223367   2.126   1.224  13.733 -0.0889  0.0621 -2.0261
 3911SOL     OW23368   3.125   1.266   4.076 -0.3840  0.0527 -0.1341
 3911SOL    HW123369   3.102   1.317   3.999 -0.1854  0.4865  0.0964
 3911SOL    HW223370   3.053   1.300   4.129 -0.6936 -0.1354 -0.4358
 3912SOL     OW23371   2.193   1.783   6.205  0.3185  0.4685  0.1817
 3912SOL    HW123372   2.185   1.687   6.202 -1.9905  0.5676  2.9458
 3912SOL    HW223373   2.190   1.802   6.299  1.5295 -0.3489  0.3907
 3913SOL     OW23374   2.074   2.982   8.253 -0.1209 -0.1352 -0.1610
 3913SOL    HW123375   1.996   2.970   8.307  0.7006 -1.4517  0.7397
 3913SOL    HW223376   2.039   3.048   8.193 -1.1789  0.0596  0.6752
 3914SOL     OW23377   3.704   4.083   3.631  0.5942  0.3205 -0.5439
 3914SOL    HW123378   3.712   3.989   3.650 -2.6522  0.7575  3.0068
 3914SOL    HW223379   3.790   4.117   3.609  1.1311 -0.4443  0.3380
 3915SOL     OW23380   2.862   3.276   9.534 -0.3582  0.7482  0.7360
 3915SOL    HW123381   2.790   3.338   9.525  0.1496  1.0968 -1.0066
 3915SOL    HW223382   2.864   3.230   9.450 -1.5895  1.7501  0.1677
 3916SOL     OW23383   2.931   1.150   0.301  0.7782  0.5344 -0.2200
 3916SOL    HW123384   2.844   1.124   0.329  1.3108 -1.2010 -0.1924
 3916SOL    HW223385   2.920   1.184   0.212  1.0630  1.6268  0.1610
 3917SOL     OW23386   3.287   0.337   7.980 -0.0852  0.0884  0.4140
 3917SOL    HW123387   3.274   0.275   8.052 -1.5815 -0.5017 -0.3696
 3917SOL    HW223388   3.239   0.298   7.907  0.9199  1.8457 -1.1966
 3918SOL     OW23389   4.726   1.325   6.423 -0.3950 -0.2993 -0.0807
 3918SOL    HW123390   0.006   1.316   6.329 -0.7641 -3.1789  0.1186
 3918SOL    HW223391   0.051   1.269   6.467 -1.1430  1.0793  2.7215
 3919SOL     OW23392   3.250   0.931   7.206  0.3191 -0.1182  0.6351
 3919SOL    HW123393   3.310   0.868   7.247  0.2491 -1.4855 -1.3516
 3919SOL    HW223394   3.188   0.877   7.158 -0.0153  2.5316 -1.8884
 3920SOL     OW23395   1.202   1.654   8.522 -0.3883  0.4110 -0.0342
 3920SOL    HW123396   1.209   1.683   8.613  1.9282 -0.1938 -0.0185
 3920SOL    HW223397   1.226   1.562   8.534  1.0354  0.5687 -1.6615
 3921SOL     OW23398   2.285   4.166   6.711  0.6249 -0.0294  0.2558
 3921SOL    HW123399   2.237   4.223   6.771 -1.0531 -1.6640  0.4894
 3921SOL    HW223400   2.225   4.095   6.688  1.7404 -0.6577 -0.7129
 3922SOL     OW23401   1.741   2.153   2.973  0.3127  0.2134 -0.3903
 3922SOL    HW123402   1.730   2.149   2.878 -0.5252 -0.9924 -0.2476
 3922SOL    HW223403   1.710   2.065   2.996 -0.4371  0.6433  0.2317
 3923SOL     OW23404   4.401   1.655   1.917 -0.5051  0.0358 -0.1611
 3923SOL    HW123405   4.413   1.709   1.839 -0.5341 -1.4522 -1.1875
 3923SOL    HW223406   4.318   1.623   1.882 -0.2802 -1.1897  0.4522
 3924SOL     OW23407   0.124   0.999   8.404  0.0515  0.3504  0.6646
 3924SOL    HW123408   0.064   0.932   8.435 -0.0985 -1.1559 -2.8851
 3924SOL    HW223409   0.100   1.076   8.455 -0.2088  0.4449  0.4025
 3925SOL     OW23410   4.147   0.982   6.316  0.3380  0.3946 -0.5563
 3925SOL    HW123411   4.234   0.948   6.335  1.2870  3.2839  0.3544
 3925SOL    HW223412   4.128   1.033   6.395  0.9066 -0.5270  0.1703
 3926SOL     OW23413   3.847   2.298  16.609  0.3262 -0.0327  0.3195
 3926SOL    HW123414   3.801   2.218  16.585  0.5055 -0.3570  1.0749
 3926SOL    HW223415   3.922   2.306  16.550 -0.6518  0.2123 -0.9016
 3927SOL     OW23416   2.115   2.638   9.105  0.1648  0.0923  0.3307
 3927SOL    HW123417   2.176   2.704   9.138  0.1726 -0.3697  1.2280
 3927SOL    HW223418   2.034   2.689   9.105  0.9669  1.4038 -0.6270
 3928SOL     OW23419   4.005   3.204   3.201  0.7254  0.3525 -0.4471
 3928SOL    HW123420   3.955   3.282   3.180  2.3687  1.0690 -1.6723
 3928SOL    HW223421   3.977   3.194   3.292  2.3032  0.9247  0.1098
 3929SOL     OW23422   0.018   4.005   5.770  0.8203  0.4256  0.4997
 3929SOL    HW123423   4.738   4.093   5.738  0.7560  0.4337  0.5604
 3929SOL    HW223424   4.672   3.995   5.814  0.5792 -0.2728 -0.1261
 3930SOL     OW23425   1.554   3.174   8.971 -0.5619  0.3975  0.6523
 3930SOL    HW123426   1.469   3.131   8.977 -0.5404  0.4549  1.3147
 3930SOL    HW223427   1.541   3.254   9.021  0.0719  0.2862  0.9895
 3931SOL     OW23428   1.004   1.632   9.706  0.3437  1.1929 -0.0584
 3931SOL    HW123429   1.086   1.589   9.729  0.6650  1.8771  0.0762
 3931SOL    HW223430   1.012   1.706   9.766  1.1643  0.8910  0.2091
 3932SOL     OW23431   2.631   0.772   6.580 -0.3339 -0.2922  0.1868
 3932SOL    HW123432   2.616   0.775   6.486  0.9798  2.9099  0.0826
 3932SOL    HW223433   2.604   0.861   6.604  0.6630  0.0562  0.0291
 3933SOL     OW23434   3.963   0.024   9.337  0.1189 -0.0272 -0.0463
 3933SOL    HW123435   3.988   0.110   9.303 -1.1773 -0.0938 -1.1563
 3933SOL    HW223436   4.040   4.734   9.387 -1.2063 -1.4068  1.1854
 3934SOL     OW23437   2.552   0.855  12.828 -0.2036 -0.1637 -0.0810
 3934SOL    HW123438   2.488   0.922  12.805  1.0756  0.8409 -0.6885
 3934SOL    HW223439   2.512   0.780  12.784 -0.7483  0.1758 -0.1642
 3935SOL     OW23440   1.828   2.567  13.200 -0.2527 -0.2650 -0.1480
 3935SOL    HW123441   1.825   2.657  13.168 -2.9413 -0.6973 -1.1009
 3935SOL    HW223442   1.767   2.561  13.274  1.4607 -3.0293  1.0317
 3936SOL     OW23443   0.614   1.758  12.422 -0.6272 -0.3531  0.0476
 3936SOL    HW123444   0.530   1.753  12.377 -0.7602  1.3333  0.0834
 3936SOL    HW223445   0.607   1.833  12.482 -0.6835 -0.3720  0.0641
 3937SOL     OW23446   3.657   0.401  11.483  0.2869  0.3891 -0.1870
 3937SOL    HW123447   3.625   0.379  11.571  2.1559 -0.1301  0.3669
 3937SOL    HW223448   3.751   0.381  11.490 -0.3663 -2.0084  1.6700
 3938SOL     OW23449   1.519   3.404  10.707  0.4958  0.1998 -0.2729
 3938SOL    HW123450   1.543   3.437  10.793 -0.6838  1.0140 -0.2578
 3938SOL    HW223451   1.433   3.445  10.697  1.2108  1.6736 -0.2342
 3939SOL     OW23452   1.663   0.971   2.383  0.2664  0.4830  0.2467
 3939SOL    HW123453   1.660   1.018   2.300 -2.0929  1.5557  0.9340
 3939SOL    HW223454   1.695   1.043   2.437  1.6254 -0.1838  0.3173
 3940SOL     OW23455   2.055   2.397   9.210 -0.1871 -0.2035 -0.4325
 3940SOL    HW123456   2.146   2.366   9.207  0.7615  2.3143  2.7559
 3940SOL    HW223457   2.070   2.485   9.177  0.5718  0.4112  1.5728
 3941SOL     OW23458   3.225   3.438   7.692 -0.2192  0.4802  0.1694
 3941SOL    HW123459   3.148   3.476   7.649 -0.9951 -0.3323  0.8291
 3941SOL    HW223460   3.283   3.431   7.616 -0.5814  0.2640 -0.0910
 3942SOL     OW23461   1.336   4.534   3.493  0.2557  0.7967  0.1093
 3942SOL    HW123462   1.337   4.439   3.492 -0.0024  0.8190 -2.4069
 3942SOL    HW223463   1.341   4.557   3.585 -1.3408 -1.4569  0.7472
 3943SOL     OW23464   1.186   0.646   3.426 -0.0226  0.3590  0.5256
 3943SOL    HW123465   1.254   0.642   3.493  0.2986  0.0954  0.1834
 3943SOL    HW223466   1.230   0.613   3.348 -0.9709 -2.1868  1.0647
 3944SOL     OW23467   0.625   1.765   4.563  0.0619 -0.2593  0.2996
 3944SOL    HW123468   0.575   1.700   4.513  1.7650 -0.7107 -0.8065
 3944SOL    HW223469   0.711   1.723   4.554 -0.2133 -0.6166 -0.6244
 3945SOL     OW23470   0.008   0.341   1.017 -0.1314 -0.3015 -0.4932
 3945SOL    HW123471   0.042   0.251   1.016  1.2841  0.2275  0.8668
 3945SOL    HW223472   4.709   0.343   0.929  0.6785  2.8703 -0.7539
 3946SOL     OW23473   3.577   4.027   6.110  0.3945 -0.0322 -0.7299
 3946SOL    HW123474   3.567   3.946   6.160 -0.5368  1.3237  1.2963
 3946SOL    HW223475   3.517   4.083   6.159 -1.2472 -0.9784 -1.6713
 3947SOL     OW23476   2.397   2.506  10.200 -0.2894  0.2612  0.0990
 3947SOL    HW123477   2.389   2.486  10.107  0.5108 -2.9084  0.7014
 3947SOL    HW223478   2.319   2.460  10.232  0.0371 -0.4331 -0.0911
 3948SOL     OW23479   4.172   0.397  11.188  0.2909 -0.1257 -0.0332
 3948SOL    HW123480   4.142   0.434  11.271  0.2368  0.8787 -0.5032
 3948SOL    HW223481   4.180   0.306  11.218  3.3732  0.3219  0.5547
 3949SOL     OW23482   3.405   2.705  10.851 -0.2033  0.6261 -0.0438
 3949SOL    HW123483   3.472   2.690  10.783 -1.0121  0.0865 -0.7203
 3949SOL    HW223484   3.404   2.620  10.895  0.1122  1.4317  1.4981
 3950SOL     OW23485   3.539   3.874   5.361  0.0986  0.3975  0.1134
 3950SOL    HW123486   3.458   3.882   5.411  1.5558  0.1780  2.5016
 3950SOL    HW223487   3.515   3.919   5.280  1.9806  2.2378  0.5619
 3951SOL     OW23488   4.566   0.992   7.653  0.7175  0.4509 -0.3910
 3951SOL    HW123489   4.621   0.919   7.624 -0.1249 -1.5884  3.1873
 3951SOL    HW223490   4.584   1.055   7.583 -1.5603 -0.4789 -1.7965
 3952SOL     OW23491   1.242   0.027   8.339 -0.3004 -0.1037 -0.3134
 3952SOL    HW123492   1.266   0.086   8.268  1.3342  0.7904  0.9609
 3952SOL    HW223493   1.185   0.099   8.368  0.1314 -0.1911  0.7826
 3953SOL     OW23494   2.480   4.202  12.238  0.4766 -0.6462  1.0375
 3953SOL    HW123495   2.507   4.111  12.239  3.8061  0.3511  1.3507
 3953SOL    HW223496   2.384   4.206  12.231  0.5161  1.7649  1.8657
 3954SOL     OW23497   3.851   2.074   9.592 -0.3583 -0.0716  0.1223
 3954SOL    HW123498   3.779   2.012   9.578 -1.0292  0.7244  0.0073
 3954SOL    HW223499   3.816   2.151   9.548 -0.1357 -0.5166 -0.8429
 3955SOL     OW23500   3.778   1.349   4.929 -0.2492  0.0169  0.3471
 3955SOL    HW123501   3.777   1.290   4.854  0.5210  1.0483 -0.4921
 3955SOL    HW223502   3.870   1.375   4.924 -0.4903  0.7820 -0.2168
 3956SOL     OW23503   1.469   2.539  15.037  0.7433  0.1322 -0.0206
 3956SOL    HW123504   1.419   2.621  15.038 -0.8303 -0.8271  1.0964
 3956SOL    HW223505   1.434   2.488  15.110  1.0296 -1.1604 -0.7918
 3957SOL     OW23506   1.802   1.431  13.250  0.4180 -0.0459 -0.4953
 3957SOL    HW123507   1.842   1.511  13.217 -0.5011  1.6025  2.4590
 3957SOL    HW223508   1.857   1.370  13.201  0.2892 -0.2388 -0.4006
 3958SOL     OW23509   1.431   1.269  14.692  0.1267 -0.0163 -0.1446
 3958SOL    HW123510   1.440   1.267  14.597 -0.1063 -0.2159 -0.1620
 3958SOL    HW223511   1.519   1.295  14.719 -0.1722  0.9377 -0.0927
 3959SOL     OW23512   1.267   2.051   1.462 -0.0780 -0.1588 -0.1219
 3959SOL    HW123513   1.275   2.000   1.542 -0.2068  0.2986  0.1837
 3959SOL    HW223514   1.332   2.119   1.479  0.3547 -1.2570  2.5992
 3960SOL     OW23515   3.744   1.302   1.469  0.0419 -0.1080  0.3425
 3960SOL    HW123516   3.686   1.254   1.528  2.9174 -0.7091  2.6514
 3960SOL    HW223517   3.811   1.324   1.534  0.3625 -0.3923  0.1032
 3961SOL     OW23518   1.960   0.260  17.026  1.0341  0.5802  0.3619
 3961SOL    HW123519   1.995   0.179  16.988  0.8835  0.3793  0.6474
 3961SOL    HW223520   2.043   0.294  17.060  0.7784  0.1913  1.3809
 3962SOL     OW23521   1.818   4.660   2.543 -0.3620  0.2040  0.5918
 3962SOL    HW123522   1.846   4.573   2.573 -1.8304 -0.4844 -0.0193
 3962SOL    HW223523   1.844   4.716   2.616  1.1910  0.4595 -0.1378
 3963SOL     OW23524   4.042   2.040  16.092 -0.1411  0.0045 -0.0341
 3963SOL    HW123525   3.999   1.986  16.025 -2.0120 -1.7448  2.5736
 3963SOL    HW223526   4.058   2.116  16.035 -3.7077  0.1447 -0.8844
 3964SOL     OW23527   3.437   2.669   8.079 -0.5737  0.4488  0.0769
 3964SOL    HW123528   3.367   2.634   8.134 -1.9314 -0.3093 -2.1382
 3964SOL    HW223529   3.392   2.694   7.998 -0.8732 -0.2741  0.0220
 3965SOL     OW23530   0.510   0.177   8.341  0.0031 -0.1413 -0.0690
 3965SOL    HW123531   0.557   0.102   8.305  1.3610  0.4189  0.5604
 3965SOL    HW223532   0.428   0.148   8.382 -0.2073  1.3384  0.5395
 3966SOL     OW23533   3.220   4.177   8.140 -0.3264  0.4355 -0.5171
 3966SOL    HW123534   3.157   4.247   8.159 -1.5660 -0.6494 -0.6392
 3966SOL    HW223535   3.165   4.099   8.147 -0.9738  0.8751 -0.7452
 3967SOL     OW23536   3.034   3.933   9.237  0.0951 -0.0672 -0.3080
 3967SOL    HW123537   3.059   3.997   9.170 -0.3647 -2.2306 -2.5577
 3967SOL    HW223538   3.066   3.853   9.195  0.6917 -0.2615  0.5325
 3968SOL     OW23539   2.878   0.632   3.456 -0.2324  0.0213  0.0071
 3968SOL    HW123540   2.899   0.690   3.529  2.4410 -1.1283  0.1662
 3968SOL    HW223541   2.855   0.552   3.504  1.3633 -0.5648 -0.2184
 3969SOL     OW23542   1.319   2.292   5.181 -0.3678  0.4154  0.1135
 3969SOL    HW123543   1.298   2.203   5.153 -0.7861  0.6139 -0.2026
 3969SOL    HW223544   1.241   2.344   5.160 -1.4017 -0.4226  1.9204
 3970SOL     OW23545   0.599   1.995   2.549  0.2871 -0.1119  0.4793
 3970SOL    HW123546   0.579   1.923   2.610 -0.7977 -2.1486 -2.2984
 3970SOL    HW223547   0.639   1.949   2.475 -0.2112  0.2006  0.0201
 3971SOL     OW23548   2.405   2.744  10.899  0.3985  0.6800 -0.1323
 3971SOL    HW123549   2.489   2.770  10.861  0.3452  1.6428  0.4316
 3971SOL    HW223550   2.369   2.824  10.937  0.6582  0.4312  0.6285
 3972SOL     OW23551   2.813   4.586   5.682  0.7059 -0.5477 -0.3630
 3972SOL    HW123552   2.872   4.655   5.652 -0.3869 -0.2753 -1.8430
 3972SOL    HW223553   2.839   4.508   5.634  0.7605 -2.0751  2.1473
 3973SOL     OW23554   1.192   3.864  12.430  0.5334 -0.2186 -0.1402
 3973SOL    HW123555   1.164   3.929  12.494  2.3609 -0.1611  0.6082
 3973SOL    HW223556   1.257   3.909  12.376 -0.7677  2.1375  0.2471
 3974SOL     OW23557   1.845   2.991   1.407 -0.0443 -0.6975 -0.1547
 3974SOL    HW123558   1.829   2.998   1.313 -0.1834 -0.6984 -0.1316
 3974SOL    HW223559   1.779   2.927   1.434  0.5837  0.1709  3.5594
 3975SOL     OW23560   1.666   2.766   2.785  0.0307  0.3187  0.2758
 3975SOL    HW123561   1.651   2.755   2.879  1.5813  0.9861  0.6193
 3975SOL    HW223562   1.714   2.684   2.772  0.6948  0.6800  0.4214
 3976SOL     OW23563   0.395   4.609  10.513  0.3007 -0.9609 -0.5711
 3976SOL    HW123564   0.441   4.688  10.540 -3.1542  1.2872 -1.2627
 3976SOL    HW223565   0.458   4.538  10.522 -0.4138 -1.7105 -1.4398
 3977SOL     OW23566   4.133   3.796  13.418  0.4514  0.0511  0.3288
 3977SOL    HW123567   4.173   3.710  13.405 -0.5841 -0.1573 -1.5262
 3977SOL    HW223568   4.194   3.854  13.373 -1.3927  2.6338  1.1610
 3978SOL     OW23569   1.525   4.471   5.591 -0.0989 -0.3001 -0.2043
 3978SOL    HW123570   1.496   4.536   5.527  0.7206  0.6126  0.3553
 3978SOL    HW223571   1.563   4.407   5.532  3.7439  2.1029 -0.3272
 3979SOL     OW23572   2.136   1.425   9.195 -0.1340  0.0424  0.0622
 3979SOL    HW123573   2.137   1.374   9.115  0.4540 -0.0508  0.1252
 3979SOL    HW223574   2.140   1.361   9.266 -1.7285 -1.1021 -0.9050
 3980SOL     OW23575   2.100   3.171   6.036  0.2498  0.6851 -0.4224
 3980SOL    HW123576   2.026   3.190   6.093 -0.2894  0.3653 -1.0157
 3980SOL    HW223577   2.161   3.138   6.103  0.0189 -2.5563 -1.7896
 3981SOL     OW23578   3.258   4.095   2.993  0.3617  0.7025  0.3814
 3981SOL    HW123579   3.211   4.107   3.076 -0.9888  0.9648 -0.4150
 3981SOL    HW223580   3.232   4.177   2.951  1.7761  0.8720 -0.1293
 3982SOL     OW23581   2.354   4.366   3.750 -0.0373 -0.0876 -0.0099
 3982SOL    HW123582   2.412   4.305   3.796  0.6044  0.4597 -0.0957
 3982SOL    HW223583   2.402   4.376   3.668  0.3432  0.2833  0.2589
 3983SOL     OW23584   0.227   4.140  15.617 -0.4219  0.0849 -0.2364
 3983SOL    HW123585   0.242   4.209  15.553  0.2480  2.8215  2.8881
 3983SOL    HW223586   0.296   4.078  15.595  1.4755  0.8033  3.7420
 3984SOL     OW23587   0.013   2.164   5.942 -0.1353 -0.1828  0.8432
 3984SOL    HW123588   0.090   2.118   5.977  0.5487 -0.7660 -1.3960
 3984SOL    HW223589   4.683   2.118   5.991 -1.0223  0.2325 -0.0044
 3985SOL     OW23590   4.340   3.834   8.546 -0.7758  0.2904  0.0471
 3985SOL    HW123591   4.270   3.887   8.584 -1.0535  1.4597 -2.0739
 3985SOL    HW223592   4.340   3.767   8.614  0.8517  0.2499  0.0008
 3986SOL     OW23593   1.968   3.457   5.993  0.1022  0.3673 -0.2235
 3986SOL    HW123594   2.004   3.508   5.921 -0.2220  1.2989  0.2762
 3986SOL    HW223595   2.046   3.427   6.040  0.6805  1.1472 -0.6892
 3987SOL     OW23596   0.086   2.786   5.318  0.2605  0.4642 -0.4487
 3987SOL    HW123597   0.041   2.773   5.402  0.7141  1.0941 -0.1016
 3987SOL    HW223598   0.059   2.875   5.294 -1.1179  0.1533 -0.0658
 3988SOL     OW23599   1.756   2.631   0.823 -0.2511  0.2553  0.0384
 3988SOL    HW123600   1.840   2.621   0.779 -0.3377 -1.6144  0.3235
 3988SOL    HW223601   1.717   2.543   0.823 -0.3323  0.2709  3.5077
 3989SOL     OW23602   3.134   2.303  13.160  0.3239  0.2396  0.0366
 3989SOL    HW123603   3.159   2.363  13.231  0.1544 -0.4382  0.6680
 3989SOL    HW223604   3.222   2.273  13.139  0.7682  2.2544 -0.9919
 3990SOL     OW23605   3.152   2.013  10.858 -0.5445  0.3818  0.2246
 3990SOL    HW123606   3.190   1.961  10.929 -0.6686  1.6006  1.1918
 3990SOL    HW223607   3.229   2.065  10.837 -0.0345 -0.9846 -1.2546
 3991SOL     OW23608   4.466   3.072   7.606  0.0317  0.5161 -0.0684
 3991SOL    HW123609   4.513   2.989   7.598 -1.6398 -0.1763 -2.6680
 3991SOL    HW223610   4.416   3.054   7.686  0.1524 -1.0976 -0.3603
 3992SOL     OW23611   3.473   3.863   8.247 -0.4859 -0.3284 -0.1636
 3992SOL    HW123612   3.546   3.801   8.252 -0.0847  0.1435 -0.1420
 3992SOL    HW223613   3.514   3.946   8.270 -0.9388 -0.0159 -0.4849
 3993SOL     OW23614   2.506   4.560   5.762  0.4710  0.0150 -0.4677
 3993SOL    HW123615   2.528   4.531   5.673 -1.2639 -0.2483 -0.8200
 3993SOL    HW223616   2.491   4.653   5.742  1.2464  0.4077  0.7725
 3994SOL     OW23617   0.817   0.784   4.160  0.5825 -0.4380  0.0694
 3994SOL    HW123618   0.819   0.760   4.253 -1.2094 -0.2352  0.1624
 3994SOL    HW223619   0.858   0.870   4.170 -0.9834  0.2620  0.4687
 3995SOL     OW23620   0.145   4.084  11.531 -0.0963  0.5051  0.5890
 3995SOL    HW123621   0.140   4.044  11.617 -0.9184  1.0178  0.7798
 3995SOL    HW223622   0.140   4.179  11.547 -0.4756  0.4698  0.6700
 3996SOL     OW23623   0.879   0.227   3.622  0.3811  0.5525 -0.1387
 3996SOL    HW123624   0.814   0.198   3.686  0.9918  2.8625  1.5079
 3996SOL    HW223625   0.943   0.267   3.681 -0.5931  1.1439  0.5161
 3997SOL     OW23626   1.013   2.959   5.108  0.4611  0.6040  0.3445
 3997SOL    HW123627   0.937   2.965   5.050  0.7237  1.5928  0.0989
 3997SOL    HW223628   1.017   2.864   5.112  0.8907  0.6402  0.9278
 3998SOL     OW23629   0.846   1.983   4.214 -0.0691  0.6848  0.2776
 3998SOL    HW123630   0.788   2.008   4.287 -2.1729  2.2299 -1.9161
 3998SOL    HW223631   0.919   1.939   4.258 -0.0949  1.5891  1.2363
 3999SOL     OW23632   3.885   3.209   0.960 -0.0531  0.0775 -0.4969
 3999SOL    HW123633   3.977   3.216   0.935 -0.1302  2.9153  0.0217
 3999SOL    HW223634   3.883   3.253   1.045 -1.0858 -1.4256  0.2606
 4000SOL     OW23635   4.146   3.969  14.945 -0.2245  0.2969  0.6613
 4000SOL    HW123636   4.220   4.022  14.916  1.7003 -1.8390  1.6401
 4000SOL    HW223637   4.146   3.980  15.040 -2.1083 -1.4760  0.8595
 4001SOL     OW23638   3.719   1.875   6.318  0.2174  0.1729  0.1466
 4001SOL    HW123639   3.795   1.824   6.288 -0.6670 -0.6758 -0.6489
 4001SOL    HW223640   3.668   1.799   6.344 -0.3516  0.3203 -0.5589
 4002SOL     OW23641   4.053   0.510   6.848  0.4653  0.1484 -0.0399
 4002SOL    HW123642   3.967   0.473   6.830  0.1721  0.5055  0.6447
 4002SOL    HW223643   4.024   0.596   6.816  1.2723  0.6619  0.5888
 4003SOL     OW23644   1.934   3.647   3.542 -0.1758 -0.1351 -0.4475
 4003SOL    HW123645   1.924   3.605   3.627 -0.1763 -1.0881 -0.9085
 4003SOL    HW223646   1.904   3.570   3.493  1.1127 -0.3134 -0.9745
 4004SOL     OW23647   0.443   2.591   3.470  0.1464 -0.5048 -0.9594
 4004SOL    HW123648   0.464   2.515   3.524  0.0878 -1.5726 -2.4392
 4004SOL    HW223649   0.427   2.656   3.539 -1.4106 -1.1598 -0.6950
 4005SOL     OW23650   3.661   4.295   2.641  0.3074 -0.2095 -0.5341
 4005SOL    HW123651   3.729   4.254   2.694 -1.5497 -2.1373  0.3361
 4005SOL    HW223652   3.711   4.362   2.594  0.2956 -0.0529 -0.3273
 4006SOL     OW23653   0.065   3.930  11.740 -0.0960  0.1709  0.1393
 4006SOL    HW123654   4.714   3.942  11.773  0.3543 -1.7191  2.0086
 4006SOL    HW223655   0.052   3.890  11.654 -0.7268  1.6641 -0.4597
 4007SOL     OW23656   0.401   3.506   0.982  0.1034  0.0577  0.3236
 4007SOL    HW123657   0.410   3.493   1.076  1.6260 -0.9853  0.0336
 4007SOL    HW223658   0.475   3.563   0.959 -0.2274  0.5014  0.3545
 4008SOL     OW23659   0.174   4.400  11.497  0.2137 -0.1698 -0.1848
 4008SOL    HW123660   0.105   4.385  11.561  2.2249 -1.1228  1.7606
 4008SOL    HW223661   0.126   4.375  11.418 -0.6174 -0.8633  0.5312
 4009SOL     OW23662   0.040   4.738  11.323  0.4687 -0.1903 -0.1767
 4009SOL    HW123663   0.073   0.041  11.403  0.2057  0.3951 -0.3725
 4009SOL    HW223664   0.117   4.697  11.285  1.2931 -0.4187  1.7132
 4010SOL     OW23665   3.373   2.776   5.635 -0.3238 -0.6584  0.1386
 4010SOL    HW123666   3.399   2.719   5.562 -0.7521 -0.5403 -0.1089
 4010SOL    HW223667   3.294   2.727   5.660 -1.3125  1.4628  1.1462
 4011SOL     OW23668   3.748   1.936   3.575  0.2553 -0.5102 -0.8694
 4011SOL    HW123669   3.815   1.935   3.643  0.9501  0.2518 -1.5396
 4011SOL    HW223670   3.760   2.022   3.534  2.9115 -0.3072  0.3379
 4012SOL     OW23671   3.887   3.814   6.906  0.0974  0.6326 -0.4104
 4012SOL    HW123672   3.816   3.815   6.970  0.3115 -2.5787 -0.0842
 4012SOL    HW223673   3.872   3.901   6.871 -2.0315 -0.3164 -1.8572
 4013SOL     OW23674   0.281   4.566   9.809  0.6681  0.3675  0.2228
 4013SOL    HW123675   0.247   4.639   9.860 -0.9080  0.3045 -0.7530
 4013SOL    HW223676   0.206   4.509   9.791  1.6255 -1.0106  0.5693
 4014SOL     OW23677   2.540   1.969  10.093  0.3352  0.3386  0.0053
 4014SOL    HW123678   2.464   2.021  10.069  0.1436  0.0538  0.0053
 4014SOL    HW223679   2.494   1.896  10.134 -3.0433  2.0914 -0.6647
 4015SOL     OW23680   3.928   3.929   3.226  0.5337 -0.6305 -0.6029
 4015SOL    HW123681   3.836   3.919   3.199  0.6452  0.7618 -1.4781
 4015SOL    HW223682   3.950   4.009   3.180 -2.1806  0.9144  0.7480
 4016SOL     OW23683   4.604   3.734  10.842 -1.0557  0.4371  0.1069
 4016SOL    HW123684   4.588   3.677  10.767 -3.3899  0.8693  0.2980
 4016SOL    HW223685   4.589   3.678  10.919  0.6712  0.1424  0.2399
 4017SOL     OW23686   1.401   1.376  14.212  0.2117 -0.0683  0.2319
 4017SOL    HW123687   1.329   1.428  14.175 -0.6958 -0.8097  0.9374
 4017SOL    HW223688   1.473   1.409  14.158 -0.2996  1.2723  0.3529
 4018SOL     OW23689   1.498   0.414   7.146  0.0110  0.1259 -0.1663
 4018SOL    HW123690   1.430   0.469   7.107  0.9583  0.5445 -1.2202
 4018SOL    HW223691   1.568   0.434   7.085  1.5559 -1.3784  1.1340
 4019SOL     OW23692   2.203   2.794   0.578 -0.9093  0.2937 -0.1220
 4019SOL    HW123693   2.254   2.782   0.658 -1.0252  1.3366  0.1012
 4019SOL    HW223694   2.262   2.852   0.529 -0.5228 -0.5226 -0.6301
 4020SOL     OW23695   2.096   0.114  15.034 -0.1135  0.2079 -0.1794
 4020SOL    HW123696   2.127   0.053  14.968  2.4846  0.8083  0.5020
 4020SOL    HW223697   2.052   0.177  14.976  0.3062  0.7253  0.0611
 4021SOL     OW23698   0.052   0.614   8.543  0.2146 -0.0487 -0.2802
 4021SOL    HW123699   4.725   0.660   8.491  0.3037 -0.0799 -0.4204
 4021SOL    HW223700   0.007   0.533   8.520  1.2698  0.0134 -2.5932
 4022SOL     OW23701   3.505   3.154   3.541 -0.0288 -0.4608  0.4798
 4022SOL    HW123702   3.559   3.081   3.571  0.6502  0.4383  1.4465
 4022SOL    HW223703   3.550   3.186   3.462  0.2286 -1.3941  0.2489
 4023SOL     OW23704   2.713   0.611  16.298  0.3614 -0.2249 -0.4568
 4023SOL    HW123705   2.774   0.679  16.326 -0.0820 -0.6282  1.4911
 4023SOL    HW223706   2.758   0.540  16.345  1.5275 -0.3547 -1.7949
 4024SOL     OW23707   3.586   4.354   1.003 -0.6837 -0.2791 -0.2244
 4024SOL    HW123708   3.602   4.346   1.097 -1.1355  0.9295 -0.0433
 4024SOL    HW223709   3.493   4.335   0.994 -0.4471 -0.8429 -1.5134
 4025SOL     OW23710   0.324   3.487  15.880  0.2422 -0.4342 -0.4568
 4025SOL    HW123711   0.345   3.472  15.788 -1.7939 -0.7318 -0.8693
 4025SOL    HW223712   0.378   3.416  15.915  1.4808  1.8889  2.2636
 4026SOL     OW23713   1.858   3.508   2.446 -0.5115  0.4928  0.0333
 4026SOL    HW123714   1.863   3.451   2.523  1.1519  2.5376  1.4789
 4026SOL    HW223715   1.944   3.496   2.405 -0.4588  1.6004 -0.1841
 4027SOL     OW23716   2.503   1.798  10.470  0.1237  0.3479  0.3623
 4027SOL    HW123717   2.591   1.836  10.475 -0.2529  0.9975  2.1731
 4027SOL    HW223718   2.473   1.794  10.561  0.1010 -0.9111  0.2953
 4028SOL     OW23719   3.698   3.109   9.074 -0.0930  0.0677 -0.0145
 4028SOL    HW123720   3.677   3.182   9.131  1.4020  1.2546 -1.0015
 4028SOL    HW223721   3.644   3.145   9.004 -0.8150  0.6399  0.8310
 4029SOL     OW23722   0.086   0.007   8.640 -0.5287  0.2955 -0.7432
 4029SOL    HW123723   0.166   0.014   8.588  0.7766  0.1050  1.2395
 4029SOL    HW223724   0.057   4.654   8.643 -0.8914  0.5083  2.0627
 4030SOL     OW23725   1.472   1.934   3.774  0.0362 -0.0248  0.3139
 4030SOL    HW123726   1.439   1.865   3.831 -1.8636  0.9093  0.3566
 4030SOL    HW223727   1.404   1.999   3.793  0.7146 -0.1269  3.0795
 4031SOL     OW23728   4.615   0.234  11.981 -0.2495  0.3544  0.0819
 4031SOL    HW123729   4.532   0.195  12.008  0.2264 -0.8476 -0.1846
 4031SOL    HW223730   4.617   0.310  12.039 -1.5751  1.5808 -1.4738
 4032SOL     OW23731   1.640   1.108  12.369  0.4637 -0.2160 -0.4392
 4032SOL    HW123732   1.666   1.045  12.436  0.4274  0.5959  0.3376
 4032SOL    HW223733   1.559   1.066  12.340  0.4813 -1.4896  1.3563
 4033SOL     OW23734   3.518   2.137   4.863 -0.3162  0.5859 -0.1223
 4033SOL    HW123735   3.504   2.046   4.890 -1.2666  0.4762 -0.9511
 4033SOL    HW223736   3.584   2.120   4.796 -1.8672 -0.2629 -1.4486
 4034SOL     OW23737   4.373   0.423  15.933 -0.1652  0.2662 -0.1458
 4034SOL    HW123738   4.388   0.387  15.845 -0.3747  1.3825 -0.6347
 4034SOL    HW223739   4.379   0.514  15.905 -3.0667  0.2935 -0.6288
 4035SOL     OW23740   4.565   0.520   9.618  0.3173 -0.4830  0.1090
 4035SOL    HW123741   4.655   0.504   9.591 -0.6402 -0.4896 -3.1340
 4035SOL    HW223742   4.578   0.486   9.706  0.3366  0.8629  0.6312
 4036SOL     OW23743   2.090   1.172   6.287 -0.1179 -0.2252  0.4305
 4036SOL    HW123744   2.139   1.229   6.346 -0.3029  0.1632  0.2034
 4036SOL    HW223745   2.139   1.182   6.205  0.1386  2.4693  0.9221
 4037SOL     OW23746   4.291   3.013  17.200  0.1271  0.2219 -0.1288
 4037SOL    HW123747   4.338   2.929  17.192 -0.3184 -0.0904  0.5499
 4037SOL    HW223748   4.351   3.066  17.147  0.6028 -0.5874 -0.4031
 4038SOL     OW23749   0.879   2.806   1.191 -0.7413 -0.5496 -0.0287
 4038SOL    HW123750   0.952   2.751   1.161  0.2846  0.5785  0.3968
 4038SOL    HW223751   0.909   2.840   1.275 -1.8174 -1.5276  0.7454
 4039SOL     OW23752   3.161   4.142   9.428 -0.1295 -0.1842 -0.1976
 4039SOL    HW123753   3.204   4.083   9.366  0.6846 -0.3341  0.5081
 4039SOL    HW223754   3.182   4.100   9.512 -0.2985 -0.5622 -0.3456
 4040SOL     OW23755   1.645   0.554   2.037 -0.7756 -0.3114  0.1210
 4040SOL    HW123756   1.609   0.524   2.120  1.7470 -1.4310  0.8149
 4040SOL    HW223757   1.652   0.472   1.989  1.3230  1.2499 -2.2786
 4041SOL     OW23758   1.870   2.308  13.094 -0.1626 -1.0135 -0.4580
 4041SOL    HW123759   1.847   2.392  13.134 -0.7309 -0.1033 -2.6801
 4041SOL    HW223760   1.960   2.331  13.073 -0.0314 -0.5447  0.6116
 4042SOL     OW23761   0.498   0.100   1.294  0.4438 -0.2604  0.5986
 4042SOL    HW123762   0.420   0.155   1.308  0.8088  1.2655 -3.3069
 4042SOL    HW223763   0.480   0.050   1.374 -1.0095 -1.0287 -0.2130
 4043SOL     OW23764   2.368   2.442   5.363 -0.0130 -0.0169 -0.0848
 4043SOL    HW123765   2.316   2.398   5.431 -0.2175  0.3234 -0.0236
 4043SOL    HW223766   2.430   2.493   5.414 -1.1997  0.6450  0.7144
 4044SOL     OW23767   3.246   4.672   5.983 -0.2672 -0.2554  0.0611
 4044SOL    HW123768   3.207   4.604   5.927 -0.0836 -0.0967 -0.2627
 4044SOL    HW223769   3.174   4.735   5.986  1.2826  1.6020 -1.4485
 4045SOL     OW23770   1.377   4.693  15.317 -0.5139 -0.2266 -0.0603
 4045SOL    HW123771   1.327   0.031  15.346 -1.5400 -0.1027 -2.1379
 4045SOL    HW223772   1.391   4.644  15.398 -0.1026  1.6196  0.9908
 4046SOL     OW23773   0.252   4.584   0.945 -0.1503  0.2147  0.2556
 4046SOL    HW123774   0.335   4.602   0.989  0.3967 -2.6227  0.3660
 4046SOL    HW223775   0.232   4.498   0.982  1.3083  0.6021  1.9099
 4047SOL     OW23776   3.621   0.079   9.421  0.1477  0.1299 -0.0569
 4047SOL    HW123777   3.634   0.125   9.339 -1.4766  1.0136  0.1809
 4047SOL    HW223778   3.567   0.007   9.390 -1.1924  2.2723 -2.6597
 4048SOL     OW23779   3.872   2.380   4.268  0.0248  0.0264  0.0716
 4048SOL    HW123780   3.814   2.305   4.260  0.6105 -0.5884  1.6170
 4048SOL    HW223781   3.846   2.435   4.194 -0.6888  0.1963  0.4577
 4049SOL     OW23782   2.641   2.462  16.761 -0.0291 -0.0397  0.3855
 4049SOL    HW123783   2.630   2.450  16.856 -1.0293  1.6402  0.5023
 4049SOL    HW223784   2.554   2.431  16.734  0.5367 -0.9198 -0.3996
 4050SOL     OW23785   3.560   2.450   4.277  0.1320  0.1711 -0.0495
 4050SOL    HW123786   3.538   2.365   4.315 -0.6550 -0.3053 -1.5909
 4050SOL    HW223787   3.491   2.456   4.211  0.9667  0.0354 -0.9388
 4051SOL     OW23788   0.772   2.382   3.697 -0.1235 -0.0017  0.0334
 4051SOL    HW123789   0.821   2.458   3.668 -2.6176  1.4674 -0.3680
 4051SOL    HW223790   0.826   2.304   3.710  0.4872  0.7097  1.8319
 4052SOL     OW23791   1.593   2.301   4.687 -0.1909 -0.5609  0.3722
 4052SOL    HW123792   1.670   2.263   4.646 -0.1064  1.1832 -1.0750
 4052SOL    HW223793   1.564   2.241   4.756 -3.0269  0.5222  0.1420
 4053SOL     OW23794   3.180   1.725   2.208 -0.5479  0.1723 -0.0698
 4053SOL    HW123795   3.100   1.708   2.258 -0.4757 -2.6302 -0.8926
 4053SOL    HW223796   3.164   1.718   2.114 -0.1005  1.7814 -0.2743
 4054SOL     OW23797   3.484   2.151   6.662  0.3241 -0.1676  0.1923
 4054SOL    HW123798   3.576   2.159   6.637 -0.2738  0.6545 -1.7683
 4054SOL    HW223799   3.466   2.233   6.708  2.7661  0.3141  0.2549
 4055SOL     OW23800   0.698   4.184  10.649 -0.0877 -0.3083  0.0845
 4055SOL    HW123801   0.699   4.089  10.645 -1.8398 -0.2407 -2.0048
 4055SOL    HW223802   0.629   4.191  10.715 -1.2497  0.9761 -1.2236
 4056SOL     OW23803   0.626   2.085   5.696  0.3305 -0.2018 -0.0046
 4056SOL    HW123804   0.677   2.166   5.687  1.3878 -1.0012 -1.1482
 4056SOL    HW223805   0.638   2.041   5.612 -2.1512 -0.9420  0.0410
 4057SOL     OW23806   1.105   2.046   7.382  0.3696  0.2661 -0.1870
 4057SOL    HW123807   1.152   1.993   7.446  0.4385 -0.4898 -0.8713
 4057SOL    HW223808   1.143   2.134   7.390  2.5937 -0.5037 -2.3002
 4058SOL     OW23809   4.501   1.971   7.078 -0.4154 -0.2548 -0.2496
 4058SOL    HW123810   4.418   1.952   7.036 -1.1577 -0.7026  1.3979
 4058SOL    HW223811   4.522   2.056   7.041 -1.6133 -1.1913 -3.0230
 4059SOL     OW23812   0.489   2.029   4.015 -0.0671  0.2805 -0.1865
 4059SOL    HW123813   0.403   2.040   3.974  0.8803  0.7044 -2.1046
 4059SOL    HW223814   0.471   1.964   4.083  0.3189  0.8378  0.4444
 4060SOL     OW23815   2.539   2.060  15.929  0.1977 -0.1345  0.0596
 4060SOL    HW123816   2.490   2.125  15.879  1.7951  0.3495 -0.8802
 4060SOL    HW223817   2.629   2.091  15.920  0.8873 -2.9362 -2.5799
 4061SOL     OW23818   4.366   4.366   3.691 -0.2391 -0.2408  0.3630
 4061SOL    HW123819   4.457   4.391   3.707  0.3024 -1.9736 -0.0325
 4061SOL    HW223820   4.370   4.284   3.642  0.2271 -0.2248  0.3785
 4062SOL     OW23821   4.051   2.044  13.704  0.5471  0.7912  0.0433
 4062SOL    HW123822   4.109   2.045  13.628 -0.3372 -0.4462 -0.6466
 4062SOL    HW223823   4.029   1.952  13.713  0.6305  0.9187  1.5468
 4063SOL     OW23824   1.120   0.524   7.796  0.3688 -0.5373 -0.1377
 4063SOL    HW123825   1.095   0.440   7.834  3.2703 -1.1978  0.3052
 4063SOL    HW223826   1.209   0.509   7.764  0.1226 -2.4902  0.0988
 4064SOL     OW23827   3.287   4.546   0.927 -0.0854 -0.2181  0.2856
 4064SOL    HW123828   3.361   4.594   0.965 -1.2571  2.4416 -0.8367
 4064SOL    HW223829   3.218   4.561   0.992  0.2427  1.7220  0.1742
 4065SOL     OW23830   4.596   0.397   1.493 -0.3297  0.3036  0.6234
 4065SOL    HW123831   4.659   0.384   1.422  0.0591  2.9365  0.4899
 4065SOL    HW223832   4.520   0.342   1.470  2.7111 -3.7788  0.3126
 4066SOL     OW23833   1.115   3.111   0.335  0.2832  0.2908 -0.1457
 4066SOL    HW123834   1.040   3.128   0.278  1.0162 -0.4089 -1.3249
 4066SOL    HW223835   1.177   3.155   0.277 -1.0731  0.6085 -1.3667
 4067SOL     OW23836   4.299   0.239  16.787  0.7253 -0.1821 -0.0182
 4067SOL    HW123837   4.266   0.243  16.877 -0.0066  3.8062 -0.5016
 4067SOL    HW223838   4.230   0.272  16.730 -0.5527 -1.3192  0.8776
 4068SOL     OW23839   3.422   3.511  14.154  0.3352 -0.1799  0.4576
 4068SOL    HW123840   3.456   3.598  14.174 -0.5265 -0.0354  1.2872
 4068SOL    HW223841   3.467   3.451  14.213 -0.1800 -2.1827 -1.1956
 4069SOL     OW23842   4.189   1.061   4.882 -0.2516 -0.1491  0.2819
 4069SOL    HW123843   4.260   1.012   4.924 -0.0556 -0.6669 -0.6578
 4069SOL    HW223844   4.124   0.993   4.862  0.4172 -0.5286 -0.6050
 4070SOL     OW23845   4.331   3.650   5.368  0.1515  0.1914  0.1796
 4070SOL    HW123846   4.298   3.626   5.455  3.3227 -2.0126  0.7624
 4070SOL    HW223847   4.342   3.742   5.393  0.5901  0.3981 -0.7712
 4071SOL     OW23848   0.802   3.875   0.532 -0.5364 -0.1704  0.6871
 4071SOL    HW123849   0.864   3.921   0.476 -0.5690 -0.7123  0.2050
 4071SOL    HW223850   0.763   3.959   0.557  0.2061  0.4710 -0.3287
 4072SOL     OW23851   4.249   3.751   6.340  0.8903  0.0033 -0.5462
 4072SOL    HW123852   4.303   3.685   6.296  1.3179  0.9826 -1.4893
 4072SOL    HW223853   4.177   3.693   6.364 -0.8414  1.1232 -2.9873
 4073SOL     OW23854   1.264   3.845  15.281 -0.4682  0.1267 -0.3822
 4073SOL    HW123855   1.335   3.790  15.315 -0.5791  0.0563 -0.2623
 4073SOL    HW223856   1.251   3.807  15.194 -0.5269 -0.0029 -0.3172
 4074SOL     OW23857   0.632   1.841   2.328  0.5838  0.1578 -0.3941
 4074SOL    HW123858   0.612   1.773   2.392  1.6633 -2.7152 -3.0593
 4074SOL    HW223859   0.725   1.820   2.318  0.1111 -2.5944  1.0684
 4075SOL     OW23860   3.016   1.695  11.172  0.0043 -0.0052 -0.6833
 4075SOL    HW123861   3.014   1.764  11.238 -2.3731 -0.3536 -0.3815
 4075SOL    HW223862   2.940   1.643  11.197 -0.5568  1.3190  0.3602
 4076SOL     OW23863   0.308   2.905   4.079  0.3401  0.0404 -0.3576
 4076SOL    HW123864   0.251   2.928   4.152  2.0646  1.5402  0.5323
 4076SOL    HW223865   0.336   2.823   4.121  0.5823  1.0339  1.4438
 4077SOL     OW23866   1.890   3.415  14.138 -0.4789  0.2969 -0.0079
 4077SOL    HW123867   1.923   3.350  14.076 -1.2732  0.6857 -0.8376
 4077SOL    HW223868   1.797   3.393  14.147 -0.4563  0.6143  0.9976
 4078SOL     OW23869   3.845   0.724   3.672 -0.0264 -0.0190 -0.4438
 4078SOL    HW123870   3.879   0.671   3.599  0.1588  1.4512 -1.4286
 4078SOL    HW223871   3.777   0.665   3.705  1.1373 -0.8659  0.4477
 4079SOL     OW23872   0.420   1.335   4.475  0.6433 -0.3966  0.5496
 4079SOL    HW123873   0.382   1.258   4.517 -0.5801  0.4599  1.0423
 4079SOL    HW223874   0.417   1.319   4.381 -1.8424  0.0970  0.5264
 4080SOL     OW23875   2.719   0.339   7.514  0.1709  0.1295  0.3445
 4080SOL    HW123876   2.673   0.347   7.430  1.3646 -1.8301 -0.5081
 4080SOL    HW223877   2.768   0.257   7.502  0.2677 -0.3314  3.8631
 4081SOL     OW23878   2.008   2.405  13.396  0.1670 -0.3928 -0.0555
 4081SOL    HW123879   1.973   2.353  13.324 -1.0370  0.9536 -0.4511
 4081SOL    HW223880   2.072   2.463  13.354  0.8666 -1.7529 -0.8310
 4082SOL     OW23881   1.833   0.594   3.718  0.3427 -0.4072  0.1151
 4082SOL    HW123882   1.784   0.532   3.771  0.5453 -0.5629  0.1184
 4082SOL    HW223883   1.833   0.551   3.633  1.3417  0.2585 -0.2209
 4083SOL     OW23884   2.950   1.419   5.864 -0.4630  0.4429  0.3827
 4083SOL    HW123885   2.979   1.386   5.949  0.5530  0.8205  0.1884
 4083SOL    HW223886   2.933   1.507   5.899 -1.2027  0.8080 -0.9153
 4084SOL     OW23887   3.806   1.439  12.554 -0.1892  0.1896 -0.2962
 4084SOL    HW123888   3.897   1.444  12.524  0.4544 -0.7478  1.5426
 4084SOL    HW223889   3.817   1.444  12.649  1.6498  0.8404 -0.5302
 4085SOL     OW23890   0.328   2.665   5.553 -0.2017  0.5091  0.2602
 4085SOL    HW123891   0.402   2.652   5.612 -0.0230  1.1206  0.1766
 4085SOL    HW223892   0.361   2.634   5.469  1.1235  1.1290  0.5465
 4086SOL     OW23893   2.275   4.414   8.189  0.1895 -0.0231  0.1271
 4086SOL    HW123894   2.305   4.326   8.164 -0.6302 -0.8463  1.9689
 4086SOL    HW223895   2.261   4.398   8.283  3.1074  0.1129  0.5782
 4087SOL     OW23896   1.044   2.376  15.654  0.3140  0.0981  0.1408
 4087SOL    HW123897   0.990   2.431  15.598  2.6082 -0.5788 -2.7566
 4087SOL    HW223898   1.002   2.386  15.739  2.6924  1.1088  1.1965
 4088SOL     OW23899   4.085   0.851   2.998 -0.5909 -0.5979 -0.0332
 4088SOL    HW123900   4.165   0.813   3.035 -1.0193 -0.0476  1.4945
 4088SOL    HW223901   4.072   0.921   3.062 -1.3997 -1.7801  1.1045
 4089SOL     OW23902   0.487   4.132  16.414  0.7164  0.0707 -0.2940
 4089SOL    HW123903   0.409   4.172  16.453  0.3378 -2.3097  1.4011
 4089SOL    HW223904   0.453   4.132  16.325  0.2660 -0.3555 -0.1205
 4090SOL     OW23905   3.414   1.542  17.644 -0.6036 -0.0612  0.3361
 4090SOL    HW123906   3.443   1.476  17.708  0.5671 -0.1168 -0.2601
 4090SOL    HW223907   3.325   1.510  17.627 -0.3251  0.0105 -1.2468
 4091SOL     OW23908   3.823   4.293   7.948  0.2340  0.2394  0.1626
 4091SOL    HW123909   3.899   4.274   7.892 -0.8670  0.8323 -1.5316
 4091SOL    HW223910   3.856   4.362   8.004  0.3834  0.2157  0.1037
 4092SOL     OW23911   3.993   0.584   0.484 -0.5151 -0.4685  0.3965
 4092SOL    HW123912   4.071   0.583   0.540 -0.4162  1.0680  0.2815
 4092SOL    HW223913   4.026   0.595   0.395 -1.2074  1.7505  0.4231
 4093SOL     OW23914   2.628   1.020   5.928  0.5512 -0.3973  0.2448
 4093SOL    HW123915   2.624   1.110   5.962 -1.1792 -0.0351 -0.8845
 4093SOL    HW223916   2.551   0.989   5.976  2.3025 -0.7407  2.8025
 4094SOL     OW23917   1.236   4.165  14.437 -0.0346  0.0534  0.0329
 4094SOL    HW123918   1.279   4.083  14.412  0.3447  0.6698 -1.3321
 4094SOL    HW223919   1.155   4.139  14.481 -1.0930  1.3234 -1.1881
 4095SOL     OW23920   4.682   1.209   6.931 -0.2742 -0.1375 -0.0596
 4095SOL    HW123921   4.632   1.144   6.981 -2.1649  0.8430 -0.6685
 4095SOL    HW223922   4.643   1.291   6.963  0.1103 -0.5108  1.4020
 4096SOL     OW23923   2.282   0.566   2.772 -0.1799 -0.1428 -0.2080
 4096SOL    HW123924   2.351   0.633   2.780  0.6915 -1.0774  0.1526
 4096SOL    HW223925   2.206   0.606   2.814  0.6361 -0.1872  1.3529
 4097SOL     OW23926   2.156   0.024   6.823 -0.0229 -0.8528  0.3970
 4097SOL    HW123927   2.083   0.081   6.847 -0.8532 -2.1788  0.9783
 4097SOL    HW223928   2.223   0.038   6.891  0.6252 -0.1486 -0.3773
 4098SOL     OW23929   4.540   1.732   8.952 -0.3702 -0.4541 -0.4790
 4098SOL    HW123930   4.546   1.638   8.972  0.5627 -0.0468  1.1995
 4098SOL    HW223931   4.605   1.758   9.018  0.2814  1.9004 -2.0554
 4099SOL     OW23932   2.266   2.729   6.652 -0.2841  0.1212  0.4559
 4099SOL    HW123933   2.317   2.687   6.583  0.5455 -0.4993  1.4539
 4099SOL    HW223934   2.257   2.667   6.724 -0.4052 -1.2679 -0.7540
 4100SOL     OW23935   3.823   0.275   4.472  0.1589 -0.4480 -0.4864
 4100SOL    HW123936   3.745   0.263   4.525  0.4399  1.9339  0.4791
 4100SOL    HW223937   3.822   0.212   4.400 -0.7651 -2.2609  1.1196
 4101SOL     OW23938   4.282   4.106  15.190 -0.0906 -0.1700 -0.0290
 4101SOL    HW123939   4.247   4.017  15.195 -0.2952 -0.1009 -0.2311
 4101SOL    HW223940   4.356   4.098  15.251  1.6078  3.3909 -1.6246
 4102SOL     OW23941   1.835   2.491   5.089 -0.5475  0.2730 -0.1752
 4102SOL    HW123942   1.762   2.435   5.114  0.4260 -0.0846  1.8890
 4102SOL    HW223943   1.815   2.503   4.996 -2.2140 -1.6281 -0.0569
 4103SOL     OW23944   2.823   0.131   7.122  0.6600 -0.5263 -0.4798
 4103SOL    HW123945   2.861   0.186   7.191 -1.2671  0.5021 -0.2299
 4103SOL    HW223946   2.870   0.168   7.047 -0.4284  2.2547  0.2134
 4104SOL     OW23947   3.135   3.701   9.139 -0.4009 -0.4116  0.3971
 4104SOL    HW123948   3.056   3.662   9.102  1.9135 -3.3705 -1.4260
 4104SOL    HW223949   3.169   3.635   9.199  0.0688 -2.3763 -2.0424
 4105SOL     OW23950   1.281   2.170   7.027  0.1457 -0.3347 -0.4108
 4105SOL    HW123951   1.230   2.244   7.060 -0.5174 -1.0926  0.2892
 4105SOL    HW223952   1.367   2.210   7.020 -0.1778  0.1887 -1.3066
 4106SOL     OW23953   0.292   4.210   1.206  0.1288  0.1469 -0.2046
 4106SOL    HW123954   0.310   4.304   1.202 -1.7425  0.6013  1.5827
 4106SOL    HW223955   0.359   4.169   1.261 -1.5611 -2.6787 -0.2629
 4107SOL     OW23956   4.152   2.654   6.853 -0.4076 -0.6575 -0.1443
 4107SOL    HW123957   4.130   2.695   6.937 -2.3777 -1.0167 -0.4743
 4107SOL    HW223958   4.153   2.565   6.889  3.0166  0.1245  1.6648
 4108SOL     OW23959   2.510   4.279   7.711  0.1445 -0.1887 -0.0398
 4108SOL    HW123960   2.500   4.216   7.640 -0.1242 -1.4701  1.1464
 4108SOL    HW223961   2.587   4.248   7.758 -0.1845 -1.5937 -0.4286
 4109SOL     OW23962   3.045   2.590   7.286 -0.2292  0.1521  0.2383
 4109SOL    HW123963   3.026   2.499   7.311 -2.2540  0.7812  1.0197
 4109SOL    HW223964   3.020   2.590   7.194 -0.1533 -1.1320  0.2181
 4110SOL     OW23965   3.609   2.804   2.106 -0.3659 -0.2527  0.6486
 4110SOL    HW123966   3.687   2.777   2.058 -1.1401 -0.3653 -0.5431
 4110SOL    HW223967   3.650   2.838   2.185 -0.0715  2.2218 -0.5727
 4111SOL     OW23968   0.510   4.564   5.549  0.1034 -0.4380  0.9966
 4111SOL    HW123969   0.530   4.560   5.455  1.5831  2.1547  1.2146
 4111SOL    HW223970   0.467   4.649   5.557  1.3531  0.1932  0.8966
 4112SOL     OW23971   1.221   3.319  10.920  0.0912  0.2798 -0.0830
 4112SOL    HW123972   1.301   3.348  10.876  0.3980 -0.9245 -0.3207
 4112SOL    HW223973   1.204   3.385  10.988 -0.6840 -0.2249  0.2202
 4113SOL     OW23974   2.594   2.496   4.361  0.5034  0.0331  0.0484
 4113SOL    HW123975   2.504   2.526   4.362  0.2356 -0.6851 -2.1835
 4113SOL    HW223976   2.638   2.579   4.344 -0.0712  0.5186  0.9699
 4114SOL     OW23977   1.539   2.430   3.809 -0.1597  0.0314  0.1856
 4114SOL    HW123978   1.471   2.385   3.759 -0.0195  1.7305 -1.5288
 4114SOL    HW223979   1.493   2.513   3.821 -1.7092 -0.8059  0.0723
 4115SOL     OW23980   2.300   2.302  11.592  0.6861  0.0754 -0.3362
 4115SOL    HW123981   2.379   2.272  11.638  0.0222 -1.7484 -0.3918
 4115SOL    HW223982   2.270   2.370  11.652 -1.6956 -1.8069  0.5782
 4116SOL     OW23983   0.408   3.944   1.822  0.0199 -0.0031 -0.1332
 4116SOL    HW123984   0.360   3.878   1.873  0.4343 -0.2870 -0.1109
 4116SOL    HW223985   0.420   3.907   1.735  0.6744  0.1982 -0.1291
 4117SOL     OW23986   3.536   4.380   7.476  0.1995  0.2647  0.5979
 4117SOL    HW123987   3.598   4.328   7.526 -0.3034  0.7784  1.7590
 4117SOL    HW223988   3.460   4.392   7.533 -0.5914  1.7569 -0.7497
 4118SOL     OW23989   3.163   0.921   2.410  0.3547  0.5960  0.2172
 4118SOL    HW123990   3.161   0.895   2.318  0.0694 -1.4602  0.8022
 4118SOL    HW223991   3.240   0.871   2.436  1.0478  0.5527 -1.9484
 4119SOL     OW23992   0.938   3.485  14.774 -0.0949 -0.1141  0.4072
 4119SOL    HW123993   0.864   3.493  14.714 -0.6098 -0.6713  0.9631
 4119SOL    HW223994   0.967   3.575  14.790 -0.1264  0.0623 -0.5405
 4120SOL     OW23995   4.245   3.161   7.783 -0.0261  0.7265  0.2382
 4120SOL    HW123996   4.213   3.235   7.834  1.7082  1.3270  0.4386
 4120SOL    HW223997   4.201   3.087   7.825 -1.6352  1.4083 -0.2354
 4121SOL     OW23998   3.129   0.869   6.612 -0.4635  0.1413  0.0759
 4121SOL    HW123999   3.169   0.801   6.558  2.3053  1.2159  0.7280
 4121SOL    HW224000   3.051   0.817   6.628 -0.2589  0.5611  2.5724
 4122SOL     OW24001   0.412   2.241   3.273 -0.0703 -0.5452 -0.0902
 4122SOL    HW124002   0.463   2.270   3.198  0.1669 -2.0175 -0.4997
 4122SOL    HW224003   0.477   2.219   3.339 -0.6846 -0.7794  0.4426
 4123SOL     OW24004   3.139   0.098   3.308  0.3733 -0.2309 -0.3088
 4123SOL    HW124005   3.134   0.193   3.319  1.8456 -0.0281 -1.3302
 4123SOL    HW224006   3.149   0.078   3.401  1.5348  0.2170 -0.3329
 4124SOL     OW24007   1.813   1.886   6.444  0.2035 -0.4223  1.1823
 4124SOL    HW124008   1.733   1.918   6.403  0.7099 -2.1601 -1.1356
 4124SOL    HW224009   1.840   1.974   6.470  1.6034 -0.4320 -0.2084
 4125SOL     OW24010   1.069   1.453   3.817 -0.1477 -0.4060 -0.2560
 4125SOL    HW124011   1.039   1.414   3.899 -0.7076  3.9685  1.6251
 4125SOL    HW224012   0.986   1.463   3.770  0.5311 -0.0442 -1.3989
 4126SOL     OW24013   4.278   2.739  17.367  0.4384 -0.3189  0.2210
 4126SOL    HW124014   4.318   2.750  17.281 -0.2269 -1.8939 -0.2795
 4126SOL    HW224015   4.240   2.654  17.346  1.5536 -0.8803  0.4985
 4127SOL     OW24016   2.502   1.702  11.232 -0.3215 -0.2234  0.0925
 4127SOL    HW124017   2.576   1.726  11.287  0.2076 -4.0843  1.0709
 4127SOL    HW224018   2.431   1.752  11.273  1.6447  2.0243  0.7179
 4128SOL     OW24019   4.315   1.503  13.264 -0.2147 -0.5936 -0.2571
 4128SOL    HW124020   4.347   1.483  13.352  0.3170 -0.8443 -0.5097
 4128SOL    HW224021   4.229   1.540  13.287 -1.5802 -3.6086 -0.4903
 4129SOL     OW24022   4.129   2.679   3.239 -0.2144 -0.2361  0.1478
 4129SOL    HW124023   4.082   2.665   3.320 -1.5872 -0.2490 -0.6506
 4129SOL    HW224024   4.160   2.769   3.252 -1.0253 -0.3353  2.6377
 4130SOL     OW24025   2.944   0.828   3.664  0.3570 -0.2713  0.4235
 4130SOL    HW124026   3.026   0.816   3.712  1.1291  2.6062 -0.1223
 4130SOL    HW224027   2.889   0.834   3.742 -1.4088  0.9231 -0.9210
 4131SOL     OW24028   1.886   2.889   0.017 -0.3602  0.3388  0.0994
 4131SOL    HW124029   1.911   2.839   0.095 -0.1679 -0.1394 -0.2689
 4131SOL    HW224030   1.976   2.898  17.737 -1.1181  3.7810 -1.0563
 4132SOL     OW24031   3.394   2.536   1.582  0.3330  0.2087  0.2884
 4132SOL    HW124032   3.428   2.566   1.497 -0.4697  2.4208  0.7453
 4132SOL    HW224033   3.473   2.499   1.621  2.4172  2.0905 -2.1026
 4133SOL     OW24034   3.495   4.092   3.459 -0.1166  0.5261 -0.7503
 4133SOL    HW124035   3.418   4.076   3.514  0.5322  0.2968  0.0753
 4133SOL    HW224036   3.564   4.083   3.524 -1.1540  1.4507  0.4888
 4134SOL     OW24037   0.283   4.648   8.921  0.5793  0.1787 -0.2396
 4134SOL    HW124038   0.343   4.655   8.847  1.9770  0.7795  0.9709
 4134SOL    HW224039   0.225   4.581   8.883  0.2493 -1.2212  2.7761
 4135SOL     OW24040   0.598   3.589   8.886  0.0429  0.0211  0.3703
 4135SOL    HW124041   0.524   3.534   8.862  0.6447 -0.7158  0.2239
 4135SOL    HW224042   0.669   3.543   8.841 -0.0854 -1.7600  2.0129
 4136SOL     OW24043   2.539   2.293   1.833  0.6382  0.3514 -0.1014
 4136SOL    HW124044   2.476   2.222   1.848 -1.3164  2.2962  0.8942
 4136SOL    HW224045   2.576   2.316   1.919 -0.4285  2.9321 -0.3657
 4137SOL     OW24046   4.548   2.075   7.349 -0.1654 -0.2577  0.0445
 4137SOL    HW124047   4.503   2.016   7.410  0.6388  0.3629  1.2332
 4137SOL    HW224048   4.508   2.056   7.264 -0.7583 -2.1420  0.7368
 4138SOL     OW24049   3.993   2.655  14.985  0.9664  0.8222  0.4638
 4138SOL    HW124050   4.018   2.592  15.052 -1.1142  0.3985  0.8621
 4138SOL    HW224051   4.057   2.642  14.915 -1.2120  0.0395 -1.4073
 4139SOL     OW24052   1.110   2.377   3.583 -0.3045  0.1329 -0.4088
 4139SOL    HW124053   1.200   2.395   3.609 -0.8601  1.2730  0.6867
 4139SOL    HW224054   1.057   2.390   3.662 -1.1924  1.1309 -1.1779
 4140SOL     OW24055   3.595   1.597   1.935 -0.4052  0.3542 -0.2755
 4140SOL    HW124056   3.547   1.663   1.986 -1.7196 -0.9497  0.1688
 4140SOL    HW224057   3.545   1.592   1.854  0.7208  2.5128 -1.0949
 4141SOL     OW24058   3.070   0.099   8.893  0.0250 -0.2112  0.3988
 4141SOL    HW124059   3.037   0.097   8.803 -0.7588  1.9593  0.6449
 4141SOL    HW224060   3.160   0.073   8.874 -0.1873 -0.1651 -0.6626
 4142SOL     OW24061   2.379   1.782  14.141 -0.0731  0.0603 -0.1328
 4142SOL    HW124062   2.332   1.745  14.066  0.0437 -2.3159  0.9671
 4142SOL    HW224063   2.405   1.865  14.102  1.1890 -0.7741 -1.0780
 4143SOL     OW24064   2.175   1.164  13.175  0.6364 -0.6466 -0.6393
 4143SOL    HW124065   2.153   1.075  13.200  1.0293 -0.7119 -0.5157
 4143SOL    HW224066   2.245   1.201  13.230  1.4856 -1.6098 -1.0712
 4144SOL     OW24067   3.852   4.259   5.139 -0.1340  0.5688  0.0938
 4144SOL    HW124068   3.770   4.280   5.094  0.2488 -0.5374 -1.1147
 4144SOL    HW224069   3.912   4.333   5.131  1.5426 -0.7554  0.3962
 4145SOL     OW24070   3.018   0.811   7.515 -0.0924 -0.6990  0.5600
 4145SOL    HW124071   3.022   0.897   7.557  2.5222  0.0828 -1.2997
 4145SOL    HW224072   2.925   0.794   7.506 -0.1731 -0.4848  0.9826
 4146SOL     OW24073   3.643   3.069   1.683  0.2189  0.2113 -0.3626
 4146SOL    HW124074   3.623   3.065   1.777  1.5923  3.2719  0.0567
 4146SOL    HW224075   3.738   3.078   1.696  0.3655  0.4255 -1.5755
 4147SOL     OW24076   0.444   0.735   2.875 -0.6835  0.1314  0.5789
 4147SOL    HW124077   0.477   0.775   2.794  2.0024  0.4466  1.8070
 4147SOL    HW224078   0.485   0.649   2.864 -0.6803  0.8240 -4.5538
 4148SOL     OW24079   4.402   1.535   1.614  0.0641 -0.0683  0.0581
 4148SOL    HW124080   4.407   1.474   1.541 -1.5124  0.4560 -0.4829
 4148SOL    HW224081   4.494   1.551   1.634  0.0154  0.0597  0.1853
 4149SOL     OW24082   2.044   2.196  13.599  0.0591  0.1620 -0.7502
 4149SOL    HW124083   1.950   2.182  13.594 -0.2900  2.1552  0.2702
 4149SOL    HW224084   2.063   2.246  13.519 -0.7104  0.0746 -0.9855
 4150SOL     OW24085   4.157   4.422   1.021 -0.3773 -0.1742 -0.1099
 4150SOL    HW124086   4.160   4.423   0.925 -1.2346  1.1126 -0.1109
 4150SOL    HW224087   4.064   4.426   1.041 -0.0704  1.4369  0.9056
 4151SOL     OW24088   1.004   3.325   4.013 -0.0283 -0.3614 -0.2935
 4151SOL    HW124089   1.081   3.275   4.041 -0.1863  0.6789  1.9319
 4151SOL    HW224090   1.033   3.415   4.022 -0.9050 -0.0970 -0.1434
 4152SOL     OW24091   1.882   2.198   6.767 -0.7693 -0.2071  0.0296
 4152SOL    HW124092   1.883   2.294   6.776  1.3161 -0.2794  0.5470
 4152SOL    HW224093   1.960   2.174   6.816  0.3731  1.8442 -0.7818
 4153SOL     OW24094   2.754   0.742   8.138  0.1198  0.9403 -0.0292
 4153SOL    HW124095   2.756   0.828   8.097 -3.5469 -0.0384 -2.2224
 4153SOL    HW224096   2.712   0.759   8.223  0.7785 -1.8269  0.8420
 4154SOL     OW24097   0.010   1.846   5.690 -0.1398 -0.2059 -0.3999
 4154SOL    HW124098   0.009   1.758   5.653 -2.1448  0.5367 -2.1086
 4154SOL    HW224099   0.022   1.887   5.604 -2.1374  0.0083 -0.5759
 4155SOL     OW24100   4.353   0.214   7.348 -0.4392 -0.4461  0.6501
 4155SOL    HW124101   4.269   0.186   7.384 -1.4864 -1.3285 -2.4104
 4155SOL    HW224102   4.363   0.303   7.380 -0.7846 -0.2906  0.3326
 4156SOL     OW24103   0.822   2.565   6.277 -0.3730 -0.0943  0.4081
 4156SOL    HW124104   0.788   2.523   6.355 -2.0655 -0.6555 -0.6488
 4156SOL    HW224105   0.745   2.616   6.254  1.0494  2.0105  0.2993
 4157SOL     OW24106   0.221   2.050   6.046 -0.1889 -0.1878  0.9158
 4157SOL    HW124107   0.187   2.018   6.129 -2.0775 -3.4157 -1.1065
 4157SOL    HW224108   0.289   1.991   6.015  0.2814  0.7496  0.1548
 4158SOL     OW24109   0.509   1.488   3.474 -0.7516  0.5054 -0.3571
 4158SOL    HW124110   0.438   1.468   3.414  1.7065 -1.5425 -2.5911
 4158SOL    HW224111   0.499   1.416   3.537 -2.6018 -1.6313 -3.1361
 4159SOL     OW24112   0.973   2.240   7.621  0.0974  0.3661 -0.0079
 4159SOL    HW124113   0.945   2.163   7.671 -0.5069 -1.7097 -3.5154
 4159SOL    HW224114   0.892   2.287   7.602 -0.4476 -0.2233  0.8582
 4160SOL     OW24115   0.220   4.574   6.187  0.0500 -0.2821 -0.3685
 4160SOL    HW124116   0.157   4.569   6.115 -0.3904  0.3842 -0.0251
 4160SOL    HW224117   0.300   4.568   6.135  0.9296  0.6450  0.8718
 4161SOL     OW24118   3.933   4.202   3.596  0.0911 -0.5813 -0.2726
 4161SOL    HW124119   3.986   4.274   3.561 -0.0754  0.1446  0.9764
 4161SOL    HW224120   3.962   4.133   3.537  2.0861  2.5155 -2.9195
 4162SOL     OW24121   1.109   1.936   1.272  0.1885  0.5806  0.5095
 4162SOL    HW124122   1.108   2.010   1.212  0.0075  0.7278  0.6928
 4162SOL    HW224123   1.174   1.964   1.337 -2.3778 -2.6681  4.4984
 4163SOL     OW24124   3.600   1.265   1.238  0.3107 -0.4408  0.1808
 4163SOL    HW124125   3.640   1.314   1.311  1.5483 -1.4008  0.1454
 4163SOL    HW224126   3.508   1.290   1.229 -0.0259 -1.9942 -0.6433
 4164SOL     OW24127   4.654   4.506   6.574  0.2730  0.2000  0.0372
 4164SOL    HW124128   4.565   4.534   6.595  0.1505 -0.3616  0.2677
 4164SOL    HW224129   4.690   4.584   6.532 -4.1838  1.1242 -2.0759
 4165SOL     OW24130   3.785   3.701   7.443 -0.1077  0.2367 -0.1230
 4165SOL    HW124131   3.823   3.664   7.523 -0.8519 -1.3044 -0.4819
 4165SOL    HW224132   3.697   3.667   7.455 -0.3330  1.2500  1.1164
 4166SOL     OW24133   4.251   2.185   9.005  0.4638 -0.5359 -0.0222
 4166SOL    HW124134   4.169   2.225   8.979  1.3820 -0.5006 -2.8254
 4166SOL    HW224135   4.230   2.152   9.093 -0.9187 -0.3851 -0.2992
 4167SOL     OW24136   3.392   2.681   3.268  0.1404 -0.3483 -0.4163
 4167SOL    HW124137   3.401   2.612   3.203 -0.7697 -0.5464 -0.3245
 4167SOL    HW224138   3.299   2.673   3.288  0.2564  2.7294  1.3257
 4168SOL     OW24139   4.354   3.783  12.358 -0.0364  0.2169 -0.2011
 4168SOL    HW124140   4.342   3.689  12.343  0.5275  0.3670 -1.6656
 4168SOL    HW224141   4.357   3.817  12.268 -0.6612 -2.1608 -1.1353
 4169SOL     OW24142   1.263   3.001   1.500 -0.0140 -0.1299  0.2793
 4169SOL    HW124143   1.237   3.024   1.410  2.1498  1.4853  0.0705
 4169SOL    HW224144   1.257   2.905   1.499 -0.5850 -0.1025  0.8964
 4170SOL     OW24145   4.089   0.629   8.049 -0.2353 -0.3033 -0.0444
 4170SOL    HW124146   4.077   0.716   8.088 -0.0855 -0.8176  1.1674
 4170SOL    HW224147   4.107   0.650   7.957  0.3350  1.8674  0.5484
 4171SOL     OW24148   4.664   2.198  10.763  0.3455  0.1560  0.4165
 4171SOL    HW124149   4.643   2.270  10.823 -0.4451  1.6186 -1.6275
 4171SOL    HW224150   4.589   2.148  10.793  0.9672 -1.4476 -0.7351
 4172SOL     OW24151   3.842   1.009   4.518 -0.4844  0.2759 -0.2357
 4172SOL    HW124152   3.915   0.957   4.487 -0.4935  0.2585 -0.2280
 4172SOL    HW224153   3.789   1.022   4.439  0.5608 -0.9027 -1.1126
 4173SOL     OW24154   1.132   2.495   5.295 -0.4722  0.0952 -0.1700
 4173SOL    HW124155   1.038   2.493   5.312 -0.5694  1.7205 -0.5795
 4173SOL    HW224156   1.169   2.444   5.367  2.2868  3.1463  0.5289
 4174SOL     OW24157   0.176   2.842   2.742  0.0305  0.1326 -0.4486
 4174SOL    HW124158   0.267   2.813   2.743  0.5629  1.8434  0.6634
 4174SOL    HW224159   0.179   2.934   2.768  1.3305  0.4447 -1.7583
 4175SOL     OW24160   2.910   4.329   3.940 -0.8112 -0.3192 -0.2901
 4175SOL    HW124161   2.975   4.264   3.967  0.1893 -0.6462 -3.4891
 4175SOL    HW224162   2.949   4.329   3.852 -0.2488  0.1483 -0.0404
 4176SOL     OW24163   1.651   0.561  14.878  0.1966  0.4059  0.4542
 4176SOL    HW124164   1.609   0.623  14.819  1.3826  0.6822 -0.0996
 4176SOL    HW224165   1.720   0.519  14.826 -1.1342 -1.8094  0.4327
 4177SOL     OW24166   3.600   1.593   4.885  0.4984 -0.6021 -0.2951
 4177SOL    HW124167   3.672   1.531   4.896 -0.1143 -1.0486  1.0779
 4177SOL    HW224168   3.533   1.536   4.920  0.5669 -0.7098 -0.3389
 4178SOL     OW24169   1.547   0.313  13.882 -0.1751 -0.2855  0.0830
 4178SOL    HW124170   1.625   0.274  13.843  0.8763  2.9396 -1.1078
 4178SOL    HW224171   1.470   0.278  13.838  1.0489 -0.9281 -1.5653
 4179SOL     OW24172   0.807   1.088   8.940 -0.1723  0.2602  0.0707
 4179SOL    HW124173   0.772   1.030   8.873  1.1316 -2.2094  1.5203
 4179SOL    HW224174   0.884   1.128   8.899 -0.4765  2.0729  1.2826
 4180SOL     OW24175   2.143   2.393  10.210  0.3914  0.7508 -0.5830
 4180SOL    HW124176   2.170   2.303  10.225 -0.4610  0.0968 -3.1393
 4180SOL    HW224177   2.054   2.392  10.244  0.5722 -0.5581 -0.1580
 4181SOL     OW24178   1.755   3.574   7.384 -0.3773  0.1211  0.0096
 4181SOL    HW124179   1.785   3.639   7.322  0.6641 -0.5094 -0.1520
 4181SOL    HW224180   1.833   3.519   7.394  0.0998  0.8946  0.5186
 4182SOL     OW24181   0.896   0.557   1.082  0.6069  0.0964 -0.0024
 4182SOL    HW124182   0.971   0.527   1.030  1.6409  0.6915  1.1391
 4182SOL    HW224183   0.821   0.543   1.025  0.5091 -0.3943  0.2447
 4183SOL     OW24184   1.483   0.901   9.206 -0.3373  0.1457  1.0086
 4183SOL    HW124185   1.461   0.846   9.281 -1.7753 -0.6535 -0.0062
 4183SOL    HW224186   1.417   0.970   9.210  0.4364  0.9420  0.1270
 4184SOL     OW24187   1.399   2.757   5.463  0.1233 -0.3151  0.2517
 4184SOL    HW124188   1.320   2.799   5.430  0.2647 -0.1216  0.1600
 4184SOL    HW224189   1.402   2.689   5.396 -2.7684 -1.2563  1.0704
 4185SOL     OW24190   4.318   0.296   8.381  0.2163 -0.1950 -0.0727
 4185SOL    HW124191   4.248   0.272   8.441  0.9576  0.6544  1.1275
 4185SOL    HW224192   4.274   0.324   8.301  3.6719  1.5990 -1.3754
 4186SOL     OW24193   2.371   4.093  13.375 -0.4755  0.5966  0.1225
 4186SOL    HW124194   2.438   4.160  13.391 -0.7529  1.4668 -2.3615
 4186SOL    HW224195   2.305   4.153  13.339 -0.1880  1.3250  0.8032
 4187SOL     OW24196   0.797   1.854   6.798 -0.3340  0.1462 -0.2863
 4187SOL    HW124197   0.780   1.828   6.707  0.5350 -1.0798 -0.0927
 4187SOL    HW224198   0.722   1.909   6.819  0.3746  1.1227 -0.3253
 4188SOL     OW24199   0.110   3.479   6.416 -0.0711  0.3160  0.1617
 4188SOL    HW124200   0.130   3.498   6.324 -0.2073  0.7732  0.2256
 4188SOL    HW224201   0.127   3.385   6.425  1.3110  0.4494 -1.0089
 4189SOL     OW24202   4.308   3.322   6.987  0.0103  0.4065  0.6310
 4189SOL    HW124203   4.360   3.358   6.915 -1.3524 -0.6783 -0.8943
 4189SOL    HW224204   4.287   3.231   6.966 -0.6185  0.4684  1.0083
 4190SOL     OW24205   3.979   3.266   3.482 -0.5383 -0.6360  0.1317
 4190SOL    HW124206   4.073   3.277   3.466 -1.0845 -0.9878 -3.3481
 4190SOL    HW224207   3.967   3.356   3.510  1.2779 -0.9706  1.9793
 4191SOL     OW24208   1.184   3.365  11.227  0.0059  0.0884  0.1432
 4191SOL    HW124209   1.192   3.288  11.282  0.5682 -0.4629 -0.7035
 4191SOL    HW224210   1.213   3.434  11.286  1.0986 -1.8422  1.8495
 4192SOL     OW24211   1.731   1.002  13.616 -0.3586  0.2572 -0.1670
 4192SOL    HW124212   1.644   0.979  13.585  0.3273  0.5631 -2.2635
 4192SOL    HW224213   1.797   0.951  13.569 -0.8545 -0.4933 -0.0442
 4193SOL     OW24214   3.128   2.769   3.945 -0.0543  0.3872  0.0007
 4193SOL    HW124215   3.072   2.692   3.952 -0.7921  0.8363 -0.8982
 4193SOL    HW224216   3.111   2.807   3.859  1.1648  0.6484 -0.1278
 4194SOL     OW24217   2.091   2.823   8.633 -0.4750 -0.3612  0.3358
 4194SOL    HW124218   2.171   2.797   8.587 -1.5178 -0.5204 -1.3966
 4194SOL    HW224219   2.118   2.894   8.692 -0.0936 -0.2422  0.0208
 4195SOL     OW24220   0.218   4.531   3.094 -0.3463  0.6808 -0.4451
 4195SOL    HW124221   0.123   4.539   3.081 -0.2780  0.5941 -0.9985
 4195SOL    HW224222   0.235   4.460   3.033 -0.9140 -0.8472  1.1722
 4196SOL     OW24223   2.349   2.297  14.962 -0.2169  0.0694 -0.0358
 4196SOL    HW124224   2.258   2.280  14.938 -0.1717 -1.0890  0.6491
 4196SOL    HW224225   2.395   2.319  14.880 -0.7625  0.5308 -0.2162
 4197SOL     OW24226   3.393   2.985   9.018  0.0615 -0.0780  0.1866
 4197SOL    HW124227   3.417   2.989   8.925 -0.6020 -2.2540 -0.0883
 4197SOL    HW224228   3.387   3.072   9.057 -0.4217  0.5892 -1.3342
 4198SOL     OW24229   4.574   0.739  15.545 -0.1176  0.9275 -0.2885
 4198SOL    HW124230   4.666   0.751  15.568  0.0358 -2.7465  1.0523
 4198SOL    HW224231   4.565   0.645  15.559 -1.4878  0.7364 -2.5359
 4199SOL     OW24232   3.630   0.326   5.984  0.3877 -0.4166  0.1279
 4199SOL    HW124233   3.657   0.418   5.979  0.8542 -0.4834  1.5474
 4199SOL    HW224234   3.711   0.281   5.961  0.5735  0.4239 -0.9056
 4200SOL     OW24235   3.112   0.948   4.056  0.3461 -0.2528  0.1703
 4200SOL    HW124236   3.191   0.979   4.102  1.3411 -0.5054 -1.3722
 4200SOL    HW224237   3.087   1.033   4.021  2.3673  0.7981  1.2343
 4201SOL     OW24238   4.058   4.416  12.523 -0.6685 -0.0171  0.0946
 4201SOL    HW124239   3.965   4.405  12.545 -0.7753 -0.0130 -0.3474
 4201SOL    HW224240   4.092   4.436  12.610  0.3807 -0.0202 -0.3131
 4202SOL     OW24241   1.790   0.077   2.096 -0.3471  0.1387 -0.1690
 4202SOL    HW124242   1.843   0.093   2.174  1.5439 -0.1705 -1.3886
 4202SOL    HW224243   1.711   0.046   2.141  0.3772 -0.9971  0.3221
 4203SOL     OW24244   0.782   4.451   8.040 -0.1525 -0.0851  0.0751
 4203SOL    HW124245   0.854   4.493   8.087 -0.3282 -0.3018  0.5437
 4203SOL    HW224246   0.711   4.442   8.104 -1.9604 -0.7593 -2.0166
 4204SOL     OW24247   2.851   4.058   1.880 -0.0444 -0.6137 -0.4080
 4204SOL    HW124248   2.815   4.142   1.852  0.2893  0.2753  1.8651
 4204SOL    HW224249   2.791   3.997   1.837 -0.5552 -1.8854  2.0725
 4205SOL     OW24250   1.689   4.604   5.742 -0.1640 -0.2775 -0.6707
 4205SOL    HW124251   1.630   4.543   5.697 -1.5640  0.4684  0.1752
 4205SOL    HW224252   1.764   4.582   5.687 -0.0117  0.4749 -0.7622
 4206SOL     OW24253   1.696   3.348  15.818  0.8345 -0.1531 -0.5296
 4206SOL    HW124254   1.788   3.372  15.811  0.6230  0.8750  0.2756
 4206SOL    HW224255   1.673   3.354  15.725  1.1431  2.4313 -0.4430
 4207SOL     OW24256   1.567   2.574   4.154 -0.0979  0.3401  0.6273
 4207SOL    HW124257   1.653   2.615   4.143  1.2084 -2.8683 -1.0758
 4207SOL    HW224258   1.523   2.639   4.209 -1.1342 -0.6036  0.9070
 4208SOL     OW24259   4.580   2.209   5.568  0.2919 -0.3107 -0.2539
 4208SOL    HW124260   4.527   2.281   5.601 -0.5040 -0.5204 -1.0692
 4208SOL    HW224261   4.517   2.142   5.539  1.3770 -1.1679 -0.6410
 4209SOL     OW24262   3.924   4.346   9.408  0.0326 -0.1722 -0.6284
 4209SOL    HW124263   3.848   4.403   9.420  0.8471  0.8640 -0.3312
 4209SOL    HW224264   3.899   4.290   9.335  1.9482 -0.4455 -1.0898
 4210SOL     OW24265   4.271   1.716   7.640 -0.4043  0.3755 -0.1669
 4210SOL    HW124266   4.356   1.679   7.665 -0.9222  0.9654  2.4317
 4210SOL    HW224267   4.238   1.755   7.721  0.4841 -0.2216  0.4769
 4211SOL     OW24268   0.101   4.716   2.563  0.3492  0.1048 -0.5149
 4211SOL    HW124269   0.194   4.692   2.557  0.3176  0.0013 -0.5861
 4211SOL    HW224270   0.086   4.735   2.471 -0.9492 -0.1782 -0.3551
 4212SOL     OW24271   3.106   0.489  16.516  0.2288  0.5139 -0.0020
 4212SOL    HW124272   3.174   0.427  16.542 -0.5732  0.3132  1.6206
 4212SOL    HW224273   3.115   0.552  16.588 -1.5344 -1.2756  1.8040
 4213SOL     OW24274   0.784   0.156   4.763 -0.0762 -0.6717 -0.4436
 4213SOL    HW124275   0.860   0.174   4.708 -0.3552  0.5120 -0.4544
 4213SOL    HW224276   0.731   0.121   4.692  3.0356 -0.5149 -2.8677
 4214SOL     OW24277   3.387   0.892   4.315 -0.2931 -0.7705  0.0160
 4214SOL    HW124278   3.399   0.941   4.396  1.0149 -2.5683  0.9259
 4214SOL    HW224279   3.320   0.835   4.353 -1.2628  0.6604  0.4302
 4215SOL     OW24280   4.611   3.148  13.748  0.0111 -0.4032 -0.1468
 4215SOL    HW124281   4.533   3.119  13.701 -0.9643 -0.5731  1.5566
 4215SOL    HW224282   4.647   3.065  13.778  0.3922 -0.4799 -0.8189
 4216SOL     OW24283   0.255   3.701  11.936 -0.3083 -0.4795  0.3676
 4216SOL    HW124284   0.289   3.789  11.947  6.3068 -2.9944 -0.3437
 4216SOL    HW224285   0.187   3.716  11.871  1.3418 -0.7087 -1.3960
 4217SOL     OW24286   1.553   3.952  13.031 -0.5307 -0.0718 -0.1656
 4217SOL    HW124287   1.597   3.956  13.116 -0.1584  0.6089 -0.3910
 4217SOL    HW224288   1.617   3.931  12.964 -1.6698 -0.9412 -0.9772
 4218SOL     OW24289   1.471   4.518   2.516  0.2253  0.4393  0.2510
 4218SOL    HW124290   1.506   4.599   2.552  0.1017 -0.0726  1.5269
 4218SOL    HW224291   1.427   4.547   2.437  1.4889 -1.3593 -1.1183
 4219SOL     OW24292   2.050   4.063  13.703  0.1662 -0.3809  0.7346
 4219SOL    HW124293   2.096   4.022  13.631  1.5924  3.6734 -0.6536
 4219SOL    HW224294   2.028   3.986  13.756  3.3841 -0.9251  1.2344
 4220SOL     OW24295   1.054   4.401   7.104 -0.6625  0.1250  0.2384
 4220SOL    HW124296   1.046   4.310   7.134 -0.3374 -0.0940 -0.3562
 4220SOL    HW224297   1.081   4.461   7.174  0.1649 -0.0184  0.0391
 4221SOL     OW24298   0.972   0.112  14.285  0.1361 -0.2829 -0.0277
 4221SOL    HW124299   1.021   0.110  14.368  1.0991  2.2470 -0.5341
 4221SOL    HW224300   1.023   0.172  14.231  2.0572 -0.3577  1.6963
 4222SOL     OW24301   0.197   3.270   4.126 -0.0158 -0.2088  0.4511
 4222SOL    HW124302   0.278   3.226   4.100 -1.8648 -2.6778 -1.0219
 4222SOL    HW224303   0.217   3.323   4.203 -0.8631 -2.1331  1.9813
 4223SOL     OW24304   3.599   0.300   0.007  0.7085 -0.2502 -0.4911
 4223SOL    HW124305   3.591   0.247  17.679  0.8098  0.5116 -1.0067
 4223SOL    HW224306   3.511   0.336   0.017 -0.2003 -2.1359 -1.7204
 4224SOL     OW24307   3.781   2.884   1.520  0.2365  0.1175 -0.5854
 4224SOL    HW124308   3.815   2.942   1.587 -0.9806  0.2527 -0.0963
 4224SOL    HW224309   3.754   2.943   1.450 -0.4744  0.6450  0.1379
 4225SOL     OW24310   0.641   0.073   6.613  0.1570 -0.3746 -0.2436
 4225SOL    HW124311   0.610   0.134   6.680  2.4274  0.5042  0.0061
 4225SOL    HW224312   0.675   0.004   6.670  0.5262 -1.5780 -1.9216
 4226SOL     OW24313   2.778   1.767   2.122  0.0353 -0.3952  0.2597
 4226SOL    HW124314   2.723   1.845   2.119  0.7969  0.1144 -0.7928
 4226SOL    HW224315   2.768   1.739   2.213 -1.8751  0.0981  0.2028
 4227SOL     OW24316   1.355   2.553  15.911 -0.0876 -0.1923  0.4524
 4227SOL    HW124317   1.437   2.593  15.881  0.4636  0.1036  2.2922
 4227SOL    HW224318   1.342   2.482  15.849 -0.3533  2.1695 -2.1682
 4228SOL     OW24319   2.030   1.979   6.103 -0.3976 -0.2183 -0.3986
 4228SOL    HW124320   2.093   1.918   6.141 -1.3618 -1.7462 -1.2843
 4228SOL    HW224321   2.084   2.055   6.082  2.2248 -1.8182  0.5930
 4229SOL     OW24322   0.541   3.958  17.670 -0.2815  0.2314  0.1621
 4229SOL    HW124323   0.515   4.045  17.642 -0.0379  0.4218  0.5256
 4229SOL    HW224324   0.493   3.900  17.610 -0.9813  0.6361  0.3285
 4230SOL     OW24325   2.992   4.495   8.914 -0.5575 -0.3814  0.3331
 4230SOL    HW124326   3.025   4.438   8.844 -0.4630  0.4316 -0.2732
 4230SOL    HW224327   3.046   4.573   8.905 -1.3815  0.1319 -0.0902
 4231SOL     OW24328   2.133   3.185   8.577 -0.1243  0.3535  0.0213
 4231SOL    HW124329   2.038   3.179   8.561  0.0274 -0.7049 -0.5035
 4231SOL    HW224330   2.163   3.094   8.575  0.6394  0.6022  0.2324
 4232SOL     OW24331   2.298   3.213   1.410 -0.2980 -0.5494  0.0297
 4232SOL    HW124332   2.291   3.192   1.317 -0.8397 -0.1960 -0.0136
 4232SOL    HW224333   2.369   3.156   1.438  1.2753  2.3186  1.9336
 4233SOL     OW24334   2.131   2.788   4.095  0.0315  0.1529 -0.9230
 4233SOL    HW124335   2.075   2.788   4.173 -2.3479 -0.8510 -2.6226
 4233SOL    HW224336   2.218   2.817   4.123  0.0935 -0.6319 -0.2838
 4234SOL     OW24337   1.705   1.958   1.772  0.4309 -0.3454 -0.0637
 4234SOL    HW124338   1.766   2.031   1.779 -1.1262  0.9251  0.1814
 4234SOL    HW224339   1.624   2.007   1.757  1.5218  1.9273  1.5593
 4235SOL     OW24340   2.355   2.105   1.908  0.1142 -0.0167  0.1006
 4235SOL    HW124341   2.326   2.028   1.957  0.1504 -2.6049 -3.9929
 4235SOL    HW224342   2.314   2.174   1.961  0.9441  0.6133 -0.0889
 4236SOL     OW24343   4.361   3.039  13.710  0.0186  0.0361  0.3541
 4236SOL    HW124344   4.347   3.098  13.784 -3.7053 -1.5088  0.9102
 4236SOL    HW224345   4.305   2.963  13.727  0.2234 -0.1634  0.1223
 4237SOL     OW24346   3.358   3.597   8.799 -0.0962  0.0533 -0.1776
 4237SOL    HW124347   3.302   3.520   8.803 -3.1996  2.1501 -3.1362
 4237SOL    HW224348   3.443   3.554   8.810  0.1997  0.4134 -1.0694
 4238SOL     OW24349   0.955   3.171   1.790 -0.1457  0.2381 -0.3258
 4238SOL    HW124350   0.959   3.244   1.729 -0.1009 -0.0137 -0.6265
 4238SOL    HW224351   0.866   3.142   1.769  0.1184  1.1407 -2.6966
 4239SOL     OW24352   2.617   1.775   6.274  0.3175 -0.0753  0.0623
 4239SOL    HW124353   2.708   1.752   6.292  1.0956  1.3783 -1.8951
 4239SOL    HW224354   2.575   1.690   6.265  0.3049 -0.0356 -0.2743
 4240SOL     OW24355   4.625   0.240  13.405  0.2736 -0.2751 -0.2605
 4240SOL    HW124356   4.580   0.306  13.352  1.9723 -0.6222 -2.1351
 4240SOL    HW224357   4.718   0.261  13.395  0.2248 -0.0060 -0.1372
 4241SOL     OW24358   1.816   3.727   5.793  0.2120  0.5373 -0.5357
 4241SOL    HW124359   1.853   3.815   5.784 -0.9871  1.1706  0.8507
 4241SOL    HW224360   1.766   3.733   5.874  0.7563 -0.3703 -0.1473
 4242SOL     OW24361   0.098   3.329  12.847 -0.3726  0.1130 -0.1802
 4242SOL    HW124362   0.188   3.313  12.819  0.1193  1.6860  0.4822
 4242SOL    HW224363   0.059   3.242  12.855 -4.3891  1.7922 -1.0812
 4243SOL     OW24364   3.388   0.399   5.295 -0.3998 -0.0863 -0.5627
 4243SOL    HW124365   3.372   0.490   5.319  3.4402  0.8817 -1.6588
 4243SOL    HW224366   3.465   0.372   5.344  0.8509  0.7101 -2.0969
 4244SOL     OW24367   2.793   0.965  13.581 -0.5793  0.4850 -0.3678
 4244SOL    HW124368   2.765   1.031  13.644 -2.3394  0.4995 -1.1737
 4244SOL    HW224369   2.710   0.942  13.540  0.0415 -1.4711 -0.5421
 4245SOL     OW24370   1.336   0.459  16.153 -0.1808  0.0187 -0.8772
 4245SOL    HW124371   1.371   0.412  16.077  0.0117 -0.0913 -0.7221
 4245SOL    HW224372   1.393   0.535  16.152  0.7182 -0.6712 -2.6985
 4246SOL     OW24373   0.538   3.357  11.521 -0.1008  0.2446 -0.1526
 4246SOL    HW124374   0.599   3.298  11.565 -2.5772 -1.2753  1.2610
 4246SOL    HW224375   0.512   3.419  11.590  0.4607 -0.4274  0.6603
 4247SOL     OW24376   3.563   3.131   3.916  0.1407 -0.3182 -0.0626
 4247SOL    HW124377   3.609   3.050   3.894 -1.5776 -1.9375  2.2641
 4247SOL    HW224378   3.629   3.166   3.976 -0.5319  1.0453 -0.1360
 4248SOL     OW24379   2.748   3.525  10.237  0.5627 -0.3493  0.2037
 4248SOL    HW124380   2.787   3.546  10.322  0.0443 -1.8165  0.8009
 4248SOL    HW224381   2.802   3.563  10.168  0.1051 -0.0264  0.0178
 4249SOL     OW24382   0.662   2.697   2.627  0.5448  0.0946  0.3474
 4249SOL    HW124383   0.588   2.695   2.566  0.3172  3.2521  0.5153
 4249SOL    HW224384   0.729   2.712   2.560  0.5366 -2.8117 -0.3178
 4250SOL     OW24385   0.542   2.324  17.166 -0.3018  0.7469 -0.7036
 4250SOL    HW124386   0.596   2.403  17.169  0.4851  0.2055 -0.4681
 4250SOL    HW224387   0.552   2.288  17.254  0.0824  0.4794 -0.8577
 4251SOL     OW24388   0.409   4.135   7.410  0.7130  0.1292 -0.3277
 4251SOL    HW124389   0.442   4.222   7.433  2.0890 -0.4754 -0.0178
 4251SOL    HW224390   0.404   4.150   7.315  3.0478  0.6077 -0.3790
 4252SOL     OW24391   1.950   3.364   7.327  0.8623 -0.1935  0.7168
 4252SOL    HW124392   1.943   3.351   7.233  1.7171 -0.8057  0.7427
 4252SOL    HW224393   1.920   3.276   7.350 -0.9705 -0.4812 -2.8400
 4253SOL     OW24394   3.320   3.643   0.114  0.0452 -0.0810 -0.1423
 4253SOL    HW124395   3.371   3.574   0.073 -0.2374  0.5260 -1.5289
 4253SOL    HW224396   3.238   3.596   0.125 -0.3179  0.7415  0.7060
 4254SOL     OW24397   3.037   0.142   4.344  0.2875  0.3624 -0.2686
 4254SOL    HW124398   2.970   0.195   4.386  0.6882  0.8802 -0.2847
 4254SOL    HW224399   3.012   0.057   4.380  0.8648  0.0589 -0.5919
 4255SOL     OW24400   2.552   4.696   9.345  0.1183 -0.4205  0.5078
 4255SOL    HW124401   2.628   4.646   9.375  0.9789 -1.2675 -3.0758
 4255SOL    HW224402   2.578   4.724   9.257 -0.6481  0.7125  0.6454
 4256SOL     OW24403   2.541   3.081   7.503  0.0587 -0.1091  0.4992
 4256SOL    HW124404   2.541   3.037   7.587  0.4385  0.5659  0.8550
 4256SOL    HW224405   2.612   3.032   7.462 -2.6658 -3.6524  0.0585
 4257SOL     OW24406   2.592   2.189   3.730 -0.1568  0.1036 -0.1497
 4257SOL    HW124407   2.524   2.122   3.742  0.9406 -1.0263 -0.2970
 4257SOL    HW224408   2.540   2.260   3.692  0.5407  2.5571  3.4122
 4258SOL     OW24409   3.876   2.857   6.799 -0.1050  0.6813 -0.6831
 4258SOL    HW124410   3.827   2.819   6.727 -0.3944 -2.4888  1.1635
 4258SOL    HW224411   3.828   2.831   6.878  0.0327  2.1371 -0.1045
 4259SOL     OW24412   2.803   0.371   2.844  0.2742 -0.5215  0.1002
 4259SOL    HW124413   2.747   0.297   2.818 -1.8013  0.4871  1.7050
 4259SOL    HW224414   2.773   0.438   2.782  0.5940 -0.0909  0.4058
 4260SOL     OW24415   1.924   2.333   2.447  0.0970 -0.4124 -0.1385
 4260SOL    HW124416   1.981   2.331   2.370  0.1683 -2.3722 -0.0230
 4260SOL    HW224417   1.884   2.418   2.432  1.9876  0.7151  1.1795
 4261SOL     OW24418   1.139   3.644  16.198 -0.3978 -0.1690  0.2665
 4261SOL    HW124419   1.193   3.621  16.123  0.1153  0.6374  0.3840
 4261SOL    HW224420   1.138   3.738  16.179  0.9146  0.0647  1.3260
 4262SOL     OW24421   1.635   3.712   7.616  0.6101 -0.4195 -0.0814
 4262SOL    HW124422   1.543   3.691   7.601  0.5155  1.0411 -1.5105
 4262SOL    HW224423   1.670   3.710   7.527 -2.5288 -0.5911 -1.3100
 4263SOL     OW24424   3.406   4.486   1.767  0.5302  0.3898 -0.6500
 4263SOL    HW124425   3.326   4.459   1.723  0.8440 -2.8293  0.7510
 4263SOL    HW224426   3.385   4.458   1.856 -1.2072  1.2288 -0.7908
 4264SOL     OW24427   4.626   3.700   7.266  0.0944  0.0025  0.4382
 4264SOL    HW124428   4.620   3.643   7.343 -0.5113  0.2788  0.5959
 4264SOL    HW224429   4.637   3.639   7.193  2.0474  0.6241  0.2239
 4265SOL     OW24430   1.679   2.200   1.632 -0.0327  0.5643  0.0591
 4265SOL    HW124431   1.678   2.265   1.703 -2.5749  0.7890 -0.2053
 4265SOL    HW224432   1.589   2.199   1.601  0.5245 -0.6927 -1.5071
 4266SOL     OW24433   2.168   4.714   7.390  0.1097 -0.5262 -0.0982
 4266SOL    HW124434   2.217   4.660   7.452 -1.1804  1.2070  2.4178
 4266SOL    HW224435   2.243   0.009   7.340  0.7883 -1.5857  0.2134
 4267SOL     OW24436   3.597   0.557   4.619 -0.1050  0.6196  0.4274
 4267SOL    HW124437   3.597   0.652   4.623 -0.3364  0.7498 -2.4397
 4267SOL    HW224438   3.536   0.543   4.692  0.1073  1.1345  0.7041
 4268SOL     OW24439   2.809   3.855   6.693 -0.1622  0.2580  0.0024
 4268SOL    HW124440   2.823   3.948   6.709 -0.4020  0.2470  0.2708
 4268SOL    HW224441   2.861   3.816   6.764 -0.1843  0.5748  0.1930
 4269SOL     OW24442   1.287   1.151   8.420  0.2245  0.6679  0.1050
 4269SOL    HW124443   1.255   1.092   8.352 -1.8517  1.8950  0.0314
 4269SOL    HW224444   1.376   1.117   8.429  0.7414  1.3619 -2.3234
 4270SOL     OW24445   3.751   3.362   4.232  0.2579  0.6735 -0.0457
 4270SOL    HW124446   3.799   3.311   4.297 -1.9086  0.0109  1.0450
 4270SOL    HW224447   3.699   3.425   4.282 -2.2655 -1.8969  0.5382
 4271SOL     OW24448   0.418   3.448  15.619  0.5429  0.1130  0.0235
 4271SOL    HW124449   0.441   3.374  15.563  1.2153 -0.6219  1.2492
 4271SOL    HW224450   0.498   3.499  15.632  0.8766 -0.3617 -0.1411
 4272SOL     OW24451   1.122   0.242  17.458  0.2383  0.2810 -0.0712
 4272SOL    HW124452   1.069   0.165  17.438  2.9602 -1.7853  0.6947
 4272SOL    HW224453   1.145   0.269  17.369 -0.0603  0.1870 -0.1771
 4273SOL     OW24454   2.519   3.522   6.853 -0.0240  0.3464 -0.1572
 4273SOL    HW124455   2.474   3.438   6.867 -3.0575  1.7111 -1.5953
 4273SOL    HW224456   2.543   3.534   6.944 -2.4007 -1.3650  0.7065
 4274SOL     OW24457   2.137   1.288   8.473  0.3805 -0.0906  0.2872
 4274SOL    HW124458   2.051   1.330   8.476  0.7456  0.6362  0.5808
 4274SOL    HW224459   2.170   1.316   8.388 -0.5464 -0.9153 -0.3457
 4275SOL     OW24460   4.236   4.579  10.922 -0.1695  0.8285  0.0783
 4275SOL    HW124461   4.301   4.589  10.853  1.3515 -0.4268  1.3317
 4275SOL    HW224462   4.155   4.605  10.877 -0.7389  0.2088  0.7290
 4276SOL     OW24463   0.170   1.692  14.569 -0.0149 -0.0066  0.4989
 4276SOL    HW124464   0.184   1.640  14.647 -1.6496 -0.7305  0.3063
 4276SOL    HW224465   0.247   1.748  14.563 -0.2923  0.1654 -1.6464
 4277SOL     OW24466   3.389   2.341  11.635  0.3567 -0.3050 -0.2569
 4277SOL    HW124467   3.304   2.307  11.608  1.0224 -0.3022 -2.3563
 4277SOL    HW224468   3.372   2.376  11.722  2.9982 -0.8051  0.4707
 4278SOL     OW24469   2.636   4.661   5.153 -0.1210  0.3847 -0.2857
 4278SOL    HW124470   2.699   4.688   5.086 -0.3808  1.2381 -0.1823
 4278SOL    HW224471   2.607   4.736   5.205 -0.1534  0.2048 -0.0471
 4279SOL     OW24472   0.269   4.062   6.754 -0.1540  0.0230 -0.1366
 4279SOL    HW124473   0.277   4.157   6.758 -1.4705  0.2381 -2.5516
 4279SOL    HW224474   0.216   4.045   6.832  1.9908 -1.5228  0.9782
 4280SOL     OW24475   0.630   2.998   1.365 -0.2079  0.4362  0.3027
 4280SOL    HW124476   0.601   2.957   1.284  0.7988  0.9362 -0.3084
 4280SOL    HW224477   0.556   3.056   1.383  0.5998  2.0487 -1.5706
 4281SOL     OW24478   1.543   3.876  13.717  0.2138 -0.6108  0.0823
 4281SOL    HW124479   1.554   3.797  13.770  0.0445  1.0517  2.6307
 4281SOL    HW224480   1.529   3.829  13.635  0.5356  0.4872 -0.5958
 4282SOL     OW24481   0.560   4.622   0.736 -0.0029  0.0058 -0.3907
 4282SOL    HW124482   0.526   4.708   0.762 -2.1663 -0.4886 -1.5798
 4282SOL    HW224483   0.542   4.564   0.810 -1.1768  1.1750  0.2562
 4283SOL     OW24484   0.568   0.918   8.449  0.1077 -0.1915 -0.2355
 4283SOL    HW124485   0.604   0.939   8.363 -0.6676  3.0265  0.2254
 4283SOL    HW224486   0.559   0.823   8.439 -1.8495 -0.0233  0.0235
 4284SOL     OW24487   2.347   2.356   6.134 -0.0846 -0.1523 -0.2381
 4284SOL    HW124488   2.372   2.422   6.069 -2.0542  0.6285 -0.2063
 4284SOL    HW224489   2.429   2.343   6.182 -1.2953 -1.1523  1.5839
 4285SOL     OW24490   2.173   4.599  12.410 -0.5310  0.2800 -0.1286
 4285SOL    HW124491   2.106   4.587  12.477  0.9173  2.3090  1.6864
 4285SOL    HW224492   2.181   4.694  12.418 -0.6297  0.2049  0.8306
 4286SOL     OW24493   0.692   0.068   2.231  0.6007 -0.7983  0.0088
 4286SOL    HW124494   0.787   0.079   2.232  0.4563  0.3843  0.3999
 4286SOL    HW224495   0.667   0.119   2.154  0.3528  0.9508  1.2400
 4287SOL     OW24496   3.721   1.850   6.675  0.8346  0.1100 -0.9767
 4287SOL    HW124497   3.775   1.800   6.613  0.8112 -2.1956  0.8748
 4287SOL    HW224498   3.642   1.796   6.678  2.4832 -2.3193 -0.2631
 4288SOL     OW24499   3.883   1.376  14.952 -0.0222 -0.3552  0.3449
 4288SOL    HW124500   3.964   1.371  14.902  0.8458 -0.1282  1.7489
 4288SOL    HW224501   3.847   1.453  14.908 -0.0857 -1.9055 -2.3501
 4289SOL     OW24502   2.484   1.270   7.683 -0.3502  0.9218  0.1123
 4289SOL    HW124503   2.467   1.238   7.772  2.0692  0.3151  0.3566
 4289SOL    HW224504   2.389   1.283   7.677 -0.5908 -0.7184  0.2395
 4290SOL     OW24505   1.649   0.812  12.944 -0.2524 -0.2914  0.0816
 4290SOL    HW124506   1.644   0.817  12.849 -0.9532  1.5332  0.2110
 4290SOL    HW224507   1.597   0.891  12.960  0.2302  0.0003  0.2052
 4291SOL     OW24508   3.504   1.324  10.698 -0.7954  0.4250  0.3998
 4291SOL    HW124509   3.459   1.241  10.711 -0.2915 -0.2834 -2.4365
 4291SOL    HW224510   3.433   1.382  10.727  0.1896  0.9019  1.8755
 4292SOL     OW24511   4.453   2.954   8.361 -0.0539  0.0318  0.5928
 4292SOL    HW124512   4.382   2.892   8.374  0.1304  0.2810  2.7933
 4292SOL    HW224513   4.462   2.951   8.266  0.3667 -0.7328  0.6577
 4293SOL     OW24514   2.594   1.119   5.224  0.2542  0.2699  0.0901
 4293SOL    HW124515   2.510   1.084   5.254 -0.2133  1.4398  0.1205
 4293SOL    HW224516   2.570   1.149   5.137  1.1688  0.0287 -0.2436
 4294SOL     OW24517   0.096   1.490   7.068 -0.2252  0.2232 -0.5518
 4294SOL    HW124518   0.129   1.442   6.992  1.4061  0.9667 -0.3062
 4294SOL    HW224519   0.143   1.574   7.060 -1.1754  0.7385 -0.7688
 4295SOL     OW24520   4.314   3.682  16.547 -0.4041 -0.0613  0.3620
 4295SOL    HW124521   4.312   3.724  16.461 -1.2165 -1.3392 -0.2433
 4295SOL    HW224522   4.225   3.695  16.581 -0.1243  1.6958  0.4437
 4296SOL     OW24523   1.665   4.615   6.033 -0.5538 -0.3492 -0.0640
 4296SOL    HW124524   1.690   4.614   5.940 -2.4591 -1.5827 -0.5859
 4296SOL    HW224525   1.587   4.558   6.030  0.4007 -1.6963  0.8594
 4297SOL     OW24526   4.146   4.005   4.046  0.6492 -0.0715  0.3200
 4297SOL    HW124527   4.165   4.070   4.113  1.3270  1.8866 -1.7457
 4297SOL    HW224528   4.221   4.025   3.990 -0.7466  1.0851 -1.1492
 4298SOL     OW24529   2.326   2.368   3.422 -0.5314 -0.1580  0.0270
 4298SOL    HW124530   2.309   2.437   3.358 -1.0262  0.7837  1.1590
 4298SOL    HW224531   2.334   2.288   3.370  1.3641 -0.0844  0.2165
 4299SOL     OW24532   1.343   0.937  11.832 -0.4886 -0.4252 -0.0108
 4299SOL    HW124533   1.326   1.032  11.833 -0.4671 -0.4407  1.4655
 4299SOL    HW224534   1.412   0.926  11.897 -1.0441 -0.3842  0.5743
 4300SOL     OW24535   2.897   0.121   5.230  0.0105  0.1352 -0.0137
 4300SOL    HW124536   2.952   0.121   5.309  0.6403 -0.1889 -0.4453
 4300SOL    HW224537   2.977   0.104   5.180  0.0235 -1.4651  0.5493
 4301SOL     OW24538   1.960   0.018   7.662 -0.0067 -0.3672 -0.2412
 4301SOL    HW124539   1.910   0.025   7.581  0.0493 -2.2288 -0.4305
 4301SOL    HW224540   1.962   4.660   7.664  0.7327 -0.3852 -2.3059
 4302SOL     OW24541   3.623   0.838   4.620  0.9611 -0.3661  0.0409
 4302SOL    HW124542   3.583   0.860   4.704 -0.0477 -0.0024 -0.5446
 4302SOL    HW224543   3.681   0.913   4.604 -1.7313  1.6904 -0.0232
 4303SOL     OW24544   4.703   3.762  17.028 -0.3947 -0.0942 -0.0844
 4303SOL    HW124545   4.705   3.688  17.088  1.7574 -0.4074 -0.5159
 4303SOL    HW224546   4.611   3.782  17.016 -0.3471 -0.9394 -1.9433
 4304SOL     OW24547   0.732   1.824   1.120  0.7246 -0.6529 -0.0767
 4304SOL    HW124548   0.741   1.790   1.209  3.5914 -0.6825 -0.3694
 4304SOL    HW224549   0.652   1.776   1.097  0.0575 -0.9294  2.8473
 4305SOL     OW24550   0.173   2.000  14.751 -0.0606  0.3373 -0.1826
 4305SOL    HW124551   0.171   2.001  14.847  0.8400  0.5239 -0.1661
 4305SOL    HW224552   0.208   2.087  14.733  1.0103 -0.2262 -0.7733
 4306SOL     OW24553   4.310   1.629   5.850 -0.1856 -0.8071  0.3329
 4306SOL    HW124554   4.290   1.681   5.772  1.0561 -1.1807 -0.2333
 4306SOL    HW224555   4.228   1.582   5.865 -1.0535  0.2752 -0.9389
 4307SOL     OW24556   4.699   3.546   4.232  0.7257  0.2872 -0.5499
 4307SOL    HW124557   4.638   3.613   4.202 -1.0754 -0.3460  1.7307
 4307SOL    HW224558   0.003   3.586   4.307  1.4749 -0.1787 -0.7232
 4308SOL     OW24559   4.023   2.445  11.590 -0.4725  0.6549 -0.1777
 4308SOL    HW124560   4.105   2.427  11.635 -1.7917  1.1854  2.4235
 4308SOL    HW224561   3.965   2.465  11.664 -1.7555  1.6355 -1.4474
 4309SOL     OW24562   4.194   2.545  14.819  0.4804 -0.2830 -0.6502
 4309SOL    HW124563   4.277   2.550  14.865  0.4827  0.8045 -0.7710
 4309SOL    HW224564   4.212   2.483  14.748  1.3665 -0.5068 -0.2187
 4310SOL     OW24565   3.661   4.659  17.593  0.3194 -0.2236 -0.1704
 4310SOL    HW124566   3.622   0.008  17.585 -2.2034 -1.4740 -1.5520
 4310SOL    HW224567   3.640   4.645  17.685 -2.0866  0.5473 -0.6044
 4311SOL     OW24568   4.200   0.232  12.256 -0.7661  0.3047 -0.3659
 4311SOL    HW124569   4.170   0.193  12.338 -3.4331  0.8276 -1.0776
 4311SOL    HW224570   4.114   0.225  12.213 -0.7770  1.9700 -0.6101
 4312SOL     OW24571   4.231   2.322  11.030  0.2836 -0.2061  0.0990
 4312SOL    HW124572   4.265   2.411  11.024 -1.0851  0.4720  2.2402
 4312SOL    HW224573   4.196   2.310  10.941 -0.0223 -1.2254  0.3540
 4313SOL     OW24574   3.420   4.683   8.225  0.5239  0.2687 -0.0509
 4313SOL    HW124575   3.345   4.734   8.196 -1.9085 -2.5200  1.3585
 4313SOL    HW224576   3.388   4.593   8.230  0.7406  0.2555  1.2023
 4314SOL     OW24577   0.249   1.595   1.089 -0.4278  0.0341 -0.3962
 4314SOL    HW124578   0.234   1.594   0.995 -1.3063  3.0702 -0.3087
 4314SOL    HW224579   0.217   1.679   1.122  1.3628 -0.0704  1.6512
 4315SOL     OW24580   3.027   4.097   3.372  0.1808 -0.6347  0.4808
 4315SOL    HW124581   3.031   4.003   3.360 -0.2162 -0.4669 -0.9164
 4315SOL    HW224582   2.969   4.103   3.448 -0.4757 -2.2357  0.1059
 4316SOL     OW24583   0.536   3.902  10.773 -0.4097  0.5172 -0.1441
 4316SOL    HW124584   0.592   3.940  10.840 -1.5485  1.1476  0.4590
 4316SOL    HW224585   0.454   3.932  10.814 -1.5413 -1.8009 -0.7211
 4317SOL     OW24586   1.424   0.656   8.736  0.5426  0.7450  0.7842
 4317SOL    HW124587   1.464   0.577   8.773  1.9645  0.9017 -0.4365
 4317SOL    HW224588   1.500   0.713   8.732  1.3428 -0.3888 -0.5219
 4318SOL     OW24589   1.873   0.032   8.261 -0.1489  0.7930  0.1720
 4318SOL    HW124590   1.829   0.021   8.345  2.2976 -1.1793  1.1824
 4318SOL    HW224591   1.895   4.681   8.236 -0.6767  0.6272  0.3140
 4319SOL     OW24592   3.986   4.584   5.060 -0.3020 -0.1605  0.1278
 4319SOL    HW124593   3.964   4.521   4.991 -0.3000  0.4185 -0.3984
 4319SOL    HW224594   4.015   4.660   5.011  0.1690 -2.1122 -2.6349
 4320SOL     OW24595   2.287   1.083   4.143 -0.3196  0.0135 -0.0461
 4320SOL    HW124596   2.316   1.010   4.198 -3.3291 -1.9394 -1.0538
 4320SOL    HW224597   2.367   1.096   4.091 -0.2093 -1.4388 -0.2411
 4321SOL     OW24598   1.037   3.890  13.103  0.0127  0.0854  0.3704
 4321SOL    HW124599   1.014   3.869  13.013 -1.6682  0.8606  0.6226
 4321SOL    HW224600   1.118   3.939  13.087 -1.1670  2.0634  0.4384
 4322SOL     OW24601   0.794   2.371   1.167  0.2927 -0.2863  0.3779
 4322SOL    HW124602   0.726   2.307   1.186  1.3835 -1.4660  0.3741
 4322SOL    HW224603   0.763   2.457   1.195  0.4251  0.1886 -0.9235
 4323SOL     OW24604   2.579   4.254   4.574 -0.2671  0.0889 -0.5256
 4323SOL    HW124605   2.560   4.334   4.621  0.1781  0.1473 -0.4455
 4323SOL    HW224606   2.514   4.194   4.611 -0.1623 -0.4037 -1.1431
 4324SOL     OW24607   2.940   3.171   3.193 -0.1498  0.0378  0.4656
 4324SOL    HW124608   3.018   3.137   3.236  2.5241  1.0711 -3.6679
 4324SOL    HW224609   2.889   3.176   3.274 -3.7393 -0.6921 -1.7357
 4325SOL     OW24610   3.061   4.139   4.057 -0.3368  0.1424 -0.1879
 4325SOL    HW124611   3.071   4.084   4.135  1.1193  0.0237 -0.4558
 4325SOL    HW224612   3.144   4.188   4.053 -0.4584  0.5330  1.6656
 4326SOL     OW24613   2.758   2.648   6.466 -0.1473  0.4251 -0.2185
 4326SOL    HW124614   2.734   2.699   6.543  1.4577 -2.4116  2.1693
 4326SOL    HW224615   2.827   2.592   6.502 -0.0148 -0.1103 -1.3025
 4327SOL     OW24616   4.563   4.674   4.509  0.5302 -0.8825  0.2728
 4327SOL    HW124617   4.551   0.026   4.479 -0.1878 -0.9086  0.4769
 4327SOL    HW224618   4.496   4.666   4.577 -0.6489 -1.4824 -0.9688
 4328SOL     OW24619   4.408   3.858   7.873  0.1410 -0.0658  0.3329
 4328SOL    HW124620   4.468   3.931   7.856 -0.7157  1.0541  2.0363
 4328SOL    HW224621   4.463   3.780   7.874 -1.9058 -1.5039  3.1037
 4329SOL     OW24622   4.614   1.788   9.758 -0.1401 -0.7100  0.3712
 4329SOL    HW124623   4.543   1.748   9.808 -0.3814 -0.8975 -0.1137
 4329SOL    HW224624   4.682   1.724   9.778  2.1616  1.2275 -1.2420
 4330SOL     OW24625   3.627   2.667   6.616 -0.2655  0.1384 -0.5143
 4330SOL    HW124626   3.696   2.604   6.596 -1.6259 -1.3917 -0.3852
 4330SOL    HW224627   3.617   2.702   6.528  0.1112  1.1344 -0.1660
 4331SOL     OW24628   0.982   0.202   4.580  0.0418 -0.2610  0.4023
 4331SOL    HW124629   0.993   0.192   4.486 -1.5328  1.5098  0.0273
 4331SOL    HW224630   1.041   0.275   4.597 -0.1950  0.3800 -1.6129
 4332SOL     OW24631   2.619   0.770   7.134  0.2166  0.2261 -0.3843
 4332SOL    HW124632   2.657   0.697   7.183 -1.2320  0.1296  0.5866
 4332SOL    HW224633   2.529   0.738   7.128  0.0137  0.2853  2.4628
 4333SOL     OW24634   3.873   4.132   8.837 -0.1161 -0.1434 -0.1606
 4333SOL    HW124635   3.868   4.069   8.909 -1.8178 -0.2132 -0.3283
 4333SOL    HW224636   3.955   4.181   8.845  1.1397 -2.2679 -0.0757
 4334SOL     OW24637   2.152   3.807   3.277  0.3731  0.3863 -0.1889
 4334SOL    HW124638   2.244   3.832   3.281 -0.1243  2.4468 -1.8072
 4334SOL    HW224639   2.145   3.806   3.373 -0.1756  0.0911 -0.2363
 4335SOL     OW24640   3.998   2.042   5.459  0.1602 -0.0103  0.0674
 4335SOL    HW124641   4.051   2.115   5.426 -0.4996  0.0915 -0.7694
 4335SOL    HW224642   4.034   2.027   5.546 -0.2608 -0.7291  0.1154
 4336SOL     OW24643   2.543   2.303   6.840  0.2591  0.1901  1.0152
 4336SOL    HW124644   2.638   2.294   6.842  0.4479  2.0400  0.6897
 4336SOL    HW224645   2.533   2.227   6.783  0.3893  1.0237 -0.1238
 4337SOL     OW24646   1.313   3.670  14.593  0.1286 -0.4671 -0.1996
 4337SOL    HW124647   1.389   3.613  14.580 -0.2768 -0.5664 -2.0814
 4337SOL    HW224648   1.237   3.616  14.571 -1.0198  0.3901  1.6725
 4338SOL     OW24649   4.483   2.736   1.730 -0.3113 -0.4074  0.1246
 4338SOL    HW124650   4.452   2.826   1.732  1.3600  0.1486  0.9925
 4338SOL    HW224651   4.575   2.742   1.757 -0.0164 -1.8409 -0.5579
 4339SOL     OW24652   1.265   3.575   2.424  0.1957  0.5692  0.5651
 4339SOL    HW124653   1.289   3.578   2.332  0.2967  2.4234  0.6485
 4339SOL    HW224654   1.349   3.561   2.468 -0.2653 -1.9694  0.6749
 4340SOL     OW24655   3.520   2.514   3.077  0.2125  0.2922  0.2581
 4340SOL    HW124656   3.461   2.446   3.111 -1.4116  1.9300  0.7055
 4340SOL    HW224657   3.537   2.483   2.988 -0.8213  1.3535 -0.3090
 4341SOL     OW24658   4.092   2.389   6.639 -0.1605 -0.5884  0.1583
 4341SOL    HW124659   4.184   2.416   6.642 -0.5082  0.4799  1.3980
 4341SOL    HW224660   4.081   2.388   6.544 -0.6671  0.7340  0.2051
 4342SOL     OW24661   2.986   0.484   6.714  0.1660  0.3245  0.1964
 4342SOL    HW124662   2.989   0.450   6.625  3.0680 -3.6841  1.8497
 4342SOL    HW224663   3.080   0.475   6.728  0.0409 -0.9893  0.1359
 4343SOL     OW24664   2.541   0.548   3.428 -0.4269 -0.0791  0.0616
 4343SOL    HW124665   2.471   0.552   3.362  0.5146  0.2897 -0.9235
 4343SOL    HW224666   2.619   0.560   3.373  0.5724 -0.6188  1.3800
 4344SOL     OW24667   2.036   3.613   2.781  0.0153 -0.0554  0.2702
 4344SOL    HW124668   2.080   3.657   2.854 -2.0858  1.3582  0.6658
 4344SOL    HW224669   2.015   3.527   2.817  1.6579 -0.6716 -0.2297
 4345SOL     OW24670   0.379   0.997   2.206 -0.4213 -0.1573 -0.1339
 4345SOL    HW124671   0.371   1.082   2.162  0.2287 -0.1142 -0.1764
 4345SOL    HW224672   0.389   1.020   2.298  1.0923  0.5878 -0.4689
 4346SOL     OW24673   3.852   4.497  16.140  0.4578 -0.6133  0.2680
 4346SOL    HW124674   3.887   4.495  16.229 -0.0148  0.7515  0.4852
 4346SOL    HW224675   3.760   4.475  16.157  0.6673 -0.8852  1.0487
 4347SOL     OW24676   2.790   1.450   2.857  0.0308  0.4436 -0.3993
 4347SOL    HW124677   2.758   1.404   2.780  2.3566  1.8801 -2.2283
 4347SOL    HW224678   2.716   1.509   2.873  1.2203  1.2732  2.1285
 4348SOL     OW24679   0.950   4.646   8.160  0.3927 -0.4583  0.2185
 4348SOL    HW124680   1.022   4.677   8.105  1.3283 -0.1771  1.5935
 4348SOL    HW224681   0.996   4.572   8.199  0.3974  0.6338  2.3002
 4349SOL     OW24682   3.373   2.481   7.122 -0.2573  0.1629 -0.0356
 4349SOL    HW124683   3.413   2.547   7.178 -0.6574 -0.4208  0.9316
 4349SOL    HW224684   3.341   2.536   7.050  2.5185  3.4857  1.2372
 4350SOL     OW24685   2.479   2.447   5.758  0.2464 -0.4266 -0.6621
 4350SOL    HW124686   2.446   2.361   5.786  0.6033 -0.2140  0.3921
 4350SOL    HW224687   2.568   2.415   5.745  0.3999 -0.0940 -0.4218
 4351SOL     OW24688   4.216   2.463   8.667  0.4047  0.4438  0.1345
 4351SOL    HW124689   4.240   2.460   8.760 -3.7030  3.1803  1.2737
 4351SOL    HW224690   4.210   2.368   8.653 -0.6098  0.4027  0.8738
 4352SOL     OW24691   1.238   3.197   4.094  0.5009  0.1115  0.1606
 4352SOL    HW124692   1.202   3.156   4.173  0.0817 -1.0269 -0.6210
 4352SOL    HW224693   1.332   3.182   4.101  0.6640  1.4067  0.7885
 4353SOL     OW24694   2.078   4.588   3.695  0.6819  0.0571 -0.0383
 4353SOL    HW124695   1.985   4.598   3.677  0.6322  1.2260  0.8454
 4353SOL    HW224696   2.078   4.492   3.702 -0.1471  0.1968  1.8272
 4354SOL     OW24697   0.172   2.378  11.279 -0.3620  0.3335  0.0601
 4354SOL    HW124698   0.177   2.386  11.374 -2.4891 -1.2065  0.3027
 4354SOL    HW224699   0.123   2.296  11.280 -1.0088  0.7252  0.4975
 4355SOL     OW24700   2.707   3.076   8.333  0.1295 -0.6302  0.2926
 4355SOL    HW124701   2.742   3.106   8.250 -2.7741 -0.9967 -1.0570
 4355SOL    HW224702   2.639   3.142   8.346 -0.6479 -1.1860 -0.9974
 4356SOL     OW24703   3.248   1.370   5.765  0.0303  0.1318  0.2914
 4356SOL    HW124704   3.245   1.356   5.671  0.0572  0.0423  0.3041
 4356SOL    HW224705   3.168   1.419   5.783 -0.3337 -0.2493 -0.2758
 4357SOL     OW24706   4.392   2.888   1.417  0.6103 -0.1137 -0.4882
 4357SOL    HW124707   4.476   2.892   1.464 -0.6317 -2.5016  1.9275
 4357SOL    HW224708   4.418   2.826   1.349 -0.5933 -0.9096 -0.2082
 4358SOL     OW24709   0.607   3.974   8.526  0.1840 -0.1638  0.0487
 4358SOL    HW124710   0.579   3.921   8.600  1.2309 -4.3406 -2.5099
 4358SOL    HW224711   0.574   4.064   8.527  1.8097  0.4461  0.0711
 4359SOL     OW24712   1.399   3.567   7.592 -0.2350  0.5420  0.0519
 4359SOL    HW124713   1.434   3.487   7.552 -0.9742  0.0336  0.4233
 4359SOL    HW224714   1.309   3.562   7.558 -0.5888 -1.1869  1.1983
 4360SOL     OW24715   0.725   1.948   5.464  0.6052  0.2069 -0.0815
 4360SOL    HW124716   0.733   1.854   5.480 -2.1759  0.1005  0.7173
 4360SOL    HW224717   0.653   1.939   5.401  0.5963 -1.2746  0.1632
 4361SOL     OW24718   0.022   0.935   3.026 -0.0509  0.2088 -0.1975
 4361SOL    HW124719   0.057   0.979   3.104 -0.8106 -0.9184  0.7689
 4361SOL    HW224720   0.080   0.861   3.012 -0.2571 -0.3079  1.6649
 4362SOL     OW24721   3.128   2.770  11.225  0.4677 -0.1717 -0.2844
 4362SOL    HW124722   3.221   2.769  11.202 -0.4482 -1.9576 -4.0536
 4362SOL    HW224723   3.135   2.716  11.303 -0.8391  0.1493  0.0567
 4363SOL     OW24724   4.035   3.997   3.467 -0.9920 -0.0501  0.1664
 4363SOL    HW124725   4.043   3.903   3.486 -2.1485  0.3226  2.4057
 4363SOL    HW224726   3.974   3.981   3.394  0.2080 -0.3438 -0.7706
 4364SOL     OW24727   2.147   2.214   9.800  0.0725 -0.4751 -0.2050
 4364SOL    HW124728   2.154   2.290   9.858 -0.5447  0.7702 -1.7589
 4364SOL    HW224729   2.055   2.225   9.776  0.1002 -0.4803 -0.3145
 4365SOL     OW24730   0.723   0.926  12.972  0.0979  0.4052  0.0816
 4365SOL    HW124731   0.653   0.970  12.925 -1.3122 -1.3189  0.6036
 4365SOL    HW224732   0.716   0.842  12.927  1.6080  0.4972 -0.3544
 4366SOL     OW24733   4.551   0.935  17.029 -0.5699  0.3449 -0.0260
 4366SOL    HW124734   4.610   0.946  17.104 -3.1019  1.3133  1.7894
 4366SOL    HW224735   4.601   0.976  16.959 -1.3268  0.2920 -0.5907
 4367SOL     OW24736   2.422   2.506  16.224 -0.5122 -0.3399 -0.7316
 4367SOL    HW124737   2.327   2.497  16.234 -0.6733  2.6037  0.6145
 4367SOL    HW224738   2.447   2.448  16.152 -1.0028 -0.7344 -0.5813
 4368SOL     OW24739   3.520   0.378   1.391  0.0391 -0.8218  0.6479
 4368SOL    HW124740   3.533   0.472   1.385 -1.5177 -0.7099 -1.1615
 4368SOL    HW224741   3.443   0.383   1.448 -0.4429  1.9525 -0.2276
 4369SOL     OW24742   1.363   0.310   2.493 -0.1016  0.2220 -0.0038
 4369SOL    HW124743   1.316   0.358   2.426  0.2656 -0.3517 -0.6805
 4369SOL    HW224744   1.447   0.356   2.491  0.6885 -1.0413  3.2320
 4370SOL     OW24745   3.363   4.142  11.423  0.6017  0.1474 -0.4457
 4370SOL    HW124746   3.355   4.046  11.430  2.7774 -0.1879 -2.3473
 4370SOL    HW224747   3.277   4.161  11.385  1.2571  2.0120 -0.9999
 4371SOL     OW24748   2.335   0.598  15.260 -0.0029 -0.6151 -0.5068
 4371SOL    HW124749   2.256   0.556  15.226 -0.6195 -1.7299  2.3042
 4371SOL    HW224750   2.406   0.543  15.228  0.4582 -1.4206  1.8954
 4372SOL     OW24751   3.177   0.443   5.073 -0.3828  0.2778 -0.2219
 4372SOL    HW124752   3.142   0.371   5.020  0.2286 -0.2152  0.0398
 4372SOL    HW224753   3.242   0.403   5.131 -0.5394  0.7711  0.2921
 4373SOL     OW24754   1.229   2.833   2.564  0.3013 -0.2999  0.5560
 4373SOL    HW124755   1.262   2.744   2.550  0.5229 -0.4328  1.9210
 4373SOL    HW224756   1.251   2.837   2.657  1.2509  0.5904  0.2911
 4374SOL     OW24757   3.096   0.848   6.269  0.0762  0.2584  0.3192
 4374SOL    HW124758   3.040   0.801   6.331 -1.1692 -0.3532 -1.2666
 4374SOL    HW224759   3.175   0.800   6.295 -0.5692 -1.7985 -1.5615
 4375SOL     OW24760   2.912   2.636  13.132 -0.0379  0.6067 -0.3481
 4375SOL    HW124761   2.972   2.709  13.150  2.8333 -1.8372 -0.0593
 4375SOL    HW224762   2.823   2.670  13.137 -0.7257 -1.1399 -0.7136
 4376SOL     OW24763   0.159   3.850  10.134 -0.6971 -0.0206 -0.0418
 4376SOL    HW124764   0.213   3.828  10.210  1.2519  0.7010 -1.2453
 4376SOL    HW224765   0.093   3.911  10.168 -0.6137  0.3788 -0.5947
 4377SOL     OW24766   1.621   3.860   3.751 -0.0162  0.2868 -0.0499
 4377SOL    HW124767   1.704   3.904   3.769  0.3273 -0.6106  0.5499
 4377SOL    HW224768   1.633   3.783   3.807  2.1247 -0.4794 -1.5406
 4378SOL     OW24769   3.418   3.192   2.287  0.0925  0.7761  0.0085
 4378SOL    HW124770   3.367   3.117   2.256  2.3750 -1.1667  0.9412
 4378SOL    HW224771   3.352   3.259   2.300  1.2311  2.0030 -0.5474
 4379SOL     OW24772   1.172   1.353  14.421 -0.4209  0.0477  0.3033
 4379SOL    HW124773   1.137   1.268  14.394 -1.7866  0.9874 -0.9153
 4379SOL    HW224774   1.233   1.372  14.350 -1.7078  1.9048 -0.3081
 4380SOL     OW24775   1.477   3.872   6.579 -0.0365  0.0368  0.3574
 4380SOL    HW124776   1.547   3.924   6.618  2.0137 -0.7273 -2.3170
 4380SOL    HW224777   1.435   3.941   6.527  1.6068 -0.2130 -1.3109
 4381SOL     OW24778   3.221   4.085   7.496  0.1233  0.0759  0.3510
 4381SOL    HW124779   3.240   4.068   7.404  1.5654 -0.4262  0.7459
 4381SOL    HW224780   3.263   4.004   7.525 -0.1271  0.3044  1.3383
 4382SOL     OW24781   0.433   3.341   4.649  0.1392  0.2266 -0.0391
 4382SOL    HW124782   0.424   3.277   4.720 -2.7263  2.1301  1.3229
 4382SOL    HW224783   0.363   3.401   4.672 -0.3735 -0.1940 -0.5173
 4383SOL     OW24784   2.777   4.453   8.339 -0.0283  0.4694 -0.4342
 4383SOL    HW124785   2.709   4.500   8.386  0.8966  1.4588 -0.0919
 4383SOL    HW224786   2.837   4.526   8.325  0.1223  0.5430  0.6007
 4384SOL     OW24787   3.802   1.002   3.180  0.3362  0.3080 -0.3409
 4384SOL    HW124788   3.832   0.911   3.185 -0.3125  0.1850  1.7173
 4384SOL    HW224789   3.758   1.008   3.265  1.9667  0.8338  0.4676
 4385SOL     OW24790   0.304   1.916   4.667  0.7459  0.2520 -0.2131
 4385SOL    HW124791   0.230   1.938   4.724  1.7455 -0.6069  1.4340
 4385SOL    HW224792   0.276   1.838   4.619 -2.3638  1.0210  0.3408
 4386SOL     OW24793   2.886   3.989  15.967  0.7802 -0.0258 -0.8057
 4386SOL    HW124794   2.903   3.927  15.896  1.7350 -0.3864 -0.2540
 4386SOL    HW224795   2.951   4.055  15.945  1.3747 -0.6180 -0.8306
 4387SOL     OW24796   3.142   3.234   8.430  0.5898  0.2579 -0.3339
 4387SOL    HW124797   3.177   3.158   8.476 -0.8628 -2.0958 -3.1625
 4387SOL    HW224798   3.099   3.192   8.356  0.5547  3.2647 -2.0133
 4388SOL     OW24799   0.816   3.771   9.104  0.0315  0.1044  0.2321
 4388SOL    HW124800   0.837   3.777   9.011 -0.2248  3.0231  0.3808
 4388SOL    HW224801   0.838   3.679   9.123 -2.1476  0.0647  2.6495
 4389SOL     OW24802   2.565   4.514   3.465  0.4308  0.0083 -0.2161
 4389SOL    HW124803   2.541   4.598   3.504  1.2246 -0.3384  1.0298
 4389SOL    HW224804   2.483   4.509   3.416 -0.3404  1.5449  0.9153
 4390SOL     OW24805   4.392   0.797  11.860 -0.0373 -0.3818 -0.4698
 4390SOL    HW124806   4.335   0.787  11.784  0.5338  1.2839 -1.1088
 4390SOL    HW224807   4.472   0.756  11.826 -0.8409 -0.3466 -2.4106
 4391SOL     OW24808   4.144   3.708   1.919  0.1329  0.7693  0.0589
 4391SOL    HW124809   4.079   3.666   1.976  1.0389 -0.4730  0.1855
 4391SOL    HW224810   4.202   3.634   1.899  0.2593 -0.1111  3.4993
 4392SOL     OW24811   3.546   0.991   0.550  0.3637  0.0276 -0.4649
 4392SOL    HW124812   3.476   1.029   0.603 -0.7534 -1.9430 -0.4948
 4392SOL    HW224813   3.606   0.960   0.618 -1.7361  1.2046  1.9138
 4393SOL     OW24814   1.661   1.961  11.152  0.0840  0.3314 -0.2864
 4393SOL    HW124815   1.635   1.988  11.064  2.4337 -1.8451 -1.6542
 4393SOL    HW224816   1.700   2.037  11.197  1.1969 -0.7204  0.5305
 4394SOL     OW24817   1.578   1.313   7.501  0.7150  0.0184 -0.2657
 4394SOL    HW124818   1.567   1.219   7.487 -0.0225  0.2715 -1.3918
 4394SOL    HW224819   1.531   1.350   7.426  0.6656  1.3833  0.4270
 4395SOL     OW24820   3.389   0.201  16.740 -0.2372  0.2746 -0.2491
 4395SOL    HW124821   3.301   0.211  16.704  1.1155  1.9139 -3.1360
 4395SOL    HW224822   3.429   0.284  16.713  1.1138 -0.8365 -1.6323
 4396SOL     OW24823   2.398   1.910   7.489 -0.0526  0.5780  0.1178
 4396SOL    HW124824   2.324   1.874   7.538 -1.5568  0.1142 -2.5083
 4396SOL    HW224825   2.405   1.993   7.537  0.5400 -0.0877  1.1792
 4397SOL     OW24826   0.885   2.646   0.577 -0.2571 -0.0341 -0.7968
 4397SOL    HW124827   0.944   2.650   0.652  0.1646  1.0704 -1.1864
 4397SOL    HW224828   0.948   2.683   0.515  0.0920  1.9933  0.7825
 4398SOL     OW24829   2.684   3.240   9.093  0.2319  0.3460 -0.9153
 4398SOL    HW124830   2.682   3.154   9.135 -1.0702  0.4216 -0.8216
 4398SOL    HW224831   2.773   3.261   9.120 -0.7055  2.6006  0.4692
 4399SOL     OW24832   3.987   0.993  16.385 -0.0105 -0.4231 -0.0989
 4399SOL    HW124833   3.982   1.057  16.456  1.4643 -0.3691 -0.0431
 4399SOL    HW224834   3.938   1.031  16.312  0.8821 -0.7357 -0.8655
 4400SOL     OW24835   3.406   1.421   6.270  0.1178  0.2557  0.0134
 4400SOL    HW124836   3.404   1.330   6.299 -2.0653  0.1347 -0.5354
 4400SOL    HW224837   3.436   1.406   6.180 -1.1671 -0.7414 -0.2524
 4401SOL     OW24838   0.651   1.677   5.513  0.0594  0.2873 -0.3467
 4401SOL    HW124839   0.703   1.606   5.474  1.4040  0.5675  0.9345
 4401SOL    HW224840   0.575   1.672   5.455 -0.2736  2.4756 -0.0782
 4402SOL     OW24841   0.056   1.686  12.164 -0.1525  0.1706  0.0390
 4402SOL    HW124842   0.111   1.765  12.167 -0.3200  0.2689  0.5909
 4402SOL    HW224843   0.109   1.610  12.189  0.1241 -0.2327 -1.8171
 4403SOL     OW24844   2.115   4.212  16.290 -0.1834  0.1825  0.2803
 4403SOL    HW124845   2.202   4.225  16.253 -0.4842 -0.8656 -0.7927
 4403SOL    HW224846   2.115   4.120  16.318  2.0372  1.0721  3.1384
 4404SOL     OW24847   4.078   4.169   1.270 -0.8030 -0.2769 -0.0231
 4404SOL    HW124848   4.165   4.206   1.254 -1.6123  1.8763  0.4664
 4404SOL    HW224849   4.083   4.092   1.213 -0.6298  0.2688 -0.7510
 4405SOL     OW24850   3.815   3.592  10.570 -0.1680 -0.0194  0.7039
 4405SOL    HW124851   3.789   3.535  10.642 -0.8525  1.9913  2.0654
 4405SOL    HW224852   3.754   3.562  10.503 -0.0961 -0.7546  0.9712
 4406SOL     OW24853   2.964   3.341   2.222  0.7730 -0.3067  0.6584
 4406SOL    HW124854   2.979   3.377   2.135 -2.4367 -0.2274  0.1102
 4406SOL    HW224855   3.009   3.405   2.277 -1.6907  1.6505  0.4025
 4407SOL     OW24856   0.302   0.733   2.287 -0.6253 -0.3920  0.3755
 4407SOL    HW124857   0.224   0.732   2.342 -2.5127 -2.3037 -2.2842
 4407SOL    HW224858   0.311   0.823   2.257 -0.1013 -0.3720  0.5823
 4408SOL     OW24859   2.662   3.879   6.472  0.3011 -0.3286  0.1658
 4408SOL    HW124860   2.673   3.974   6.483 -0.6276 -0.3075  0.9820
 4408SOL    HW224861   2.708   3.851   6.551  2.0103  1.5750 -0.1388
 4409SOL     OW24862   2.443   1.385   1.100  0.5238 -0.1242 -0.2461
 4409SOL    HW124863   2.380   1.413   1.165  1.2532 -0.6723  0.6981
 4409SOL    HW224864   2.381   1.382   1.027  1.5282 -2.1217 -1.0345
 4410SOL     OW24865   1.391   0.018  10.511 -0.4023 -0.3421  0.3049
 4410SOL    HW124866   1.402   4.716  10.598  0.0438 -1.0326 -0.0671
 4410SOL    HW224867   1.421   4.685  10.455  0.3677  0.5089 -0.3606
 4411SOL     OW24868   2.115   1.903   2.985  0.7986 -0.1255  0.4529
 4411SOL    HW124869   2.100   1.970   3.051 -0.6677 -0.7805  0.7830
 4411SOL    HW224870   2.092   1.952   2.906 -1.5779 -0.5667  0.8919
 4412SOL     OW24871   4.371   0.413   9.490 -0.5318 -0.5349  0.5192
 4412SOL    HW124872   4.344   0.498   9.456  0.5468 -0.2518  0.3659
 4412SOL    HW224873   4.433   0.439   9.558  1.0117  0.2795 -1.1753
 4413SOL     OW24874   1.657   1.946  10.196  0.2754 -0.1068  0.2780
 4413SOL    HW124875   1.684   1.871  10.248  1.1146  1.2345  1.7690
 4413SOL    HW224876   1.570   1.960  10.232  0.1552 -0.1720  0.0176
 4414SOL     OW24877   1.427   2.913   9.668  0.2672  0.2416  0.0613
 4414SOL    HW124878   1.373   2.929   9.745  1.5102  0.0140  0.9863
 4414SOL    HW224879   1.454   2.824   9.691  0.7231  0.7815  1.6428
 4415SOL     OW24880   3.298   1.605  12.140  0.1658 -0.2698 -0.1158
 4415SOL    HW124881   3.273   1.637  12.053 -2.7046 -0.2727  0.6960
 4415SOL    HW224882   3.214   1.576  12.176 -0.2183 -0.8346 -1.4638
 4416SOL     OW24883   2.918   3.910  14.076 -0.1889 -0.0599  0.1585
 4416SOL    HW124884   2.922   3.937  14.168  0.1363  1.5502 -0.3338
 4416SOL    HW224885   2.999   3.919  14.027 -1.4934  3.2928 -1.3835
 4417SOL     OW24886   2.793   2.527   5.679  0.3081 -0.0060  0.5046
 4417SOL    HW124887   2.821   2.618   5.692 -0.9944 -0.1201  4.2544
 4417SOL    HW224888   2.853   2.493   5.745  0.0207 -1.3396  0.0851
 4418SOL     OW24889   0.227   0.041   9.967 -0.1640  0.1821 -0.1555
 4418SOL    HW124890   0.311   0.013  10.002 -0.9365 -1.2868  0.5113
 4418SOL    HW224891   0.170   0.040  10.044 -0.4473  0.2393 -0.3655
 4419SOL     OW24892   4.311   3.038   8.631 -0.5648  0.1683 -0.1490
 4419SOL    HW124893   4.303   2.962   8.573 -0.7915 -1.1120  1.5528
 4419SOL    HW224894   4.281   2.996   8.711 -2.6101  0.0957 -0.9573
 4420SOL     OW24895   2.981   0.914  16.886  0.0001 -0.0743  0.2018
 4420SOL    HW124896   2.945   0.989  16.838  2.1709  1.4732  0.9980
 4420SOL    HW224897   3.072   0.939  16.896 -0.6557  1.3798  2.7067
 4421SOL     OW24898   1.602   2.723   0.395  0.1048 -0.9549  0.2135
 4421SOL    HW124899   1.554   2.653   0.351  1.3580 -1.9253  0.4001
 4421SOL    HW224900   1.535   2.789   0.416 -0.6108 -2.5063  2.7605
 4422SOL     OW24901   1.649   3.772   2.693  0.0709 -0.0367 -0.2074
 4422SOL    HW124902   1.660   3.831   2.768  1.9427 -0.1193 -0.4341
 4422SOL    HW224903   1.739   3.765   2.662  0.1495  2.0191 -0.4362
 4423SOL     OW24904   4.541   2.353   7.162 -0.7659 -0.6696  0.1224
 4423SOL    HW124905   4.553   2.323   7.072  1.3928 -0.4225  0.3255
 4423SOL    HW224906   4.625   2.321   7.195  0.5373  1.8905 -0.7354
 4424SOL     OW24907   4.697   0.026   2.328 -0.4561 -0.0588 -0.0437
 4424SOL    HW124908   4.670   4.686   2.278  0.7464 -0.6461  0.2382
 4424SOL    HW224909   4.733   0.075   2.254 -0.8689  0.0291 -0.1876
 4425SOL     OW24910   4.246   2.164   2.977 -0.1998  0.0658  0.2961
 4425SOL    HW124911   4.307   2.238   2.984  0.6323 -0.5649 -0.2792
 4425SOL    HW224912   4.220   2.188   2.888  1.4062  1.6205  0.2376
 4426SOL     OW24913   0.400   0.621   2.006 -0.4066  0.2132  0.8539
 4426SOL    HW124914   0.476   0.627   1.949 -0.9169 -1.2649 -0.0012
 4426SOL    HW224915   0.429   0.570   2.081 -1.3699 -0.1519  0.9889
 4427SOL     OW24916   0.018   1.526   8.523 -0.2637  0.1595  0.1456
 4427SOL    HW124917   0.050   1.602   8.474 -2.3711  0.5466 -0.6336
 4427SOL    HW224918   4.728   1.575   8.600 -1.4528 -0.0702 -0.1402
 4428SOL     OW24919   1.385   2.580  11.893  0.2502  0.6337 -0.4239
 4428SOL    HW124920   1.354   2.655  11.944 -0.4152  0.4671 -0.5891
 4428SOL    HW224921   1.479   2.587  11.909  0.4258 -1.6881 -0.5051
 4429SOL     OW24922   1.715   0.705   4.310  0.6149  0.1306 -0.4257
 4429SOL    HW124923   1.803   0.742   4.320  0.1888  1.1710 -0.4310
 4429SOL    HW224924   1.709   0.650   4.388  1.0248 -1.2918 -1.4119
 4430SOL     OW24925   2.435   1.552   8.435  0.6192  0.2742 -0.2152
 4430SOL    HW124926   2.516   1.569   8.482  0.6588  2.1005 -0.9435
 4430SOL    HW224927   2.379   1.511   8.502  1.6200  1.3911  1.3025
 4431SOL     OW24928   1.811   3.264   9.178  0.0645 -0.1555  0.5057
 4431SOL    HW124929   1.722   3.281   9.209 -0.5796  0.3477 -1.6020
 4431SOL    HW224930   1.793   3.297   9.090 -0.8518 -2.0920 -0.0608
 4432SOL     OW24931   3.058   0.389   8.993  0.7486  0.2115  0.3672
 4432SOL    HW124932   3.122   0.450   8.957  2.0550 -1.4076 -0.0843
 4432SOL    HW224933   3.096   0.306   8.963  1.5246  0.8233 -0.3230
 4433SOL     OW24934   1.832   0.126  10.255 -0.3260  0.1598  0.0732
 4433SOL    HW124935   1.777   0.062  10.211  0.5445  0.0275 -0.8041
 4433SOL    HW224936   1.822   0.197  10.192 -0.2448  1.4587  1.5217
 4434SOL     OW24937   0.266   0.293  10.398  0.2184 -0.8486 -0.4316
 4434SOL    HW124938   0.347   0.296  10.347  1.4096  3.2162  1.7158
 4434SOL    HW224939   0.275   0.203  10.429 -1.4735 -1.4573 -1.7042
 4435SOL     OW24940   1.047   1.772   2.160  0.1807 -0.3095  0.6669
 4435SOL    HW124941   1.004   1.705   2.212 -2.3571  0.8135  0.0228
 4435SOL    HW224942   1.099   1.819   2.225  2.9044 -0.3875 -1.4312
 4436SOL     OW24943   2.798   3.244   6.445 -0.1182  0.0394 -0.0372
 4436SOL    HW124944   2.831   3.299   6.374 -0.5161  1.5932  0.9841
 4436SOL    HW224945   2.712   3.283   6.430 -0.2329 -0.7922 -1.5195
 4437SOL     OW24946   4.506   1.892   9.245  0.0632  0.5672 -0.4932
 4437SOL    HW124947   4.549   1.973   9.216  0.4335  0.8250  0.7873
 4437SOL    HW224948   4.505   1.916   9.338  2.4922 -0.0429 -0.3110
 4438SOL     OW24949   1.822   0.827  12.339 -0.1292  0.5348 -0.1471
 4438SOL    HW124950   1.738   0.799  12.377  0.4666 -0.2027  0.6240
 4438SOL    HW224951   1.787   0.865  12.258  0.0190 -0.9227 -0.8979
 4439SOL     OW24952   0.388   1.499  15.504 -0.3577  0.1732  0.0510
 4439SOL    HW124953   0.374   1.411  15.468 -2.0934  0.2047  0.6882
 4439SOL    HW224954   0.448   1.482  15.577 -0.0085  2.6475  0.3559
 4440SOL     OW24955   3.326   1.238   2.883  0.1570  0.0642 -0.1964
 4440SOL    HW124956   3.273   1.223   2.805  1.9293 -0.6202 -1.2852
 4440SOL    HW224957   3.275   1.198   2.953 -0.5248 -1.4097 -1.5338
 4441SOL     OW24958   1.027   2.328  11.349 -0.5737 -0.1557 -0.1877
 4441SOL    HW124959   1.014   2.350  11.442 -2.9307  2.0694 -1.0451
 4441SOL    HW224960   1.050   2.415  11.317  0.0250  0.1122  0.9497
 4442SOL     OW24961   0.353   0.669   6.256  0.2183 -0.1090  0.0368
 4442SOL    HW124962   0.342   0.575   6.269  0.9122 -0.3737 -1.3484
 4442SOL    HW224963   0.285   0.688   6.191  0.9628  2.8577  0.1245
 4443SOL     OW24964   4.738   0.108   7.911  0.4744  0.0332 -0.0302
 4443SOL    HW124965   4.705   0.173   7.973 -0.3744 -0.1111 -0.3196
 4443SOL    HW224966   0.003   0.171   7.839 -0.4927 -0.0140 -0.1276
 4444SOL     OW24967   0.377   1.920   2.249 -0.0586 -0.1485 -0.0764
 4444SOL    HW124968   0.465   1.897   2.280  0.4491  0.2629 -1.1909
 4444SOL    HW224969   0.344   1.908   2.338  3.9744  0.0564  1.4664
 4445SOL     OW24970   0.810   1.627  10.201 -0.0946 -0.1392  0.4096
 4445SOL    HW124971   0.812   1.669  10.115 -0.6258  0.0537  0.4895
 4445SOL    HW224972   0.798   1.702  10.260 -1.9941  0.5437 -0.8424
 4446SOL     OW24973   2.681   0.521   3.186  0.1283 -0.4469 -0.2168
 4446SOL    HW124974   2.771   0.503   3.157 -0.3905 -1.7737 -0.9957
 4446SOL    HW224975   2.630   0.451   3.145  0.3132 -0.8744  0.2662
 4447SOL     OW24976   2.483   1.242  16.853 -0.7828 -0.2189 -0.3070
 4447SOL    HW124977   2.478   1.150  16.877  0.9856  0.0076  1.0159
 4447SOL    HW224978   2.397   1.270  16.884 -1.6067 -1.4470 -1.4921
 4448SOL     OW24979   2.806   0.416  11.091  0.3597 -0.3690  0.0687
 4448SOL    HW124980   2.754   0.460  11.158 -0.2720 -0.1390 -0.5727
 4448SOL    HW224981   2.790   0.471  11.014  1.0098  0.1410  0.2986
 4449SOL     OW24982   1.567   2.833   0.706  0.1017 -0.1376  0.2135
 4449SOL    HW124983   1.642   2.775   0.717  1.0387  1.1423  0.5680
 4449SOL    HW224984   1.577   2.874   0.619 -1.0554 -2.1296 -0.8540
 4450SOL     OW24985   1.582   0.117   5.485  0.4535  1.0158 -0.0611
 4450SOL    HW124986   1.505   0.061   5.486  1.4160 -0.3218 -0.3506
 4450SOL    HW224987   1.647   0.069   5.432 -1.2852  0.4263 -1.6536
 4451SOL     OW24988   2.668   1.336  14.039  0.1289  0.1987 -0.2660
 4451SOL    HW124989   2.589   1.302  13.997  0.2846  0.5967 -0.8885
 4451SOL    HW224990   2.736   1.295  13.985  0.7993 -1.4772  1.9004
 4452SOL     OW24991   1.118   3.568  15.266 -0.2545 -0.5581 -0.1590
 4452SOL    HW124992   1.150   3.644  15.314 -1.2250 -0.7331  0.7442
 4452SOL    HW224993   1.062   3.534  15.335  1.0727 -2.9263 -0.2474
 4453SOL     OW24994   4.405   4.713   8.772  0.4840  0.2374  0.3356
 4453SOL    HW124995   4.310   4.705   8.780  0.6829 -1.2343  1.2378
 4453SOL    HW224996   4.430   0.042   8.835  2.4711 -0.4298  0.2606
 4454SOL     OW24997   0.909   4.618   3.912  0.3029 -0.1754 -0.4542
 4454SOL    HW124998   0.823   4.621   3.869  1.6180  1.3157 -3.0099
 4454SOL    HW224999   0.972   4.642   3.844 -0.4160  2.7309 -0.1052
 4455SOL     OW25000   2.183   3.789   3.558  0.2023 -0.2790 -0.5303
 4455SOL    HW125001   2.104   3.737   3.543  1.6476 -2.9485  1.0927
 4455SOL    HW225002   2.195   3.762   3.649  2.8178 -0.6513 -1.0079
 4456SOL     OW25003   2.203   1.239   0.882 -0.0250  0.1329 -0.0331
 4456SOL    HW125004   2.228   1.329   0.863  0.1586 -0.0041 -0.4316
 4456SOL    HW225005   2.108   1.246   0.874  0.0204  0.3958 -0.3098
 4457SOL     OW25006   3.221   1.105   2.662 -0.3993  0.2688 -0.6093
 4457SOL    HW125007   3.196   1.034   2.603  0.2032 -1.4904  1.2562
 4457SOL    HW225008   3.180   1.180   2.619  1.2335  0.6582 -1.4834
 4458SOL     OW25009   3.841   4.626  11.046 -0.2704  0.1339  0.8163
 4458SOL    HW125010   3.759   4.641  11.093 -2.1993  0.3283 -2.5923
 4458SOL    HW225011   3.906   4.678  11.093 -1.2352  0.4741  1.7918
 4459SOL     OW25012   3.646   0.288   3.961 -0.4258  0.6306  0.1764
 4459SOL    HW125013   3.670   0.200   3.932 -2.4151  0.4540 -0.9498
 4459SOL    HW225014   3.609   0.264   4.046  1.9324  0.1463  1.0468
 4460SOL     OW25015   3.367   4.419   7.696  0.0180 -0.1280  0.4961
 4460SOL    HW125016   3.353   4.357   7.768  3.8273  1.1901  2.3736
 4460SOL    HW225017   3.430   4.480   7.733 -2.0361  0.9738  2.1447
 4461SOL     OW25018   3.911   3.607  14.531 -0.4322 -0.1181  0.6029
 4461SOL    HW125019   3.857   3.680  14.501 -0.2066 -1.2792 -2.5532
 4461SOL    HW225020   3.902   3.539  14.465 -2.1093 -0.3681  1.0774
 4462SOL     OW25021   1.297   3.044   6.465 -0.1205 -0.2867  0.2557
 4462SOL    HW125022   1.303   3.066   6.557 -0.7911  2.7327 -0.4239
 4462SOL    HW225023   1.337   3.124   6.431 -2.1808  1.1347  1.2200
 4463SOL     OW25024   2.093   4.475   1.644 -0.1314 -0.3494  0.3552
 4463SOL    HW125025   2.155   4.531   1.691  0.2121  0.6612 -1.2912
 4463SOL    HW225026   2.074   4.400   1.700  1.1922  0.0559  1.3518
 4464SOL     OW25027   0.955   3.075   5.956 -0.2034  0.0025  0.2961
 4464SOL    HW125028   0.869   3.086   5.996 -0.9441  0.5193 -1.4212
 4464SOL    HW225029   1.019   3.087   6.026  1.0339  0.0132 -0.8293
 4465SOL     OW25030   3.276   3.565   4.971 -0.2304 -0.6025 -0.2720
 4465SOL    HW125031   3.339   3.506   4.932  0.1100  0.3347 -1.1285
 4465SOL    HW225032   3.190   3.522   4.965 -0.8722  0.6028  0.1929
 4466SOL     OW25033   0.251   4.180  11.057  0.6320  0.5397 -0.0979
 4466SOL    HW125034   0.289   4.104  11.101  0.2456 -0.4860 -1.5422
 4466SOL    HW225035   0.263   4.245  11.126 -0.2371  1.3468 -0.7014
 4467SOL     OW25036   4.155   3.450   3.978  0.0014  0.2195  0.8129
 4467SOL    HW125037   4.220   3.514   4.008  0.3426 -0.0101  0.5580
 4467SOL    HW225038   4.093   3.512   3.941 -1.6570 -0.1208  2.9644
 4468SOL     OW25039   1.102   0.759   1.086  0.2543  0.0238 -0.0735
 4468SOL    HW125040   1.163   0.713   1.143  0.0257  0.2498  0.3529
 4468SOL    HW225041   1.018   0.732   1.122 -0.1066  1.2232  0.0065
 4469SOL     OW25042   3.332   3.784  14.695 -0.0024  0.0653 -0.5478
 4469SOL    HW125043   3.423   3.812  14.693 -0.5542  1.7689 -2.3226
 4469SOL    HW225044   3.303   3.802  14.606 -0.4461 -0.8696 -0.5868
 4470SOL     OW25045   3.379   1.075   8.403  0.0518  0.2533  0.0256
 4470SOL    HW125046   3.401   1.092   8.495 -0.5450 -1.1377  0.4289
 4470SOL    HW225047   3.424   1.149   8.362  1.6470 -2.0085 -2.2496
 4471SOL     OW25048   4.123   2.133   2.035  0.0424 -0.3524  0.0564
 4471SOL    HW125049   4.145   2.045   2.065 -0.4758 -0.8992 -1.1707
 4471SOL    HW225050   4.064   2.100   1.967 -0.5665 -0.3712  0.5946
 4472SOL     OW25051   2.902   3.098  10.969 -0.4211 -0.3875  0.0755
 4472SOL    HW125052   2.998   3.095  10.962 -0.2667  0.3982  1.7196
 4472SOL    HW225053   2.899   3.122  11.061  0.7108 -1.2126  0.3205
 4473SOL     OW25054   3.749   2.399   8.890  0.2552  0.6585  0.2259
 4473SOL    HW125055   3.771   2.444   8.808 -1.5488  0.4259 -0.3972
 4473SOL    HW225056   3.661   2.438   8.895  0.0081 -0.0405  1.3075
 4474SOL     OW25057   1.636   2.319   5.137 -0.3865 -0.4838 -0.3153
 4474SOL    HW125058   1.626   2.227   5.115 -0.2239 -0.6641  0.3460
 4474SOL    HW225059   1.544   2.338   5.122 -0.7196 -1.4616  0.5086
 4475SOL     OW25060   3.293   4.295  10.547  0.0102  1.0233  0.3824
 4475SOL    HW125061   3.328   4.368  10.599  1.0702 -1.6348  3.3545
 4475SOL    HW225062   3.374   4.247  10.562 -0.9540 -0.9277 -0.6494
 4476SOL     OW25063   0.924   2.516   3.143  0.2182  0.0410  0.1312
 4476SOL    HW125064   0.977   2.522   3.063  0.5523 -1.8953  0.2088
 4476SOL    HW225065   0.970   2.585   3.191  0.7929  0.2546 -0.7123
 4477SOL     OW25066   3.446   4.256  13.698  0.1202 -0.0955  0.0467
 4477SOL    HW125067   3.406   4.179  13.657 -0.1451 -0.6782  1.4001
 4477SOL    HW225068   3.490   4.292  13.621  1.5541  1.5129  1.6321
 4478SOL     OW25069   4.566   1.538   2.080 -0.4920 -0.0042 -0.3858
 4478SOL    HW125070   4.505   1.554   2.152 -0.6505  1.2766 -0.8118
 4478SOL    HW225071   4.507   1.567   2.010  0.0476  0.1455 -0.7739
 4479SOL     OW25072   2.817   0.853  17.085  0.5044 -0.7521 -0.0482
 4479SOL    HW125073   2.872   0.882  17.013  0.5995 -0.3347  0.1896
 4479SOL    HW225074   2.758   0.797  17.036  0.2027 -1.0984  0.7149
 4480SOL     OW25075   4.570   2.465   4.897  0.0970 -0.0672 -0.4579
 4480SOL    HW125076   4.636   2.412   4.942  0.0123 -0.6247 -0.9972
 4480SOL    HW225077   4.618   2.526   4.842  2.0314  0.9557  2.3492
 4481SOL     OW25078   1.620   4.601   8.334 -0.8208  0.0920  0.3711
 4481SOL    HW125079   1.530   4.611   8.366 -0.6971  3.4537 -0.3327
 4481SOL    HW225080   1.675   4.644   8.399 -0.5022  2.7581 -1.7033
 4482SOL     OW25081   0.519   1.564  16.384  0.6297 -0.1465  0.0530
 4482SOL    HW125082   0.588   1.548  16.449 -0.1833  0.6993  1.1278
 4482SOL    HW225083   0.524   1.488  16.327  1.2096  0.4041 -0.6248
 4483SOL     OW25084   0.578   1.678   4.171  0.8014  0.0262  0.0507
 4483SOL    HW125085   0.517   1.751   4.171  0.1398 -0.5217 -0.5223
 4483SOL    HW225086   0.573   1.643   4.260 -2.2873  2.2090  0.7427
 4484SOL     OW25087   0.960   0.666   6.802  0.2203 -0.2917  0.1041
 4484SOL    HW125088   0.984   0.579   6.770 -0.9078 -0.3179 -0.6418
 4484SOL    HW225089   0.871   0.660   6.770  0.7016  3.3180 -1.8067
 4485SOL     OW25090   2.305   4.299   5.501  0.5636  0.3916  0.1138
 4485SOL    HW125091   2.243   4.307   5.574  0.1055  3.5185 -0.6302
 4485SOL    HW225092   2.362   4.373   5.525 -2.1207  2.3533  0.3448
 4486SOL     OW25093   0.268   0.471  13.701  0.7218 -0.3728 -0.0149
 4486SOL    HW125094   0.245   0.382  13.728  0.2836 -0.6280 -1.2607
 4486SOL    HW225095   0.195   0.509  13.652  1.1303  1.1715  0.5434
 4487SOL     OW25096   0.909   0.676  17.591  0.1419 -0.4262  0.3115
 4487SOL    HW125097   0.962   0.600  17.612 -0.3463 -0.8528  0.0185
 4487SOL    HW225098   0.942   0.734  17.659  1.3418  0.1617 -0.7703
 4488SOL     OW25099   4.183   2.540  16.926 -0.4497  0.3445  0.2870
 4488SOL    HW125100   4.245   2.600  16.886 -1.1570  1.2259  0.5154
 4488SOL    HW225101   4.142   2.488  16.857  2.1101  0.9627 -1.7194
 4489SOL     OW25102   2.296   2.724   7.159  0.0798  0.0750  0.1153
 4489SOL    HW125103   2.250   2.799   7.195 -0.4308 -0.4981  0.6446
 4489SOL    HW225104   2.250   2.648   7.194  0.4580 -0.5848 -0.7958
 4490SOL     OW25105   2.001   2.250   5.714 -0.9355  0.1552  0.0705
 4490SOL    HW125106   2.016   2.320   5.778 -0.5134 -1.1807  1.4364
 4490SOL    HW225107   1.908   2.254   5.690 -1.4244  2.4376  2.3016
 4491SOL     OW25108   0.842   4.379   5.769 -0.1684 -0.4209  0.5375
 4491SOL    HW125109   0.900   4.427   5.708 -2.0937  2.7164  1.1772
 4491SOL    HW225110   0.860   4.289   5.742  1.3147  0.2005 -0.5544
 4492SOL     OW25111   0.029   3.411  10.083  0.1262  0.2671  0.1437
 4492SOL    HW125112   4.687   3.430  10.131 -0.0586  0.6672 -0.3302
 4492SOL    HW225113   0.014   3.333  10.030 -0.0256  0.4936 -0.1462
 4493SOL     OW25114   0.527   2.666   4.214  0.2523  0.4446 -0.0961
 4493SOL    HW125115   0.507   2.580   4.176 -1.3244  1.0440 -0.5885
 4493SOL    HW225116   0.438   2.698   4.228 -0.0984 -0.1239 -1.0010
 4494SOL     OW25117   3.931   2.449   4.720 -0.0227  0.2875 -0.1799
 4494SOL    HW125118   3.953   2.497   4.640 -0.0987 -0.2952 -0.5506
 4494SOL    HW225119   3.875   2.518   4.755  0.5197  1.3526 -1.3996
 4495SOL     OW25120   1.223   1.839   6.857  0.3494  0.6439  0.6394
 4495SOL    HW125121   1.271   1.775   6.805 -1.9584  0.5923 -1.4142
 4495SOL    HW225122   1.282   1.910   6.831  1.7521  0.0562  2.2866
 4496SOL     OW25123   4.114   4.549   2.165  0.1582  0.3079 -0.3760
 4496SOL    HW125124   4.091   4.642   2.174 -1.1835 -0.0680  0.0956
 4496SOL    HW225125   4.191   4.538   2.221 -1.6184  1.1516  2.2234
 4497SOL     OW25126   3.991   3.305   6.653  0.7159 -0.2485 -0.0015
 4497SOL    HW125127   3.953   3.232   6.702  1.1810  1.5798  3.0084
 4497SOL    HW225128   4.042   3.259   6.586  0.9461  1.6178 -1.1263
 4498SOL     OW25129   3.428   3.685   3.406  0.1196 -0.3050 -0.2113
 4498SOL    HW125130   3.500   3.635   3.445  2.2970  1.1960 -2.2853
 4498SOL    HW225131   3.474   3.767   3.388  0.0734 -0.2125  0.0989
 4499SOL     OW25132   2.877   1.458   3.565  0.0874  0.5751  0.2904
 4499SOL    HW125133   2.788   1.423   3.577 -0.4097  1.4742 -0.7058
 4499SOL    HW225134   2.922   1.374   3.561 -1.1241  0.0211 -1.8500
 4500SOL     OW25135   4.554   1.539   3.205  0.4305 -0.2647 -0.1761
 4500SOL    HW125136   4.648   1.543   3.221  0.3012 -0.2797  0.5966
 4500SOL    HW225137   4.542   1.621   3.159  1.3031  0.3853  0.7554
 4501SOL     OW25138   3.565   4.103   1.965  0.0353  0.3889  0.2062
 4501SOL    HW125139   3.576   4.063   2.051 -1.1390 -0.7138 -0.1520
 4501SOL    HW225140   3.584   4.193   1.992 -1.7546  0.4902  1.1267
 4502SOL     OW25141   1.933   1.316  16.870  0.0770  0.0381  0.0997
 4502SOL    HW125142   1.889   1.295  16.952 -0.8131 -0.3549 -0.4728
 4502SOL    HW225143   1.876   1.269  16.809 -1.5233 -0.0326  1.6311
 4503SOL     OW25144   3.055   2.035   3.476  0.1827  0.0580  0.0377
 4503SOL    HW125145   2.967   1.999   3.485  0.1359 -0.2180 -1.5209
 4503SOL    HW225146   3.093   1.987   3.550 -2.7632 -1.1059  0.8092
 4504SOL     OW25147   1.775   3.310   8.570 -0.4603 -0.0191 -0.3330
 4504SOL    HW125148   1.682   3.295   8.557 -0.7665  1.8141 -0.2601
 4504SOL    HW225149   1.784   3.302   8.665 -0.8760  0.0884 -0.2855
 4505SOL     OW25150   1.202   3.984  14.174 -0.3719 -0.6270  0.4924
 4505SOL    HW125151   1.166   4.071  14.160  1.5927  0.7066  3.6972
 4505SOL    HW225152   1.285   3.997  14.127 -0.3365  2.3065  1.4111
 4506SOL     OW25153   4.259   1.219   0.958  0.0855  0.4681  0.4832
 4506SOL    HW125154   4.207   1.296   0.935 -1.2305 -0.5108  0.2325
 4506SOL    HW225155   4.200   1.174   1.018  0.2645 -0.5675 -0.1337
 4507SOL     OW25156   1.329   3.203   5.732  0.6460 -0.1829 -0.1056
 4507SOL    HW125157   1.244   3.159   5.736  1.1513 -1.1548 -0.0673
 4507SOL    HW225158   1.316   3.282   5.785  0.7751 -0.8974  0.9916
 4508SOL     OW25159   2.405   1.814   2.933  0.3860 -0.6216  0.1131
 4508SOL    HW125160   2.324   1.830   2.982 -1.2238  0.8254 -2.9846
 4508SOL    HW225161   2.468   1.864   2.983  2.0012 -0.3421 -2.1954
 4509SOL     OW25162   2.816   3.557   5.103  0.1782 -0.1398 -0.2554
 4509SOL    HW125163   2.739   3.613   5.113  2.2150  2.4853  0.4092
 4509SOL    HW225164   2.775   3.470   5.102  2.8326 -1.4363  3.3638
 4510SOL     OW25165   2.792   2.568   5.264 -0.2244  0.0145  0.1810
 4510SOL    HW125166   2.857   2.500   5.249  1.4729  0.8486  3.6004
 4510SOL    HW225167   2.775   2.600   5.176  1.9831  2.1128  0.5241
 4511SOL     OW25168   3.360   4.600   4.121 -0.5827 -0.0014  0.5170
 4511SOL    HW125169   3.298   4.530   4.098  0.9264 -1.0143 -0.4801
 4511SOL    HW225170   3.304   4.677   4.132 -0.0603  0.1552  2.0807
 4512SOL     OW25171   0.297   0.736  12.854 -0.4085 -0.1095 -0.1461
 4512SOL    HW125172   0.337   0.651  12.839 -1.8529 -0.4511 -2.0449
 4512SOL    HW225173   0.257   0.717  12.939  0.2516  0.7474  0.3516
 4513SOL     OW25174   1.316   2.981   3.070  0.1174  0.0697 -1.0372
 4513SOL    HW125175   1.343   3.073   3.070  4.0014 -1.0870 -1.8353
 4513SOL    HW225176   1.239   2.991   3.126  1.8629  1.2003  1.1719
 4514SOL     OW25177   2.942   0.270   2.249  0.5621  0.1947  0.3349
 4514SOL    HW125178   2.877   0.199   2.247  0.9141 -0.1389  0.5627
 4514SOL    HW225179   2.916   0.329   2.179  2.4583  0.0455 -0.5063
 4515SOL     OW25180   1.554   4.384   7.933 -0.8050 -0.1134 -0.1476
 4515SOL    HW125181   1.550   4.391   8.028 -0.9154 -0.5887 -0.1191
 4515SOL    HW225182   1.564   4.290   7.923 -3.2709 -0.7668  3.3739
 4516SOL     OW25183   1.107   3.371   7.778  0.0497 -0.1805  0.6584
 4516SOL    HW125184   1.064   3.310   7.718 -0.6293 -0.8683  1.8673
 4516SOL    HW225185   1.157   3.427   7.718 -0.8736  0.3140  0.3604
 4517SOL     OW25186   1.276   1.068   3.060 -0.6085  0.3450  0.4124
 4517SOL    HW125187   1.366   1.096   3.049 -2.1616  3.7038 -3.6913
 4517SOL    HW225188   1.278   1.002   2.991  2.2866 -0.2753  1.0884
 4518SOL     OW25189   2.450   2.076   9.702 -0.4108 -0.5191  0.6490
 4518SOL    HW125190   2.449   2.086   9.797  2.4224 -4.1162  1.0651
 4518SOL    HW225191   2.401   1.994   9.691 -0.6434 -0.1633 -0.9914
 4519SOL     OW25192   2.449   3.479   6.198 -0.1502 -0.0389 -0.0179
 4519SOL    HW125193   2.447   3.408   6.262 -2.8406 -2.0446 -2.3384
 4519SOL    HW225194   2.447   3.419   6.124 -2.1227  0.6550 -0.5257
 4520SOL     OW25195   3.878   3.990  10.388  0.1364 -0.7579  0.2239
 4520SOL    HW125196   3.910   4.036  10.466 -0.1037  1.7158 -1.1496
 4520SOL    HW225197   3.944   3.921  10.385  0.3368 -0.4267 -2.1921
 4521SOL     OW25198   3.662   4.101  10.245 -0.1414  0.0041 -0.1306
 4521SOL    HW125199   3.692   4.177  10.296 -0.0612 -1.0097  1.3231
 4521SOL    HW225200   3.731   4.042  10.274 -0.0319  0.0551 -0.2865
 4522SOL     OW25201   3.791   0.927   6.608 -0.3907  0.5978 -1.0137
 4522SOL    HW125202   3.791   1.012   6.652  2.6495  0.3365 -0.5462
 4522SOL    HW225203   3.864   0.881   6.650  0.0140  1.9140 -0.2840
 4523SOL     OW25204   3.186   2.646   6.525 -0.5816 -0.1577  0.2033
 4523SOL    HW125205   3.174   2.726   6.577 -0.8809  0.4260 -0.7684
 4523SOL    HW225206   3.235   2.683   6.452 -0.3012 -2.5620 -0.8195
 4524SOL     OW25207   1.242   4.575   6.451 -0.5538 -0.6345  0.1309
 4524SOL    HW125208   1.254   4.575   6.356  2.1529 -1.1927  0.4681
 4524SOL    HW225209   1.295   4.652   6.474 -0.4007 -0.0496 -2.2106
 4525SOL     OW25210   3.440   0.361   3.692  0.0730  0.5174 -0.1826
 4525SOL    HW125211   3.430   0.315   3.608 -2.1975 -0.7917  0.7831
 4525SOL    HW225212   3.385   0.316   3.756  2.4278 -0.0786  1.3801
 4526SOL     OW25213   1.624   0.228   0.283  0.4855  0.3846 -0.1107
 4526SOL    HW125214   1.694   0.168   0.258  1.0285  0.8384  0.3061
 4526SOL    HW225215   1.651   0.300   0.225 -0.8685  1.3596  0.4612
 4527SOL     OW25216   3.490   4.711   3.894 -0.0985 -0.3259 -0.2202
 4527SOL    HW125217   3.563   4.659   3.861 -0.3872 -1.8353  1.5123
 4527SOL    HW225218   3.489   4.686   3.987  2.6044  0.7236  0.0929
 4528SOL     OW25219   1.174   3.095   8.351  0.2908  0.1299 -0.1999
 4528SOL    HW125220   1.130   3.097   8.266  0.6822  1.4109 -0.3623
 4528SOL    HW225221   1.155   3.005   8.379  2.1121 -1.3801 -3.7836
 4529SOL     OW25222   4.398   3.530   8.544  0.4433 -0.0070  0.0048
 4529SOL    HW125223   4.470   3.546   8.604  0.7201 -0.7468 -0.1292
 4529SOL    HW225224   4.408   3.435   8.540 -0.8984 -0.0805 -2.2843
 4530SOL     OW25225   2.578   0.776   8.353  0.5482  0.2500 -0.2075
 4530SOL    HW125226   2.484   0.760   8.342  0.9407 -2.1695 -0.0915
 4530SOL    HW225227   2.589   0.725   8.433  0.2654  2.2038  1.0682
 4531SOL     OW25228   1.304   3.117  15.701  0.3208 -0.0479  0.0485
 4531SOL    HW125229   1.267   3.202  15.721 -1.4724 -0.4884 -1.3687
 4531SOL    HW225230   1.364   3.109  15.775 -1.3708  0.1542  1.4419
 4532SOL     OW25231   2.933   2.382  13.017 -0.2010 -1.0328  0.0981
 4532SOL    HW125232   2.903   2.464  13.057 -1.0248 -1.2893 -0.0056
 4532SOL    HW225233   3.004   2.374  13.081  1.6182 -2.8770 -2.1320
 4533SOL     OW25234   3.037   0.974  16.271  0.1759  0.2677  0.0286
 4533SOL    HW125235   3.021   1.024  16.192  1.3821  0.8274  0.1435
 4533SOL    HW225236   3.132   0.961  16.269  0.4894  2.4472  0.5709
 4534SOL     OW25237   1.371   3.916  14.457 -0.0593 -0.3251  0.1527
 4534SOL    HW125238   1.355   3.837  14.509  1.5903  0.8175  2.3943
 4534SOL    HW225239   1.464   3.938  14.459 -0.0115 -0.5556  0.5111
 4535SOL     OW25240   2.369   1.982  11.739  0.2791  0.1425 -0.7534
 4535SOL    HW125241   2.324   1.970  11.823  0.3966 -3.0565 -1.1449
 4535SOL    HW225242   2.312   1.939  11.675 -0.4651 -0.7782  0.5100
 4536SOL     OW25243   1.000   2.865   0.297  0.4536 -0.2930 -0.6838
 4536SOL    HW125244   0.906   2.872   0.279  0.3129 -0.3066  0.0388
 4536SOL    HW225245   1.029   2.956   0.294 -1.3253  0.3109  0.0912
 4537SOL     OW25246   2.165   3.923  13.496  0.1449  0.0095  0.4124
 4537SOL    HW125247   2.256   3.912  13.470  0.7003  3.1706  0.9961
 4537SOL    HW225248   2.119   3.845  13.464 -0.8962  1.2935 -1.2395
 4538SOL     OW25249   3.035   1.370   5.231 -0.8173 -0.4472  0.0569
 4538SOL    HW125250   3.065   1.279   5.234  0.0234 -0.2358 -1.7251
 4538SOL    HW225251   2.947   1.356   5.264 -0.9101  0.1665  0.0764
 4539SOL     OW25252   3.952   1.284  13.843  0.3240  0.3825  0.8358
 4539SOL    HW125253   4.006   1.291  13.764 -2.0075  2.3580 -0.6119
 4539SOL    HW225254   3.888   1.219  13.814 -0.8405  2.0234 -0.2674
 4540SOL     OW25255   4.235   2.390   9.359 -0.2381  0.1075 -0.0213
 4540SOL    HW125256   4.252   2.307   9.314 -1.1481  0.4003 -0.9143
 4540SOL    HW225257   4.143   2.407   9.341 -0.3272  0.7493  1.0678
 4541SOL     OW25258   4.051   1.804   4.932 -0.2995  0.0975 -0.0472
 4541SOL    HW125259   3.987   1.839   4.994  1.7633  2.3185  0.8255
 4541SOL    HW225260   4.069   1.875   4.871 -0.2033  1.3632  1.4507
 4542SOL     OW25261   4.693   2.853   8.884  0.1372 -0.1466  0.1274
 4542SOL    HW125262   4.694   2.780   8.822 -1.1573  0.6903 -0.8789
 4542SOL    HW225263   4.638   2.806   8.947 -0.8470  0.2494 -0.4239
 4543SOL     OW25264   2.477   3.914   4.011 -0.1325  0.1519 -0.0294
 4543SOL    HW125265   2.558   3.953   4.045  0.6598 -0.0970 -1.6409
 4543SOL    HW225266   2.515   3.854   3.948 -0.4015  0.4767 -0.5017
 4544SOL     OW25267   4.626   0.026   5.932  0.1578 -0.2548  0.0411
 4544SOL    HW125268   4.693   0.081   5.973 -0.5136 -0.0651  0.8691
 4544SOL    HW225269   4.614   0.060   5.843 -1.3760  0.1056  0.3847
 4545SOL     OW25270   2.819   1.074   3.106  0.5048  0.0165 -0.1703
 4545SOL    HW125271   2.797   0.997   3.159  0.8129  0.0434 -0.0040
 4545SOL    HW225272   2.742   1.087   3.051 -0.5501 -0.2503  1.2491
 4546SOL     OW25273   0.832   4.601   0.691 -0.5975 -0.4191 -0.3304
 4546SOL    HW125274   0.737   4.609   0.685 -0.7319 -1.8982 -0.3314
 4546SOL    HW225275   0.867   4.683   0.657 -0.4166  0.1790  1.3047
 4547SOL     OW25276   1.151   1.875   4.665 -0.4898 -0.0770 -0.0589
 4547SOL    HW125277   1.148   1.798   4.723  1.0917  0.4479  0.7043
 4547SOL    HW225278   1.244   1.873   4.645 -0.7947  0.7890 -1.4996
 4548SOL     OW25279   4.412   0.424   2.916  0.0066 -0.3327  0.1262
 4548SOL    HW125280   4.495   0.398   2.876  0.4715  2.1651 -0.5272
 4548SOL    HW225281   4.437   0.418   3.008  0.4110  0.5977  0.0721
 4549SOL     OW25282   1.826   2.427  14.057  0.1656  0.3058 -0.5140
 4549SOL    HW125283   1.873   2.350  14.023  0.4329 -0.6164  1.9722
 4549SOL    HW225284   1.768   2.382  14.118  0.1131  0.3736 -0.5141
 4550SOL     OW25285   3.815   2.796   2.338 -0.4392 -0.7886  0.0646
 4550SOL    HW125286   3.801   2.748   2.420 -0.0660 -0.4819  0.3036
 4550SOL    HW225287   3.863   2.724   2.298 -0.6004 -0.6553 -0.3668
 4551SOL     OW25288   1.665   4.690   7.896 -0.1646 -0.8885 -0.0924
 4551SOL    HW125289   1.604   4.632   7.940 -0.4508  0.7384  1.6721
 4551SOL    HW225290   1.661   4.650   7.809  1.2027 -2.4074  0.5439
 4552SOL     OW25291   2.526   2.254  13.951 -0.2476  0.1941  0.3656
 4552SOL    HW125292   2.616   2.255  13.984  0.3111  0.5100 -1.1552
 4552SOL    HW225293   2.501   2.346  13.962 -0.8815  0.1786 -0.9416
 4553SOL     OW25294   4.095   0.179   5.890 -0.0107 -0.5089  0.0613
 4553SOL    HW125295   4.112   0.151   5.801 -0.2710 -0.9634  0.1539
 4553SOL    HW225296   4.140   0.118   5.948 -0.5413 -1.2934 -0.3566
 4554SOL     OW25297   3.651   4.356   4.092 -0.2796  0.0506  0.1934
 4554SOL    HW125298   3.694   4.320   4.014  3.3705  0.0777  2.2118
 4554SOL    HW225299   3.572   4.300   4.089  0.1728 -0.5989  0.3943
 4555SOL     OW25300   4.314   0.518   6.629  0.4862 -0.1339 -0.1728
 4555SOL    HW125301   4.226   0.519   6.666  0.4253 -2.2445 -0.2269
 4555SOL    HW225302   4.308   0.462   6.552 -2.5687 -2.0939  1.5091
 4556SOL     OW25303   1.395   1.622  13.055 -0.1835  0.0730 -0.3044
 4556SOL    HW125304   1.322   1.602  12.997 -1.0070  0.8139  0.4868
 4556SOL    HW225305   1.371   1.703  13.099 -1.9801 -0.3038 -0.6084
 4557SOL     OW25306   4.363   3.956   5.753  0.3761 -0.0206 -0.0664
 4557SOL    HW125307   4.417   3.882   5.780  0.7140  0.3362  0.2334
 4557SOL    HW225308   4.279   3.936   5.795 -0.3422  1.2407 -0.8828
 4558SOL     OW25309   2.980   0.880  15.367 -0.3904 -0.1602 -0.1162
 4558SOL    HW125310   3.026   0.888  15.450  0.1166  0.6713 -0.4739
 4558SOL    HW225311   2.956   0.973  15.358 -3.8335 -1.0843 -0.3666
 4559SOL     OW25312   0.101   1.566   1.874 -0.2329  0.5776  0.1213
 4559SOL    HW125313   0.195   1.567   1.854 -0.4033  0.0147 -0.7080
 4559SOL    HW225314   0.107   1.583   1.968 -0.2842 -0.1483  0.2584
 4560SOL     OW25315   2.238   2.562   5.663 -0.3990 -0.0300 -0.3272
 4560SOL    HW125316   2.244   2.470   5.639  1.1056  0.1229 -0.5574
 4560SOL    HW225317   2.326   2.575   5.700  0.6469 -1.1650 -2.4044
 4561SOL     OW25318   1.791   2.500   6.707 -0.3589 -0.3147  0.0512
 4561SOL    HW125319   1.701   2.512   6.677 -0.2365  0.2276 -0.0920
 4561SOL    HW225320   1.842   2.495   6.626 -0.0089 -1.0443  0.3118
 4562SOL     OW25321   3.581   2.152  11.652  0.0825 -0.2412 -0.5486
 4562SOL    HW125322   3.503   2.207  11.657  0.5196  0.1630  2.0498
 4562SOL    HW225323   3.540   2.070  11.625 -2.4445  0.7427  0.3068
 4563SOL     OW25324   3.720   1.543   6.296  0.6064  0.2442 -0.1099
 4563SOL    HW125325   3.639   1.578   6.333 -0.8515 -2.6010 -0.5849
 4563SOL    HW225326   3.740   1.604   6.225  0.4452  0.7132  0.2470
 4564SOL     OW25327   4.028   1.650   9.162 -0.0249  0.2310 -0.3906
 4564SOL    HW125328   4.124   1.659   9.167  0.0887 -1.5953  0.6847
 4564SOL    HW225329   4.022   1.641   9.067 -0.5518 -2.6168 -0.0887
 4565SOL     OW25330   4.347   4.370   2.677  0.3923 -0.4317 -0.2448
 4565SOL    HW125331   4.339   4.367   2.773  2.8438  1.5681  0.0147
 4565SOL    HW225332   4.283   4.302   2.655 -1.3186  1.0283  0.2699
 4566SOL     OW25333   2.695   3.710   4.239  0.0440 -0.0651  0.3412
 4566SOL    HW125334   2.696   3.614   4.237 -1.1816 -0.0778  0.0278
 4566SOL    HW225335   2.703   3.728   4.145 -0.0514  1.2729  0.5945
 4567SOL     OW25336   2.795   1.712   9.288 -0.0409  0.6242  0.3343
 4567SOL    HW125337   2.794   1.785   9.351  1.2151 -0.4482  1.6072
 4567SOL    HW225338   2.888   1.693   9.284 -0.6792 -2.3734 -0.4647
 4568SOL     OW25339   4.018   3.734  10.454  0.1277 -0.0330 -0.3208
 4568SOL    HW125340   3.956   3.697  10.516  0.8658  0.6268  0.8106
 4568SOL    HW225341   4.042   3.663  10.395  1.1737 -0.0574  0.1420
 4569SOL     OW25342   4.217   4.556   6.212  0.0787 -0.6314  0.1434
 4569SOL    HW125343   4.273   4.505   6.271 -0.3298  0.2434  1.2929
 4569SOL    HW225344   4.128   4.523   6.228 -0.3139  1.1440  1.6139
 4570SOL     OW25345   2.842   4.613  17.378 -0.1202  0.0416 -0.1212
 4570SOL    HW125346   2.885   4.594  17.295  1.4230  0.9928  0.4566
 4570SOL    HW225347   2.837   4.524  17.410  0.6895  0.0555  0.0392
 4571SOL     OW25348   3.291   0.626   1.987 -0.0023  0.1468  0.6163
 4571SOL    HW125349   3.302   0.531   1.988 -0.1463  0.1194 -1.5572
 4571SOL    HW225350   3.294   0.646   1.894  1.3925 -0.2389  0.5649
 4572SOL     OW25351   0.199   0.375  14.834 -0.1643 -0.2739  0.2906
 4572SOL    HW125352   0.182   0.291  14.878 -0.6044  0.1009  0.8289
 4572SOL    HW225353   0.153   0.367  14.750  1.2403 -1.3170 -0.3738
 4573SOL     OW25354   2.777   0.043   2.186  0.1894  0.1141 -0.0114
 4573SOL    HW125355   2.745   0.085   2.106  0.6207  0.3232 -0.0744
 4573SOL    HW225356   2.852   4.731   2.154 -0.0768 -0.3672  0.1248
 4574SOL     OW25357   2.450   0.699   5.024 -0.3744 -0.2805  0.4563
 4574SOL    HW125358   2.446   0.612   4.984 -1.7561  0.1242 -0.3043
 4574SOL    HW225359   2.520   0.736   4.970 -1.1893 -0.2782 -0.6065
 4575SOL     OW25360   2.765   4.399   3.623  0.0645  0.1128 -0.1164
 4575SOL    HW125361   2.705   4.401   3.549 -0.5860  1.8961  0.4657
 4575SOL    HW225362   2.714   4.337   3.675  1.3217 -2.5013 -1.9892
 4576SOL     OW25363   1.123   2.926  12.221  0.0308  0.0054  0.3030
 4576SOL    HW125364   1.069   2.945  12.298 -0.6881  0.3719 -0.2943
 4576SOL    HW225365   1.140   3.017  12.198  0.3468  0.0789  0.8250
 4577SOL     OW25366   1.908   2.500   7.111 -0.2561 -0.1746  0.3636
 4577SOL    HW125367   1.921   2.564   7.181  0.0670 -0.7758  0.8489
 4577SOL    HW225368   1.985   2.444   7.123  1.3534  1.9274 -0.2315
 4578SOL     OW25369   1.182   3.301   5.517  0.6581 -0.2915 -0.1362
 4578SOL    HW125370   1.105   3.272   5.567 -0.4459  0.3873 -1.4297
 4578SOL    HW225371   1.253   3.271   5.573 -0.4279 -1.4424  0.6075
 4579SOL     OW25372   3.933   4.414   7.009  0.4762  0.1558  0.4640
 4579SOL    HW125373   3.964   4.505   7.014  1.4704 -0.0512 -1.8579
 4579SOL    HW225374   3.900   4.405   7.099  0.3796  1.6611  0.5862
 4580SOL     OW25375   1.151   3.487   9.052 -0.1000  0.1731 -0.1938
 4580SOL    HW125376   1.164   3.431   8.976 -3.1416 -2.2301  1.0603
 4580SOL    HW225377   1.236   3.504   9.091 -0.5850  0.9675  0.5301
 4581SOL     OW25378   0.386   2.195  15.387  0.0814 -0.3631 -0.2234
 4581SOL    HW125379   0.422   2.219  15.302  0.3952  1.7388  0.5075
 4581SOL    HW225380   0.332   2.269  15.414 -0.6908 -0.6484 -0.9805
 4582SOL     OW25381   0.854   2.438   1.739 -0.6072  0.5631 -0.1245
 4582SOL    HW125382   0.812   2.366   1.692 -1.4333  1.4957 -0.8142
 4582SOL    HW225383   0.797   2.442   1.816  0.9015  3.9224  0.8357
 4583SOL     OW25384   3.186   3.151  12.841  0.3699  0.2164 -0.1624
 4583SOL    HW125385   3.091   3.144  12.853  0.0920  0.1244 -2.3650
 4583SOL    HW225386   3.218   3.066  12.869 -0.0299 -0.3244 -1.3517
 4584SOL     OW25387   4.024   4.158   4.747 -0.3287 -0.3436  0.3849
 4584SOL    HW125388   4.034   4.066   4.774  2.0324  0.6923  3.0414
 4584SOL    HW225389   3.958   4.147   4.679  0.8321 -0.4874 -0.7312
 4585SOL     OW25390   1.290   2.008   5.089 -0.7433 -0.0711  0.5290
 4585SOL    HW125391   1.322   1.942   5.027 -1.7528 -0.3916  0.3600
 4585SOL    HW225392   1.331   1.979   5.170  1.3187 -0.8269 -0.7748
 4586SOL     OW25393   0.219   1.888   1.150  0.0443  0.3063  0.0163
 4586SOL    HW125394   0.131   1.897   1.114 -0.2547  0.8717  0.8852
 4586SOL    HW225395   0.218   1.946   1.227 -0.6253  0.7442 -0.3209
 4587SOL     OW25396   1.509   3.802   3.493 -0.4287  0.2699 -0.2436
 4587SOL    HW125397   1.562   3.815   3.572 -0.2100  0.2431 -0.3857
 4587SOL    HW225398   1.578   3.817   3.427  0.8771 -0.4467  0.9595
 4588SOL     OW25399   2.696   2.474   7.736  0.2140  0.1171 -0.1631
 4588SOL    HW125400   2.607   2.495   7.764 -0.2582 -1.6397 -0.3870
 4588SOL    HW225401   2.684   2.523   7.654 -1.2060  1.2311  0.7080
 4589SOL     OW25402   3.339   0.016   7.880  0.8754  0.7757  0.4975
 4589SOL    HW125403   3.293   0.070   7.816  1.5773 -1.2583 -1.7422
 4589SOL    HW225404   3.398   4.700   7.826  0.8306  0.4519  0.7726
 4590SOL     OW25405   0.397   0.897   4.840 -0.7359  0.4225  0.5985
 4590SOL    HW125406   0.460   0.959   4.803  0.5176  0.7497  3.3163
 4590SOL    HW225407   0.413   0.820   4.785 -3.0241  1.2700 -1.2515
 4591SOL     OW25408   3.441   3.861   0.833 -0.3704  0.3964  0.2122
 4591SOL    HW125409   3.500   3.825   0.899 -1.1011 -0.9925  0.1164
 4591SOL    HW225410   3.425   3.952   0.859 -0.4425  0.2294  0.7542
 4592SOL     OW25411   3.260   1.541  11.160  0.2114  0.1909  0.2768
 4592SOL    HW125412   3.199   1.471  11.185 -0.8648  0.9961 -0.0997
 4592SOL    HW225413   3.198   1.606  11.129 -0.7107 -0.8585 -0.0958
 4593SOL     OW25414   1.511   2.712   1.700  0.4374 -0.2613 -1.0302
 4593SOL    HW125415   1.557   2.758   1.629  2.3989  0.1417  0.5111
 4593SOL    HW225416   1.499   2.775   1.771  0.3961  0.3052 -1.5358
 4594SOL     OW25417   0.653   1.690   2.967 -0.3638  0.0583  0.2803
 4594SOL    HW125418   0.613   1.603   2.970  1.7844 -0.8908  1.2171
 4594SOL    HW225419   0.617   1.724   3.049 -1.1342 -0.1823  0.0342
 4595SOL     OW25420   0.946   4.249   6.171  0.7573 -0.2513 -0.3087
 4595SOL    HW125421   0.945   4.226   6.264  0.5984  2.4971  0.3718
 4595SOL    HW225422   0.959   4.343   6.184  0.1729  0.0601 -1.9294
 4596SOL     OW25423   0.990   2.491  17.586 -0.0304 -0.2046  0.2468
 4596SOL    HW125424   1.012   2.416  17.642 -2.8812 -2.0862 -1.2234
 4596SOL    HW225425   0.971   2.443  17.506 -1.7352  1.3341 -0.2854
 4597SOL     OW25426   1.691   0.561  13.060  0.1132 -0.1228 -0.2394
 4597SOL    HW125427   1.610   0.528  13.099 -1.1430  2.7849 -0.3620
 4597SOL    HW225428   1.658   0.638  13.014 -0.0931  0.4468  0.8598
 4598SOL     OW25429   2.419   4.442   7.385 -0.6269  0.5613  1.1739
 4598SOL    HW125430   2.427   4.356   7.425 -0.1313  0.0067 -0.1218
 4598SOL    HW225431   2.408   4.505   7.456 -1.0865  1.0029  0.7173
 4599SOL     OW25432   4.198   2.344   4.406 -0.4811  0.1898  0.6515
 4599SOL    HW125433   4.284   2.372   4.374 -1.1837  0.4492 -1.0132
 4599SOL    HW225434   4.213   2.272   4.467  0.6994  0.7414  0.9959
 4600SOL     OW25435   3.212   3.194   5.054  0.2673 -0.3319 -0.4393
 4600SOL    HW125436   3.158   3.205   5.133  1.3684  0.2958  0.2270
 4600SOL    HW225437   3.166   3.229   4.978  1.8736  0.5581 -1.0128
 4601SOL     OW25438   1.068   1.495  12.245  0.0627 -0.7638 -0.1455
 4601SOL    HW125439   1.032   1.565  12.190  0.0471  0.1360  1.0126
 4601SOL    HW225440   1.130   1.446  12.191 -0.4142 -0.5664 -0.8820
 4602SOL     OW25441   3.637   0.190   2.443  0.1947  0.3635 -0.5289
 4602SOL    HW125442   3.570   0.233   2.496 -0.0512  0.6946 -1.1151
 4602SOL    HW225443   3.663   0.261   2.385 -0.5316  1.1029  0.0581
 4603SOL     OW25444   1.254   4.397  12.922 -0.2579  0.1805 -1.0319
 4603SOL    HW125445   1.344   4.401  12.951 -0.7095 -1.5102  0.6209
 4603SOL    HW225446   1.260   4.433  12.833 -0.4591  0.2331 -1.0237
 4604SOL     OW25447   4.269   2.457   8.944 -0.4649 -0.1185 -0.6698
 4604SOL    HW125448   4.325   2.392   8.986 -2.2151  0.1149  2.0405
 4604SOL    HW225449   4.257   2.530   9.004  0.8340 -1.8786  1.7244
 4605SOL     OW25450   0.166   1.353   3.521  0.2719  0.1004 -0.6949
 4605SOL    HW125451   0.184   1.260   3.538 -0.0910 -0.0630 -1.2093
 4605SOL    HW225452   0.087   1.346   3.468 -0.4229  1.7145  0.1235
 4606SOL     OW25453   2.221   2.638   7.944  0.0542  0.8512 -0.5233
 4606SOL    HW125454   2.134   2.627   7.907 -0.3220 -0.8048  0.8457
 4606SOL    HW225455   2.211   2.718   7.996  0.2717  1.0805 -0.8335
 4607SOL     OW25456   3.886   1.972   6.859  0.1376 -0.1598  0.4191
 4607SOL    HW125457   3.831   1.907   6.815  0.0141  0.2429 -0.0195
 4607SOL    HW225458   3.820   2.028   6.902 -1.0987  1.4053 -3.4787
 4608SOL     OW25459   3.109   2.235   5.138 -0.2810  1.0095 -0.1722
 4608SOL    HW125460   3.171   2.224   5.065 -1.2633  1.8040 -1.1374
 4608SOL    HW225461   3.038   2.278   5.089  0.1395  2.7081  0.7323
 4609SOL     OW25462   0.483   1.481   2.222  0.3317  0.2991 -1.2547
 4609SOL    HW125463   0.395   1.511   2.243  0.1981 -1.1682  0.2346
 4609SOL    HW225464   0.532   1.480   2.304 -1.4446  0.9001 -0.1860
 4610SOL     OW25465   3.375   2.170  16.506 -0.4678 -0.1613  0.1266
 4610SOL    HW125466   3.287   2.170  16.544 -0.5524 -1.4261 -0.0918
 4610SOL    HW225467   3.428   2.212  16.574 -2.2616  0.7037  1.0033
 4611SOL     OW25468   1.835   3.286   8.844  0.0319  0.0285  0.1352
 4611SOL    HW125469   1.816   3.192   8.834  2.0926 -0.3353 -0.2834
 4611SOL    HW225470   1.925   3.270   8.873  0.5831 -0.2490 -1.7173
 4612SOL     OW25471   1.216   4.604   4.595 -0.4905 -1.1117 -0.1232
 4612SOL    HW125472   1.121   4.591   4.588 -0.5926 -0.4750  0.1270
 4612SOL    HW225473   1.255   4.536   4.539 -3.0816 -1.7448 -1.1514
 4613SOL     OW25474   0.669   4.490   9.473  0.3843  0.3265 -0.3743
 4613SOL    HW125475   0.647   4.398   9.454  1.0604 -0.1464  1.2241
 4613SOL    HW225476   0.610   4.495   9.548 -0.7635  1.4123 -1.3589
 4614SOL     OW25477   1.000   1.920   2.440 -0.6315 -0.1914  0.4788
 4614SOL    HW125478   0.954   1.965   2.511 -1.0100  0.4573 -0.1727
 4614SOL    HW225479   1.019   1.837   2.482 -0.2778  0.0608  0.8213
 4615SOL     OW25480   0.504   4.196   8.747 -0.2226  0.4135  0.2864
 4615SOL    HW125481   0.539   4.283   8.725 -0.4174  0.2950 -0.4996
 4615SOL    HW225482   0.586   4.161   8.783  0.1804  2.1041  1.0029
 4616SOL     OW25483   1.817   1.446   3.909  0.5351  0.4826  0.5083
 4616SOL    HW125484   1.877   1.372   3.914 -0.5811 -0.3961  0.9295
 4616SOL    HW225485   1.733   1.402   3.924  1.2785 -1.0261  0.1545
 4617SOL     OW25486   3.382   2.280   1.515  0.1738 -0.3463 -0.4957
 4617SOL    HW125487   3.388   2.375   1.525 -2.1003 -0.1523 -0.8046
 4617SOL    HW225488   3.332   2.264   1.435  0.6481 -0.0658 -0.8378
 4618SOL     OW25489   2.788   2.289   7.990 -0.5183 -0.0919 -0.6084
 4618SOL    HW125490   2.768   2.362   8.048  0.0162  0.3270 -0.9482
 4618SOL    HW225491   2.866   2.307   7.938 -0.1277 -0.2754 -0.0884
 4619SOL     OW25492   2.201   1.720  11.788  0.2028  0.0542  0.0339
 4619SOL    HW125493   2.135   1.675  11.841 -1.6093  0.4443 -1.8908
 4619SOL    HW225494   2.140   1.758  11.725 -0.6258  1.4169  1.6645
 4620SOL     OW25495   0.387   4.175   2.346 -0.3925 -0.1557  0.0614
 4620SOL    HW125496   0.365   4.087   2.316 -0.5858 -0.2616  0.5099
 4620SOL    HW225497   0.310   4.182   2.403  0.0444 -0.2384  0.6629
 4621SOL     OW25498   4.676   3.206   5.825  0.5016  0.6363 -0.3802
 4621SOL    HW125499   4.712   3.294   5.822 -0.7283  1.1276 -0.5201
 4621SOL    HW225500   4.588   3.240   5.835  0.2725 -0.6414  2.0894
 4622SOL     OW25501   0.852   0.996  17.130 -0.7013 -0.1129 -0.0203
 4622SOL    HW125502   0.777   0.987  17.188  0.2849  0.5646  1.3518
 4622SOL    HW225503   0.925   0.983  17.191 -2.1473 -1.9007  1.3514
 4623SOL     OW25504   0.741   0.254  11.030  0.2380 -0.1105 -0.5133
 4623SOL    HW125505   0.823   0.256  10.982  0.4927 -0.8093 -0.0999
 4623SOL    HW225506   0.764   0.229  11.120  0.2998 -0.3195 -0.5881
 4624SOL     OW25507   3.869   3.388   1.481  0.4040 -0.6236  0.0461
 4624SOL    HW125508   3.905   3.303   1.505 -1.0349 -1.6051 -1.2091
 4624SOL    HW225509   3.807   3.360   1.414  1.8427 -1.0412 -1.1066
 4625SOL     OW25510   1.068   0.485  16.182 -0.5599  0.0648 -0.1491
 4625SOL    HW125511   1.052   0.517  16.093  0.6455  1.6732  0.2108
 4625SOL    HW225512   1.163   0.474  16.178 -0.9560 -3.1596 -0.8531
 4626SOL     OW25513   1.626   0.136   6.558  0.3089  0.1273 -0.3333
 4626SOL    HW125514   1.637   0.213   6.614 -1.3903  0.8075 -0.9241
 4626SOL    HW225515   1.707   0.140   6.508  0.9060 -0.4702  0.5946
 4627SOL     OW25516   4.294   3.299   0.515  0.1610  0.0932 -0.4726
 4627SOL    HW125517   4.284   3.214   0.472 -0.4376 -0.3704  0.5842
 4627SOL    HW225518   4.231   3.285   0.585  0.8845 -1.0268 -0.0334
 4628SOL     OW25519   2.834   1.886   4.039 -0.0373 -0.0736 -0.4844
 4628SOL    HW125520   2.918   1.896   3.994  0.1681  0.4023  0.0186
 4628SOL    HW225521   2.769   1.914   3.974 -0.7686  0.2457  0.3810
 4629SOL     OW25522   0.685   2.788   3.852  0.3542  0.0115  0.6216
 4629SOL    HW125523   0.744   2.794   3.777  3.7199  1.5217  3.4109
 4629SOL    HW225524   0.627   2.714   3.830 -0.0931  1.0728 -1.8051
 4630SOL     OW25525   1.116   0.290   2.126 -0.1886  0.2249 -0.1211
 4630SOL    HW125526   1.048   0.278   2.060 -0.4482  2.3738 -0.2658
 4630SOL    HW225527   1.145   0.200   2.139  0.6902  0.4320 -0.6446
 4631SOL     OW25528   2.886   1.800  17.032  0.3597  0.4647 -0.2999
 4631SOL    HW125529   2.949   1.822  16.964 -0.9684 -0.2354 -1.7296
 4631SOL    HW225530   2.845   1.886  17.047 -0.8297 -0.0111 -0.8220
 4632SOL     OW25531   1.552   1.599   0.801  0.4823 -1.0298 -0.1721
 4632SOL    HW125532   1.582   1.540   0.731 -1.4350 -2.0691 -0.0943
 4632SOL    HW225533   1.499   1.546   0.859  0.4141 -2.6138 -1.6663
 4633SOL     OW25534   4.103   3.781   7.666 -0.0105  0.0246  0.0442
 4633SOL    HW125535   4.158   3.740   7.599  0.8398  2.0552 -0.5244
 4633SOL    HW225536   4.107   3.710   7.729 -0.0042 -0.5292 -0.5868
 4634SOL     OW25537   3.202   2.202   3.127  0.2845 -0.2733  0.9594
 4634SOL    HW125538   3.263   2.260   3.173  1.2012 -0.4532 -0.0317
 4634SOL    HW225539   3.255   2.122   3.117  1.1470  0.2433  1.3941
 4635SOL     OW25540   0.129   0.141  14.932 -0.1569  0.2443  0.0318
 4635SOL    HW125541   0.059   0.157  14.996  0.0865  2.8612 -0.3645
 4635SOL    HW225542   0.086   0.114  14.851  2.1556 -0.3008 -1.0174
 4636SOL     OW25543   4.653   0.339   2.831 -0.7467 -0.1546  0.3142
 4636SOL    HW125544   4.721   0.316   2.894  0.6489  2.3910 -0.2456
 4636SOL    HW225545   4.637   0.250   2.800 -0.3958  0.1838 -0.8301
 4637SOL     OW25546   4.097   4.515   6.520  0.1043 -0.2389 -0.6030
 4637SOL    HW125547   4.089   4.431   6.566 -0.5808  0.3275  0.3205
 4637SOL    HW225548   4.038   4.496   6.448 -1.0648 -0.4670  0.4062
 4638SOL     OW25549   0.256   3.367   3.833 -0.3544 -0.0692  0.2398
 4638SOL    HW125550   0.349   3.350   3.816  0.2631  1.4786  2.0708
 4638SOL    HW225551   0.221   3.292   3.784  0.8042  0.7420 -1.8396
 4639SOL     OW25552   3.485   4.265   1.544  0.1563 -0.3430  0.1946
 4639SOL    HW125553   3.486   4.325   1.618  0.8352 -2.7522  2.1548
 4639SOL    HW225554   3.545   4.195   1.572  1.4172  0.0169 -1.6210
 4640SOL     OW25555   4.092   2.812  17.561 -0.1916 -0.3282 -0.7789
 4640SOL    HW125556   4.166   2.785  17.508  0.0883 -0.8112 -0.1335
 4640SOL    HW225557   4.075   2.896  17.517 -1.3389  1.6496  3.3567
 4641SOL     OW25558   2.508   0.009  11.799  0.3835 -0.0737  1.0472
 4641SOL    HW125559   2.527   0.020  11.893  0.2953  0.6108  0.9829
 4641SOL    HW225560   2.538   4.657  11.785 -1.4949 -0.2202 -1.9405
 4642SOL     OW25561   4.023   3.037   4.407 -0.2031 -0.1111 -0.5475
 4642SOL    HW125562   4.036   2.943   4.415  0.1074 -0.0211  0.0159
 4642SOL    HW225563   4.076   3.057   4.330 -1.0279  2.2525 -0.5249
 4643SOL     OW25564   0.863   4.109  11.095  0.0394  0.4839 -0.2252
 4643SOL    HW125565   0.772   4.087  11.115 -0.1251  1.2175 -0.1603
 4643SOL    HW225566   0.894   4.029  11.053  0.1883  1.6044 -2.2296
 4644SOL     OW25567   3.576   3.572  14.568  0.2989 -0.4147 -0.4306
 4644SOL    HW125568   3.533   3.637  14.513  2.4648 -0.6652 -2.4113
 4644SOL    HW225569   3.668   3.594  14.558  0.4592 -2.2967 -3.1208
 4645SOL     OW25570   4.218   0.641   3.961 -0.4841  0.6548  0.1040
 4645SOL    HW125571   4.190   0.623   3.871 -0.7608  0.4409  0.2299
 4645SOL    HW225572   4.180   0.566   4.007  0.1061 -0.0224 -0.5099
 4646SOL     OW25573   1.607   0.936   7.860 -0.0911 -0.3328  0.0106
 4646SOL    HW125574   1.536   0.946   7.797 -0.5939  1.5234  0.8931
 4646SOL    HW225575   1.557   0.939   7.942 -0.7963  4.2260 -0.6186
 4647SOL     OW25576   3.806   2.683   7.631 -0.0882 -1.1277 -0.5022
 4647SOL    HW125577   3.855   2.633   7.696  0.2492  0.3323  0.3643
 4647SOL    HW225578   3.835   2.772   7.651  0.6289 -1.2520 -1.0015
 4648SOL     OW25579   0.719   0.551   2.899 -0.2622 -0.3084  1.0472
 4648SOL    HW125580   0.692   0.548   2.807  0.8924  2.3324  0.6129
 4648SOL    HW225581   0.781   0.624   2.890 -3.2725  2.0440 -0.7526
 4649SOL     OW25582   2.846   0.494  13.329  0.3201 -0.0415 -0.4553
 4649SOL    HW125583   2.858   0.585  13.303 -1.8162  0.1978 -0.5993
 4649SOL    HW225584   2.844   0.452  13.243 -1.1399 -0.9934  0.0366
 4650SOL     OW25585   1.760   1.046  11.159 -0.5619 -0.6010 -0.0128
 4650SOL    HW125586   1.838   1.055  11.214 -0.8958  0.9236  0.2167
 4650SOL    HW225587   1.789   0.987  11.089 -0.3779 -1.7681  1.0639
 4651SOL     OW25588   1.186   3.941   4.830 -0.0814 -0.1872 -0.2636
 4651SOL    HW125589   1.135   3.984   4.899  0.2131 -0.2191 -0.0251
 4651SOL    HW225590   1.257   4.004   4.817  0.1257 -0.7810 -1.9209
 4652SOL     OW25591   3.168   2.707   5.027  1.2341 -0.4352 -0.7186
 4652SOL    HW125592   3.201   2.700   5.116 -0.4392  1.4133  0.0362
 4652SOL    HW225593   3.099   2.772   5.040  1.7351 -0.2513  0.9381
 4653SOL     OW25594   3.479   2.188   4.244 -0.0415 -0.1818  0.1904
 4653SOL    HW125595   3.439   2.116   4.196  0.3695  1.0066 -1.9386
 4653SOL    HW225596   3.566   2.182   4.206 -0.6504  1.6562 -1.4899
 4654SOL     OW25597   1.915   1.110   8.727  0.1281 -0.2023 -0.5871
 4654SOL    HW125598   1.825   1.082   8.747  1.0980 -2.8906 -0.0136
 4654SOL    HW225599   1.916   1.070   8.640  1.1582 -0.5162 -0.4212
 4655SOL     OW25600   0.892   2.811   2.471 -0.2479  0.3003 -0.4171
 4655SOL    HW125601   0.923   2.867   2.399 -2.9377  0.5311 -1.3795
 4655SOL    HW225602   0.947   2.734   2.457  0.4328  0.6120  0.4881
 4656SOL     OW25603   0.603   1.000   3.195 -0.0825 -0.3519  0.3012
 4656SOL    HW125604   0.668   0.942   3.234 -0.0221  0.5701  1.5846
 4656SOL    HW225605   0.591   1.073   3.256 -1.5862 -0.5348  0.2201
 4657SOL     OW25606   1.042   3.603   8.155  0.3326 -0.0002  0.1483
 4657SOL    HW125607   1.037   3.626   8.062 -2.1761  0.6890  0.4769
 4657SOL    HW225608   1.067   3.511   8.148 -0.8981 -0.2125 -1.3264
 4658SOL     OW25609   2.869   2.688  11.414  0.4609 -0.1204 -0.0377
 4658SOL    HW125610   2.881   2.721  11.324 -1.4263  0.4804 -0.0554
 4658SOL    HW225611   2.777   2.709  11.429  0.3977 -0.6775  0.3267
 4659SOL     OW25612   2.333   0.089   5.520 -0.2382  0.4209  0.0590
 4659SOL    HW125613   2.252   0.139   5.508 -1.5580 -1.4871  0.9662
 4659SOL    HW225614   2.353   0.092   5.613 -0.6133  0.5787  0.1375
 4660SOL     OW25615   1.124   2.687   1.167 -0.1076 -0.3422  0.2135
 4660SOL    HW125616   1.163   2.607   1.132  1.7362  0.7429 -0.2294
 4660SOL    HW225617   1.163   2.677   1.253 -0.5639 -1.7524  0.2471
 4661SOL     OW25618   1.668   0.103   9.727 -0.2656 -0.4555  0.1497
 4661SOL    HW125619   1.694   0.192   9.751  0.3506 -0.7549  0.5760
 4661SOL    HW225620   1.724   0.084   9.652 -1.5736  1.1137 -1.2131
 4662SOL     OW25621   3.145   1.333  11.285 -0.3158 -0.5407  0.0435
 4662SOL    HW125622   3.056   1.298  11.295 -0.0185 -0.6229  2.4275
 4662SOL    HW225623   3.194   1.296  11.358  0.5560 -1.4981 -1.0333
 4663SOL     OW25624   4.053   0.598   9.011 -0.3348 -0.0775 -0.0473
 4663SOL    HW125625   3.974   0.642   8.979  0.0532  1.9721  1.8254
 4663SOL    HW225626   4.078   0.645   9.091  0.3674 -0.2433 -0.1719
 4664SOL     OW25627   3.160   1.215   1.642  0.2549 -0.5061  0.3173
 4664SOL    HW125628   3.084   1.269   1.622  1.4787  1.1946  0.2820
 4664SOL    HW225629   3.108   1.135   1.640  0.0057 -0.3298 -0.0673
 4665SOL     OW25630   2.642   2.473  14.964 -0.1135  0.3966 -0.1122
 4665SOL    HW125631   2.661   2.499  14.874  0.1886 -1.3726 -0.5574
 4665SOL    HW225632   2.734   2.462  14.987 -0.6910 -1.2307  1.4034
 4666SOL     OW25633   0.134   3.094   8.352  0.1921 -0.1268 -0.3240
 4666SOL    HW125634   0.164   3.083   8.442 -0.3756  1.9456  0.1306
 4666SOL    HW225635   0.152   3.006   8.320  2.6936 -0.0324  0.8411
 4667SOL     OW25636   2.863   2.843  11.186  0.3257  0.3570  0.3692
 4667SOL    HW125637   2.954   2.822  11.205  0.1557 -1.9837 -1.4863
 4667SOL    HW225638   2.859   2.800  11.101 -0.4386  1.8949 -0.3932
 4668SOL     OW25639   1.962   3.835  12.287  0.3957 -0.2233  0.1133
 4668SOL    HW125640   1.996   3.908  12.338  0.3141  0.0395 -0.2067
 4668SOL    HW225641   1.946   3.755  12.337 -0.8880  0.1059  0.2446
 4669SOL     OW25642   4.563   4.360   2.446 -0.4348 -0.1097 -0.3319
 4669SOL    HW125643   4.507   4.426   2.405 -2.3373 -0.8242  1.1191
 4669SOL    HW225644   4.643   4.365   2.394 -0.9091 -0.9331 -1.1562
 4670SOL     OW25645   2.287   1.249  17.400  0.4087 -0.2907 -0.1021
 4670SOL    HW125646   2.339   1.314  17.447  0.5601  0.5117 -1.4069
 4670SOL    HW225647   2.261   1.296  17.321 -1.8565 -1.8641 -0.3003
 4671SOL     OW25648   0.941   4.351   3.193 -0.9552 -0.1148  0.4095
 4671SOL    HW125649   0.930   4.370   3.099 -1.5866  2.2670  0.9635
 4671SOL    HW225650   1.023   4.398   3.212 -1.1169  0.7018 -0.8438
 4672SOL     OW25651   2.542   0.286  15.855 -0.4590 -0.4957  0.0297
 4672SOL    HW125652   2.480   0.359  15.865 -0.3785 -0.5766  1.1492
 4672SOL    HW225653   2.618   0.341  15.834  0.1950 -1.5406 -0.3026
 4673SOL     OW25654   1.408   0.135   5.093  0.4531  0.1657  0.2765
 4673SOL    HW125655   1.407   0.041   5.110  3.6539  0.2415  0.9347
 4673SOL    HW225656   1.340   0.148   5.027 -0.3299  0.0834  1.0622
 4674SOL     OW25657   1.821   1.187   6.207 -0.3499  0.4022  0.2485
 4674SOL    HW125658   1.793   1.266   6.254  1.1816  1.1992 -0.1770
 4674SOL    HW225659   1.916   1.192   6.205 -0.3225 -0.3426 -0.4653
 4675SOL     OW25660   0.997   2.412   4.495 -0.3026  1.0379 -0.7167
 4675SOL    HW125661   0.945   2.417   4.414 -0.1375 -2.1375 -1.0171
 4675SOL    HW225662   0.971   2.490   4.544 -1.0144  1.4381 -1.7260
 4676SOL     OW25663   2.711   2.782  10.846 -0.5552  0.5732  0.1560
 4676SOL    HW125664   2.784   2.790  10.784 -0.6633  1.3237  0.1233
 4676SOL    HW225665   2.659   2.720  10.796 -0.6637  0.4558  0.4147
 4677SOL     OW25666   0.348   0.454   7.878 -0.0391  0.9294 -0.4988
 4677SOL    HW125667   0.328   0.435   7.970  1.1826 -0.6781 -0.5801
 4677SOL    HW225668   0.441   0.475   7.878  0.1175  0.2037  1.7478
 4678SOL     OW25669   1.543   0.748  16.681 -0.5875 -0.2704  0.2369
 4678SOL    HW125670   1.463   0.724  16.727 -1.7515 -1.1743 -2.2344
 4678SOL    HW225671   1.542   0.686  16.608 -1.6771  0.9624 -0.7980
 4679SOL     OW25672   1.951   1.187   3.363 -0.1109  0.0471  0.4758
 4679SOL    HW125673   1.934   1.179   3.457 -1.7437  2.0082  0.3423
 4679SOL    HW225674   1.970   1.095   3.341  1.3665  0.2258  1.0691
 4680SOL     OW25675   2.482   4.052   9.223  0.0440 -0.2552 -0.0497
 4680SOL    HW125676   2.548   4.036   9.156  0.9179  1.4424  0.4099
 4680SOL    HW225677   2.399   4.029   9.181  1.3556 -1.8380 -1.7722
 4681SOL     OW25678   1.130   3.886   5.295  0.0735  0.0132 -0.0363
 4681SOL    HW125679   1.194   3.936   5.244 -0.8365 -0.1585 -1.3549
 4681SOL    HW225680   1.197   3.828   5.329  0.8326  1.0355  0.2183
 4682SOL     OW25681   1.862   0.053   0.283  0.2384 -0.0485  0.0575
 4682SOL    HW125682   1.882   0.054   0.377 -0.5432 -0.6049  0.2349
 4682SOL    HW225683   1.944   0.071   0.236 -0.6731 -1.9425 -2.2570
 4683SOL     OW25684   2.953   3.505  12.620 -0.5507 -0.5669 -0.4455
 4683SOL    HW125685   2.952   3.410  12.630 -0.2323 -0.7157 -1.8895
 4683SOL    HW225686   2.947   3.511  12.525 -1.3704 -0.5151 -0.3858
 4684SOL     OW25687   2.701   2.202  11.799 -0.5186  0.0802  0.4693
 4684SOL    HW125688   2.691   2.109  11.819 -1.3934 -0.2802 -1.6621
 4684SOL    HW225689   2.616   2.245  11.791 -1.6977 -2.1363  1.2795
 4685SOL     OW25690   0.515   1.936  13.183  0.0243 -0.8340  0.4005
 4685SOL    HW125691   0.552   2.017  13.218 -1.9834  0.0095  0.6067
 4685SOL    HW225692   0.554   1.876  13.246 -1.1972 -0.2619  1.7055
 4686SOL     OW25693   3.889   2.696   2.842  0.0330 -0.4384  0.6236
 4686SOL    HW125694   3.972   2.685   2.887 -0.6772  1.9697  2.4908
 4686SOL    HW225695   3.833   2.649   2.904 -1.9578  0.3032 -0.6108
 4687SOL     OW25696   3.622   4.274   4.903 -0.3029  0.2211  0.0193
 4687SOL    HW125697   3.676   4.235   4.834  0.7845  0.6175  0.6560
 4687SOL    HW225698   3.662   4.361   4.908  0.2874  0.0075 -0.9302
 4688SOL     OW25699   2.604   3.167   3.034 -0.3175  0.2086 -0.3455
 4688SOL    HW125700   2.588   3.117   2.955  0.0572  0.5414 -0.6334
 4688SOL    HW225701   2.644   3.098   3.087 -2.1740  0.9277  1.9997
 4689SOL     OW25702   1.556   1.360   5.071 -0.2377  0.3701  0.5483
 4689SOL    HW125703   1.490   1.341   5.137  0.6349 -2.2868  0.6767
 4689SOL    HW225704   1.515   1.335   4.988  0.0032  2.0747 -0.0752
 4690SOL     OW25705   4.370   2.925   0.997 -0.3116  0.2272 -0.2251
 4690SOL    HW125706   4.461   2.930   0.969 -0.6453 -0.4524 -1.3959
 4690SOL    HW225707   4.342   2.842   0.958 -0.8338  0.4953 -0.4245
 4691SOL     OW25708   1.495   3.568   3.646 -0.5380  0.1211 -0.0623
 4691SOL    HW125709   1.422   3.599   3.701 -0.5439  3.0292 -1.7046
 4691SOL    HW225710   1.496   3.635   3.578 -2.6769  1.1351  0.8890
 4692SOL     OW25711   2.272   2.879   0.187  0.2272  0.1786  0.2119
 4692SOL    HW125712   2.336   2.828   0.137  0.5763  1.4113 -0.6116
 4692SOL    HW225713   2.319   2.888   0.270 -0.9391  0.7325  0.8129
 4693SOL     OW25714   2.827   0.426  13.082 -0.0357 -0.3406 -0.0868
 4693SOL    HW125715   2.769   0.481  13.030 -1.3428 -1.2197  0.4517
 4693SOL    HW225716   2.888   0.398  13.015 -0.3108  0.0579 -0.5070
 4694SOL     OW25717   4.400   1.621   5.548 -0.7402  0.7166  0.2164
 4694SOL    HW125718   4.309   1.615   5.576 -0.4688  0.0956  0.9647
 4694SOL    HW225719   4.412   1.706   5.505 -1.5591  0.8543  0.2746
 4695SOL     OW25720   2.534   1.939   4.875 -0.2118 -0.3651  0.3826
 4695SOL    HW125721   2.512   1.930   4.783 -0.1479  0.6905  0.2661
 4695SOL    HW225722   2.457   1.898   4.915 -2.4631  2.3193 -1.2377
 4696SOL     OW25723   1.920   2.196   5.434  0.4851 -0.4688  0.0057
 4696SOL    HW125724   1.827   2.187   5.456  0.2255 -0.2991 -1.0321
 4696SOL    HW225725   1.960   2.198   5.521 -0.3274 -0.5549  0.3804
 4697SOL     OW25726   4.535   3.683   2.044  0.1439 -0.5092 -0.0933
 4697SOL    HW125727   4.572   3.640   2.121 -0.1343  1.7521  1.2980
 4697SOL    HW225728   4.478   3.750   2.083  1.3865 -2.2026  4.6604
 4698SOL     OW25729   2.182   1.873   8.682  0.5464  0.2315 -0.7046
 4698SOL    HW125730   2.141   1.790   8.706 -0.4501  1.2478  1.1033
 4698SOL    HW225731   2.126   1.909   8.613  1.3363 -0.1034 -1.5136
 4699SOL     OW25732   1.175   0.090   9.654  0.1753  0.1805  0.4376
 4699SOL    HW125733   1.117   0.022   9.620  0.6687  1.4016 -2.8382
 4699SOL    HW225734   1.110   0.152   9.685  1.8934  0.7966  2.8694
 4700SOL     OW25735   4.257   3.945  13.784  0.4175  0.5076  0.3821
 4700SOL    HW125736   4.260   4.034  13.819 -0.5986  0.9968 -0.7549
 4700SOL    HW225737   4.172   3.934  13.742  1.0830 -2.5308 -0.1597
 4701SOL     OW25738   4.127   1.689   4.609  0.1822 -0.2666  0.1688
 4701SOL    HW125739   4.034   1.709   4.598  0.1142 -0.7734 -0.1376
 4701SOL    HW225740   4.155   1.776   4.639 -1.8353  0.6277 -0.5269
 4702SOL     OW25741   0.769   0.397   5.693  0.2708 -0.2935 -0.3014
 4702SOL    HW125742   0.708   0.382   5.765  1.5779  0.4789  0.9649
 4702SOL    HW225743   0.816   0.314   5.694  0.0867 -0.4031 -0.7389
 4703SOL     OW25744   3.910   0.988   5.771  0.5929  0.0145 -0.2778
 4703SOL    HW125745   3.962   0.942   5.838  0.5969  0.4738  0.0297
 4703SOL    HW225746   3.827   0.942   5.774 -1.0235  3.0434  0.8561
 4704SOL     OW25747   3.472   3.238   5.076 -0.4928 -0.2358 -0.3424
 4704SOL    HW125748   3.489   3.280   5.160  0.3404  0.3889 -0.8233
 4704SOL    HW225749   3.377   3.246   5.070 -0.5442 -0.0371  0.7352
 4705SOL     OW25750   3.292   0.911  16.188 -0.5598 -0.2581  0.4297
 4705SOL    HW125751   3.324   0.821  16.190  0.5691  0.1258  0.0657
 4705SOL    HW225752   3.351   0.948  16.122  1.5448 -0.5251  2.1752
 4706SOL     OW25753   0.923   2.021  10.891  0.2079 -0.0988 -0.3437
 4706SOL    HW125754   0.872   2.063  10.822 -1.6278  0.3991  1.2980
 4706SOL    HW225755   0.920   2.091  10.956  1.4251  0.0143 -0.4125
 4707SOL     OW25756   2.623   4.258   3.366  0.7977 -0.5088  0.3986
 4707SOL    HW125757   2.602   4.239   3.275  0.5601  0.0408  0.3384
 4707SOL    HW225758   2.643   4.351   3.363  0.4542 -0.5193 -2.3572
 4708SOL     OW25759   3.556   0.648   5.045  0.0741  0.4693  0.6686
 4708SOL    HW125760   3.505   0.567   5.037 -1.4966  1.6515 -1.1182
 4708SOL    HW225761   3.647   0.616   5.049 -1.4735 -4.1775 -0.6781
 4709SOL     OW25762   3.068   0.170   4.890  0.1137 -0.6276  0.1455
 4709SOL    HW125763   3.095   0.082   4.861  1.5544  0.2255 -1.0679
 4709SOL    HW225764   3.080   0.142   4.980  0.2483  1.0976  0.6580
 4710SOL     OW25765   2.237   0.035   4.489  0.3497  0.2122  0.6644
 4710SOL    HW125766   2.224   0.005   4.579  1.4309  0.4514  0.9018
 4710SOL    HW225767   2.269   0.125   4.499  1.1932 -0.0194 -0.0402
 4711SOL     OW25768   2.189   1.285  15.802 -0.2523 -0.5982  0.2870
 4711SOL    HW125769   2.270   1.253  15.841  0.4363 -0.8765 -1.3804
 4711SOL    HW225770   2.211   1.313  15.713 -0.8878  0.1618  0.3666
 4712SOL     OW25771   4.179   0.669  17.109  0.4959 -0.4027 -0.1406
 4712SOL    HW125772   4.248   0.604  17.095 -0.3214 -1.5855  1.3439
 4712SOL    HW225773   4.209   0.717  17.186  0.6037  1.3253 -1.2521
 4713SOL     OW25774   1.128   2.695  14.243  0.0924  0.3661  0.3412
 4713SOL    HW125775   1.097   2.631  14.179  0.2258 -0.4072  1.0523
 4713SOL    HW225776   1.121   2.642  14.322  1.2411  0.9666  0.8494
 4714SOL     OW25777   3.247   3.593  11.918  0.5838  0.6383 -0.2783
 4714SOL    HW125778   3.155   3.586  11.944  1.0590  0.4078  1.3397
 4714SOL    HW225779   3.296   3.530  11.971 -2.7907  1.7387  4.2246
 4715SOL     OW25780   3.363   4.013   2.273 -0.1676  0.2192 -0.1798
 4715SOL    HW125781   3.390   3.924   2.254 -1.1428 -0.3903  1.2480
 4715SOL    HW225782   3.333   4.005   2.364  0.2631  0.2908 -0.0293
 4716SOL     OW25783   0.292   2.746  11.809 -0.2334  0.5531 -0.4225
 4716SOL    HW125784   0.315   2.832  11.843  0.8804 -0.0129  0.2466
 4716SOL    HW225785   0.271   2.704  11.892  1.5003 -0.9272 -0.7278
 4717SOL     OW25786   2.799   2.223   6.808  0.1481  0.0739  0.0027
 4717SOL    HW125787   2.786   2.143   6.860 -1.4474 -1.2527 -2.4015
 4717SOL    HW225788   2.884   2.207   6.767  0.0094 -3.6007  1.1550
 4718SOL     OW25789   3.900   4.508   2.325  0.1558 -0.0703  0.7272
 4718SOL    HW125790   3.832   4.574   2.313  1.0275  0.9913  1.6950
 4718SOL    HW225791   3.971   4.525   2.263  0.3443 -0.2960  0.8824
 4719SOL     OW25792   2.693   0.199   1.943  0.3616  0.2150  0.0696
 4719SOL    HW125793   2.606   0.201   1.903 -0.6203 -1.2703  2.1247
 4719SOL    HW225794   2.736   0.154   1.870 -0.2183 -1.1141  0.5473
 4720SOL     OW25795   3.701   3.746   2.048  0.1678 -0.2344 -0.0214
 4720SOL    HW125796   3.687   3.817   2.111 -0.0661 -0.2435 -0.0624
 4720SOL    HW225797   3.763   3.792   1.991  0.8313 -1.9310 -0.6500
 4721SOL     OW25798   1.400   1.341   1.632  0.3184 -0.3105 -0.2510
 4721SOL    HW125799   1.375   1.429   1.607  0.6734 -0.2644 -0.4443
 4721SOL    HW225800   1.474   1.314   1.578  0.4974 -1.1124  0.3841
 4722SOL     OW25801   0.680   1.647   2.087 -0.1642 -0.2192 -0.5369
 4722SOL    HW125802   0.614   1.589   2.124 -0.1997 -0.0514 -0.3414
 4722SOL    HW225803   0.756   1.642   2.145 -0.2795 -0.2835 -0.3914
 4723SOL     OW25804   0.443   1.892   5.948 -0.5293  0.2126 -0.2027
 4723SOL    HW125805   0.465   1.824   5.884 -0.1836 -0.4995  0.6785
 4723SOL    HW225806   0.517   1.889   6.008 -0.6222  2.0333  0.0137
 4724SOL     OW25807   0.239   1.870   6.334  0.1522 -0.2459  0.3294
 4724SOL    HW125808   0.224   1.824   6.416  0.3847 -1.6371 -0.4038
 4724SOL    HW225809   0.189   1.803   6.288  0.7144 -1.5859  1.6727
 4725SOL     OW25810   4.119   0.801   9.187  0.2322  0.3139 -0.1523
 4725SOL    HW125811   4.211   0.828   9.197  0.5568 -1.3854  1.4319
 4725SOL    HW225812   4.098   0.776   9.276  0.2897  0.8695  0.0183
 4726SOL     OW25813   3.287   0.764   7.519  0.2088 -0.6022 -0.1248
 4726SOL    HW125814   3.200   0.785   7.483 -0.4364 -0.3390  1.5968
 4726SOL    HW225815   3.263   0.807   7.601 -2.9891 -0.6785 -1.0179
 4727SOL     OW25816   3.094   2.771   4.744  0.4783  0.0365 -0.4983
 4727SOL    HW125817   3.129   2.784   4.832 -0.8919  2.1479 -0.2836
 4727SOL    HW225818   3.016   2.826   4.736  0.0634 -0.7052 -1.5804
 4728SOL     OW25819   4.135   3.715   6.837 -0.5592  0.2893 -0.0324
 4728SOL    HW125820   4.055   3.760   6.864  0.1546  1.0767  0.7627
 4728SOL    HW225821   4.121   3.622   6.859  1.0335  1.0224  4.1400
 4729SOL     OW25822   4.088   4.466   8.713 -0.0311 -0.2197  0.6894
 4729SOL    HW125823   3.993   4.472   8.706  0.3320  0.3050 -3.4733
 4729SOL    HW225824   4.101   4.387   8.660 -1.6131 -0.3879  0.5575
 4730SOL     OW25825   2.647   4.395   2.348  0.5714 -0.0118 -0.1839
 4730SOL    HW125826   2.680   4.320   2.397  1.6452  0.4784 -0.1566
 4730SOL    HW225827   2.599   4.447   2.412  2.6307 -0.8684  2.0432
 4731SOL     OW25828   3.675   3.342   3.380 -0.1059  0.4932 -0.0449
 4731SOL    HW125829   3.729   3.266   3.401 -1.6456 -0.4506  0.4231
 4731SOL    HW225830   3.703   3.350   3.289 -1.0677  0.7542 -0.3177
 4732SOL     OW25831   0.384   2.328   1.964 -0.0899 -1.0552  0.0517
 4732SOL    HW125832   0.294   2.330   1.931  0.7228 -0.1933 -2.1121
 4732SOL    HW225833   0.369   2.265   2.035 -0.6293 -1.6817 -0.6245
 4733SOL     OW25834   1.060   3.407  15.072  0.5838 -0.2942 -0.2228
 4733SOL    HW125835   1.102   3.463  15.137  0.4939 -0.3760 -0.0962
 4733SOL    HW225836   1.017   3.474  15.018  0.9555 -0.1315 -0.3187
 4734SOL     OW25837   3.506   3.226   1.515  0.1157 -0.0271 -1.1594
 4734SOL    HW125838   3.582   3.182   1.554 -0.2910 -1.9142 -2.5317
 4734SOL    HW225839   3.510   3.306   1.568  0.5172 -0.4537 -0.5390
 4735SOL     OW25840   2.180   0.017   3.485  0.0315  0.4186 -0.6853
 4735SOL    HW125841   2.147   4.707   3.561  0.1795  2.0129  0.3825
 4735SOL    HW225842   2.127   4.717   3.415 -0.9552 -1.6833  1.2155
 4736SOL     OW25843   0.738   1.071  10.379  0.5336 -0.2497 -0.2661
 4736SOL    HW125844   0.746   1.167  10.380  3.7092 -0.5182  0.4767
 4736SOL    HW225845   0.753   1.053  10.286 -0.5894  1.1853 -0.7309
 4737SOL     OW25846   3.952   4.072   9.366 -0.0356 -0.3533  0.2915
 4737SOL    HW125847   3.928   4.129   9.439 -0.2572 -1.4587  1.0830
 4737SOL    HW225848   3.866   4.034   9.347 -0.1388  0.1073 -0.1615
 4738SOL     OW25849   4.158   0.364   8.156  0.3715  0.0466 -0.0985
 4738SOL    HW125850   4.098   0.319   8.097  1.1046 -1.8362  0.5757
 4738SOL    HW225851   4.135   0.456   8.143 -0.6376 -0.3788 -1.3429
 4739SOL     OW25852   4.623   0.157  16.307 -0.4558 -0.0233  0.4859
 4739SOL    HW125853   4.625   0.235  16.250 -0.5042  0.5677  1.3012
 4739SOL    HW225854   4.686   0.194  16.369 -1.1458  1.0994  0.5117
 4740SOL     OW25855   1.826   2.334   4.385  0.1481 -0.1988 -0.4337
 4740SOL    HW125856   1.813   2.273   4.313 -1.9529  0.1478 -0.3684
 4740SOL    HW225857   1.807   2.274   4.457  0.6145  1.6933  1.2707
 4741SOL     OW25858   3.819   0.569   4.979 -0.2297  0.0159  0.1109
 4741SOL    HW125859   3.807   0.628   4.905 -2.1081 -0.2314  0.2111
 4741SOL    HW225860   3.900   0.608   5.011  1.4505 -2.6317 -0.8776
 4742SOL     OW25861   4.716   1.872   6.509 -0.5193 -0.1601 -0.9946
 4742SOL    HW125862   4.636   1.819   6.512 -0.3504 -0.4239 -1.1926
 4742SOL    HW225863   0.036   1.817   6.560 -1.3103 -0.8039 -0.7774
 4743SOL     OW25864   0.033   3.345   8.637 -0.3702 -0.4162 -0.2539
 4743SOL    HW125865   4.728   3.328   8.720 -0.0136  0.6129  0.1413
 4743SOL    HW225866   0.047   3.439   8.629 -1.4802 -0.0180  2.4788
 4744SOL     OW25867   4.196   4.507   7.792 -0.1212 -0.1460  0.9033
 4744SOL    HW125868   4.167   4.416   7.800 -2.1837  0.4140 -0.0044
 4744SOL    HW225869   4.290   4.495   7.800 -0.0842 -0.6416 -0.2146
 4745SOL     OW25870   1.810   0.494   5.819 -0.5216 -0.4230  0.1632
 4745SOL    HW125871   1.742   0.484   5.752 -0.9607 -0.4479  0.6147
 4745SOL    HW225872   1.857   0.411   5.813  1.1233  0.3921  1.9140
 4746SOL     OW25873   0.312   4.358   4.723 -0.0549 -0.1506 -0.4982
 4746SOL    HW125874   0.344   4.357   4.633 -0.9018  2.8303 -0.8565
 4746SOL    HW225875   0.264   4.276   4.730 -0.1932  0.2678  3.2848
 4747SOL     OW25876   2.951   1.047   7.097 -0.1048 -0.0678 -0.0637
 4747SOL    HW125877   3.012   0.974   7.085 -1.1383 -1.0262  0.4383
 4747SOL    HW225878   2.886   1.012   7.036  0.0328  0.7146 -0.6512
 4748SOL     OW25879   1.943   3.708   6.133  0.0177 -0.4022  0.3766
 4748SOL    HW125880   1.854   3.674   6.143 -0.6712  1.4309  0.3977
 4748SOL    HW225881   1.998   3.637   6.100  1.0768 -0.3137  1.9385
 4749SOL     OW25882   3.668   0.710   1.721 -0.4677 -0.2463  0.4923
 4749SOL    HW125883   3.745   0.688   1.774  0.2492 -3.3063 -1.7520
 4749SOL    HW225884   3.595   0.687   1.778 -0.1785 -0.0979  0.9229
 4750SOL     OW25885   0.569   3.177  17.344  0.3871  0.4224  0.1476
 4750SOL    HW125886   0.504   3.222  17.398  1.3677  3.3490 -1.1230
 4750SOL    HW225887   0.634   3.247  17.331  0.1926  0.6214  0.2610
 4751SOL     OW25888   3.536   4.545   7.833 -0.4212 -0.4313 -0.0015
 4751SOL    HW125889   3.515   4.477   7.897  0.2442 -1.7904 -1.2299
 4751SOL    HW225890   3.614   4.587   7.869 -0.8508 -0.6730  1.2047
 4752SOL     OW25891   1.064   1.694  17.446 -0.3013 -0.2537 -0.2559
 4752SOL    HW125892   1.153   1.709  17.415 -0.4554  1.1422 -0.0250
 4752SOL    HW225893   1.079   1.653  17.531  1.9486 -0.6022 -0.8191
 4753SOL     OW25894   1.433   4.014  14.034  0.2047 -0.0569 -0.0269
 4753SOL    HW125895   1.468   4.070  13.965 -1.8450  0.8952 -0.2886
 4753SOL    HW225896   1.438   4.085  14.099  1.4880 -1.5875  1.5698
 4754SOL     OW25897   2.106   3.318   1.934 -0.5847  0.2886 -0.8159
 4754SOL    HW125898   2.106   3.391   1.871  2.2090  0.7847 -0.2212
 4754SOL    HW225899   2.195   3.331   1.967 -1.0317  0.9767  0.1054
 4755SOL     OW25900   0.847   1.227   6.929  0.0629  0.2365 -0.1188
 4755SOL    HW125901   0.752   1.241   6.931 -0.2240 -1.6248 -1.0529
 4755SOL    HW225902   0.888   1.313   6.932  1.5902 -0.4676 -1.2433
 4756SOL     OW25903   3.090   2.845  16.970 -0.1473 -0.5566  0.2718
 4756SOL    HW125904   3.136   2.821  16.890  1.7300 -0.2927  1.2715
 4756SOL    HW225905   3.132   2.930  16.983  0.2455 -0.7422  0.2025
 4757SOL     OW25906   4.034   4.228   7.781 -0.2514  0.0515  0.3641
 4757SOL    HW125907   4.082   4.145   7.783 -0.4915 -0.0459  1.9800
 4757SOL    HW225908   4.054   4.251   7.690 -1.9436 -0.0205 -0.0178
 4758SOL     OW25909   0.954   0.212  12.305 -0.5624 -0.8234 -0.2141
 4758SOL    HW125910   0.883   0.255  12.352  0.1148  0.9198 -0.7740
 4758SOL    HW225911   0.891   0.170  12.246  1.3028  0.7150 -3.3338
 4759SOL     OW25912   4.116   1.186   2.690  0.3161  0.5490 -0.0548
 4759SOL    HW125913   4.022   1.200   2.684  0.0289 -2.1992 -1.6614
 4759SOL    HW225914   4.141   1.196   2.782 -1.1365 -2.3059  0.6346
 4760SOL     OW25915   3.158   4.402   9.543 -0.9061  0.0983 -0.2287
 4760SOL    HW125916   3.088   4.387   9.607  1.8562  0.7182  2.9479
 4760SOL    HW225917   3.143   4.344   9.468 -0.4460 -0.4744  0.1180
 4761SOL     OW25918   1.441   0.873   2.508 -0.2826 -0.0517  0.4587
 4761SOL    HW125919   1.449   0.940   2.576 -2.0967  0.2198  0.4008
 4761SOL    HW225920   1.525   0.890   2.464  0.7605 -2.9654  1.3294
 4762SOL     OW25921   2.669   4.654   7.167  0.1304 -0.1512  0.5880
 4762SOL    HW125922   2.728   4.588   7.133 -0.5340 -1.0817  1.2409
 4762SOL    HW225923   2.726   4.731   7.169  0.2832 -0.1965 -1.6454
 4763SOL     OW25924   1.635   0.628   9.732  0.3013 -0.3344  0.2814
 4763SOL    HW125925   1.565   0.665   9.785  0.7845 -0.8420  1.2741
 4763SOL    HW225926   1.693   0.703   9.716 -1.2348  0.7758 -0.0828
 4764SOL     OW25927   4.206   4.320   5.831  0.2830  0.3928 -0.4500
 4764SOL    HW125928   4.147   4.245   5.818 -0.2745  0.3519  2.4714
 4764SOL    HW225929   4.251   4.325   5.746  0.9358 -2.0054 -0.2538
 4765SOL     OW25930   4.166   1.430   7.926  0.0729  0.4383 -0.1119
 4765SOL    HW125931   4.235   1.402   7.866 -0.0020  1.9564 -0.9202
 4765SOL    HW225932   4.102   1.452   7.858 -1.4371  0.2850  1.2595
 4766SOL     OW25933   2.639   2.623   8.777 -0.3472  0.0399  0.1445
 4766SOL    HW125934   2.585   2.614   8.856 -1.5349  2.8461 -0.3477
 4766SOL    HW225935   2.721   2.577   8.791  0.0896  0.0388 -2.4525
 4767SOL     OW25936   1.410   1.854   2.630 -0.0082  0.0278 -0.9456
 4767SOL    HW125937   1.493   1.823   2.594  1.6960  0.4375  2.6057
 4767SOL    HW225938   1.383   1.927   2.575 -3.8993  0.4578  1.5219
 4768SOL     OW25939   4.682   0.210   5.314  0.2217  0.9638  0.2338
 4768SOL    HW125940   4.644   0.187   5.229  0.9896 -0.1742  0.2137
 4768SOL    HW225941   4.654   0.136   5.367 -1.3178 -0.2983 -2.3294
 4769SOL     OW25942   3.510   2.823   1.179 -0.5699  0.2764  0.3622
 4769SOL    HW125943   3.489   2.732   1.201 -2.1120  0.9074  1.5194
 4769SOL    HW225944   3.445   2.865   1.235 -0.6894  0.8432 -0.2099
 4770SOL     OW25945   0.328   2.140   8.542  0.8111 -0.4316 -0.2054
 4770SOL    HW125946   0.393   2.120   8.474  1.2509 -1.7898  0.6249
 4770SOL    HW225947   0.375   2.140   8.626 -0.8748 -1.4908  0.7294
 4771SOL     OW25948   2.723   3.263   7.742 -0.2903  0.2131 -0.0716
 4771SOL    HW125949   2.682   3.262   7.656 -2.1706  1.4211  0.8181
 4771SOL    HW225950   2.679   3.342   7.772  1.3955  1.1602 -0.0610
 4772SOL     OW25951   3.520   4.095  14.172 -0.6202  0.6776 -0.1146
 4772SOL    HW125952   3.565   4.112  14.089 -1.0995  3.2311  0.1682
 4772SOL    HW225953   3.438   4.144  14.170 -1.0843 -0.1583 -1.3218
 4773SOL     OW25954   0.650   3.618   1.772  0.4736  0.3369  0.4464
 4773SOL    HW125955   0.621   3.616   1.864  0.3294  1.8350  0.4250
 4773SOL    HW225956   0.586   3.551   1.747  0.6857 -0.4790  2.0251
 4774SOL     OW25957   3.203   3.587   1.606  0.2919 -0.2437  0.7301
 4774SOL    HW125958   3.131   3.629   1.654  0.7656 -0.8300  1.9507
 4774SOL    HW225959   3.273   3.631   1.654 -1.6760  1.8653  1.7004
 4775SOL     OW25960   4.312   2.801   2.854  0.7219 -0.0709 -0.0279
 4775SOL    HW125961   4.240   2.775   2.911  0.0236 -0.4490 -1.0961
 4775SOL    HW225962   4.300   2.729   2.792  3.6653 -0.8200  0.2698
 4776SOL     OW25963   2.904   3.634   2.327 -0.0934 -0.5812  0.4297
 4776SOL    HW125964   2.992   3.615   2.359  1.3267  1.3488 -2.2552
 4776SOL    HW225965   2.933   3.704   2.269 -1.0336  0.9696  1.8475
 4777SOL     OW25966   0.119   0.173   2.167  0.7328  0.8211 -0.3411
 4777SOL    HW125967   0.150   0.244   2.110 -1.0268  1.1239 -0.9270
 4777SOL    HW225968   0.191   0.150   2.225 -1.9102 -2.4152  1.6256
 4778SOL     OW25969   0.476   3.808   3.970 -0.2331  0.1122 -0.3058
 4778SOL    HW125970   0.454   3.843   3.884 -0.0949  0.9686  0.0083
 4778SOL    HW225971   0.408   3.741   3.981  0.5169 -0.7151 -0.6541
 4779SOL     OW25972   2.984   3.746   5.216  0.2212 -0.7249  0.0642
 4779SOL    HW125973   2.934   3.671   5.184 -1.1484  0.1954  0.0617
 4779SOL    HW225974   3.043   3.781   5.149 -0.2457  1.0480  0.5639
 4780SOL     OW25975   1.596   2.609  14.675 -0.2300  0.1279  0.3683
 4780SOL    HW125976   1.570   2.666  14.748 -0.4136  1.2446 -0.5807
 4780SOL    HW225977   1.514   2.586  14.633  0.7275  0.1048 -1.4788
 4781SOL     OW25978   0.749   1.344  10.272  0.0275 -0.2683  0.8924
 4781SOL    HW125979   0.655   1.330  10.258  0.4821 -0.0648 -2.4669
 4781SOL    HW225980   0.762   1.426  10.224 -3.0028  0.4413  1.2653
 4782SOL     OW25981   3.218   2.171   2.670  0.1003 -0.2059 -0.4788
 4782SOL    HW125982   3.266   2.217   2.739 -0.3014 -0.8772  0.2530
 4782SOL    HW225983   3.221   2.082   2.705 -2.7090 -1.0531 -2.4041
 4783SOL     OW25984   4.102   2.982   3.496  0.4988  0.1626 -0.1016
 4783SOL    HW125985   4.151   2.984   3.578 -0.1146 -0.9061  0.2840
 4783SOL    HW225986   4.045   3.057   3.514 -1.7538 -1.9615  1.5680
 4784SOL     OW25987   2.387   3.632   8.838  0.1470  0.3595  0.3627
 4784SOL    HW125988   2.442   3.557   8.863 -1.9583 -0.4759  2.4454
 4784SOL    HW225989   2.374   3.610   8.746 -1.3862  1.9365  0.2032
 4785SOL     OW25990   1.653   3.088   2.028  0.2538 -0.6560 -0.1651
 4785SOL    HW125991   1.644   3.061   1.937 -0.9078 -0.9295  0.0225
 4785SOL    HW225992   1.718   3.027   2.063  1.3910  0.5714 -0.1508
 4786SOL     OW25993   2.603   2.626  15.209 -0.3312 -0.0872 -0.5334
 4786SOL    HW125994   2.614   2.603  15.117  1.3296 -0.1587 -0.3192
 4786SOL    HW225995   2.527   2.574  15.233 -2.3499  2.7285 -0.7454
 4787SOL     OW25996   1.133   4.055   6.039  0.4172 -0.7478  0.4990
 4787SOL    HW125997   1.067   4.112   6.078  0.9481  1.2191 -1.4626
 4787SOL    HW225998   1.145   3.990   6.108 -0.6014  0.6987  2.0480
 4788SOL     OW25999   0.932   3.212   7.627 -0.3231  0.2297  0.1693
 4788SOL    HW126000   0.865   3.254   7.573 -0.8959 -2.3842 -1.2068
 4788SOL    HW226001   0.885   3.146   7.679 -1.1662  0.0739 -0.7875
 4789SOL     OW26002   3.211   3.611   1.984  1.0811  0.2276 -0.5644
 4789SOL    HW126003   3.125   3.579   2.009  1.8197 -1.8765 -0.7482
 4789SOL    HW226004   3.194   3.662   1.905 -1.0958  0.2303 -0.0836
 4790SOL     OW26005   3.264   1.661   2.830 -0.0950 -0.0280 -0.1659
 4790SOL    HW126006   3.273   1.592   2.895  1.0768  0.6477  0.3844
 4790SOL    HW226007   3.220   1.727   2.884 -2.1487 -0.7085 -1.0053
 4791SOL     OW26008   0.351   0.446   5.720  0.1714 -0.0918  0.3467
 4791SOL    HW126009   0.416   0.377   5.711 -0.8775 -0.7391 -2.1713
 4791SOL    HW226010   0.346   0.492   5.636 -0.0827 -0.5343  0.1196
 4792SOL     OW26011   0.196   2.035   3.930 -0.3683  0.5910  0.1065
 4792SOL    HW126012   0.151   2.030   3.846  0.4820  2.1074 -0.4408
 4792SOL    HW226013   0.228   1.945   3.939  2.0987  1.3398 -0.9794
 4793SOL     OW26014   2.504   0.702   2.963 -0.1652 -0.0262 -0.0608
 4793SOL    HW126015   2.541   0.625   3.006  0.7869  0.8303  0.6681
 4793SOL    HW226016   2.588   0.729   2.927 -1.2343  0.5394 -2.0922
 4794SOL     OW26017   1.379   0.822   4.801 -0.3104 -0.4884  0.4111
 4794SOL    HW126018   1.445   0.756   4.819  0.5206  0.8741  2.4846
 4794SOL    HW226019   1.382   0.846   4.894  1.6411  0.2736  0.1657
 4795SOL     OW26020   1.805   4.596   0.024  0.0882 -0.2820  0.1002
 4795SOL    HW126021   1.820   4.632   0.111 -1.2923  1.7856 -0.5313
 4795SOL    HW226022   1.716   4.560   0.028 -0.5329  1.3444  0.5893
 4796SOL     OW26023   4.399   0.238  16.456 -0.5008  0.7507  0.5356
 4796SOL    HW126024   4.401   0.333  16.463  1.4918  0.9057 -2.1276
 4796SOL    HW226025   4.466   0.223  16.390 -2.0896 -0.3315 -0.8536
 4797SOL     OW26026   0.431   0.696  16.264  0.4266 -0.2170  0.1006
 4797SOL    HW126027   0.510   0.648  16.241  1.6164  1.6369  0.3372
 4797SOL    HW226028   0.440   0.773  16.208  1.0249 -3.1908 -3.8493
 4798SOL     OW26029   1.915   1.577   7.536  0.9606 -0.6241 -0.5627
 4798SOL    HW126030   1.983   1.549   7.597  0.8841  1.5300  0.5240
 4798SOL    HW226031   1.909   1.502   7.478  0.8274  0.1393 -1.5347
 4799SOL     OW26032   3.420   3.693   3.810 -0.3251 -0.4019 -0.0769
 4799SOL    HW126033   3.429   3.608   3.765  1.3797  0.1342 -0.7346
 4799SOL    HW226034   3.507   3.714   3.844 -0.4505 -0.1761  0.1023
 4800SOL     OW26035   2.328   2.788  17.211 -0.2780  0.2703 -0.4749
 4800SOL    HW126036   2.422   2.810  17.213  0.4056 -2.7910  1.5479
 4800SOL    HW226037   2.305   2.765  17.301  1.0985 -0.6429 -0.3545
 4801SOL     OW26038   3.009   0.347   1.076  0.5692  0.0536 -0.1387
 4801SOL    HW126039   2.930   0.298   1.100 -0.4048  1.2053 -0.9729
 4801SOL    HW226040   2.992   0.439   1.094  1.8470  0.2173  0.2514
 4802SOL     OW26041   1.474   1.402   2.084 -0.3620  0.0377 -0.2945
 4802SOL    HW126042   1.429   1.411   2.000 -1.0995  3.3590  0.4510
 4802SOL    HW226043   1.497   1.493   2.104  0.7343 -0.0253 -1.2740
 4803SOL     OW26044   2.422   4.530   5.010 -0.5633 -0.0221  0.4269
 4803SOL    HW126045   2.333   4.560   5.031 -0.8795 -0.1067 -0.8179
 4803SOL    HW226046   2.474   4.571   5.080 -0.9771  1.6186 -0.2199
 4804SOL     OW26047   3.218   0.761   8.645 -0.0088  0.2840 -0.8048
 4804SOL    HW126048   3.164   0.759   8.566  0.3010  1.8739 -1.0657
 4804SOL    HW226049   3.303   0.726   8.616 -0.8520 -2.3630 -0.0948
 4805SOL     OW26050   3.262   1.551   3.460  0.2909  0.0779 -0.6726
 4805SOL    HW126051   3.205   1.543   3.383  0.5151 -2.3446 -0.5697
 4805SOL    HW226052   3.238   1.470   3.504 -0.6801  1.3758  1.2182
 4806SOL     OW26053   4.081   3.478   7.011  0.6493  0.1804 -0.6920
 4806SOL    HW126054   4.147   3.414   6.988  1.0853  1.1635 -2.1938
 4806SOL    HW226055   4.100   3.501   7.102 -0.3178 -1.7594 -0.0160
 4807SOL     OW26056   4.717   3.613   1.394  0.8393 -0.5522 -0.5072
 4807SOL    HW126057   4.700   3.654   1.479 -0.2089 -2.1952  0.0812
 4807SOL    HW226058   4.639   3.633   1.342  0.2937 -0.8872  0.1853
 4808SOL     OW26059   0.014   0.872   7.049  0.2182  0.1500  0.4370
 4808SOL    HW126060   4.689   0.817   7.005 -0.2798  2.2305 -1.4405
 4808SOL    HW226061   0.092   0.855   6.997 -0.1709  0.8395 -0.3720
 4809SOL     OW26062   2.261   3.980   7.419  0.7753  0.1774  0.0863
 4809SOL    HW126063   2.294   3.892   7.405  4.2815  1.6930 -1.1845
 4809SOL    HW226064   2.340   4.025   7.447  0.1975  1.0657  0.3092
 4810SOL     OW26065   0.920   1.751   3.587 -0.7049 -0.8260  0.0230
 4810SOL    HW126066   0.874   1.667   3.594 -0.6114 -0.7202  1.9233
 4810SOL    HW226067   1.010   1.720   3.577 -0.2209  0.0264  1.7727
 4811SOL     OW26068   0.203   1.766   4.383 -0.1346 -0.7877 -0.3449
 4811SOL    HW126069   0.240   1.718   4.458 -2.5165  0.5349  1.6471
 4811SOL    HW226070   0.108   1.762   4.395  0.0911  1.4863  2.0725
 4812SOL     OW26071   3.368   1.264   8.859  0.2267  0.6411 -0.1317
 4812SOL    HW126072   3.314   1.317   8.801  0.8025  1.4281  0.0495
 4812SOL    HW226073   3.436   1.325   8.887 -0.3822  0.9456  0.6766
 4813SOL     OW26074   2.865   1.205  14.887 -0.0880  0.3018 -0.0962
 4813SOL    HW126075   2.786   1.206  14.941  0.5142  0.7120  0.7755
 4813SOL    HW226076   2.831   1.174  14.803  0.8181  0.1131 -0.3897
 4814SOL     OW26077   2.573   4.199   3.782 -0.4992 -0.1689  0.0890
 4814SOL    HW126078   2.622   4.149   3.848  0.1027  0.7964  0.3777
 4814SOL    HW226079   2.589   4.151   3.701  2.6811  1.3940 -0.1934
 4815SOL     OW26080   4.441   2.268  11.632  0.2184  0.5650  0.5317
 4815SOL    HW126081   4.412   2.357  11.650 -0.1613  0.6171 -0.3542
 4815SOL    HW226082   4.533   2.279  11.609 -0.4130 -0.2856 -2.4364
 4816SOL     OW26083   3.962   1.580   7.268 -0.2425  0.7028 -0.0321
 4816SOL    HW126084   3.929   1.667   7.291 -0.8467  0.1557  1.2004
 4816SOL    HW226085   3.996   1.589   7.179 -0.0680 -2.0554 -0.2537
 4817SOL     OW26086   2.481   4.353  13.372  0.2142  0.4848  0.0219
 4817SOL    HW126087   2.485   4.412  13.297 -3.3719 -0.0122 -0.5877
 4817SOL    HW226088   2.435   4.412  13.432 -1.3002 -1.1983  0.4968
 4818SOL     OW26089   2.600   4.222  14.625  0.1656  0.4480  0.3352
 4818SOL    HW126090   2.632   4.177  14.547 -0.3465  0.4589  0.1203
 4818SOL    HW226091   2.664   4.197  14.692 -0.5040 -0.5818  0.5920
 4819SOL     OW26092   2.710   2.460   3.067  0.1837  0.0706  0.1365
 4819SOL    HW126093   2.664   2.543   3.064 -0.5057 -0.2465  1.8834
 4819SOL    HW226094   2.750   2.467   3.154  2.8340 -0.0132 -1.0623
 4820SOL     OW26095   4.522   1.742   1.283 -0.1862  0.9064  0.5912
 4820SOL    HW126096   4.452   1.685   1.249 -0.0812  0.6645  0.7818
 4820SOL    HW226097   4.597   1.700   1.239 -1.1144  0.1251 -0.2494
 4821SOL     OW26098   4.304   1.425   2.705 -0.3469  0.5251  0.1575
 4821SOL    HW126099   4.280   1.452   2.794  1.3405  1.7200  0.2567
 4821SOL    HW226100   4.248   1.348   2.708 -0.5672  0.7099  0.7780
 4822SOL     OW26101   1.044   1.683   1.350 -0.5504  0.4001 -0.1671
 4822SOL    HW126102   1.005   1.701   1.436  1.2832  0.9100  0.5628
 4822SOL    HW226103   1.065   1.773   1.324  0.6937 -0.1804 -1.1937
 4823SOL     OW26104   4.052   3.620   5.106 -0.8915 -0.1125 -0.0493
 4823SOL    HW126105   4.144   3.635   5.130 -0.7159 -1.3039  0.0101
 4823SOL    HW226106   4.026   3.569   5.183 -3.3856 -0.9785 -1.4822
 4824SOL     OW26107   2.242   1.919   4.274  0.0966 -0.1969  0.4599
 4824SOL    HW126108   2.286   1.856   4.331 -1.1007 -1.7958 -0.3877
 4824SOL    HW226109   2.159   1.875   4.256 -0.3652 -0.4388  3.1753
 4825SOL     OW26110   1.591   2.237   3.511 -0.6540 -0.1477  0.7541
 4825SOL    HW126111   1.647   2.270   3.441 -1.0314  0.0072  0.5230
 4825SOL    HW226112   1.519   2.300   3.502 -1.1471 -0.7918  0.1682
 4826SOL     OW26113   2.654   4.730   7.448  0.0903 -0.1799  0.6281
 4826SOL    HW126114   2.728   4.702   7.503  1.4716  1.2703 -0.4978
 4826SOL    HW226115   2.683   4.699   7.363  0.1277  0.0678  0.5510
 4827SOL     OW26116   4.070   3.567   4.611 -0.1017 -0.1727  0.8120
 4827SOL    HW126117   4.025   3.542   4.531  0.3102 -0.1361  0.5687
 4827SOL    HW226118   4.115   3.484   4.628 -0.9047 -1.0953 -1.6456
 4828SOL     OW26119   1.873   0.970   5.397  0.3444  0.5274  0.1334
 4828SOL    HW126120   1.941   1.023   5.356  1.3448 -0.0881  0.9921
 4828SOL    HW226121   1.924   0.906   5.447 -0.8395 -1.5571 -1.3395
 4829SOL     OW26122   2.970   0.334   6.456 -0.7969  0.1885 -0.0076
 4829SOL    HW126123   3.035   0.263   6.457  0.5077  1.3781  0.1930
 4829SOL    HW226124   2.892   0.280   6.456  0.2377 -1.3170  0.2558
 4830SOL     OW26125   0.625   2.387   4.415 -0.7320  0.1836  0.0135
 4830SOL    HW126126   0.662   2.371   4.502 -1.0112  1.1928  0.3197
 4830SOL    HW226127   0.699   2.378   4.355  0.5001  0.6195  1.4430
 4831SOL     OW26128   0.004   3.566  12.380  0.7241 -0.1002 -0.0953
 4831SOL    HW126129   0.001   3.660  12.396 -2.7387 -0.0097 -1.2842
 4831SOL    HW226130   0.071   3.565  12.311  1.0583 -2.9460  0.2633
 4832SOL     OW26131   3.314   1.378   5.486  0.3209 -0.8834  0.0258
 4832SOL    HW126132   3.292   1.407   5.397  0.1712 -0.2162  0.2762
 4832SOL    HW226133   3.399   1.337   5.475  2.5357  2.9834  2.9019
 4833SOL     OW26134   4.471   3.993   4.180  0.5651 -0.1572 -0.0729
 4833SOL    HW126135   4.495   4.041   4.100  0.8077 -1.7088 -0.9374
 4833SOL    HW226136   4.393   4.042   4.206  0.0501 -1.4417  0.7879
 4834SOL     OW26137   1.874   1.488   9.261 -0.4627 -0.0715 -0.7233
 4834SOL    HW126138   1.964   1.460   9.242 -0.5667 -0.3862 -0.7398
 4834SOL    HW226139   1.876   1.482   9.357 -0.4311  2.2015 -0.5765
 4835SOL     OW26140   4.363   1.478   8.276 -0.2281  0.4794  0.1877
 4835SOL    HW126141   4.340   1.389   8.250  0.1896  0.6552 -0.7711
 4835SOL    HW226142   4.399   1.514   8.195  2.3312 -0.4437  0.9148
 4836SOL     OW26143   3.280   2.494  11.852  0.5190  0.1618  0.0856
 4836SOL    HW126144   3.329   2.505  11.933  1.3563 -2.4615 -0.0787
 4836SOL    HW226145   3.215   2.565  11.856 -0.4306 -0.5315 -2.6004
 4837SOL     OW26146   1.110   2.402   8.100 -0.5578  0.4147  0.6324
 4837SOL    HW126147   1.089   2.371   8.012  0.3039  0.5732  0.3665
 4837SOL    HW226148   1.202   2.429   8.097 -0.1644 -0.8671  1.5406
 4838SOL     OW26149   0.488   0.329   5.225 -0.2943 -0.3970 -0.3880
 4838SOL    HW126150   0.433   0.278   5.166 -1.2548 -0.0232  0.1972
 4838SOL    HW226151   0.437   0.409   5.213  2.2610  1.2324 -0.4664
 4839SOL     OW26152   3.582   1.266  12.506  0.3069  0.0506 -0.4262
 4839SOL    HW126153   3.615   1.208  12.574  0.5566  0.4276 -0.2298
 4839SOL    HW226154   3.632   1.344  12.531  0.5973 -0.6640  1.2029
 4840SOL     OW26155   2.442   1.232   2.193  0.3464 -0.1771  0.2994
 4840SOL    HW126156   2.501   1.178   2.140  1.1651  0.4723  0.5408
 4840SOL    HW226157   2.476   1.318   2.170 -1.0577 -0.0017 -1.0584
 4841SOL     OW26158   3.479   0.874  14.879 -0.0481 -0.7470  0.2538
 4841SOL    HW126159   3.480   0.817  14.802  1.2377 -0.2199 -0.1045
 4841SOL    HW226160   3.569   0.858  14.906 -0.2846  0.2535  1.6351
 4842SOL     OW26161   2.385   0.444   7.971  0.0629 -0.4890  0.5636
 4842SOL    HW126162   2.382   0.356   8.009  1.4946  0.3853  2.6943
 4842SOL    HW226163   2.369   0.483   8.057 -0.1027 -0.1199  0.3652
 4843SOL     OW26164   2.480   1.618   7.788 -0.2342  0.0284 -0.1932
 4843SOL    HW126165   2.411   1.561   7.819 -0.7445  0.8462  0.1588
 4843SOL    HW226166   2.556   1.560   7.788  1.1270  1.7959 -0.8974
 4844SOL     OW26167   3.898   3.014   1.775 -0.1198 -0.6213  0.0596
 4844SOL    HW126168   3.889   2.928   1.816 -0.8309 -0.5000  0.1566
 4844SOL    HW226169   3.952   3.046   1.847  0.5661 -1.9384  0.1256
 4845SOL     OW26170   3.717   4.641   1.614 -0.4511  0.2415 -0.1159
 4845SOL    HW126171   3.750   4.602   1.532  0.0627 -0.4482  0.4181
 4845SOL    HW226172   3.719   4.730   1.579 -2.1418  0.2620 -0.1952
 4846SOL     OW26173   0.196   4.123   1.811  0.3169  0.3343 -0.3510
 4846SOL    HW126174   0.166   4.110   1.722  3.0969 -0.6168 -1.1469
 4846SOL    HW226175   0.272   4.067   1.827 -1.1096 -2.0048 -1.8371
 4847SOL     OW26176   0.216   2.126   7.425  0.3916 -0.3627  0.1178
 4847SOL    HW126177   0.298   2.153   7.382  0.9956 -0.7226  1.0408
 4847SOL    HW226178   0.260   2.059   7.477  0.8941 -1.2276 -1.4119
 4848SOL     OW26179   0.561   2.202  11.377  0.0592 -0.1813 -0.7524
 4848SOL    HW126180   0.571   2.121  11.328 -0.9394 -0.4513 -0.5025
 4848SOL    HW226181   0.465   2.204  11.387  0.4488 -2.2048  3.3485
 4849SOL     OW26182   4.259   0.639   2.988 -0.0495 -0.5534 -0.4913
 4849SOL    HW126183   4.347   0.675   3.002 -1.5820  2.6259  0.8346
 4849SOL    HW226184   4.296   0.552   2.971 -0.0591 -0.5683 -0.4320
 4850SOL     OW26185   3.329   3.224   6.375 -0.4511 -0.0283  0.4160
 4850SOL    HW126186   3.420   3.223   6.404 -0.8623  1.9291  1.7509
 4850SOL    HW226187   3.291   3.233   6.463  2.3007  0.6345  1.5586
 4851SOL     OW26188   1.299   2.730   1.364 -0.7752  0.0254  0.2791
 4851SOL    HW126189   1.360   2.720   1.291  0.2249 -1.4218  1.3215
 4851SOL    HW226190   1.310   2.659   1.427  0.2065 -2.2543 -2.4934
 4852SOL     OW26191   2.670   4.123   8.363  0.2118 -0.6924  0.2004
 4852SOL    HW126192   2.594   4.065   8.358  0.7939 -1.4570  0.3139
 4852SOL    HW226193   2.645   4.188   8.429 -1.6303  0.2749 -1.4331
 4853SOL     OW26194   2.945   0.406  16.305 -0.0127 -0.1994  0.1573
 4853SOL    HW126195   2.865   0.371  16.343 -0.1596 -0.6050 -0.5195
 4853SOL    HW226196   2.991   0.439  16.383 -0.0061  3.3169 -1.3523
 4854SOL     OW26197   3.591   2.467   5.244 -0.2871  0.6980 -0.1417
 4854SOL    HW126198   3.599   2.411   5.167 -0.5677  0.4794 -0.0129
 4854SOL    HW226199   3.685   2.483   5.250  0.2622 -2.9699  0.7141
 4855SOL     OW26200   2.043   0.486  12.826 -0.5488 -0.0626  0.1243
 4855SOL    HW126201   2.037   0.558  12.764  0.1761  1.0983  1.4136
 4855SOL    HW226202   2.087   0.534  12.895  0.1529 -0.5821  0.0381
 4856SOL     OW26203   1.729   1.932   4.263  0.2671 -0.2728  0.5421
 4856SOL    HW126204   1.753   1.902   4.175 -1.2641  1.4392 -0.4489
 4856SOL    HW226205   1.672   1.858   4.283 -0.3284 -0.0563 -0.3365
 4857SOL     OW26206   1.016   3.347  17.479  0.0465  0.0394 -0.1939
 4857SOL    HW126207   1.073   3.330  17.405 -0.9038 -1.9202 -0.4770
 4857SOL    HW226208   0.961   3.269  17.476 -3.1582  2.1669  2.1560
 4858SOL     OW26209   1.694   2.758  16.810  0.1344 -0.1640 -0.5564
 4858SOL    HW126210   1.634   2.819  16.853 -0.7530 -1.4233 -0.0070
 4858SOL    HW226211   1.631   2.698  16.772  0.4337 -2.0509  1.9792
 4859SOL     OW26212   4.104   3.051  17.395  0.0798 -0.5418 -0.3565
 4859SOL    HW126213   4.154   3.128  17.423  1.7272 -1.5195 -0.5780
 4859SOL    HW226214   4.144   3.022  17.313 -0.1730  0.0119 -0.6748
 4860SOL     OW26215   1.558   1.989  13.569 -0.3741  0.3368  0.7279
 4860SOL    HW126216   1.567   1.930  13.494 -0.1431  0.4600  0.6604
 4860SOL    HW226217   1.464   2.009  13.573 -0.7335 -1.7184  2.1878
 4861SOL     OW26218   2.422   2.947  14.332 -0.0517  0.8727 -0.4756
 4861SOL    HW126219   2.358   2.999  14.380  1.4967  1.4486  0.9850
 4861SOL    HW226220   2.498   2.985  14.375  0.8190 -0.9874 -0.3396
 4862SOL     OW26221   2.046   4.627   9.000 -0.4320 -0.2323 -0.4036
 4862SOL    HW126222   1.995   4.594   9.074  1.2181  0.8666  1.1954
 4862SOL    HW226223   2.099   4.550   8.979  2.4630  1.5736  0.3917
 4863SOL     OW26224   1.811   1.768   6.730  0.1247 -0.1131 -0.5136
 4863SOL    HW126225   1.907   1.760   6.735  0.1354  1.9846  2.5618
 4863SOL    HW226226   1.795   1.788   6.638 -0.0021 -1.0379 -0.6927
 4864SOL     OW26227   0.422   2.557  12.580  0.3428 -0.1802 -0.1608
 4864SOL    HW126228   0.433   2.607  12.499 -0.3605 -0.9657 -0.7427
 4864SOL    HW226229   0.422   2.625  12.647 -2.3384  1.1426 -1.5330
 4865SOL     OW26230   4.082   3.681   3.816 -0.0147 -0.1524  0.1206
 4865SOL    HW126231   4.031   3.762   3.828  1.5105  0.4851  2.2528
 4865SOL    HW226232   4.167   3.709   3.850 -0.2174  0.7297 -0.0895
 4866SOL     OW26233   4.163   3.559   1.603 -0.5356  0.9950 -0.7063
 4866SOL    HW126234   4.070   3.582   1.595 -0.7885  0.6613  1.3125
 4866SOL    HW226235   4.165   3.492   1.535  0.6746  0.1755  0.1484
 4867SOL     OW26236   3.432   3.565  12.407 -0.3739 -0.5520  0.5200
 4867SOL    HW126237   3.383   3.484  12.420 -0.0289 -1.2638 -2.4298
 4867SOL    HW226238   3.525   3.545  12.420  0.3817  0.8203 -2.6831
 4868SOL     OW26239   2.486   0.251  13.086 -0.9434 -0.1472 -0.2261
 4868SOL    HW126240   2.520   0.220  13.170 -1.3571  3.1220  1.1548
 4868SOL    HW226241   2.482   0.173  13.031  0.5917  0.6387 -1.4320
 4869SOL     OW26242   1.298   2.158  12.619 -0.0392  0.9610  0.0092
 4869SOL    HW126243   1.308   2.251  12.638  0.2770  0.9493 -0.0984
 4869SOL    HW226244   1.319   2.122  12.705 -1.4606  1.1872  0.4567
 4870SOL     OW26245   3.728   4.551   3.913  0.7062  0.5534  0.0980
 4870SOL    HW126246   3.706   4.502   3.992  1.5939 -3.8389 -2.3762
 4870SOL    HW226247   3.802   4.504   3.875 -0.1495 -0.7528  0.0414
 4871SOL     OW26248   1.222   4.467  12.644  0.2620  0.3456 -0.1685
 4871SOL    HW126249   1.142   4.507  12.610  0.6301 -0.5210 -2.0316
 4871SOL    HW226250   1.279   4.479  12.568  1.3142 -2.6236  0.1678
 4872SOL     OW26251   1.208   1.149   6.628  0.3487 -0.2400 -0.4490
 4872SOL    HW126252   1.125   1.191   6.653  0.0399 -1.1643  0.0601
 4872SOL    HW226253   1.180   1.100   6.552 -0.5122  2.0263 -1.6085
 4873SOL     OW26254   0.525   1.182  14.764  0.3179  0.4497  0.0621
 4873SOL    HW126255   0.475   1.248  14.718  0.1196 -0.0919 -0.4968
 4873SOL    HW226256   0.611   1.194  14.724  1.6741 -0.4760  2.6873
 4874SOL     OW26257   4.422   3.621  11.380 -0.3129 -0.3984 -0.1643
 4874SOL    HW126258   4.411   3.715  11.364  1.0341 -0.3711 -0.9318
 4874SOL    HW226259   4.485   3.594  11.313  1.2185  1.5624  0.4909
 4875SOL     OW26260   2.572   1.061   4.391 -0.2731 -0.4443 -0.2828
 4875SOL    HW126261   2.593   1.130   4.328  0.5969 -0.3020  0.1578
 4875SOL    HW226262   2.654   1.012   4.399  1.5949  2.8003  0.6219
 4876SOL     OW26263   2.684   0.323   6.774 -0.0053 -0.0397  0.2518
 4876SOL    HW126264   2.593   0.352   6.775 -0.5325 -1.7134  1.4274
 4876SOL    HW226265   2.701   0.336   6.680  1.2151  1.0257  0.6209
 4877SOL     OW26266   3.888   0.834   2.798  0.2914 -0.4602  0.1720
 4877SOL    HW126267   3.857   0.748   2.826  2.2095 -1.4192 -0.6923
 4877SOL    HW226268   3.951   0.852   2.867  2.4211 -0.8491 -1.6892
 4878SOL     OW26269   0.767   2.539   5.960 -0.6309  0.2215  0.1523
 4878SOL    HW126270   0.678   2.529   5.994 -0.5565  0.0752  0.3018
 4878SOL    HW226271   0.793   2.629   5.979 -2.2574  0.9187 -0.8743
 4879SOL     OW26272   2.766   2.165   8.478 -0.1161 -0.1976  0.0179
 4879SOL    HW126273   2.684   2.193   8.437  0.6688  0.6585 -0.9511
 4879SOL    HW226274   2.741   2.073   8.485  0.1363 -0.0538  3.1033
 4880SOL     OW26275   3.067   4.070   5.633 -0.6179  0.3452 -0.3221
 4880SOL    HW126276   3.070   3.977   5.658 -0.3015 -0.0725 -1.8863
 4880SOL    HW226277   2.991   4.062   5.576 -0.0963  0.5598 -1.0472
 4881SOL     OW26278   0.370   4.579   8.646 -0.0847 -0.2175 -0.2912
 4881SOL    HW126279   0.358   4.499   8.594  0.6816 -0.0361 -0.7572
 4881SOL    HW226280   0.452   4.556   8.689 -1.2901  1.4276  2.8322
 4882SOL     OW26281   3.950   2.585   2.217  0.1659  0.0942 -0.0152
 4882SOL    HW126282   3.959   2.554   2.127 -0.1702 -0.7266  0.2329
 4882SOL    HW226283   4.008   2.520   2.257  0.4172  0.7992  0.7463
 4883SOL     OW26284   2.986   3.717   3.116 -0.3107  0.4081  0.0030
 4883SOL    HW126285   2.997   3.639   3.171 -0.6094 -0.9609 -1.8528
 4883SOL    HW226286   3.028   3.678   3.039 -0.3010 -0.9773  0.7105
 4884SOL     OW26287   4.132   4.244   1.541  0.6457 -0.0973 -0.1506
 4884SOL    HW126288   4.088   4.329   1.540  0.2649 -0.3496 -3.0193
 4884SOL    HW226289   4.125   4.225   1.448 -0.1322 -1.6154  0.2156
 4885SOL     OW26290   1.782   2.384   6.062 -0.5004  1.1281  0.2397
 4885SOL    HW126291   1.700   2.411   6.103 -0.7991  1.2554 -0.4335
 4885SOL    HW226292   1.835   2.464   6.072  3.8099 -1.6951 -0.0576
 4886SOL     OW26293   2.140   2.710   2.421  1.0202  0.1476 -0.3225
 4886SOL    HW126294   2.175   2.766   2.352 -1.5327  1.7461 -0.3054
 4886SOL    HW226295   2.046   2.726   2.413  1.0379 -0.3984 -1.5318
 4887SOL     OW26296   0.706   3.707  17.457 -0.5803 -0.0258 -0.5255
 4887SOL    HW126297   0.759   3.734  17.382 -0.7647 -0.1592 -0.7066
 4887SOL    HW226298   0.774   3.658  17.502 -1.3727 -1.8377 -1.3126
 4888SOL     OW26299   4.709   1.396   5.912  0.4430 -0.5093 -0.0423
 4888SOL    HW126300   4.736   1.459   5.846 -0.3146  0.9566  1.0509
 4888SOL    HW226301   4.649   1.342   5.861 -0.7762 -0.5560  1.4110
 4889SOL     OW26302   4.179   2.934   8.856 -0.3399  0.3072 -0.6543
 4889SOL    HW126303   4.090   2.955   8.885 -0.4981 -0.2592 -0.7382
 4889SOL    HW226304   4.228   3.006   8.896  0.0399 -0.1603 -0.2899
 4890SOL     OW26305   2.401   1.174   8.988  0.8331 -0.2418 -0.6107
 4890SOL    HW126306   2.403   1.227   8.908 -0.7065  1.9461  0.7907
 4890SOL    HW226307   2.494   1.154   9.000  1.0239 -0.5927 -2.6647
 4891SOL     OW26308   2.423   2.432  15.206 -0.1485  0.6683  0.0785
 4891SOL    HW126309   2.442   2.382  15.127 -2.7080 -0.2568  0.0243
 4891SOL    HW226310   2.366   2.363  15.241  0.7774  0.3807  1.0447
 4892SOL     OW26311   1.130   3.120   6.166  0.5729 -0.5626  0.2178
 4892SOL    HW126312   1.224   3.117   6.150  0.1507  1.7799 -2.5987
 4892SOL    HW226313   1.132   3.193   6.227  0.6305 -2.1000  2.0628
 4893SOL     OW26314   1.674   4.169   4.024  0.1334  0.0316 -0.0797
 4893SOL    HW126315   1.725   4.174   4.105  0.2677 -1.0202 -0.0977
 4893SOL    HW226316   1.686   4.259   3.993  0.9348 -0.4352 -1.1164
 4894SOL     OW26317   3.554   3.125   7.773 -0.1504  0.5197 -0.0498
 4894SOL    HW126318   3.551   3.031   7.790  0.3468  0.3574 -0.8507
 4894SOL    HW226319   3.470   3.156   7.808  0.2295  1.5141 -0.0132
 4895SOL     OW26320   3.150   2.606   5.677  0.1840 -0.3821  0.1843
 4895SOL    HW126321   3.101   2.576   5.753 -0.2195 -1.8120 -0.6545
 4895SOL    HW226322   3.221   2.543   5.664 -1.2143 -1.7117 -0.8870
 4896SOL     OW26323   1.372   0.954   1.295 -0.3451 -0.3406  0.0350
 4896SOL    HW126324   1.320   1.013   1.241 -1.3413 -1.8390 -0.6190
 4896SOL    HW226325   1.300   0.898   1.323 -0.8501 -0.0419 -0.6814
 4897SOL     OW26326   3.021   3.142   5.246 -0.1933 -0.4069 -0.0299
 4897SOL    HW126327   2.946   3.084   5.257 -1.4632  0.9274 -1.6901
 4897SOL    HW226328   2.972   3.212   5.202  2.3425  1.1706 -0.3191
 4898SOL     OW26329   1.958   2.621   8.760 -0.1157 -0.2442 -0.4725
 4898SOL    HW126330   1.908   2.619   8.842  2.1829  0.0874  0.9237
 4898SOL    HW226331   1.976   2.715   8.749 -2.1982 -0.1813 -3.3480
 4899SOL     OW26332   3.208   2.757   8.408  0.1905 -0.2029  0.0144
 4899SOL    HW126333   3.204   2.671   8.451  0.5717 -0.1043  0.2502
 4899SOL    HW226334   3.235   2.736   8.319  1.4712 -3.0431  1.0701
 4900SOL     OW26335   3.134   0.246   5.817 -0.2071  0.2711 -0.0180
 4900SOL    HW126336   3.228   0.236   5.835  0.1879  1.9931 -1.1109
 4900SOL    HW226337   3.098   0.234   5.905 -0.0594  2.2300  0.3036
 4901SOL     OW26338   0.376   1.119   8.454 -0.2303  0.4468 -0.0220
 4901SOL    HW126339   0.435   1.044   8.448  0.5943  0.9191  2.2691
 4901SOL    HW226340   0.295   1.078   8.424 -1.2181  1.0373  1.8073
 4902SOL     OW26341   1.297   2.079   9.948  0.2565  0.1064 -0.5007
 4902SOL    HW126342   1.272   2.009   9.888  0.8063 -1.0573  0.6345
 4902SOL    HW226343   1.378   2.106   9.904  1.5540 -1.7499  0.7363
 4903SOL     OW26344   3.835   4.597   7.837 -0.1211  0.6117  0.0367
 4903SOL    HW126345   3.872   4.525   7.787  1.2019  1.2778  0.0539
 4903SOL    HW226346   3.818   4.660   7.767  0.2815 -0.8040 -1.3337
 4904SOL     OW26347   4.558   2.198   9.229 -0.5566  0.3272  0.3350
 4904SOL    HW126348   4.609   2.263   9.278  0.0251  1.6875 -2.0299
 4904SOL    HW226349   4.476   2.188   9.276 -0.5175 -1.3031  0.0283
 4905SOL     OW26350   3.522   3.456   7.727 -0.6791  0.2421 -0.1838
 4905SOL    HW126351   3.541   3.364   7.744  1.0301  0.3286 -1.5709
 4905SOL    HW226352   3.501   3.495   7.812  1.3127  0.7679  0.0792
 4906SOL     OW26353   4.082   1.796   4.164 -0.0488 -0.1658 -0.0529
 4906SOL    HW126354   4.102   1.836   4.080  1.2095 -0.5534  0.0621
 4906SOL    HW226355   4.129   1.852   4.226  0.0853 -0.4210  0.0773
 4907SOL     OW26356   3.034   2.692   8.082 -0.4370  0.3241  0.4921
 4907SOL    HW126357   2.968   2.643   8.032  1.8695 -3.0542  0.7831
 4907SOL    HW226358   2.991   2.778   8.087  1.0145  1.2568 -2.7431
 4908SOL     OW26359   4.595   3.786   3.885 -0.1684  0.1471  0.2699
 4908SOL    HW126360   4.660   3.853   3.903 -0.3117  0.9896 -2.3160
 4908SOL    HW226361   4.650   3.712   3.910 -0.0474  0.5362  1.1581
 4909SOL     OW26362   2.767   4.501   9.388  0.1844  0.4583  0.3051
 4909SOL    HW126363   2.806   4.579   9.429  1.7912  1.2864 -2.7587
 4909SOL    HW226364   2.830   4.434   9.415  0.2701  0.4900  0.1874
 4910SOL     OW26365   0.791   1.795  10.853 -0.0496 -0.0582  0.2405
 4910SOL    HW126366   0.846   1.866  10.884 -0.4464  1.6031 -2.8348
 4910SOL    HW226367   0.704   1.834  10.861  0.1660  0.3707  0.4381
 4911SOL     OW26368   0.101   1.937   4.842 -0.6941 -0.1255 -0.2152
 4911SOL    HW126369   0.156   1.955   4.918  0.5477  0.5190 -1.2579
 4911SOL    HW226370   0.056   1.861   4.878  1.8977 -0.7847  1.6118
 4912SOL     OW26371   0.361   1.258   0.457 -0.2874 -0.0524 -0.0808
 4912SOL    HW126372   0.290   1.262   0.393 -1.5540 -1.0672  1.2799
 4912SOL    HW226373   0.317   1.221   0.533  0.7064 -0.2980  0.3835
 4913SOL     OW26374   4.542   3.938   1.730  0.4316 -0.4795 -0.6776
 4913SOL    HW126375   4.551   3.982   1.815  2.3673 -1.4484 -0.3634
 4913SOL    HW226376   4.453   3.904   1.729  0.6078 -0.9166 -1.2334
 4914SOL     OW26377   2.490   0.190   6.258  0.0329  0.0370  0.2636
 4914SOL    HW126378   2.462   0.100   6.240 -0.1493  0.8597 -3.4350
 4914SOL    HW226379   2.567   0.204   6.203  0.9412  1.0699  1.7938
 4915SOL     OW26380   1.572   1.502   6.963 -0.0282 -0.0693  0.0857
 4915SOL    HW126381   1.503   1.441   6.938  0.6884 -0.1496 -1.6729
 4915SOL    HW226382   1.616   1.470   7.042 -1.5413 -0.7522  0.6479
 4916SOL     OW26383   2.285   0.349  12.890 -0.7982  0.3264 -0.5932
 4916SOL    HW126384   2.229   0.400  12.949 -0.1053  0.8359 -0.3708
 4916SOL    HW226385   2.354   0.311  12.945 -1.0473  1.1590  0.3004
 4917SOL     OW26386   3.062   1.858   4.648 -0.0912 -0.7624 -0.0041
 4917SOL    HW126387   3.045   1.886   4.738 -0.2727  1.2261 -0.6447
 4917SOL    HW226388   3.149   1.898   4.641 -0.5094  0.0323 -0.6559
 4918SOL     OW26389   2.776   0.186   3.167 -0.2429 -0.0054  0.1093
 4918SOL    HW126390   2.689   0.147   3.167  0.3879 -1.4033  0.1909
 4918SOL    HW226391   2.793   0.168   3.260  0.7156  0.7791  0.0947
 4919SOL     OW26392   1.662   4.662   2.286  0.1510 -0.0941 -0.2172
 4919SOL    HW126393   1.717   4.586   2.270 -0.9471 -1.1234  0.9547
 4919SOL    HW226394   1.674   4.670   2.381  1.6009  0.1842 -0.4275
 4920SOL     OW26395   0.287   4.023  11.902 -0.0434 -0.1346  0.1507
 4920SOL    HW126396   0.211   4.004  11.847 -0.5354  1.3085  0.3216
 4920SOL    HW226397   0.332   4.089  11.850  1.2013 -0.9971  0.1386
 4921SOL     OW26398   1.302   2.826   4.946 -0.4214 -0.6206  0.4784
 4921SOL    HW126399   1.343   2.903   4.907 -1.1087 -0.8354 -0.6794
 4921SOL    HW226400   1.228   2.872   4.986  0.1073 -0.8730  1.7405
 4922SOL     OW26401   1.614   4.355   8.205  0.0731  0.0352  0.0851
 4922SOL    HW126402   1.644   4.429   8.258 -1.3584  0.8708 -0.2837
 4922SOL    HW226403   1.589   4.297   8.278 -0.5688 -0.8461 -0.8223
 4923SOL     OW26404   1.110   2.318   9.628 -0.2685 -0.7929  0.2145
 4923SOL    HW126405   1.036   2.258   9.623 -1.1370  0.3374 -0.3304
 4923SOL    HW226406   1.067   2.401   9.613 -0.0454 -1.0393 -1.8511
 4924SOL     OW26407   0.487   3.775   7.221 -0.2311  0.2852  0.0185
 4924SOL    HW126408   0.549   3.761   7.293 -1.8698  0.4736  1.4495
 4924SOL    HW226409   0.408   3.760   7.272 -0.8349 -1.3408 -1.4059
 4925SOL     OW26410   0.410   0.924  16.060  0.2831 -0.0045  0.0457
 4925SOL    HW126411   0.378   1.009  16.031 -1.1608 -0.6456 -0.2697
 4925SOL    HW226412   0.503   0.931  16.041  0.2489  2.2938  0.7709
 4926SOL     OW26413   4.190   3.678   4.160 -0.1043  0.6070 -0.1804
 4926SOL    HW126414   4.168   3.742   4.228 -0.5172  0.1029  0.1581
 4926SOL    HW226415   4.234   3.732   4.094 -0.8512 -1.7012 -2.6143
 4927SOL     OW26416   1.953   2.133   0.453  0.0029 -0.2359 -0.5668
 4927SOL    HW126417   1.859   2.146   0.439 -0.2732  0.2093  1.6599
 4927SOL    HW226418   1.989   2.198   0.391 -1.5877  0.9546 -0.2604
 4928SOL     OW26419   0.393   4.319   5.609 -0.1518  0.0065  0.5645
 4928SOL    HW126420   0.339   4.374   5.666 -0.6810  1.5301 -1.3843
 4928SOL    HW226421   0.444   4.391   5.572 -0.6459 -1.0086 -2.1142
 4929SOL     OW26422   4.462   0.763   3.575  0.6156  0.5316  0.8563
 4929SOL    HW126423   4.395   0.708   3.535 -0.0446 -0.5489  3.4893
 4929SOL    HW226424   4.538   0.710   3.552  2.8591  3.8881  0.5358
 4930SOL     OW26425   1.945   0.998   5.786  0.0221  0.0877 -0.0689
 4930SOL    HW126426   1.849   1.001   5.797 -0.1394  0.5765 -1.5481
 4930SOL    HW226427   1.964   0.906   5.769  1.9147  0.3056  0.9217
 4931SOL     OW26428   3.456   4.348   1.255 -0.3921  0.4356 -0.1098
 4931SOL    HW126429   3.436   4.396   1.334 -0.1954 -1.1080  0.8875
 4931SOL    HW226430   3.472   4.263   1.296 -0.4037  1.1739  1.3961
 4932SOL     OW26431   2.371   1.022  12.656 -0.3846  0.3766  0.7074
 4932SOL    HW126432   2.354   1.089  12.590 -0.4473 -1.4944 -1.1604
 4932SOL    HW226433   2.319   1.052  12.731 -1.5026  2.3150 -0.8535
 4933SOL     OW26434   1.993   2.094   2.617  0.0098 -0.4149 -0.2742
 4933SOL    HW126435   1.985   2.038   2.539  1.6093 -0.6131 -0.2986
 4933SOL    HW226436   1.995   2.183   2.583 -2.6590 -0.0295  0.5876
 4934SOL     OW26437   2.803   2.339  13.301  0.4054  0.5398 -0.5429
 4934SOL    HW126438   2.849   2.256  13.317 -0.7970 -0.2048 -0.9138
 4934SOL    HW226439   2.856   2.368  13.227 -0.0955 -2.0623 -1.9330
 4935SOL     OW26440   4.705   2.121   6.365  1.2557 -0.4107  0.3957
 4935SOL    HW126441   4.677   2.122   6.274 -1.8756 -2.7668  1.3326
 4935SOL    HW226442   4.690   2.029   6.386 -2.4027  0.0943  0.0050
 4936SOL     OW26443   0.468   3.275  14.559 -0.5123  0.7609  0.4482
 4936SOL    HW126444   0.522   3.351  14.541  0.6734 -0.6728 -2.0508
 4936SOL    HW226445   0.385   3.322  14.548 -0.6062  1.1240  2.6365
 4937SOL     OW26446   2.900   4.434  14.255  0.4274 -0.1226 -0.1193
 4937SOL    HW126447   2.859   4.377  14.189  3.0806 -3.3567  1.0752
 4937SOL    HW226448   2.940   4.372  14.315 -1.8469 -1.8210 -0.3347
 4938SOL     OW26449   3.727   2.483   0.021  0.1169  0.6819  0.3328
 4938SOL    HW126450   3.779   2.562   0.009  0.0694  0.5819 -0.5292
 4938SOL    HW226451   3.676   2.500   0.101  0.8535  0.3500  0.8814
 4939SOL     OW26452   0.897   2.511  11.080 -0.0905  0.0453 -0.6179
 4939SOL    HW126453   0.949   2.529  11.002  1.0583 -0.6495 -0.0041
 4939SOL    HW226454   0.880   2.599  11.112  2.3509  0.8730 -1.5984
 4940SOL     OW26455   1.440   1.302   4.838  0.2905 -0.0754 -0.1935
 4940SOL    HW126456   1.414   1.218   4.800 -0.2352 -0.3086  0.6793
 4940SOL    HW226457   1.398   1.361   4.775 -2.9780 -0.3670  1.6900
 4941SOL     OW26458   0.478   2.820   5.112  0.1733 -0.1899 -0.2491
 4941SOL    HW126459   0.504   2.787   5.026  0.4570 -1.5909  0.3756
 4941SOL    HW226460   0.393   2.779   5.129  1.1736 -1.8487  0.7179
 4942SOL     OW26461   0.170   1.595   0.843 -0.2942  0.2559 -0.1616
 4942SOL    HW126462   0.102   1.534   0.874 -0.4409 -0.5786 -2.1498
 4942SOL    HW226463   0.218   1.538   0.783 -2.2114  0.6385 -2.0512
 4943SOL     OW26464   0.722   3.562   2.960  0.8268 -0.0727 -0.4149
 4943SOL    HW126465   0.727   3.544   2.866  2.2025 -2.1626  0.0737
 4943SOL    HW226466   0.802   3.612   2.976  0.5954  0.0351  0.3727
 4944SOL     OW26467   0.635   0.331   1.297 -0.7355 -0.3462 -0.0454
 4944SOL    HW126468   0.577   0.379   1.238 -1.4851 -0.7870  0.3268
 4944SOL    HW226469   0.605   0.240   1.300  0.7914 -0.8335  0.1807
 4945SOL     OW26470   0.587   4.446   8.233  0.7083 -0.5587  0.4124
 4945SOL    HW126471   0.504   4.486   8.207  3.0103  2.4143 -2.4150
 4945SOL    HW226472   0.632   4.523   8.267  2.0891  0.5596 -3.9895
 4946SOL     OW26473   3.498   2.528   3.824  0.7256  0.6629 -0.2598
 4946SOL    HW126474   3.560   2.593   3.790 -0.7636  1.6758 -1.0804
 4946SOL    HW226475   3.461   2.576   3.899  0.5917  0.8013 -0.4134
 4947SOL     OW26476   1.684   2.016   2.103  0.4548  0.0658 -0.1941
 4947SOL    HW126477   1.688   2.106   2.070 -1.2669  0.2584  0.0770
 4947SOL    HW226478   1.590   2.001   2.115  1.0347 -3.3434 -0.1330
 4948SOL     OW26479   2.619   4.412   1.011  0.0913 -0.0858 -0.2805
 4948SOL    HW126480   2.579   4.373   0.933 -0.3501  0.7191 -0.4598
 4948SOL    HW226481   2.636   4.503   0.987 -1.7870  0.7463  1.5444
 4949SOL     OW26482   0.940   3.341   2.752  0.4078 -0.5633 -0.2011
 4949SOL    HW126483   0.990   3.354   2.671 -0.0934  0.2247 -0.3796
 4949SOL    HW226484   0.852   3.373   2.732  0.1771 -0.4006  1.0778
 4950SOL     OW26485   1.868   4.680   4.886 -0.6266  0.1133  0.3691
 4950SOL    HW126486   1.823   4.639   4.960  2.2126  0.6546  2.4034
 4950SOL    HW226487   1.873   4.604   4.827  0.9064 -0.6294  1.4545
 4951SOL     OW26488   3.763   3.274   7.886 -0.2571  0.7444  0.4909
 4951SOL    HW126489   3.802   3.342   7.831  0.6830 -0.1782  0.0128
 4951SOL    HW226490   3.698   3.222   7.839  0.3861  0.3828  0.0056
 4952SOL     OW26491   3.484   1.657  13.790 -0.1753 -0.3614 -0.1343
 4952SOL    HW126492   3.537   1.623  13.717  0.6074  0.0446  0.2435
 4952SOL    HW226493   3.542   1.650  13.865 -2.6890 -0.6543  1.7619
 4953SOL     OW26494   4.309   4.529   2.451 -0.6478  0.5180 -0.5036
 4953SOL    HW126495   4.344   4.484   2.528 -3.4081  2.2867  1.7859
 4953SOL    HW226496   4.332   4.621   2.463 -1.9872  1.0257 -1.7769
 4954SOL     OW26497   2.319   1.822   4.957 -0.0411 -0.8773 -0.1682
 4954SOL    HW126498   2.269   1.754   5.001 -1.5084  1.2856  1.4634
 4954SOL    HW226499   2.288   1.903   4.997  3.2402  0.3379 -0.0531
 4955SOL     OW26500   4.251   3.824  14.033 -0.2769  0.3559 -0.6188
 4955SOL    HW126501   4.234   3.848  13.942 -1.2682  2.4329  0.1234
 4955SOL    HW226502   4.168   3.842  14.078  1.0242 -0.6680  2.1808
 4956SOL     OW26503   2.034   2.820  13.768  0.3983  0.2347  0.1687
 4956SOL    HW126504   2.055   2.727  13.763 -1.3045 -0.2365  1.6372
 4956SOL    HW226505   2.096   2.854  13.832  0.9164 -2.0719  0.8928
 4957SOL     OW26506   0.838   1.467   1.385 -0.5110 -0.3604  0.9444
 4957SOL    HW126507   0.879   1.552   1.365 -0.3384 -0.3050  1.5381
 4957SOL    HW226508   0.851   1.458   1.479 -1.9516 -1.8046  0.9977
 4958SOL     OW26509   4.423   4.363   3.039 -0.0589  0.0118  1.2091
 4958SOL    HW126510   4.412   4.272   3.067  0.7044 -1.1512 -2.2844
 4958SOL    HW226511   4.334   4.393   3.021 -0.0491 -1.1414 -0.7806
 4959SOL     OW26512   3.697   2.705   7.004 -0.1732 -0.0530  0.3121
 4959SOL    HW126513   3.656   2.670   7.083  0.0858 -0.5979  0.2021
 4959SOL    HW226514   3.696   2.628   6.948 -0.6670 -0.8827  1.4733
 4960SOL     OW26515   1.524   2.141   9.765  0.2662 -0.0790  0.4537
 4960SOL    HW126516   1.582   2.217   9.769 -0.3462  0.4774 -1.3810
 4960SOL    HW226517   1.473   2.164   9.687  0.2879 -1.0876  0.1428
 4961SOL     OW26518   0.948   1.109   3.889  0.2591 -0.2146  0.4604
 4961SOL    HW126519   0.943   1.087   3.796 -0.8913 -0.7493  0.6452
 4961SOL    HW226520   0.866   1.157   3.904 -0.7969 -1.3473 -1.6999
 4962SOL     OW26521   3.911   2.967   2.764  0.2118 -0.0892 -0.0814
 4962SOL    HW126522   3.914   2.873   2.780 -2.3398 -0.2532 -0.4986
 4962SOL    HW226523   3.917   2.997   2.854 -2.7798  1.6207 -0.4308
 4963SOL     OW26524   4.219   3.533  14.700  0.0185  0.1802  0.4174
 4963SOL    HW126525   4.260   3.515  14.615 -1.0057 -0.7381  0.1212
 4963SOL    HW226526   4.276   3.477  14.754  2.0781  1.1537 -0.7340
 4964SOL     OW26527   3.922   2.036   4.454  0.6843  0.3005 -0.2514
 4964SOL    HW126528   4.010   2.005   4.430 -0.5926 -2.9695 -0.6722
 4964SOL    HW226529   3.895   2.065   4.367 -1.2383  0.2075  0.3157
 4965SOL     OW26530   0.638   0.148   1.957  0.0392 -0.0008 -0.2056
 4965SOL    HW126531   0.550   0.151   1.918  0.7314  1.3218 -1.6672
 4965SOL    HW226532   0.654   0.054   1.955  1.0802  0.1881 -0.6906
 4966SOL     OW26533   4.327   3.909   4.764  0.2679 -0.5734  0.1768
 4966SOL    HW126534   4.364   3.834   4.812  1.4776 -0.7968 -1.1118
 4966SOL    HW226535   4.240   3.876   4.742  0.3525 -0.7767  0.1492
 4967SOL     OW26536   4.469   4.521   8.575  0.8554  0.5356  0.3196
 4967SOL    HW126537   4.412   4.567   8.636  1.3080  2.2549 -0.5378
 4967SOL    HW226538   4.519   4.462   8.631 -1.6278 -3.0675 -1.3135
 4968SOL     OW26539   1.326   0.253   5.334 -0.0872 -0.1951 -0.2063
 4968SOL    HW126540   1.351   0.238   5.243 -0.8013  0.8542 -0.5706
 4968SOL    HW226541   1.410   0.266   5.377 -0.2601  2.2110 -0.5607
 4969SOL     OW26542   3.969   3.805  17.327 -0.1181  0.2335 -0.1886
 4969SOL    HW126543   4.048   3.767  17.290  0.9047  2.9431 -0.7728
 4969SOL    HW226544   3.963   3.748  17.404  1.8522  3.0059  1.9988
 4970SOL     OW26545   1.662   1.376  12.394  0.5114 -0.1334  0.4019
 4970SOL    HW126546   1.755   1.383  12.415  0.4400  0.5355  0.4831
 4970SOL    HW226547   1.658   1.281  12.387  0.2070 -0.2655  2.4499
 4971SOL     OW26548   4.601   2.972  15.291  0.5601  0.0829  0.5050
 4971SOL    HW126549   4.649   3.055  15.289  0.9245 -0.1765 -2.2346
 4971SOL    HW226550   4.559   2.988  15.206 -1.9696  1.1866  1.9433
 4972SOL     OW26551   1.699   2.255   8.477  0.4335  0.4516 -0.0347
 4972SOL    HW126552   1.759   2.299   8.537  0.0170  1.1868 -0.1493
 4972SOL    HW226553   1.679   2.175   8.524  1.6797 -0.6695 -1.4138
 4973SOL     OW26554   3.194   3.580   6.861 -0.6271  0.2667  0.6824
 4973SOL    HW126555   3.140   3.535   6.926 -0.4437  1.1766  1.4686
 4973SOL    HW226556   3.269   3.523   6.847  0.4437  1.9219 -0.2812
 4974SOL     OW26557   1.184   0.574  16.430 -0.0070  0.3552 -0.3560
 4974SOL    HW126558   1.146   0.532  16.353  0.7328  0.3397 -0.7082
 4974SOL    HW226559   1.157   0.665  16.418 -0.5004  0.0757 -1.3719
 4975SOL     OW26560   4.523   2.750   9.437  0.1612  0.4118 -0.4494
 4975SOL    HW126561   4.496   2.803   9.511  1.9578  2.2863 -1.1283
 4975SOL    HW226562   4.613   2.774   9.414 -0.0285  0.7539 -0.8511
 4976SOL     OW26563   1.140   4.564   7.308  0.1138  0.2993 -0.0191
 4976SOL    HW126564   1.126   4.620   7.385 -0.3511  0.6928 -0.3947
 4976SOL    HW226565   1.235   4.574   7.314  0.0368  0.5836  0.7211
 4977SOL     OW26566   2.923   0.593   6.168 -0.1272  0.2248 -0.7147
 4977SOL    HW126567   2.831   0.569   6.154  0.1590 -1.1572 -0.1682
 4977SOL    HW226568   2.955   0.605   6.078  2.0083 -1.4665 -0.1812
 4978SOL     OW26569   2.051   1.419  13.561  0.1450 -0.1813 -0.0547
 4978SOL    HW126570   2.070   1.437  13.469 -0.6595  1.1410  0.0395
 4978SOL    HW226571   1.955   1.413  13.557  0.2505 -1.3173 -0.8932
 4979SOL     OW26572   3.269   0.108   2.989 -0.0227  0.1212  0.4534
 4979SOL    HW126573   3.255   0.203   2.994 -1.9087 -0.1302 -0.0911
 4979SOL    HW226574   3.216   0.092   2.912  0.1249  2.8362 -0.2216
 4980SOL     OW26575   0.304   4.714  10.279  0.1031  0.2731 -0.4413
 4980SOL    HW126576   0.330   4.678  10.364 -2.4145  0.7017  0.4961
 4980SOL    HW226577   0.368   4.674  10.220  1.7312  3.0935 -0.6000
 4981SOL     OW26578   0.612   4.049   5.227  0.0037 -0.5894  0.1630
 4981SOL    HW126579   0.587   3.965   5.265 -1.8792  0.0264  0.2894
 4981SOL    HW226580   0.650   4.016   5.146 -1.4747 -0.8012 -0.4397
 4982SOL     OW26581   1.527   3.389   8.370  0.1733  0.2216  0.4771
 4982SOL    HW126582   1.504   3.297   8.360  2.1388 -0.2226  0.0831
 4982SOL    HW226583   1.461   3.414   8.435 -0.9693  2.0760 -1.4185
 4983SOL     OW26584   1.354   2.307   5.762  0.3029 -0.5132  0.0525
 4983SOL    HW126585   1.340   2.314   5.856 -2.0874 -1.6055 -0.2366
 4983SOL    HW226586   1.357   2.212   5.751 -2.1005 -0.4871 -0.7893
 4984SOL     OW26587   3.027   3.472   8.422 -0.0452  0.4843 -0.2515
 4984SOL    HW126588   3.079   3.392   8.423  1.1105  1.2550  0.6026
 4984SOL    HW226589   3.037   3.505   8.333 -0.9859  1.9618  0.1884
 4985SOL     OW26590   4.703   1.863  14.592  0.3130  0.1490  0.2279
 4985SOL    HW126591   0.023   1.938  14.600 -0.4604  0.8716 -0.8971
 4985SOL    HW226592   0.027   1.792  14.577  1.2333  0.4903  2.5048
 4986SOL     OW26593   2.631   3.810   5.802 -0.4144  0.0434  0.4678
 4986SOL    HW126594   2.628   3.728   5.851  3.2774 -0.3227  0.0737
 4986SOL    HW226595   2.693   3.791   5.732 -2.9717 -1.0992 -1.4634
 4987SOL     OW26596   0.231   4.063   3.353  0.2274 -0.4417 -0.3692
 4987SOL    HW126597   0.195   4.089   3.268 -2.1078 -0.8351  0.5239
 4987SOL    HW226598   0.149   4.062   3.402 -0.3718  1.4904 -1.3228
 4988SOL     OW26599   1.443   2.682  13.407 -0.8167 -0.6297  0.6581
 4988SOL    HW126600   1.392   2.762  13.420  0.3510 -0.0065  1.4188
 4988SOL    HW226601   1.440   2.672  13.312  0.4426  0.9151  0.4564
 4989SOL     OW26602   4.315   3.256   9.224  0.0867  0.5101  0.2453
 4989SOL    HW126603   4.364   3.218   9.297  0.0584 -0.2509 -0.1326
 4989SOL    HW226604   4.383   3.321   9.208  0.6642  0.4353  2.3775
 4990SOL     OW26605   0.050   1.766   8.369  0.5450 -0.0562 -0.0887
 4990SOL    HW126606   0.040   1.846   8.422  0.4470  0.2012 -0.4970
 4990SOL    HW226607   4.727   1.776   8.297  2.2932 -1.6462 -1.7727
 4991SOL     OW26608   4.533   1.501  10.918  0.0080  0.0134 -0.5101
 4991SOL    HW126609   4.491   1.564  10.860 -0.1987 -0.4778 -0.8877
 4991SOL    HW226610   4.504   1.418  10.882  0.7773 -0.8115  0.7752
 4992SOL     OW26611   0.283   2.738   4.293  0.3313 -0.3973  0.0327
 4992SOL    HW126612   0.259   2.821   4.335  3.5195  1.6798 -2.1712
 4992SOL    HW226613   0.301   2.686   4.371  1.2625 -0.8486 -0.4804
 4993SOL     OW26614   0.933   1.357  14.857  0.1780  0.1647 -0.3904
 4993SOL    HW126615   0.918   1.429  14.919 -0.2490  0.5357 -0.9256
 4993SOL    HW226616   1.029   1.357  14.855  0.1905 -0.4505  0.3047
 4994SOL     OW26617   3.551   1.525  12.214  0.0757 -0.0311  0.2731
 4994SOL    HW126618   3.554   1.573  12.297 -1.7888 -2.3202  1.6650
 4994SOL    HW226619   3.460   1.541  12.188 -0.0566  2.7529  2.4119
 4995SOL     OW26620   1.438   0.630  16.460 -0.5924 -0.3277 -0.7423
 4995SOL    HW126621   1.344   0.611  16.454 -0.4180 -1.9873  1.7575
 4995SOL    HW226622   1.473   0.609  16.373 -2.2255  0.3982 -1.5729
 4996SOL     OW26623   0.068   1.706   6.226  0.1940  0.2461 -0.2671
 4996SOL    HW126624   0.022   1.677   6.305 -1.1843  1.3115 -0.6955
 4996SOL    HW226625   0.004   1.683   6.158 -0.9478  2.0545  0.2098
 4997SOL     OW26626   0.192   3.648   3.257  0.4993  0.4508 -0.2890
 4997SOL    HW126627   0.245   3.610   3.187  0.8771 -1.1671  0.8880
 4997SOL    HW226628   0.260   3.704   3.293 -0.5532  0.8458  1.0909
 4998SOL     OW26629   0.875   0.814   7.841 -0.1062  0.3095 -0.0090
 4998SOL    HW126630   0.899   0.780   7.755  1.0601  0.7694  0.1362
 4998SOL    HW226631   0.782   0.792   7.839 -0.4509  1.9247 -1.8079
 4999SOL     OW26632   1.335   2.565   2.574  0.3052  0.4283 -0.2797
 4999SOL    HW126633   1.328   2.507   2.650 -0.1200  0.6539 -0.1473
 4999SOL    HW226634   1.308   2.515   2.497  0.1089 -0.0531  0.0927
 5000SOL     OW26635   3.784   3.050   3.324  0.1931 -0.1639 -0.0199
 5000SOL    HW126636   3.726   3.053   3.248 -0.2202  0.9511  0.3284
 5000SOL    HW226637   3.804   2.958   3.336 -0.3350 -0.2929 -0.1215
 5001SOL     OW26638   1.456   3.753  13.976  0.2692 -0.3955 -0.1121
 5001SOL    HW126639   1.452   3.848  13.987  1.9508 -0.3804  0.3662
 5001SOL    HW226640   1.380   3.717  14.021 -0.6527  1.7861  0.0394
 5002SOL     OW26641   3.807   2.788   3.408  0.0928 -0.4736  0.2666
 5002SOL    HW126642   3.897   2.757   3.417 -0.0141 -0.7714  0.3067
 5002SOL    HW226643   3.764   2.704   3.398  0.6259 -0.5893 -1.0699
 5003SOL     OW26644   1.749   2.983  14.372 -0.3462  0.2374 -0.0664
 5003SOL    HW126645   1.728   2.890  14.362 -1.0362  0.3727  0.1777
 5003SOL    HW226646   1.819   2.978  14.437 -0.9080 -1.1784  0.4298
 5004SOL     OW26647   2.948   1.538   4.533  0.3727 -0.2798  0.1330
 5004SOL    HW126648   3.040   1.518   4.550  0.3802  0.1968  0.6598
 5004SOL    HW226649   2.961   1.600   4.460  0.4023 -1.2491 -0.6867
 5005SOL     OW26650   1.397   3.140   6.694  0.3082  0.4583 -0.6354
 5005SOL    HW126651   1.396   3.138   6.789 -2.7466 -1.7041 -0.7361
 5005SOL    HW226652   1.398   3.235   6.680  1.1537  0.5389  0.0502
 5006SOL     OW26653   2.362   2.782   7.526  0.4255 -0.5136  0.2656
 5006SOL    HW126654   2.317   2.864   7.502  0.4496 -0.0321  1.9001
 5006SOL    HW226655   2.425   2.776   7.454  1.2678  0.9379  0.8785
 5007SOL     OW26656   4.183   1.983   4.385 -0.9602  0.0592 -0.0514
 5007SOL    HW126657   4.262   1.988   4.333 -0.9790 -2.1144 -0.2544
 5007SOL    HW226658   4.210   2.031   4.464 -0.9933  0.3738 -0.2292
 5008SOL     OW26659   2.828   3.634   6.869 -0.7007 -0.2633  0.2282
 5008SOL    HW126660   2.744   3.594   6.894 -1.0691  1.4634  1.7414
 5008SOL    HW226661   2.861   3.564   6.812 -0.1581 -1.0206  1.4751
 5009SOL     OW26662   2.920   2.685   4.506  0.2828  0.1520 -0.1635
 5009SOL    HW126663   2.827   2.694   4.528  0.4649  0.4906  0.4834
 5009SOL    HW226664   2.965   2.708   4.588 -0.4279  1.7457 -0.2165
 5010SOL     OW26665   0.899   3.054   1.441 -0.0787  0.1545 -0.0667
 5010SOL    HW126666   0.880   3.052   1.535 -0.3036 -1.6624 -0.1530
 5010SOL    HW226667   0.817   3.029   1.398  0.0536  2.4034 -1.6213
 5011SOL     OW26668   0.287   1.445   8.050 -0.6903 -0.7267 -0.4855
 5011SOL    HW126669   0.221   1.408   8.108  0.0868 -0.3339  0.6595
 5011SOL    HW226670   0.324   1.365   8.010 -0.2717 -0.2289 -1.0981
 5012SOL     OW26671   1.288   1.300   1.877  0.1909 -0.2841 -0.3548
 5012SOL    HW126672   1.334   1.313   1.794  2.3838  1.5546  1.1258
 5012SOL    HW226673   1.221   1.368   1.874  0.6809  0.2678  0.8019
 5013SOL     OW26674   3.531   1.818  10.565 -0.2445  0.4777 -0.0030
 5013SOL    HW126675   3.468   1.751  10.540  0.5694 -0.7658  1.2896
 5013SOL    HW226676   3.543   1.792  10.656 -2.3688 -1.4332 -0.2630
 5014SOL     OW26677   0.516   3.710   3.486  0.0333 -0.8071  0.6591
 5014SOL    HW126678   0.488   3.761   3.410  0.4761 -1.7420 -0.1256
 5014SOL    HW226679   0.512   3.619   3.456  0.6704 -0.5309 -0.2484
 5015SOL     OW26680   3.044   0.994   5.744  0.0076  0.3360 -0.2245
 5015SOL    HW126681   3.090   0.986   5.827  1.7844  0.4031 -1.2069
 5015SOL    HW226682   2.970   0.933   5.745  1.2791 -1.1900  0.3024
 5016SOL     OW26683   4.507   2.764   9.075 -0.8175  0.2362 -0.3521
 5016SOL    HW126684   4.529   2.672   9.083 -4.4058 -0.4814  1.2606
 5016SOL    HW226685   4.412   2.757   9.062 -0.6701 -2.6198  0.0886
 5017SOL     OW26686   3.364   1.040   7.461 -0.8016  0.2601 -0.2349
 5017SOL    HW126687   3.409   1.121   7.435 -1.9176  0.8673 -0.2745
 5017SOL    HW226688   3.329   1.017   7.375 -3.3797  0.4804  0.7715
 5018SOL     OW26689   3.875   2.069   8.669  0.3194  0.1710 -0.2863
 5018SOL    HW126690   3.886   2.109   8.582 -0.9685 -0.0394 -0.5408
 5018SOL    HW226691   3.917   1.987   8.643 -0.4958 -0.6192  0.9124
 5019SOL     OW26692   4.130   1.448  13.979 -0.9644 -0.4714 -0.2790
 5019SOL    HW126693   4.078   1.385  13.930 -0.5451 -0.0217 -1.2987
 5019SOL    HW226694   4.068   1.519  13.993  0.0873  0.1318  1.4036
 5020SOL     OW26695   3.982   0.200   4.044  0.0930  0.0376 -0.0804
 5020SOL    HW126696   3.915   0.151   3.996 -0.6252  0.2439  0.7230
 5020SOL    HW226697   4.058   0.142   4.037  0.7609  0.8222  0.7378
 5021SOL     OW26698   4.477   2.556   2.447 -0.6591  0.1611  0.2486
 5021SOL    HW126699   4.447   2.621   2.511 -0.5455 -0.3360  0.8091
 5021SOL    HW226700   4.430   2.567   2.364 -2.8737 -1.1848  1.3278
 5022SOL     OW26701   0.245   0.243   1.506  0.1135 -0.2516 -0.0952
 5022SOL    HW126702   0.252   0.152   1.535  0.2174 -0.8626 -2.0371
 5022SOL    HW226703   0.157   0.240   1.467  0.7718 -1.2273 -1.4995
 5023SOL     OW26704   3.957   0.673   0.996 -0.2334  0.2456  0.1983
 5023SOL    HW126705   3.892   0.614   1.032  0.2764  0.3349  1.2510
 5023SOL    HW226706   4.041   0.634   1.021 -0.0450 -0.4399 -1.4880
 5024SOL     OW26707   4.100   0.970   8.847 -0.5129 -0.2182  0.3412
 5024SOL    HW126708   4.183   0.937   8.881 -0.6600 -0.3950  0.5256
 5024SOL    HW226709   4.058   0.997   8.929  0.5684  0.6400  0.6206
 5025SOL     OW26710   2.477   1.419   4.172  0.7577 -0.1689 -0.4120
 5025SOL    HW126711   2.548   1.421   4.236  1.7632  0.2549 -1.5523
 5025SOL    HW226712   2.484   1.501   4.123 -1.8373  0.5941  0.4606
 5026SOL     OW26713   3.634   0.973   7.457  0.0774  0.0157 -0.8508
 5026SOL    HW126714   3.668   1.053   7.496  0.3628  0.0273 -1.1215
 5026SOL    HW226715   3.543   0.998   7.470 -0.3394 -0.6771 -2.3282
 5027SOL     OW26716   1.539   3.594  16.191  0.0382  0.2167  0.0322
 5027SOL    HW126717   1.589   3.651  16.133  0.8690 -0.1467  0.4042
 5027SOL    HW226718   1.510   3.654  16.259  1.5206 -0.0408  0.8793
 5028SOL     OW26719   0.245   0.382   2.040  0.4330  0.0057  0.1547
 5028SOL    HW126720   0.283   0.454   1.990  1.5045  1.0652  2.4612
 5028SOL    HW226721   0.295   0.392   2.122  0.8360 -0.8939  0.0220
 5029SOL     OW26722   3.851   3.092  17.293 -0.2384 -0.3149  0.1949
 5029SOL    HW126723   3.934   3.054  17.322  0.5758  0.1242 -1.5836
 5029SOL    HW226724   3.859   3.082  17.198  0.1360  0.6183  0.1283
 5030SOL     OW26725   0.784   2.179   5.351  0.1054 -0.3154 -0.1863
 5030SOL    HW126726   0.761   2.095   5.391  1.5730 -0.3541  0.5974
 5030SOL    HW226727   0.847   2.158   5.282  1.0994  0.1322  0.5735
 5031SOL     OW26728   1.761   0.319   0.032 -0.8560 -0.4786  0.3866
 5031SOL    HW126729   1.761   0.238  17.732  0.8776 -0.3999  0.2608
 5031SOL    HW226730   1.720   0.383  17.724  0.2340 -0.5682 -0.4774
 5032SOL     OW26731   3.288   0.239   3.915  0.0509  0.2636 -0.2894
 5032SOL    HW126732   3.352   0.172   3.939 -0.4581  0.0687  0.5274
 5032SOL    HW226733   3.212   0.185   3.894 -0.5562  0.7939  0.5559
 5033SOL     OW26734   0.877   0.219   6.949 -0.1947  0.3850  0.4720
 5033SOL    HW126735   0.965   0.246   6.974  0.1201  0.2015 -0.4190
 5033SOL    HW226736   0.908   0.147   6.893 -2.5663 -0.7800  0.6802
 5034SOL     OW26737   1.454   0.862   3.835 -0.3182  0.4943  0.2677
 5034SOL    HW126738   1.408   0.814   3.904 -1.4230 -0.1323 -0.9102
 5034SOL    HW226739   1.495   0.790   3.786  0.6610  0.1247  1.6384
 5035SOL     OW26740   2.083   2.967   7.089  0.1221 -0.0689  0.0956
 5035SOL    HW126741   1.987   2.972   7.083  0.0910  0.6529  1.2970
 5035SOL    HW226742   2.106   2.960   7.181 -1.3445 -2.8187  0.2567
 5036SOL     OW26743   1.967   1.314  14.798 -0.4159  0.2169 -0.3723
 5036SOL    HW126744   2.035   1.251  14.821  1.4112  1.7484 -1.5610
 5036SOL    HW226745   2.006   1.394  14.834  0.2534 -0.3419  0.1399
 5037SOL     OW26746   1.027   4.736   2.695  0.1517 -0.9795  0.3217
 5037SOL    HW126747   1.092   4.730   2.625  0.5275 -0.4906  0.6380
 5037SOL    HW226748   0.955   4.684   2.657 -1.0099  1.0696 -0.2755
 5038SOL     OW26749   1.828   3.954   2.038  0.0852  0.2731  0.1007
 5038SOL    HW126750   1.819   4.011   2.115 -2.1658 -0.0299  0.0398
 5038SOL    HW226751   1.755   3.899   2.065 -2.3156  3.1571 -0.4601
 5039SOL     OW26752   1.245   1.408   8.592 -0.1004  0.2790  0.0929
 5039SOL    HW126753   1.321   1.416   8.649 -1.3342 -0.3652  1.8405
 5039SOL    HW226754   1.267   1.332   8.538 -1.7209 -0.3919  0.3768
 5040SOL     OW26755   1.876   0.961   7.908  0.0680 -0.4408 -0.5734
 5040SOL    HW126756   1.787   0.958   7.872 -0.9558 -0.8703  1.9676
 5040SOL    HW226757   1.921   0.986   7.828 -2.0647  0.2554 -1.5744
 5041SOL     OW26758   2.129   3.633   6.658  0.0480 -0.1230 -0.7361
 5041SOL    HW126759   2.042   3.597   6.674 -0.1198  0.3192 -0.6463
 5041SOL    HW226760   2.152   3.585   6.579  1.3319 -0.7729  0.0254
 5042SOL     OW26761   1.354   2.422  12.693  0.0689 -0.2970 -0.6543
 5042SOL    HW126762   1.322   2.490  12.752  1.6048 -0.3758  0.2671
 5042SOL    HW226763   1.436   2.394  12.733 -0.7815 -1.2934  0.4062
 5043SOL     OW26764   0.333   4.311   6.723  0.5653 -0.6161  0.1195
 5043SOL    HW126765   0.391   4.344   6.654 -0.2986  1.6599  0.4873
 5043SOL    HW226766   0.336   4.392   6.774 -0.1809  0.2527 -1.2275
 5044SOL     OW26767   2.695   0.785   3.169 -0.0789  0.2965 -0.1692
 5044SOL    HW126768   2.743   0.771   3.088  0.7433 -3.1274  0.9116
 5044SOL    HW226769   2.691   0.697   3.205 -1.1563  0.4045 -0.0029
 5045SOL     OW26770   2.544   1.650  16.288 -0.6718  0.2281  0.2129
 5045SOL    HW126771   2.530   1.561  16.254  2.3181 -1.1124  2.4491
 5045SOL    HW226772   2.638   1.662  16.271 -0.7971 -0.2263 -0.7659
 5046SOL     OW26773   2.431   4.178   6.325 -0.4957  0.2058  0.3060
 5046SOL    HW126774   2.517   4.137   6.318  0.0897  1.4926  0.0032
 5046SOL    HW226775   2.377   4.117   6.376 -1.0114  1.1311  0.8759
 5047SOL     OW26776   2.324   2.620   4.619 -0.6818 -0.0908 -0.3125
 5047SOL    HW126777   2.332   2.526   4.605  1.5682 -0.2634  2.0978
 5047SOL    HW226778   2.307   2.623   4.713  0.2795  0.8169 -0.1748
 5048SOL     OW26779   4.722   3.011   5.238 -0.1083 -0.0718 -0.1259
 5048SOL    HW126780   4.665   3.028   5.163 -3.5376 -0.9306  2.2677
 5048SOL    HW226781   4.720   3.094   5.287 -2.1133 -0.0135 -0.3253
 5049SOL     OW26782   1.485   0.034   3.381 -0.0090 -0.1224 -0.3741
 5049SOL    HW126783   1.477   0.068   3.470  0.9238  0.0538 -0.3546
 5049SOL    HW226784   1.442   4.688   3.390  3.4959 -1.9394 -0.6827
 5050SOL     OW26785   3.021   1.182   5.524 -0.5387 -0.1635 -0.3906
 5050SOL    HW126786   3.113   1.195   5.501 -0.1431  2.2722  2.6140
 5050SOL    HW226787   3.021   1.127   5.603  0.4280  1.7566  0.9395
 5051SOL     OW26788   3.092   1.719  14.398 -0.0149 -0.0035 -0.5342
 5051SOL    HW126789   3.162   1.696  14.337  0.5712 -1.2276  0.5727
 5051SOL    HW226790   3.044   1.782  14.345 -0.1721  1.5662  1.4547
 5052SOL     OW26791   0.508   1.027  12.872 -0.1409 -0.2254 -0.0927
 5052SOL    HW126792   0.503   1.101  12.812 -0.6896  0.1967  0.4761
 5052SOL    HW226793   0.415   1.007  12.882 -0.6797  2.0683 -0.5388
 5053SOL     OW26794   4.255   2.558   5.973  0.0661  0.0420  0.0785
 5053SOL    HW126795   4.349   2.578   5.969 -0.3489  1.9285 -0.5731
 5053SOL    HW226796   4.238   2.574   6.066 -0.4676 -1.0107  0.1591
 5054SOL     OW26797   3.321   4.294  15.251 -0.1460 -1.0750 -0.1597
 5054SOL    HW126798   3.329   4.373  15.305  0.8139 -1.0667 -0.3035
 5054SOL    HW226799   3.409   4.294  15.212 -1.5250  2.2932 -3.1977
 5055SOL     OW26800   3.028   4.647   9.300  0.3886 -0.2209 -0.1541
 5055SOL    HW126801   3.107   4.692   9.268  0.0739  1.2647  1.1292
 5055SOL    HW226802   3.037   4.563   9.257  2.1261  0.2863 -0.8027
 5056SOL     OW26803   3.273   0.975   7.728  0.1736  0.6828  0.2799
 5056SOL    HW126804   3.241   1.061   7.756 -2.0185 -0.6352  1.7406
 5056SOL    HW226805   3.298   0.998   7.638 -1.0720  1.5249  0.1422
 5057SOL     OW26806   3.030   0.404   5.307  0.6017  0.2664  0.3051
 5057SOL    HW126807   3.068   0.438   5.226 -2.4175  1.1664 -0.7507
 5057SOL    HW226808   2.987   0.486   5.333 -0.5366 -0.1642 -0.1938
 5058SOL     OW26809   0.831   1.514   3.152 -0.0960  0.1788  0.1062
 5058SOL    HW126810   0.861   1.584   3.095  0.2186 -0.2494 -0.2561
 5058SOL    HW226811   0.750   1.489   3.108 -0.9441  2.4617  0.3922
 5059SOL     OW26812   2.800   4.642   3.958 -0.2456 -0.4136 -0.1330
 5059SOL    HW126813   2.797   4.547   3.964  4.8632 -0.6550 -1.3842
 5059SOL    HW226814   2.717   4.658   3.914  1.2615 -0.6098 -3.0357
 5060SOL     OW26815   4.483   1.424   1.358  0.5742 -0.1252  0.3861
 5060SOL    HW126816   4.576   1.440   1.340 -0.5111  2.5114 -2.8347
 5060SOL    HW226817   4.447   1.512   1.344  0.2335 -0.8496 -3.2605
 5061SOL     OW26818   3.970   1.263   1.982  0.0107  0.2811 -0.9101
 5061SOL    HW126819   4.021   1.230   2.056 -1.0670  1.6170  0.4189
 5061SOL    HW226820   3.888   1.282   2.027 -1.6767 -2.5538 -2.7571
 5062SOL     OW26821   0.726   0.400   5.297 -0.4582 -0.4020 -0.4253
 5062SOL    HW126822   0.717   0.350   5.378  1.0204  1.5076  0.9011
 5062SOL    HW226823   0.653   0.362   5.248 -0.7776 -3.2215  2.2139
 5063SOL     OW26824   4.269   1.739  15.412  0.9973 -0.7321  0.1166
 5063SOL    HW126825   4.195   1.712  15.466  1.1070  2.0024  1.6682
 5063SOL    HW226826   4.349   1.710  15.457  1.9715  0.6934 -0.6834
 5064SOL     OW26827   3.409   3.439  10.886  0.0978  0.6664  0.6696
 5064SOL    HW126828   3.341   3.506  10.876 -0.4098 -0.0761 -0.9384
 5064SOL    HW226829   3.482   3.500  10.899  1.8729 -1.3613  0.3240
 5065SOL     OW26830   2.410   1.114   3.583 -0.1372 -0.1853  0.3320
 5065SOL    HW126831   2.368   1.052   3.641  1.0862  0.3297  1.7703
 5065SOL    HW226832   2.483   1.065   3.544  0.7622  0.3376  1.3457
 5066SOL     OW26833   3.460   1.250   4.447 -0.1611  0.2370 -0.0089
 5066SOL    HW126834   3.441   1.297   4.366 -1.0342 -1.2860 -0.6767
 5066SOL    HW226835   3.375   1.214   4.474  0.2689 -1.8819 -1.4540
 5067SOL     OW26836   4.370   2.902   2.532 -0.3706  0.2415  0.0758
 5067SOL    HW126837   4.369   2.853   2.450 -0.5116  1.4302 -0.6291
 5067SOL    HW226838   4.435   2.856   2.586  0.0476 -0.4308 -1.0030
 5068SOL     OW26839   3.328   0.295   2.506 -0.4342 -0.5547  0.0507
 5068SOL    HW126840   3.269   0.231   2.545 -0.8422 -0.9704 -1.2625
 5068SOL    HW226841   3.291   0.310   2.419  1.3965  1.7370 -0.3309
 5069SOL     OW26842   2.771   2.647  15.846 -0.3967  0.3500 -0.2117
 5069SOL    HW126843   2.798   2.724  15.795  0.5920  0.3803  0.3554
 5069SOL    HW226844   2.700   2.615  15.790 -1.5687  0.2688  1.3400
 5070SOL     OW26845   2.185   3.994   2.842  0.2417 -0.3052  0.0282
 5070SOL    HW126846   2.257   3.991   2.779 -0.1585 -0.8021 -0.4019
 5070SOL    HW226847   2.103   4.019   2.800 -0.8018 -0.8453  1.7230
 5071SOL     OW26848   1.343   3.570   2.142 -0.1203  0.0525  0.4206
 5071SOL    HW126849   1.315   3.535   2.057  1.3854 -1.1300  0.3963
 5071SOL    HW226850   1.432   3.534   2.148  0.3110  1.3491  1.9465
 5072SOL     OW26851   0.682   1.769   7.999  0.1914 -0.7359  0.1346
 5072SOL    HW126852   0.774   1.757   8.021  0.0570 -0.9268  0.5859
 5072SOL    HW226853   0.673   1.693   7.940  0.4430 -0.0991 -0.7276
 5073SOL     OW26854   4.185   1.867   3.155  0.1252  0.0167 -0.0095
 5073SOL    HW126855   4.215   1.958   3.151  1.8895 -0.4865  1.6365
 5073SOL    HW226856   4.249   1.829   3.095 -1.6080 -0.0832 -1.7855
 5074SOL     OW26857   3.861   3.349   9.871  0.0702 -0.2263  0.3463
 5074SOL    HW126858   3.818   3.432   9.888  2.2979  0.9593  0.2182
 5074SOL    HW226859   3.927   3.365   9.803 -0.3265 -1.7790 -0.4235
 5075SOL     OW26860   3.607   3.046   1.952 -0.1531  0.2591 -0.4366
 5075SOL    HW126861   3.606   3.106   2.026  2.5711 -2.2430  1.6290
 5075SOL    HW226862   3.636   2.968   2.000 -0.7639  1.2749  1.5734
 5076SOL     OW26863   2.920   3.336   2.968 -0.0100  0.2341  0.1583
 5076SOL    HW126864   2.846   3.292   2.926 -0.2536 -2.5615  3.4665
 5076SOL    HW226865   2.917   3.290   3.052  1.0267  1.0685  0.6613
 5077SOL     OW26866   3.184   0.951   9.467  0.1677 -0.4181  0.4576
 5077SOL    HW126867   3.108   0.896   9.447 -0.2941  0.3981 -0.0324
 5077SOL    HW226868   3.139   1.035   9.478  0.3415 -0.0941 -1.2925
 5078SOL     OW26869   1.995   4.019   2.407  0.8163 -0.0798  0.5969
 5078SOL    HW126870   1.916   4.037   2.357  0.2042  0.5287  1.7829
 5078SOL    HW226871   1.984   3.931   2.443  0.9425 -1.6765 -3.3508
 5079SOL     OW26872   2.656   1.881   3.812  0.5143 -0.9618  0.1049
 5079SOL    HW126873   2.640   1.787   3.805 -1.7630 -0.6424  1.1731
 5079SOL    HW226874   2.570   1.922   3.814  1.1250  0.3043  0.3494
 5080SOL     OW26875   3.446   2.245   7.045 -0.1340  0.1163 -0.0304
 5080SOL    HW126876   3.396   2.183   7.098 -2.7453  1.6541 -0.7138
 5080SOL    HW226877   3.410   2.331   7.063  0.5774  0.6389 -1.0804
 5081SOL     OW26878   0.222   3.007  13.810  0.7337  0.1265  0.1289
 5081SOL    HW126879   0.145   2.951  13.801 -0.7038  1.8276  1.5713
 5081SOL    HW226880   0.274   2.952  13.868 -1.0234 -0.9052  0.7084
 5082SOL     OW26881   0.668   0.969  16.059  0.3831  0.4643 -1.1902
 5082SOL    HW126882   0.745   0.914  16.042 -0.8396 -1.4860 -0.4139
 5082SOL    HW226883   0.703   1.057  16.045 -0.1138  0.7532 -0.5982
 5083SOL     OW26884   3.399   3.937   7.336  0.3843  0.2253  0.5079
 5083SOL    HW126885   3.426   3.915   7.247  0.7085  1.0087  0.4141
 5083SOL    HW226886   3.484   3.948   7.379 -0.1204 -0.4064  1.6776
 5084SOL     OW26887   4.605   1.392   7.615  0.4432  0.0334  0.4024
 5084SOL    HW126888   4.643   1.406   7.528 -1.3397 -1.1622 -0.5825
 5084SOL    HW226889   4.678   1.341   7.651  0.5898  1.2228  1.7776
 5085SOL     OW26890   0.372   0.368   7.122 -0.5872 -0.0113  0.4933
 5085SOL    HW126891   0.467   0.373   7.123 -0.5180 -1.4296  0.6324
 5085SOL    HW226892   0.352   0.358   7.215 -1.4597 -2.0590  0.0861
 5086SOL     OW26893   0.730   0.195  16.903 -0.0418 -0.3046 -0.5045
 5086SOL    HW126894   0.748   0.275  16.854  0.6637  0.6559  1.3235
 5086SOL    HW226895   0.737   0.129  16.834 -0.4208 -0.9386  0.0597
 5087SOL     OW26896   3.704   1.154  15.061  0.3488  0.4176  0.3001
 5087SOL    HW126897   3.750   1.108  15.131 -1.6462 -0.9977  0.6831
 5087SOL    HW226898   3.775   1.217  15.050  0.6076  0.3846  1.7029
 5088SOL     OW26899   1.961   4.592   4.525  0.1412 -0.1757  0.0393
 5088SOL    HW126900   2.044   4.555   4.498  0.5215 -1.2265  2.6153
 5088SOL    HW226901   1.921   4.616   4.442  1.4854  0.1474 -0.5078
 5089SOL     OW26902   3.073   0.083   0.564  0.2938 -0.2539 -0.1440
 5089SOL    HW126903   3.140   0.151   0.576 -0.6120  0.3052  1.7263
 5089SOL    HW226904   3.077   0.036   0.647  0.9802  0.3197  0.1544
 5090SOL     OW26905   1.358   2.025  12.853 -0.4377 -0.3599  0.5379
 5090SOL    HW126906   1.351   2.048  12.946 -2.1381 -1.8052  0.7709
 5090SOL    HW226907   1.312   1.941  12.858  0.1535 -0.6887  0.4376
 5091SOL     OW26908   1.638   1.547   9.211 -0.1527 -0.1320  0.4104
 5091SOL    HW126909   1.731   1.528   9.227 -0.0395  0.0875  0.0197
 5091SOL    HW226910   1.622   1.617   9.275 -0.1432  0.8400 -0.6430
 5092SOL     OW26911   3.767   2.901   3.969  0.3269 -0.4174  0.1071
 5092SOL    HW126912   3.712   2.873   4.042  1.4458 -1.0019  0.7247
 5092SOL    HW226913   3.834   2.959   4.004 -0.4619  1.3386 -1.2887
 5093SOL     OW26914   1.684   3.200   0.724 -0.2914  0.4314 -0.6716
 5093SOL    HW126915   1.623   3.274   0.723  1.8206  2.1770 -3.0267
 5093SOL    HW226916   1.667   3.158   0.639  1.1937 -2.3551  0.4090
 5094SOL     OW26917   1.558   0.568   5.228  0.3157  0.3139  0.2200
 5094SOL    HW126918   1.625   0.567   5.160 -0.2928  0.7810 -0.3863
 5094SOL    HW226919   1.567   0.480   5.264  0.5061 -0.3016 -1.3523
 5095SOL     OW26920   2.966   2.667   2.492 -0.1920 -0.7727 -0.5748
 5095SOL    HW126921   3.004   2.675   2.580 -0.6771 -0.3000 -0.4121
 5095SOL    HW226922   3.047   2.690   2.447  2.7841 -2.8410  3.7132
 5096SOL     OW26923   2.611   1.656   4.095 -0.3034  0.4516  0.0304
 5096SOL    HW126924   2.703   1.677   4.078 -0.4152  0.6010 -0.3854
 5096SOL    HW226925   2.563   1.732   4.064 -1.7310 -0.6151 -0.3919
 5097SOL     OW26926   3.532   0.943   5.932  0.5456  0.5640  0.2216
 5097SOL    HW126927   3.599   1.002   5.967  1.0866 -0.5687  1.1411
 5097SOL    HW226928   3.466   1.002   5.897 -1.2018 -2.0045 -0.8419
 5098SOL     OW26929   3.256   4.142   7.806  0.7716 -0.3523 -0.0643
 5098SOL    HW126930   3.275   4.087   7.730 -0.9726 -2.0946  0.7729
 5098SOL    HW226931   3.313   4.104   7.872  1.0579 -1.4270 -0.9223
 5099SOL     OW26932   2.964   0.354   5.632 -0.1306  0.3220  0.0695
 5099SOL    HW126933   3.036   0.405   5.594  2.7426 -3.1890  0.8069
 5099SOL    HW226934   3.009   0.317   5.708 -1.5837  2.2152  1.8323
 5100SOL     OW26935   2.666   1.687   3.286  0.1234  0.0114  0.3089
 5100SOL    HW126936   2.665   1.779   3.313 -0.1307  1.0001 -3.0547
 5100SOL    HW226937   2.672   1.697   3.191  0.6921  1.7783  0.5370
 5101SOL     OW26938   2.310   1.942  12.009 -0.2692 -0.3367 -0.4117
 5101SOL    HW126939   2.348   1.998  12.077 -0.1963  0.8324 -1.4095
 5101SOL    HW226940   2.337   1.853  12.032 -1.6949 -1.0707 -1.6029
 5102SOL     OW26941   2.385   2.368   9.017  0.8115 -0.5985  0.0663
 5102SOL    HW126942   2.422   2.286   8.984  2.3353 -0.2465  0.9184
 5102SOL    HW226943   2.366   2.338   9.106  0.0365 -0.6044 -0.0954
 5103SOL     OW26944   1.654   3.474   1.569 -0.3844 -0.3512 -0.4838
 5103SOL    HW126945   1.728   3.419   1.592  1.0299  2.0850  0.7790
 5103SOL    HW226946   1.597   3.404   1.535  0.2003 -2.2360  2.4558
 5104SOL     OW26947   1.898   0.015  11.721  0.1567  0.1630  0.3908
 5104SOL    HW126948   1.939   4.667  11.720  1.5801  0.8211  1.7563
 5104SOL    HW226949   1.830   4.735  11.657 -1.0940 -1.0324  2.0463
 5105SOL     OW26950   2.698   1.998   6.083  0.3819 -0.0629 -0.0508
 5105SOL    HW126951   2.642   1.938   6.034 -1.2389  2.1068 -0.8028
 5105SOL    HW226952   2.711   1.936   6.155 -0.4538  0.1516  0.2786
 5106SOL     OW26953   4.334   1.329   7.737  0.3433  0.7676  0.2763
 5106SOL    HW126954   4.417   1.374   7.752  0.2704  1.4117 -1.2410
 5106SOL    HW226955   4.357   1.279   7.659  0.4148  0.8480  0.2453
 5107SOL     OW26956   1.513   2.122   6.007  0.2769 -0.1333 -0.9794
 5107SOL    HW126957   1.598   2.096   6.041  0.9911  0.7905 -2.0784
 5107SOL    HW226958   1.449   2.063   6.049 -0.7564  1.2710 -0.5668
 5108SOL     OW26959   4.648   3.247   2.903 -0.1136  0.9011  0.4928
 5108SOL    HW126960   4.615   3.242   2.993 -2.3213  0.5025 -0.3273
 5108SOL    HW226961   4.570   3.220   2.854  0.3112 -4.5560  2.8806
 5109SOL     OW26962   0.469   4.710   3.644 -0.8904  0.4964  0.2131
 5109SOL    HW126963   0.479   4.660   3.563  0.1286  0.4603  0.3596
 5109SOL    HW226964   0.401   0.031   3.611 -1.2571  0.5230  1.0132
 5110SOL     OW26965   3.671   1.321   8.105  0.0595 -0.5163 -0.5014
 5110SOL    HW126966   3.733   1.248   8.113  1.0446  0.3109 -0.5186
 5110SOL    HW226967   3.722   1.392   8.144  1.3694 -1.6534 -0.1330
 5111SOL     OW26968   0.101   2.501   7.303  0.9216  0.3002 -0.2905
 5111SOL    HW126969   0.122   2.420   7.257  3.3828  0.6538  0.2252
 5111SOL    HW226970   0.046   2.464   7.372  0.6648 -2.5645 -2.0394
 5112SOL     OW26971   1.407   4.024  12.359 -0.1513 -0.4348  0.0268
 5112SOL    HW126972   1.456   4.054  12.282  2.3985  1.3802  2.3609
 5112SOL    HW226973   1.400   4.105  12.408 -0.2074  1.1204 -2.5435
 5113SOL     OW26974   2.172   3.453   4.592  0.5385 -0.0524 -0.0517
 5113SOL    HW126975   2.211   3.432   4.507  2.2221  0.7285  0.5374
 5113SOL    HW226976   2.082   3.470   4.562  0.5076 -2.2629 -1.1952
 5114SOL     OW26977   1.280   3.766   7.822 -0.0555 -0.2818  0.1662
 5114SOL    HW126978   1.208   3.748   7.882  0.5644 -2.2396  0.3198
 5114SOL    HW226979   1.251   3.740   7.735 -0.5716  0.0984  0.2242
 5115SOL     OW26980   3.155   1.796   3.302  0.4973 -0.3893 -0.2524
 5115SOL    HW126981   3.155   1.860   3.374 -1.6249  0.3475 -0.9006
 5115SOL    HW226982   3.072   1.759   3.331  0.5838  0.2911  0.8481
 5116SOL     OW26983   0.042   1.708   4.138  0.0032 -0.3923 -0.3902
 5116SOL    HW126984   0.063   1.622   4.102  0.8902 -1.3312  2.3565
 5116SOL    HW226985   0.098   1.708   4.215  1.2743 -2.1091 -1.3234
 5117SOL     OW26986   3.133   0.104   9.854 -0.4037  0.5460  0.6181
 5117SOL    HW126987   3.168   0.177   9.803 -3.3936  0.6699 -1.2076
 5117SOL    HW226988   3.160   0.029   9.802 -1.7639  0.5149 -0.0372
 5118SOL     OW26989   1.333   4.188   1.375 -0.4014  0.2678 -0.7233
 5118SOL    HW126990   1.396   4.170   1.305 -1.3729 -2.3187 -0.9191
 5118SOL    HW226991   1.384   4.186   1.456 -1.1858 -2.3638 -0.2953
 5119SOL     OW26992   2.811   0.308  14.267  0.0278 -0.2643 -0.1893
 5119SOL    HW126993   2.815   0.224  14.313 -1.7800 -2.0442 -3.2397
 5119SOL    HW226994   2.768   0.361  14.335  1.3352  1.7389 -0.9341
 5120SOL     OW26995   2.381   2.661   1.279 -0.0068 -0.1314 -0.4653
 5120SOL    HW126996   2.450   2.662   1.346  0.1471  3.4048 -0.6903
 5120SOL    HW226997   2.360   2.568   1.274 -0.5294  0.1104 -2.5484
 5121SOL     OW26998   0.461   3.116   5.119  1.0759  0.2901 -0.3603
 5121SOL    HW126999   0.543   3.120   5.169  0.2418  1.5111  0.9447
 5121SOL    HW227000   0.407   3.065   5.179 -0.0311 -0.2557 -1.8368
 5122SOL     OW27001   2.438   1.229   6.256  0.3068 -0.3962 -0.4800
 5122SOL    HW127002   2.481   1.189   6.181  1.9643  1.1681 -0.3791
 5122SOL    HW227003   2.368   1.279   6.215 -0.2192 -0.4102  0.4043
 5123SOL     OW27004   2.877   0.116  11.071 -0.1045 -0.0843 -0.4462
 5123SOL    HW127005   2.970   0.115  11.047 -0.7134  1.8877 -2.9336
 5123SOL    HW227006   2.868   0.207  11.099  3.3966  0.4009 -0.7982
 5124SOL     OW27007   1.964   3.766  16.881  0.1106  0.4046  0.0877
 5124SOL    HW127008   2.000   3.734  16.964 -0.4466  0.2371  0.2671
 5124SOL    HW227009   2.015   3.844  16.864 -0.8188  1.1101  0.5305
 5125SOL     OW27010   0.341   4.172   8.938 -0.6549 -0.1823  0.0443
 5125SOL    HW127011   0.408   4.175   8.869 -1.2835 -0.3928 -0.5695
 5125SOL    HW227012   0.262   4.127   8.909  0.4456 -2.9804  1.3913
 5126SOL     OW27013   2.934   4.506   6.221  0.3533  0.0612 -0.3219
 5126SOL    HW127014   2.884   4.446   6.277 -1.7002  2.1049  0.0161
 5126SOL    HW227015   2.975   4.432   6.177  0.1709  0.7387 -1.6258
 5127SOL     OW27016   2.701   2.284   6.108 -0.0873 -0.3647  0.0414
 5127SOL    HW127017   2.697   2.298   6.013  3.2818 -0.8069 -0.1714
 5127SOL    HW227018   2.695   2.188   6.110 -1.8469 -0.2243  1.3766
 5128SOL     OW27019   0.065   0.115   6.112 -0.0023 -0.0830 -0.2455
 5128SOL    HW127020   0.154   0.118   6.148 -0.2974  2.1389  0.2874
 5128SOL    HW227021   0.061   0.210   6.115 -1.0292 -0.1931  1.6887
 5129SOL     OW27022   0.375   3.658  14.740  0.3961 -0.6242  0.2889
 5129SOL    HW127023   0.408   3.745  14.718  2.4577 -1.1391  1.4260
 5129SOL    HW227024   0.416   3.629  14.822 -0.8328 -1.4070  0.6385
 5130SOL     OW27025   1.708   0.424   4.766 -0.6343 -0.9971 -0.5590
 5130SOL    HW127026   1.732   0.333   4.781  0.4701 -0.3730  1.5767
 5130SOL    HW227027   1.785   0.460   4.721 -1.8783 -0.8368 -2.5351
 5131SOL     OW27028   0.169   1.061   3.595  0.0143  0.1874 -0.0825
 5131SOL    HW127029   0.116   1.056   3.675  0.0810 -0.4876 -0.0776
 5131SOL    HW227030   0.251   1.018   3.618 -1.1253 -1.4485  1.0038
 5132SOL     OW27031   3.699   1.596  14.891  0.6172  0.2883  0.0915
 5132SOL    HW127032   3.727   1.687  14.884  0.4180  0.3569  0.1834
 5132SOL    HW227033   3.625   1.601  14.831  1.3509  1.5443 -0.7084
 5133SOL     OW27034   2.991   2.288   8.376 -0.1271  0.2276  0.4081
 5133SOL    HW127035   2.964   2.367   8.423  0.8504  1.0872 -0.5029
 5133SOL    HW227036   2.910   2.237   8.370  1.1170 -1.7402  0.2383
 5134SOL     OW27037   4.383   0.926   8.536 -0.2331  0.5304  0.3642
 5134SOL    HW127038   4.342   0.860   8.592  0.4824 -0.0100  0.2650
 5134SOL    HW227039   4.404   0.995   8.599  0.4486 -0.2963  1.0518
 5135SOL     OW27040   3.485   0.009   3.451  1.0322 -0.2391 -0.3133
 5135SOL    HW127041   3.437   0.009   3.534 -1.4405 -2.3717 -1.7314
 5135SOL    HW227042   3.490   4.653   3.433 -0.6632 -0.3222 -0.3513
 5136SOL     OW27043   3.192   1.175  17.435 -0.6896  0.9514  0.3177
 5136SOL    HW127044   3.166   1.085  17.457  4.3465 -0.0569  2.1137
 5136SOL    HW227045   3.285   1.160  17.450 -0.2993  1.6640 -1.5123
 5137SOL     OW27046   0.596   2.289   8.612 -0.0361  0.1237  0.0837
 5137SOL    HW127047   0.594   2.239   8.530 -1.3018  0.9912 -0.4212
 5137SOL    HW227048   0.639   2.368   8.579  2.6441 -1.1001  0.6669
 5138SOL     OW27049   4.291   4.198   9.544  0.5348 -0.4263  0.3986
 5138SOL    HW127050   4.223   4.261   9.569  0.6239  0.4004 -1.3998
 5138SOL    HW227051   4.321   4.213   9.454  1.5703 -0.4762  0.7257
 5139SOL     OW27052   3.120   4.620   2.475 -0.0642  0.1316  0.6329
 5139SOL    HW127053   3.081   4.687   2.532 -0.8029 -0.4127  0.7655
 5139SOL    HW227054   3.196   4.660   2.433 -0.9768  3.2859  1.9497
 5140SOL     OW27055   2.277   3.665   9.209  0.5198  0.4196 -0.0170
 5140SOL    HW127056   2.207   3.652   9.145  0.5271 -0.4280  0.1445
 5140SOL    HW227057   2.221   3.650   9.284  1.7418 -1.9091  0.4192
 5141SOL     OW27058   2.477   3.794   9.641 -0.2777 -0.1017  0.2367
 5141SOL    HW127059   2.513   3.769   9.555 -2.3569  0.8526 -0.9225
 5141SOL    HW227060   2.391   3.811   9.601 -0.4598 -2.0798 -0.2087
 5142SOL     OW27061   3.940   3.922   1.965  0.5462  0.0979  0.2411
 5142SOL    HW127062   3.988   3.979   1.904  0.7989  3.0083  3.1857
 5142SOL    HW227063   3.998   3.845   1.973 -1.3842 -1.1755  1.9586
 5143SOL     OW27064   3.861   3.313   1.978 -0.5725  0.4632  0.6783
 5143SOL    HW127065   3.787   3.356   1.935  1.5452 -0.8698 -4.2911
 5143SOL    HW227066   3.892   3.386   2.032 -0.1958  1.0013 -0.2672
 5144SOL     OW27067   4.561   1.026   6.227 -0.2147 -0.1594  0.4367
 5144SOL    HW127068   4.573   1.120   6.240 -0.7585 -0.1391  0.8277
 5144SOL    HW227069   4.652   1.000   6.234  0.0618  0.4680 -0.8240
 5145SOL     OW27070   4.657   2.574   1.569  0.1005 -0.8610 -0.3195
 5145SOL    HW127071   4.569   2.566   1.606 -0.5766  0.9668 -1.5343
 5145SOL    HW227072   4.652   2.503   1.505 -0.7756 -1.9052  0.9045
 5146SOL     OW27073   2.763   0.386   8.423 -0.3827 -0.4419  0.2103
 5146SOL    HW127074   2.721   0.461   8.465 -0.5813  0.4635 -1.5993
 5146SOL    HW227075   2.737   0.321   8.488  1.4640  0.9247  2.3620
 5147SOL     OW27076   2.539   4.282   2.695 -0.0592 -0.1526  0.2922
 5147SOL    HW127077   2.511   4.351   2.635  0.3928 -1.8336 -1.8326
 5147SOL    HW227078   2.619   4.240   2.663  0.4053 -0.1079  1.3848
 5148SOL     OW27079   2.799   4.194  10.624  0.3128  0.2814  0.1010
 5148SOL    HW127080   2.872   4.151  10.580  0.2127  1.6019 -1.3268
 5148SOL    HW227081   2.759   4.115  10.661 -1.2382 -0.1323 -2.5009
 5149SOL     OW27082   3.858   1.555   1.855  0.1477  0.1355  0.2600
 5149SOL    HW127083   3.890   1.473   1.894  0.6103 -0.6814 -1.8211
 5149SOL    HW227084   3.770   1.558   1.893 -0.0067  1.0189 -0.1733
 5150SOL     OW27085   2.090   1.781   7.405  0.4180 -0.4904 -0.2253
 5150SOL    HW127086   2.086   1.853   7.468 -0.2610 -1.5412  0.9640
 5150SOL    HW227087   2.018   1.730   7.443  0.3478 -0.7995 -0.7761
 5151SOL     OW27088   4.273   0.969   2.647 -0.7707 -0.2525  0.3242
 5151SOL    HW127089   4.198   0.933   2.600 -2.2525  1.0637  1.6856
 5151SOL    HW227090   4.226   1.046   2.678  0.4640  0.1372  1.2313
 5152SOL     OW27091   2.146   0.854   6.267  0.5143 -0.0940  0.8629
 5152SOL    HW127092   2.148   0.941   6.308 -2.1981  0.7895 -0.8582
 5152SOL    HW227093   2.147   0.803   6.348 -1.6011 -0.8216  0.4348
 5153SOL     OW27094   1.820   1.622   4.842  0.2345 -0.0874  0.2121
 5153SOL    HW127095   1.736   1.662   4.817  1.6852  1.7311 -1.7333
 5153SOL    HW227096   1.810   1.528   4.826 -1.0533  0.3839 -1.7349
 5154SOL     OW27097   0.408   3.839   5.490 -0.0763 -0.0991 -0.0420
 5154SOL    HW127098   0.420   3.779   5.564 -1.1322  0.7893  0.8541
 5154SOL    HW227099   0.457   3.917   5.518  1.6341 -1.1808 -0.0142
 5155SOL     OW27100   0.161   2.782   8.607 -0.4119 -0.0586  0.2025
 5155SOL    HW127101   0.090   2.808   8.549  0.8114 -0.4949 -1.5115
 5155SOL    HW227102   0.190   2.863   8.651 -1.6746 -0.4698  1.7781
 5156SOL     OW27103   3.006   1.164   9.475  0.1626  0.0143  0.0786
 5156SOL    HW127104   2.941   1.192   9.409  1.0808  0.6900 -0.5356
 5156SOL    HW227105   3.028   1.251   9.508  1.3932  0.4335 -1.8787
 5157SOL     OW27106   3.389   3.224   5.604 -0.5343  0.3291 -0.1007
 5157SOL    HW127107   3.301   3.230   5.566 -0.9730 -0.3529  0.8081
 5157SOL    HW227108   3.422   3.147   5.559 -3.6915 -1.1053  0.0620
 5158SOL     OW27109   3.954   0.445  12.910 -0.3987  0.1708 -0.1636
 5158SOL    HW127110   4.038   0.400  12.919 -0.9496 -0.5020  1.6012
 5158SOL    HW227111   3.915   0.401  12.834 -2.5870 -1.5766  1.9847
 5159SOL     OW27112   0.667   1.305   1.889  0.3854 -0.0724  0.0868
 5159SOL    HW127113   0.576   1.299   1.920 -0.1469  0.8192 -1.2931
 5159SOL    HW227114   0.678   1.212   1.868  0.0234 -0.3073  0.9104
 5160SOL     OW27115   4.327   1.664  17.027  0.7391  0.1115  0.4265
 5160SOL    HW127116   4.282   1.640  16.946 -1.7224 -1.3430  2.2018
 5160SOL    HW227117   4.272   1.741  17.046 -0.2109 -1.2532  3.1308
 5161SOL     OW27118   2.923   3.954   5.398  0.9133  0.0832 -0.6236
 5161SOL    HW127119   2.862   3.890   5.433  1.5296 -0.2225 -0.1160
 5161SOL    HW227120   2.958   3.905   5.324  1.4147 -1.0216  0.3410
 5162SOL     OW27121   0.243   3.888   8.685  0.1496  0.5960 -0.0576
 5162SOL    HW127122   0.221   3.847   8.602 -0.7289  1.1524 -0.0950
 5162SOL    HW227123   0.332   3.852   8.690  0.4134  0.8666 -2.7310
 5163SOL     OW27124   0.894   2.409  17.350  0.4864  0.2920  0.2775
 5163SOL    HW127125   0.870   2.318  17.363  0.7172  0.2283  0.2576
 5163SOL    HW227126   0.869   2.408  17.258 -0.9640 -2.7024  0.7067
 5164SOL     OW27127   1.148   4.730   7.519 -0.0061  0.0726  0.6366
 5164SOL    HW127128   1.138   4.701   7.609  0.4476  0.2895  0.7543
 5164SOL    HW227129   1.143   0.087   7.525  0.2853  0.2262 -1.5530
 5165SOL     OW27130   0.580   4.617   3.059 -0.3267  0.4032 -0.0406
 5165SOL    HW127131   0.537   4.680   3.001 -0.2805  0.3098 -0.1767
 5165SOL    HW227132   0.630   4.566   2.995  0.3475 -0.5026  1.2121
 5166SOL     OW27133   0.080   0.187   8.363  0.0187 -0.6200 -0.1874
 5166SOL    HW127134   4.735   0.159   8.401 -1.2091  2.6824 -0.4331
 5166SOL    HW227135   0.146   0.133   8.407  1.6327  0.3163 -1.4580
 5167SOL     OW27136   0.921   1.809   1.561  0.0786  0.1010 -0.0573
 5167SOL    HW127137   0.977   1.792   1.637 -1.1773 -1.4742  0.5303
 5167SOL    HW227138   0.934   1.900   1.537  1.8827  0.5585  2.6455
 5168SOL     OW27139   3.083   3.244  12.338  0.2226  0.2329 -0.5325
 5168SOL    HW127140   3.067   3.150  12.336  1.2161  0.0267  0.9070
 5168SOL    HW227141   3.150   3.250  12.407  0.6422  3.0186 -1.1797
 5169SOL     OW27142   3.277   1.347   1.853  0.2727 -0.0553  0.1765
 5169SOL    HW127143   3.232   1.282   1.800  0.7514 -0.2102 -0.0373
 5169SOL    HW227144   3.232   1.425   1.819  0.2876  0.8723  2.3260
 5170SOL     OW27145   0.169   3.866   8.356 -0.1865 -0.0936 -0.4644
 5170SOL    HW127146   0.255   3.826   8.343 -0.1049 -0.0441 -0.0952
 5170SOL    HW227147   0.140   3.852   8.266 -0.7629  0.7085 -0.4018
 5171SOL     OW27148   1.106   0.484   3.039 -0.3432  0.6610 -0.2172
 5171SOL    HW127149   1.021   0.463   3.078  0.2906  0.9933  1.3208
 5171SOL    HW227150   1.118   0.418   2.971  1.5815 -1.2769  2.0198
 5172SOL     OW27151   4.107   1.387  13.631  0.4209 -0.4145  0.6926
 5172SOL    HW127152   4.171   1.443  13.586 -2.9015 -0.0106 -3.4705
 5172SOL    HW227153   4.029   1.442  13.625  1.5873  1.2086  0.1271
 5173SOL     OW27154   4.135   1.236   4.509 -0.1776 -0.2114 -0.2907
 5173SOL    HW127155   4.190   1.213   4.435  1.0913  1.7378  0.0680
 5173SOL    HW227156   4.051   1.260   4.469 -0.6723 -1.8447 -0.2135
 5174SOL     OW27157   3.589   2.347  17.573  0.0671 -0.3105  0.2458
 5174SOL    HW127158   3.602   2.402  17.650  0.3268 -0.8273  0.5728
 5174SOL    HW227159   3.495   2.359  17.554 -0.0123 -0.0157  0.8247
 5175SOL     OW27160   1.466   3.795   9.965  0.1962  0.3717  0.3126
 5175SOL    HW127161   1.555   3.798   9.932  0.3246  0.3922  0.6563
 5175SOL    HW227162   1.421   3.859   9.910  2.2540  1.2598 -0.3373
 5176SOL     OW27163   4.156   1.228   2.945 -0.3460  0.4326 -0.4821
 5176SOL    HW127164   4.073   1.192   2.976  0.3387  0.8412  1.7978
 5176SOL    HW227165   4.210   1.188   3.013  0.7456 -0.2021 -1.7238
 5177SOL     OW27166   4.538   0.975   4.607 -0.2801 -0.0892 -0.1641
 5177SOL    HW127167   4.495   0.912   4.665  0.3719 -1.3089 -1.0169
 5177SOL    HW227168   4.478   0.985   4.533 -0.1984 -1.1851 -0.3777
 5178SOL     OW27169   4.181   0.542   4.770  0.3054  0.6482 -0.0848
 5178SOL    HW127170   4.187   0.490   4.850  0.0496  0.2826 -0.3025
 5178SOL    HW227171   4.116   0.496   4.716  1.0849 -1.3040  0.6447
 5179SOL     OW27172   0.136   3.465   7.833  0.7556 -0.2746  0.4224
 5179SOL    HW127173   0.119   3.371   7.834  2.4381 -0.5434  2.4093
 5179SOL    HW227174   0.181   3.472   7.917  0.8865 -0.9125  0.4086
 5180SOL     OW27175   3.364   4.479  16.764 -0.1488 -0.4665 -0.0191
 5180SOL    HW127176   3.338   4.497  16.674  0.8606 -0.1431 -0.2412
 5180SOL    HW227177   3.422   4.555  16.769 -1.1170  0.3298 -0.8864
 5181SOL     OW27178   4.572   0.210  16.684  0.3815  0.2183  0.3166
 5181SOL    HW127179   4.484   0.240  16.660  1.0232  1.8209 -0.0231
 5181SOL    HW227180   4.569   0.117  16.661 -1.7875  0.0201  1.3954
 5182SOL     OW27181   0.776   2.697   5.526 -0.1468  0.2282 -0.1887
 5182SOL    HW127182   0.848   2.744   5.486  0.1146 -0.5173 -0.5971
 5182SOL    HW227183   0.712   2.693   5.455  1.3068  0.6924 -1.5038
 5183SOL     OW27184   4.405   2.301   2.576  0.1958 -0.1560  0.4101
 5183SOL    HW127185   4.429   2.370   2.514  1.6752 -1.9513 -1.0026
 5183SOL    HW227186   4.477   2.238   2.583  1.2717  1.3484  2.5288
 5184SOL     OW27187   2.762   3.431   8.022 -0.1042 -0.6461 -0.2181
 5184SOL    HW127188   2.717   3.454   8.103 -0.4979 -0.8218 -0.3876
 5184SOL    HW227189   2.748   3.509   7.969 -0.8403 -1.0274 -0.5934
 5185SOL     OW27190   4.122   0.007   8.756 -0.7628  0.4269  0.4186
 5185SOL    HW127191   4.042   0.030   8.803 -2.3555 -1.7339 -1.2151
 5185SOL    HW227192   4.110   4.650   8.751  1.3617  0.2440 -0.7924
 5186SOL     OW27193   2.056   1.350   7.250 -0.0902 -0.5108  0.1772
 5186SOL    HW127194   2.060   1.407   7.174  3.2608  2.5675  2.6487
 5186SOL    HW227195   1.967   1.339   7.283  0.2256 -0.7718  0.9619
 5187SOL     OW27196   2.311   3.365   4.348  0.3033  0.4591 -0.7035
 5187SOL    HW127197   2.282   3.276   4.366 -0.8819  1.4682  2.5153
 5187SOL    HW227198   2.397   3.355   4.390  0.5576  0.3870 -1.2416
 5188SOL     OW27199   3.346   1.317   1.211  0.5235 -0.5242  0.0762
 5188SOL    HW127200   3.310   1.255   1.274 -2.2580  1.4578  0.4105
 5188SOL    HW227201   3.281   1.317   1.141 -0.1815  1.4902  0.7371
 5189SOL     OW27202   2.352   1.106   2.798 -0.5244 -0.5053  0.2782
 5189SOL    HW127203   2.350   1.042   2.727  0.0188 -1.4799  1.1412
 5189SOL    HW227204   2.264   1.097   2.835 -0.4879  2.4439  1.1212
 5190SOL     OW27205   4.225   3.001   3.723 -0.3634 -0.6279 -0.0863
 5190SOL    HW127206   4.177   3.010   3.805  0.7467 -1.2869  0.6294
 5190SOL    HW227207   4.310   2.971   3.753 -1.0136 -0.6651  1.7187
 5191SOL     OW27208   0.831   3.855   2.741  0.0906 -0.1407  0.3097
 5191SOL    HW127209   0.743   3.892   2.732 -0.7513 -2.3111 -0.4772
 5191SOL    HW227210   0.893   3.918   2.705  0.6976 -0.6385  0.4808
 5192SOL     OW27211   2.424   1.962   2.713  0.0150  0.9247 -0.1831
 5192SOL    HW127212   2.367   1.913   2.655 -0.0015  0.3062  0.3589
 5192SOL    HW227213   2.430   1.903   2.788  0.5689 -0.5535 -1.4094
 5193SOL     OW27214   3.184   2.133   6.192 -0.3205 -0.4395  0.2309
 5193SOL    HW127215   3.272   2.111   6.159 -0.7531 -2.8043  0.6622
 5193SOL    HW227216   3.130   2.116   6.115  2.6960  0.3026 -2.0390
 5194SOL     OW27217   1.459   3.122   8.336  0.0633  0.6541  0.7575
 5194SOL    HW127218   1.364   3.109   8.342  0.4089 -1.8237  0.8350
 5194SOL    HW227219   1.487   3.077   8.415 -1.6753  0.8200  1.4709
 5195SOL     OW27220   0.545   3.871   4.228 -0.0447 -0.1968  0.1500
 5195SOL    HW127221   0.452   3.895   4.232 -0.4691 -2.2672  2.5640
 5195SOL    HW227222   0.545   3.834   4.140  2.1362 -1.2397  0.5840
 5196SOL     OW27223   1.969   0.684   9.043 -0.1036 -0.2053  0.4394
 5196SOL    HW127224   2.005   0.768   9.015 -0.2531 -0.4762 -0.5959
 5196SOL    HW227225   1.912   0.648   8.975  0.2311  0.1956 -0.0514
 5197SOL     OW27226   4.093   0.073   5.417  1.0353  0.4015  0.2269
 5197SOL    HW127227   4.022   0.066   5.353 -0.7216  0.1460  2.2060
 5197SOL    HW227228   4.171   0.073   5.362 -0.3779  0.4774 -1.7754
 5198SOL     OW27229   0.171   1.159  16.352 -0.0114 -0.1124 -0.0389
 5198SOL    HW127230   0.079   1.137  16.367  0.7297 -1.8321  2.0436
 5198SOL    HW227231   0.172   1.166  16.257  1.9514  0.8796  0.0552
 5199SOL     OW27232   4.067   2.471   6.363 -0.0899 -0.3256 -0.6425
 5199SOL    HW127233   4.023   2.539   6.312  0.1339 -1.5150 -2.4436
 5199SOL    HW227234   4.153   2.466   6.321 -0.0356  0.2247 -0.5982
 5200SOL     OW27235   0.751   3.809   7.768  0.3225 -0.1119 -0.6506
 5200SOL    HW127236   0.671   3.842   7.809  0.1587 -0.2658 -0.8451
 5200SOL    HW227237   0.722   3.723   7.739  1.1861 -1.1688  1.5884
 5201SOL     OW27238   0.818   2.967   2.218  0.1973 -0.1461 -0.4768
 5201SOL    HW127239   0.770   3.027   2.161 -2.2919 -2.4060 -0.7502
 5201SOL    HW227240   0.835   2.892   2.161 -0.0790 -0.1772 -0.5154
 5202SOL     OW27241   2.994   3.248  15.708  0.4242  0.3186  0.2275
 5202SOL    HW127242   2.938   3.324  15.726 -0.7727 -0.3800 -0.4890
 5202SOL    HW227243   2.995   3.195  15.788 -1.9783 -1.8449 -1.1760
 5203SOL     OW27244   0.582   2.227   7.921 -0.0514 -0.5729 -0.4065
 5203SOL    HW127245   0.561   2.258   8.010 -3.2615 -0.5869 -1.1681
 5203SOL    HW227246   0.639   2.153   7.941 -1.1354 -0.6273  2.5371
 5204SOL     OW27247   0.147   2.717  12.036 -0.0423  0.0651  0.0597
 5204SOL    HW127248   0.130   2.808  12.063  0.5733 -0.0023  0.6578
 5204SOL    HW227249   0.134   2.685  12.125 -0.2645  0.1405  0.0541
 5205SOL     OW27250   2.327   3.226  16.042  0.2495 -0.0037 -0.2955
 5205SOL    HW127251   2.269   3.206  16.116  2.5999  0.0793  1.5794
 5205SOL    HW227252   2.365   3.311  16.065 -0.3035  0.1375  0.0989
 5206SOL     OW27253   4.473   1.370   7.029  0.7949 -0.0102 -0.4097
 5206SOL    HW127254   4.508   1.455   7.053  1.6273 -0.6231  0.5645
 5206SOL    HW227255   4.472   1.330   7.116  0.7733 -1.1140 -0.9078
 5207SOL     OW27256   2.987   0.851   2.671 -0.2748  0.3027  0.3483
 5207SOL    HW127257   3.033   0.902   2.737  0.5926 -0.9425  0.6990
 5207SOL    HW227258   2.971   0.918   2.604 -1.0598  0.9889  1.2332
 5208SOL     OW27259   2.875   1.100   7.542  0.4203 -0.5293  0.6474
 5208SOL    HW127260   2.898   1.123   7.632  2.9718  0.8309 -0.3469
 5208SOL    HW227261   2.781   1.085   7.556  0.1800 -2.2834 -2.8794
 5209SOL     OW27262   3.005   2.788   3.168 -0.2534 -0.1664  0.0875
 5209SOL    HW127263   2.930   2.775   3.226  0.9947 -0.2878  1.6992
 5209SOL    HW227264   3.003   2.703   3.125 -1.3932 -0.6401  1.0813
 5210SOL     OW27265   3.231   0.622   3.325  0.1491 -0.0709 -0.5561
 5210SOL    HW127266   3.269   0.642   3.239  0.1579 -0.0992 -0.5587
 5210SOL    HW227267   3.172   0.697   3.336  0.1278 -0.0333 -0.9123
 5211SOL     OW27268   4.321   4.656   2.796 -0.2286 -0.2269 -0.1124
 5211SOL    HW127269   4.394   4.594   2.805  0.6087  1.1689  2.7833
 5211SOL    HW227270   4.338   4.680   2.705 -0.5673  0.1483 -0.0740
 5212SOL     OW27271   2.748   4.233   7.874 -0.5828  0.0929 -0.6091
 5212SOL    HW127272   2.833   4.200   7.846 -1.3358 -1.1262 -1.4682
 5212SOL    HW227273   2.736   4.189   7.959  0.0504 -0.6889 -0.9198
 5213SOL     OW27274   4.368   2.451   6.722 -0.1709 -0.4124 -0.2183
 5213SOL    HW127275   4.396   2.537   6.753  1.8907 -0.6199 -1.4676
 5213SOL    HW227276   4.444   2.429   6.667 -0.2963 -1.9297  0.2042
 5214SOL     OW27277   2.765   0.084  12.044 -0.6327  0.4562 -0.3757
 5214SOL    HW127278   2.713   0.004  12.053 -0.0985  0.0201 -1.1401
 5214SOL    HW227279   2.814   0.065  11.963 -1.1603 -0.9974 -0.3623
 5215SOL     OW27280   4.044   4.424  13.013 -0.3967  0.3769 -0.2849
 5215SOL    HW127281   4.075   4.355  13.072  2.7638  0.2221 -2.1684
 5215SOL    HW227282   4.069   4.494  13.074  0.1618  0.1337 -0.2349
 5216SOL     OW27283   0.040   0.208   6.880 -0.6031 -0.4399 -0.0753
 5216SOL    HW127284   0.128   0.215   6.843 -0.4107 -2.5424 -0.0362
 5216SOL    HW227285   4.730   0.281   6.841  0.3651  1.1270  1.6515
 5217SOL     OW27286   1.784   1.238   8.399 -0.9009 -0.0144  0.4474
 5217SOL    HW127287   1.813   1.160   8.445  1.3284  1.5455  1.6297
 5217SOL    HW227288   1.782   1.198   8.312 -2.0774  0.0414  0.4429
 5218SOL     OW27289   3.733   0.498   7.973 -0.1712  0.0326  0.0717
 5218SOL    HW127290   3.791   0.504   7.897 -0.2977 -0.3633 -0.0561
 5218SOL    HW227291   3.649   0.470   7.936  0.1402  2.6921 -2.6632
 5219SOL     OW27292   3.203   1.155   6.133 -0.1995  0.0988  0.3431
 5219SOL    HW127293   3.133   1.220   6.139  0.2773  0.4561  1.9156
 5219SOL    HW227294   3.226   1.173   6.041 -3.4840  0.4993 -0.3836
 5220SOL     OW27295   1.153   2.763   0.486 -1.1100  0.2174  0.2981
 5220SOL    HW127296   1.179   2.854   0.500  0.0112  0.3297 -2.3767
 5220SOL    HW227297   1.108   2.780   0.403  0.8215 -0.6008 -0.9256
 5221SOL     OW27298   3.419   0.845  11.101  0.1622  0.3481 -0.1368
 5221SOL    HW127299   3.451   0.842  11.010 -0.1236  1.7460 -0.2880
 5221SOL    HW227300   3.413   0.940  11.104  1.8212  0.4807 -0.8904
 5222SOL     OW27301   4.350   0.908   8.938 -0.6132 -0.3641 -0.3164
 5222SOL    HW127302   4.427   0.965   8.933  0.3113 -1.1594  4.8663
 5222SOL    HW227303   4.363   0.880   9.029  2.2846 -0.5062 -0.7713
 5223SOL     OW27304   1.222   1.252   3.679  0.5940 -0.5409 -0.0878
 5223SOL    HW127305   1.295   1.212   3.726  0.1901 -2.6978 -1.2666
 5223SOL    HW227306   1.192   1.325   3.733 -1.1401  0.3330 -2.2085
 5224SOL     OW27307   3.910   3.341   2.405 -0.5586  0.0692  0.4289
 5224SOL    HW127308   3.988   3.306   2.449 -1.0262 -3.0696 -1.2351
 5224SOL    HW227309   3.856   3.262   2.398 -1.2373  0.8412 -2.7394
 5225SOL     OW27310   4.609   3.287   1.604 -0.2180 -0.9139 -0.3787
 5225SOL    HW127311   4.646   3.335   1.679  0.0431  0.1119 -1.1688
 5225SOL    HW227312   4.682   3.312   1.547  0.0859 -0.5026  0.1889
 5226SOL     OW27313   0.959   0.652   7.632 -0.4907  0.1521 -0.7834
 5226SOL    HW127314   1.034   0.623   7.684 -0.7803  2.7663  1.1237
 5226SOL    HW227315   0.936   0.569   7.590  0.4974  0.5326 -2.0709
 5227SOL     OW27316   0.478   2.296   8.164  0.1624 -0.3706  0.1904
 5227SOL    HW127317   0.527   2.303   8.245  0.4509 -3.2083  0.2763
 5227SOL    HW227318   0.388   2.324   8.182  0.0424 -1.2416  0.9795
 5228SOL     OW27319   0.889   3.325   6.716  0.0588  0.2492 -0.4549
 5228SOL    HW127320   0.875   3.327   6.622  1.2252 -3.4649 -0.7031
 5228SOL    HW227321   0.903   3.417   6.739 -5.5709  0.4857  2.0950
 5229SOL     OW27322   2.204   0.556   5.641  0.0240 -0.7322 -0.2486
 5229SOL    HW127323   2.221   0.602   5.723 -0.4058 -1.6172  0.3311
 5229SOL    HW227324   2.295   0.537   5.617 -0.4538 -2.4874 -0.6675
 5230SOL     OW27325   3.165   2.972  12.303 -0.2070 -0.4110  0.1651
 5230SOL    HW127326   3.118   2.959  12.220 -2.2566 -2.6784  1.6738
 5230SOL    HW227327   3.257   2.976  12.276  0.2853 -0.8379  1.7749
 5231SOL     OW27328   1.427   2.272   1.531  0.3447  0.5337 -0.3779
 5231SOL    HW127329   1.411   2.365   1.521  1.7873  0.8636  0.4178
 5231SOL    HW227330   1.389   2.265   1.619 -3.0666 -0.7321 -1.9784
 5232SOL     OW27331   2.021   1.579   4.516 -0.2362 -0.4365 -0.4463
 5232SOL    HW127332   2.096   1.546   4.467 -0.1223 -2.9686  1.4519
 5232SOL    HW227333   1.990   1.493   4.543  1.8017 -0.5169  1.5751
 5233SOL     OW27334   4.236   2.518  15.438 -0.1174 -0.7016  0.1970
 5233SOL    HW127335   4.178   2.553  15.507  0.2515 -0.0165  0.1651
 5233SOL    HW227336   4.210   2.426  15.438  0.7756 -0.9512 -1.8627
 5234SOL     OW27337   4.244   2.527   1.962  0.4812  0.5196  0.2095
 5234SOL    HW127338   4.196   2.518   1.880  1.2835  0.7378 -0.2900
 5234SOL    HW227339   4.219   2.618   1.983 -2.6859 -0.4157  0.5049
 5235SOL     OW27340   1.859   1.912   5.425  0.4332  0.0280 -0.2059
 5235SOL    HW127341   1.887   2.003   5.427 -1.4008  0.5849  0.3467
 5235SOL    HW227342   1.873   1.875   5.338 -0.9670 -0.1254 -0.3772
 5236SOL     OW27343   0.624   0.495   7.877 -0.0531 -0.4566  0.0425
 5236SOL    HW127344   0.610   0.589   7.871  0.5379 -0.3893 -0.1862
 5236SOL    HW227345   0.690   0.485   7.946  0.7706 -1.7583 -0.9329
 5237SOL     OW27346   3.882   0.023   8.909  0.1847  0.4103 -0.1047
 5237SOL    HW127347   3.826   4.702   8.959  0.5992  1.6154  1.7425
 5237SOL    HW227348   3.821   0.094   8.887  0.3010  0.8402  1.0023
 5238SOL     OW27349   2.088   3.930   5.812  0.3162 -0.0091  0.2181
 5238SOL    HW127350   2.092   3.835   5.802  1.0447  0.1988 -1.5159
 5238SOL    HW227351   2.176   3.948   5.843  1.4504 -2.4925 -1.5691
 5239SOL     OW27352   1.069   4.326   5.413 -0.3028 -0.2360 -0.5147
 5239SOL    HW127353   0.981   4.289   5.416 -0.0981 -0.7718 -1.0493
 5239SOL    HW227354   1.050   4.411   5.452  1.0207 -0.1620 -0.0241
 5240SOL     OW27355   1.028   2.544   8.337 -0.0789 -0.1703  0.4951
 5240SOL    HW127356   0.968   2.495   8.393 -1.8233  2.2120  0.6964
 5240SOL    HW227357   1.033   2.485   8.262 -1.4613  0.6896 -0.2819
 5241SOL     OW27358   1.788   3.348   5.839 -0.1699 -0.2041  0.2930
 5241SOL    HW127359   1.795   3.259   5.875 -2.7553 -0.7483 -0.5125
 5241SOL    HW227360   1.870   3.382   5.875  0.2212  1.7429 -2.4906
 5242SOL     OW27361   3.423   0.538   0.041  0.4832  0.7694 -0.1311
 5242SOL    HW127362   3.343   0.513   0.087  0.1236 -0.5459 -1.4587
 5242SOL    HW227363   3.477   0.537   0.120 -0.3502 -0.6020  0.4150
 5243SOL     OW27364   1.981   3.415  11.660 -0.6027 -0.6050  0.0014
 5243SOL    HW127365   1.966   3.506  11.634  0.7788  0.3287  2.4565
 5243SOL    HW227366   1.993   3.376  11.574 -1.3237  0.2411 -0.4890
 5244SOL     OW27367   3.185   4.715   4.687  0.3868  0.1861 -0.6313
 5244SOL    HW127368   3.230   4.651   4.633 -2.1880 -0.9488 -1.4083
 5244SOL    HW227369   3.096   4.703   4.653  0.2690  0.6504 -0.4906
 5245SOL     OW27370   1.440   3.730   6.341  0.1880 -0.1334 -0.3137
 5245SOL    HW127371   1.439   3.807   6.285  1.8907  0.1514  0.0564
 5245SOL    HW227372   1.445   3.759   6.432  0.4063 -1.3106  0.0544
 5246SOL     OW27373   4.706   1.066   6.671  0.0621  0.1447  0.7100
 5246SOL    HW127374   4.626   1.101   6.633 -0.8622 -2.0630  0.6596
 5246SOL    HW227375   4.718   1.119   6.751  1.8940 -0.2937  0.7291
 5247SOL     OW27376   1.196   2.546   2.212  0.3817  0.7032 -0.1539
 5247SOL    HW127377   1.155   2.626   2.243 -0.8290 -0.1072  0.3047
 5247SOL    HW227378   1.159   2.550   2.124 -1.7668  2.6646  0.8743
 5248SOL     OW27379   2.188   3.110  11.152  0.6299  0.3912 -0.0396
 5248SOL    HW127380   2.258   3.073  11.098  0.1717 -1.1431  0.4176
 5248SOL    HW227381   2.208   3.203  11.140 -0.1094  0.4768 -0.6319
 5249SOL     OW27382   0.987   2.501   8.739 -0.1070 -0.2422 -0.1433
 5249SOL    HW127383   0.941   2.585   8.736 -0.9603 -0.6088  2.7708
 5249SOL    HW227384   1.028   2.514   8.825  0.9519  2.1930 -1.0163
 5250SOL     OW27385   3.388   4.398   6.139 -0.7721 -1.2696  0.0969
 5250SOL    HW127386   3.475   4.415   6.102 -1.2747 -0.3752 -0.6460
 5250SOL    HW227387   3.334   4.379   6.063 -0.1393  0.0786 -0.6875
 5251SOL     OW27388   1.807   4.089  11.860 -0.2616 -0.0811  0.5374
 5251SOL    HW127389   1.844   4.083  11.772  1.0264  1.0806  0.9974
 5251SOL    HW227390   1.723   4.133  11.847 -1.1679 -1.7423  0.6769
 5252SOL     OW27391   4.361   3.909  10.782  0.2342 -0.2177 -0.2149
 5252SOL    HW127392   4.311   3.876  10.707 -1.7088 -0.9365  1.3833
 5252SOL    HW227393   4.449   3.871  10.772 -0.9253 -3.2293  0.8937
 5253SOL     OW27394   3.336   0.675   1.736 -0.5351 -0.0796 -0.1949
 5253SOL    HW127395   3.321   0.752   1.681 -0.8186  0.5547  0.7648
 5253SOL    HW227396   3.354   0.609   1.669  1.8092 -0.0445  0.4114
 5254SOL     OW27397   2.037   0.407   7.622 -0.1644  0.0744 -0.6257
 5254SOL    HW127398   2.122   0.428   7.659 -0.6588  2.0455 -0.5988
 5254SOL    HW227399   2.066   0.361   7.543  0.5827 -0.9420  0.2515
 5255SOL     OW27400   2.360   4.472  12.896 -0.4561  0.9199 -0.3395
 5255SOL    HW127401   2.272   4.448  12.868  0.4150 -0.5190 -1.8021
 5255SOL    HW227402   2.412   4.442  12.822 -0.4955 -0.3311  0.1330
 5256SOL     OW27403   2.527   3.989   7.154 -0.0877 -0.3254  0.3480
 5256SOL    HW127404   2.528   4.083   7.172 -0.2864 -0.4104  0.7943
 5256SOL    HW227405   2.520   3.989   7.058 -1.2171 -0.0598  0.4277
 5257SOL     OW27406   2.538   4.524   5.463 -0.2255  0.4098 -0.6137
 5257SOL    HW127407   2.593   4.600   5.482  0.9232 -0.4332 -0.5313
 5257SOL    HW227408   2.504   4.561   5.381 -2.9957  2.8299  1.6271
 5258SOL     OW27409   4.100   3.895   6.586 -0.0803 -0.5570  0.5438
 5258SOL    HW127410   4.125   3.912   6.677  1.7460  1.6929 -0.3780
 5258SOL    HW227411   4.181   3.913   6.538  0.0340 -0.3073  0.8279
 5259SOL     OW27412   0.669   3.898   0.294  0.0290 -0.2945  0.0506
 5259SOL    HW127413   0.702   3.890   0.384  1.1202 -0.7229 -0.3908
 5259SOL    HW227414   0.595   3.958   0.304 -0.5814 -0.7806 -1.4784
 5260SOL     OW27415   0.725   0.452  15.498  0.2899 -0.5718 -0.1385
 5260SOL    HW127416   0.789   0.478  15.564  2.3038 -1.9246 -1.5508
 5260SOL    HW227417   0.680   0.533  15.475  0.8538  0.0642  1.0003
 5261SOL     OW27418   2.657   2.135   6.394  0.3272  0.2722  0.0672
 5261SOL    HW127419   2.728   2.165   6.450 -0.3566 -0.7946  1.5025
 5261SOL    HW227420   2.707   2.108   6.316  0.5955 -0.5361  0.5111
 5262SOL     OW27421   3.923   0.514  11.088  0.0457 -0.2026  0.9683
 5262SOL    HW127422   3.995   0.477  11.140  0.9895 -1.4189 -1.1674
 5262SOL    HW227423   3.934   0.467  11.005 -2.5858 -1.6121  1.4068
 5263SOL     OW27424   1.639   3.764   2.064 -0.2533 -0.5762  0.0406
 5263SOL    HW127425   1.620   3.688   2.119 -1.6055  0.0270  0.4190
 5263SOL    HW227426   1.693   3.724   1.996 -0.9987  1.5531 -1.8008
 5264SOL     OW27427   2.802   3.903   9.347  0.4839 -0.6846  0.0371
 5264SOL    HW127428   2.879   3.922   9.294  0.4307 -0.1585  0.1398
 5264SOL    HW227429   2.792   3.992   9.383  0.1695 -1.3616  1.6302
 5265SOL     OW27430   0.316   0.204   6.788  0.1107  0.2189  0.1982
 5265SOL    HW127431   0.405   0.177   6.813  0.3671  0.3361 -0.5818
 5265SOL    HW227432   0.292   0.132   6.730  1.3964 -0.1828  0.1492
 5266SOL     OW27433   1.620   2.636   4.931 -0.0439  0.2705  0.4599
 5266SOL    HW127434   1.526   2.617   4.925  0.6150 -1.8833 -2.7627
 5266SOL    HW227435   1.628   2.724   4.967 -2.2552  0.1695  1.2418
 5267SOL     OW27436   2.167   1.836   8.235 -0.1293 -0.2841  0.0168
 5267SOL    HW127437   2.149   1.884   8.316 -2.6429  0.1113 -0.7521
 5267SOL    HW227438   2.102   1.879   8.179 -1.9472 -0.9709  1.5993
 5268SOL     OW27439   3.764   1.813   2.474 -0.1150  0.5010  0.3823
 5268SOL    HW127440   3.810   1.874   2.532 -0.2789  1.6540 -0.6949
 5268SOL    HW227441   3.708   1.874   2.426 -1.7097 -1.6212 -0.4389
 5269SOL     OW27442   3.569   2.082   6.225  0.2612  0.2089  0.4148
 5269SOL    HW127443   3.560   2.163   6.276  0.9498 -0.3913  1.4886
 5269SOL    HW227444   3.607   2.020   6.288 -0.9047 -0.8656  0.0626
 5270SOL     OW27445   3.937   0.572   7.394 -0.6414  0.1341 -0.1619
 5270SOL    HW127446   3.913   0.645   7.451  0.3928 -0.1355  0.6118
 5270SOL    HW227447   3.856   0.571   7.344  0.6448  1.5424 -2.3080
 5271SOL     OW27448   3.086   2.163   5.399  0.5060  0.0204 -0.8584
 5271SOL    HW127449   3.137   2.168   5.318  1.8474 -0.1296 -0.0220
 5271SOL    HW227450   3.054   2.253   5.409 -0.3968 -0.2780 -1.0871
 5272SOL     OW27451   1.317   3.952   9.067 -0.1883 -0.1118 -0.8774
 5272SOL    HW127452   1.228   3.967   9.098 -0.0702 -0.3915 -0.4049
 5272SOL    HW227453   1.300   3.875   9.013 -1.3848 -2.8274  3.4432
 5273SOL     OW27454   0.336   1.318   7.025 -0.2430 -0.5097  0.5798
 5273SOL    HW127455   0.427   1.307   6.996  0.0180  1.5038  0.5815
 5273SOL    HW227456   0.343   1.290   7.117 -1.8568 -0.4634  0.7110
 5274SOL     OW27457   0.550   1.534   1.386  0.0207  0.2793 -0.0650
 5274SOL    HW127458   0.508   1.619   1.369  1.1308  0.4209 -2.1366
 5274SOL    HW227459   0.638   1.552   1.352  0.5494 -0.7662  0.7936
 5275SOL     OW27460   1.219   2.409   1.202  0.1592  0.7659  0.6134
 5275SOL    HW127461   1.184   2.378   1.285  0.5046  0.5007  0.6586
 5275SOL    HW227462   1.299   2.359   1.210 -0.5513  0.0480  3.2164
 5276SOL     OW27463   2.274   3.409   7.659  0.1103 -0.1052 -0.3773
 5276SOL    HW127464   2.365   3.425   7.633  0.9145 -2.0309  1.2074
 5276SOL    HW227465   2.242   3.381   7.574 -0.1028 -0.7385 -0.0876
 5277SOL     OW27466   2.616   3.756   3.100  0.1852  0.0846 -0.1379
 5277SOL    HW127467   2.580   3.718   3.019  1.8088  0.8751 -1.2205
 5277SOL    HW227468   2.598   3.850   3.094  1.0161  0.2697  0.3523
 5278SOL     OW27469   1.664   3.685   3.952 -0.2516  0.1204  0.1703
 5278SOL    HW127470   1.641   3.593   3.943 -0.6224  0.0048  2.5545
 5278SOL    HW227471   1.667   3.707   4.045 -4.7021 -2.3158  0.8789
 5279SOL     OW27472   4.469   0.714  15.796 -0.4513  0.0199  0.5114
 5279SOL    HW127473   4.470   0.746  15.706 -1.2691 -0.6891  0.2367
 5279SOL    HW227474   4.540   0.649  15.790  1.6420  2.3531  0.3019
 5280SOL     OW27475   4.489   4.239   5.303 -0.0254  0.1132 -0.5446
 5280SOL    HW127476   4.413   4.181   5.300  0.7897 -1.0814  1.2370
 5280SOL    HW227477   4.511   4.242   5.210  1.0237 -1.5908 -0.3576
 5281SOL     OW27478   4.437   2.429   7.864 -0.3587  0.2129  0.1419
 5281SOL    HW127479   4.412   2.518   7.838  1.2941  1.1424  1.8000
 5281SOL    HW227480   4.522   2.419   7.822 -0.7209 -1.7760 -0.0983
 5282SOL     OW27481   0.676   3.137   6.062 -0.0366 -0.2339 -0.2196
 5282SOL    HW127482   0.656   3.066   6.000 -1.2174 -1.9057  2.0757
 5282SOL    HW227483   0.587   3.171   6.070  0.3987  1.0284 -0.7359
 5283SOL     OW27484   0.429   4.210   1.585 -0.1071  0.2150  0.2705
 5283SOL    HW127485   0.368   4.140   1.559 -0.6067  0.2825  1.2496
 5283SOL    HW227486   0.508   4.198   1.533 -0.6722 -4.9259  0.5498
 5284SOL     OW27487   1.382   0.909   4.474  0.1510  0.2870  0.2693
 5284SOL    HW127488   1.414   0.827   4.511  1.2926  1.1255  1.1123
 5284SOL    HW227489   1.429   0.904   4.391  2.0911 -1.7334  1.5088
 5285SOL     OW27490   3.643   4.480   0.774  0.4147 -0.2959  0.6269
 5285SOL    HW127491   3.723   4.450   0.730  1.1048 -0.2556  1.8487
 5285SOL    HW227492   3.629   4.427   0.852 -1.5265  1.6056  1.5476
 5286SOL     OW27493   3.128   3.504   2.378  0.4227 -0.6197  0.3028
 5286SOL    HW127494   3.205   3.560   2.365  1.0223 -1.4529  0.2769
 5286SOL    HW227495   3.162   3.444   2.444  0.4606 -1.9842 -0.9482
 5287SOL     OW27496   3.528   0.635   0.922  0.2260 -0.0941 -0.3152
 5287SOL    HW127497   3.537   0.700   0.852  1.0713  1.1921  0.9717
 5287SOL    HW227498   3.538   0.562   0.861  0.1956 -0.5021  0.1712
 5288SOL     OW27499   3.584   1.564   7.142 -0.3034 -0.3887  0.3799
 5288SOL    HW127500   3.498   1.523   7.129  0.1475 -1.5481  1.0629
 5288SOL    HW227501   3.597   1.535   7.232 -2.4723 -1.1437  0.4582
 5289SOL     OW27502   0.313   2.185   4.774  0.2288  0.1778 -0.1814
 5289SOL    HW127503   0.358   2.171   4.857 -0.3820 -0.6764  0.0044
 5289SOL    HW227504   0.328   2.102   4.730 -0.9986 -0.2480  0.2208
 5290SOL     OW27505   1.518   1.176   2.656  0.0799  0.3325 -0.3187
 5290SOL    HW127506   1.611   1.183   2.638  0.1103  1.4561  0.3271
 5290SOL    HW227507   1.507   1.257   2.704 -1.2651 -0.6116  0.9757
 5291SOL     OW27508   2.925   2.077  17.404 -0.5642  0.1916 -0.0430
 5291SOL    HW127509   2.865   2.025  17.457 -0.5831  0.0509 -0.2016
 5291SOL    HW227510   2.892   2.043  17.321  1.0201  0.2511 -0.7079
 5292SOL     OW27511   2.309   3.832   2.223  0.4287 -0.2889 -0.6582
 5292SOL    HW127512   2.272   3.766   2.282 -2.1711 -0.0307 -2.0217
 5292SOL    HW227513   2.359   3.775   2.165  0.0521 -1.4475  0.1491
 5293SOL     OW27514   3.253   0.464  16.751 -0.0063 -0.4018 -0.3782
 5293SOL    HW127515   3.186   0.526  16.780 -0.0196 -0.4545 -0.2944
 5293SOL    HW227516   3.334   0.498  16.788 -1.7054  0.3973  2.6158
 5294SOL     OW27517   3.355   1.913   5.326 -0.0268  0.7070 -0.3670
 5294SOL    HW127518   3.354   1.897   5.421 -0.6153  0.0031 -0.4889
 5294SOL    HW227519   3.380   2.005   5.326 -0.9563  0.9671  1.4100
 5295SOL     OW27520   4.224   0.090   5.663  0.3917  0.3165  0.0786
 5295SOL    HW127521   4.187   0.085   5.575 -0.2958 -3.3562  0.5526
 5295SOL    HW227522   4.300   0.031   5.657  0.6389  0.7242 -0.8406
 5296SOL     OW27523   2.539   0.681   6.819 -0.3470  0.0121  0.3162
 5296SOL    HW127524   2.520   0.588   6.810  3.2909 -0.7384  0.3873
 5296SOL    HW227525   2.556   0.700   6.726 -2.7596  1.8103  0.2338
 5297SOL     OW27526   4.345   1.110   1.796 -0.0122 -0.7076  0.6797
 5297SOL    HW127527   4.256   1.120   1.762  0.0614  0.6976  0.9086
 5297SOL    HW227528   4.341   1.186   1.855 -2.6640 -0.5504  0.3320
 5298SOL     OW27529   3.489   3.191   2.596  0.2531  0.7638 -0.0406
 5298SOL    HW127530   3.461   3.102   2.618 -0.0590  1.2953  1.7230
 5298SOL    HW227531   3.560   3.206   2.659 -0.0973  1.1567  0.2626
 5299SOL     OW27532   4.340   2.539   1.193  0.3770  0.2246 -0.2613
 5299SOL    HW127533   4.429   2.569   1.214  0.8534  0.2261 -2.2348
 5299SOL    HW227534   4.364   2.446   1.199  3.0295  0.9082 -0.2384
 5300SOL     OW27535   4.385   3.629   4.804 -0.1397  0.3765 -0.2215
 5300SOL    HW127536   4.463   3.593   4.762 -0.8916  0.2276 -1.4955
 5300SOL    HW227537   4.318   3.603   4.741  0.2659 -1.5142  0.1436
 5301SOL     OW27538   0.834   1.441   9.824 -0.2836 -0.3115  0.1290
 5301SOL    HW127539   0.864   1.363   9.776  0.1251  0.1538 -0.3701
 5301SOL    HW227540   0.890   1.513   9.795  0.9964 -1.7180 -0.9756
 5302SOL     OW27541   3.148   2.538  10.450 -0.3859 -0.0134  0.1501
 5302SOL    HW127542   3.052   2.538  10.451 -0.3548  2.5345  2.0722
 5302SOL    HW227543   3.165   2.632  10.444 -0.1502  0.0528  1.9425
 5303SOL     OW27544   2.534   0.040   4.842  0.7157 -0.4450 -0.4744
 5303SOL    HW127545   2.512   4.698   4.889  0.7798 -0.0583  0.2096
 5303SOL    HW227546   2.468   0.096   4.882  0.2516 -3.3214  2.7466
 5304SOL     OW27547   0.659   2.766   1.024  0.1876 -0.0949 -0.4179
 5304SOL    HW127548   0.673   2.684   0.977  0.1040 -0.7400  0.7053
 5304SOL    HW227549   0.748   2.797   1.041  0.8576 -0.6462 -2.7994
 5305SOL     OW27550   4.702   0.661  16.649  0.4820 -0.2691  0.1308
 5305SOL    HW127551   0.027   0.682  16.581  0.9495  1.9944  1.2771
 5305SOL    HW227552   4.721   0.567  16.648  1.4006 -0.0778 -0.2327
 5306SOL     OW27553   1.068   2.554   2.868  0.0422  0.7003  0.4163
 5306SOL    HW127554   1.095   2.571   2.778 -0.3454  0.1547  0.1981
 5306SOL    HW227555   0.993   2.612   2.877 -0.1318  0.4948  0.2962
 5307SOL     OW27556   2.095   2.290   7.955  0.0738 -0.1908  0.2591
 5307SOL    HW127557   2.123   2.328   7.872 -1.0054 -0.6489 -0.3022
 5307SOL    HW227558   2.048   2.364   7.995  1.2309  1.4366 -1.4106
 5308SOL     OW27559   0.936   2.490   7.236  0.1284 -0.0436  0.3806
 5308SOL    HW127560   0.860   2.490   7.296  0.1776  0.4362  0.4462
 5308SOL    HW227561   0.899   2.503   7.149 -0.0097  1.1208  0.5988
 5309SOL     OW27562   1.103   0.202   5.953  0.0440 -0.3598 -0.3918
 5309SOL    HW127563   1.128   0.270   5.891  0.7338 -0.7410 -0.5305
 5309SOL    HW227564   1.173   0.207   6.018 -0.3833 -1.1822  0.1416
 5310SOL     OW27565   2.837   1.243  11.335  0.1652  0.1684  0.3454
 5310SOL    HW127566   2.769   1.194  11.381 -1.3035  0.3959 -1.5616
 5310SOL    HW227567   2.811   1.231  11.243  2.0766  2.9841 -0.5900
 5311SOL     OW27568   3.761   3.824  14.438  0.3142  0.2988 -0.3657
 5311SOL    HW127569   3.666   3.825  14.450  0.4794 -1.6526  1.1006
 5311SOL    HW227570   3.775   3.870  14.355 -0.7246 -0.2635 -0.8621
 5312SOL     OW27571   3.800   0.168  15.195 -0.0021  0.1257 -0.7454
 5312SOL    HW127572   3.853   0.179  15.274 -0.5920 -1.0370 -0.1860
 5312SOL    HW227573   3.714   0.164  15.236  0.0532  2.9820 -0.3694
 5313SOL     OW27574   2.256   1.854   6.536 -0.6978  0.0929  0.3411
 5313SOL    HW127575   2.222   1.942   6.521 -1.0550 -0.1147 -0.0450
 5313SOL    HW227576   2.334   1.867   6.482 -1.6494 -1.7829 -1.4632
 5314SOL     OW27577   3.237   0.793  10.225  0.1754 -0.6212 -0.6787
 5314SOL    HW127578   3.309   0.820  10.169  0.3262 -0.5111 -0.4328
 5314SOL    HW227579   3.165   0.781  10.163 -0.8087  1.7063  0.0029
 5315SOL     OW27580   0.772   0.122  12.144  0.3752  0.3168 -0.2085
 5315SOL    HW127581   0.692   0.129  12.091 -0.2833 -0.3713  0.7078
 5315SOL    HW227582   0.803   0.038  12.110  1.8525  0.6507  0.3379
 5316SOL     OW27583   2.331   0.719  15.609 -0.3024  0.5048  0.0747
 5316SOL    HW127584   2.371   0.656  15.669 -0.1644 -1.2707 -1.8791
 5316SOL    HW227585   2.238   0.699  15.614 -0.7730  2.6048 -0.1298
 5317SOL     OW27586   1.374   1.967   6.676  0.0126 -0.0719  0.1070
 5317SOL    HW127587   1.306   2.029   6.647  0.0096 -0.8540 -1.5794
 5317SOL    HW227588   1.449   2.021   6.652  0.0685  0.3597  1.2974
 5318SOL     OW27589   1.136   4.205   8.636 -0.6154  0.3301 -0.1124
 5318SOL    HW127590   1.125   4.263   8.561 -0.9409  0.6947  0.2180
 5318SOL    HW227591   1.051   4.162   8.625 -0.2893 -0.5448  0.7750
 5319SOL     OW27592   2.099   4.213   7.623 -0.5180 -0.7158  0.3194
 5319SOL    HW127593   2.142   4.207   7.708  1.8339  1.8290 -0.7121
 5319SOL    HW227594   2.013   4.181   7.652 -0.9650  0.5727  0.4078
 5320SOL     OW27595   0.453   2.853   0.286 -0.6632  0.5930 -0.9042
 5320SOL    HW127596   0.381   2.904   0.250 -1.6786 -0.5735 -0.5327
 5320SOL    HW227597   0.407   2.793   0.345  0.0961  0.9379  0.0481
 5321SOL     OW27598   3.321   3.851   7.625 -0.4663  0.4845 -0.3664
 5321SOL    HW127599   3.353   3.795   7.554  0.0296 -0.7906  0.8838
 5321SOL    HW227600   3.394   3.839   7.685 -0.5836  0.7880 -0.1646
 5322SOL     OW27601   3.510   3.690   4.674 -0.0651 -0.0996  0.9730
 5322SOL    HW127602   3.429   3.736   4.652  0.9801  0.8144 -1.0032
 5322SOL    HW227603   3.476   3.607   4.706  2.5003 -1.1968  0.8660
 5323SOL     OW27604   4.710   0.867   4.916  0.1757 -0.3477  0.3082
 5323SOL    HW127605   0.021   0.848   4.837 -0.5875 -0.3868 -0.1608
 5323SOL    HW227606   4.723   0.961   4.907 -1.0213 -0.1415  0.6617
 5324SOL     OW27607   0.477   2.973  16.775 -0.3607 -0.1130  0.0616
 5324SOL    HW127608   0.400   3.006  16.728 -2.1847 -1.2728  2.2467
 5324SOL    HW227609   0.443   2.912  16.841 -0.1634  0.3981  0.6321
 5325SOL     OW27610   3.845   3.572  10.179  0.0225 -0.1998 -0.1543
 5325SOL    HW127611   3.786   3.545  10.250 -1.1175  3.7611  0.4157
 5325SOL    HW227612   3.802   3.652  10.150 -0.3653 -0.3587 -0.0111
 5326SOL     OW27613   4.610   0.174   8.571  0.1034 -0.4512 -0.0635
 5326SOL    HW127614   4.543   0.108   8.555  0.9562 -1.0849 -0.9939
 5326SOL    HW227615   4.685   0.122   8.599  1.1937  1.0549 -0.1863
 5327SOL     OW27616   0.840   0.880  15.608 -0.5919  0.5149  0.3025
 5327SOL    HW127617   0.827   0.823  15.683  1.6125 -1.3431 -0.7163
 5327SOL    HW227618   0.936   0.882  15.612 -0.5335  1.3059 -1.4282
 5328SOL     OW27619   0.392   1.522   8.979 -0.5601  0.0653  0.0735
 5328SOL    HW127620   0.452   1.448   8.987  0.2845  0.4872 -2.5670
 5328SOL    HW227621   0.436   1.557   8.902  0.9609 -0.7137  0.5834
 5329SOL     OW27622   4.676   4.282   5.691 -0.4350  0.8002  0.0661
 5329SOL    HW127623   4.621   4.324   5.757 -0.0881 -0.5263  1.1940
 5329SOL    HW227624   4.717   4.360   5.654 -0.1689  0.4791 -0.3111
 5330SOL     OW27625   0.996   1.262   4.704 -0.3123 -0.1633  0.0565
 5330SOL    HW127626   0.970   1.350   4.731 -0.6527 -0.0211 -0.7363
 5330SOL    HW227627   1.091   1.268   4.706 -0.2137 -1.1306 -1.4486
 5331SOL     OW27628   2.919   2.887   7.320 -0.5232  0.1939  0.0231
 5331SOL    HW127629   2.971   2.816   7.357  1.4119  0.6099 -1.8555
 5331SOL    HW227630   2.827   2.863   7.319 -0.0167 -1.6869 -0.3639
 5332SOL     OW27631   2.858   1.992   7.561  1.0391 -0.0105 -0.0951
 5332SOL    HW127632   2.834   2.085   7.569 -1.2275 -0.6061 -0.1339
 5332SOL    HW227633   2.770   1.958   7.545  0.8674  0.4083 -0.0461
 5333SOL     OW27634   3.523   2.130  16.111  0.1249 -0.5745 -0.1486
 5333SOL    HW127635   3.558   2.058  16.059  1.6652  0.5124 -0.5782
 5333SOL    HW227636   3.473   2.083  16.178 -2.5569  0.4984 -1.3907
 5334SOL     OW27637   3.561   1.726   3.486 -0.0204 -0.0765  0.3806
 5334SOL    HW127638   3.639   1.671   3.497 -0.5147 -0.3937  2.4321
 5334SOL    HW227639   3.598   1.809   3.516 -0.4810 -0.0628  0.9168
 5335SOL     OW27640   1.996   0.975   7.670 -0.1903  0.1955 -0.1938
 5335SOL    HW127641   1.976   0.885   7.644 -0.8988 -0.5410  2.9500
 5335SOL    HW227642   2.048   1.006   7.596 -1.2675 -1.5543 -1.6714
 5336SOL     OW27643   1.270   2.447   4.335 -0.3444 -0.0390 -0.2104
 5336SOL    HW127644   1.250   2.537   4.309 -1.1077 -0.1063  0.1615
 5336SOL    HW227645   1.193   2.416   4.382 -0.4731  1.6312  0.6548
 5337SOL     OW27646   3.378   4.284   8.421 -0.0538  0.0626  0.3130
 5337SOL    HW127647   3.294   4.240   8.431 -0.3596 -0.0132 -2.6508
 5337SOL    HW227648   3.414   4.225   8.355 -0.5314 -0.8503  0.8823
 5338SOL     OW27649   3.636   2.075  12.167  0.4398 -0.4169 -0.0957
 5338SOL    HW127650   3.690   2.051  12.093  0.6840  1.4083 -0.5186
 5338SOL    HW227651   3.675   2.018  12.233 -0.0201 -0.7570 -0.1159
 5339SOL     OW27652   0.754   0.291   6.269 -0.6131 -0.5420  0.4675
 5339SOL    HW127653   0.828   0.321   6.216 -0.2351  0.5573  1.6288
 5339SOL    HW227654   0.728   0.376   6.304  1.1349  1.1826 -2.4380
 5340SOL     OW27655   0.202   3.658   2.914  0.1915 -0.2008 -0.2888
 5340SOL    HW127656   0.233   3.575   2.950 -0.5246 -0.4164 -0.1691
 5340SOL    HW227657   0.132   3.613   2.867  0.5998  0.0588 -1.1357
 5341SOL     OW27658   0.769   2.370   8.253 -0.3005  0.2509  0.0138
 5341SOL    HW127659   0.831   2.303   8.223 -2.2295 -1.2348 -0.6768
 5341SOL    HW227660   0.696   2.367   8.191 -0.0386 -1.1772 -0.2199
 5342SOL     OW27661   3.080   3.313   1.635  0.8663 -0.0867  0.7573
 5342SOL    HW127662   3.152   3.312   1.699  2.9999  0.1389 -1.6201
 5342SOL    HW227663   3.133   3.352   1.565  2.0381  0.2884  1.8472
 5343SOL     OW27664   1.628   2.116   0.395  0.0398 -0.0080  0.3931
 5343SOL    HW127665   1.631   2.022   0.380 -1.6411  0.0384 -0.2583
 5343SOL    HW227666   1.567   2.148   0.328  1.7569  0.3845 -0.9675
 5344SOL     OW27667   4.519   2.481   8.598  0.1281 -0.0060 -0.2664
 5344SOL    HW127668   4.524   2.387   8.581 -0.7385 -0.6918  3.3792
 5344SOL    HW227669   4.425   2.484   8.615  0.4414  0.2164  1.3923
 5345SOL     OW27670   2.023   1.927   3.353 -0.1132  0.5194  0.1462
 5345SOL    HW127671   2.060   1.986   3.418 -1.8906  0.6617  1.0355
 5345SOL    HW227672   1.966   1.990   3.309  1.5017  2.2496  0.5228
 5346SOL     OW27673   0.536   1.716   1.868  0.0823 -0.0433  0.4598
 5346SOL    HW127674   0.474   1.754   1.930  1.2546  0.2120  1.4739
 5346SOL    HW227675   0.589   1.692   1.944  1.9361 -1.2069 -1.1998
 5347SOL     OW27676   1.738   3.458   2.986  0.3337 -0.3913  0.5209
 5347SOL    HW127677   1.650   3.432   2.958 -0.7559  1.7236  1.9842
 5347SOL    HW227678   1.790   3.442   2.907 -0.2590  0.2154  0.0083
 5348SOL     OW27679   1.227   1.707   7.321  0.5872  0.0073 -0.2769
 5348SOL    HW127680   1.262   1.781   7.371  0.1556  0.6714 -0.9619
 5348SOL    HW227681   1.301   1.648   7.337 -1.5888 -1.4560  4.4469
 5349SOL     OW27682   2.439   2.384   7.445 -0.5824 -0.5652  0.1877
 5349SOL    HW127683   2.454   2.461   7.500 -0.5354 -1.7286  1.8122
 5349SOL    HW227684   2.354   2.410   7.410  0.0212  0.3916 -0.5725
 5350SOL     OW27685   1.617   3.345   9.406 -0.4830 -0.8527  0.1289
 5350SOL    HW127686   1.563   3.417   9.440  1.4493  0.8256 -0.3686
 5350SOL    HW227687   1.591   3.271   9.461 -0.2170  1.2452  3.0971
 5351SOL     OW27688   4.336   2.266   2.047 -0.4413  0.4252 -0.5377
 5351SOL    HW127689   4.248   2.230   2.047 -0.2898  0.1023 -3.6924
 5351SOL    HW227690   4.315   2.351   2.007  0.3188  0.4344 -0.9145
 5352SOL     OW27691   2.409   1.317   7.013  0.5243  0.4716 -1.1127
 5352SOL    HW127692   2.453   1.246   7.060 -2.3310  0.2532  1.2083
 5352SOL    HW227693   2.384   1.370   7.089  2.1408  0.7808 -0.7760
 5353SOL     OW27694   0.828   3.878   6.442 -0.2350 -0.2191  0.0622
 5353SOL    HW127695   0.765   3.862   6.511 -0.4825  0.2674 -0.0581
 5353SOL    HW227696   0.811   3.969   6.418 -1.0968 -0.3259  0.2900
 5354SOL     OW27697   3.105   2.809  12.758 -0.3336  0.0152 -0.5450
 5354SOL    HW127698   3.036   2.759  12.801 -0.1525  0.0543 -0.2053
 5354SOL    HW227699   3.059   2.858  12.689 -1.1196 -1.4206 -1.0336
 5355SOL     OW27700   1.048   2.062  17.593  0.3560 -0.0666  0.2654
 5355SOL    HW127701   1.098   2.086  17.514  1.1093 -1.1277  0.4274
 5355SOL    HW227702   1.059   2.143  17.643 -1.9469  0.5664 -0.2684
 5356SOL     OW27703   3.223   4.090   7.154  0.0164 -0.2913 -0.0428
 5356SOL    HW127704   3.208   4.118   7.064 -0.6430  0.9374  0.4483
 5356SOL    HW227705   3.307   4.048   7.135 -0.6831 -2.2092  1.0986
 5357SOL     OW27706   2.754   4.468   1.887 -0.2796 -0.4669 -0.1236
 5357SOL    HW127707   2.770   4.421   1.969 -1.7596  3.1508  2.2184
 5357SOL    HW227708   2.752   4.396   1.824  1.0660 -1.0271  0.4628
 5358SOL     OW27709   3.756   4.366   3.324  0.7511  0.0429  0.0741
 5358SOL    HW127710   3.690   4.361   3.393  1.8118  1.4161  1.1862
 5358SOL    HW227711   3.723   4.431   3.262 -1.5812 -0.3259  0.9440
 5359SOL     OW27712   1.773   0.101  12.997 -0.4806  0.0610 -0.6250
 5359SOL    HW127713   1.814   0.184  13.020  0.4817 -1.0888  1.8819
 5359SOL    HW227714   1.757   0.123  12.906 -0.3994 -2.5673 -1.2725
 5360SOL     OW27715   3.715   0.966   0.762 -0.0544 -0.1014 -0.0908
 5360SOL    HW127716   3.764   0.884   0.760 -0.9459 -0.6488  0.3275
 5360SOL    HW227717   3.741   0.990   0.851 -0.7867 -2.3446  0.7206
 5361SOL     OW27718   3.664   4.024   4.036 -0.1039 -0.3112 -0.0908
 5361SOL    HW127719   3.652   3.943   3.987  1.1628 -1.6315  1.7882
 5361SOL    HW227720   3.740   3.999   4.088  0.2344 -0.2931 -0.5813
 5362SOL     OW27721   0.707   2.533   2.064  0.6410 -0.2314  0.0852
 5362SOL    HW127722   0.709   2.507   2.157 -1.4290  0.2307  0.2497
 5362SOL    HW227723   0.685   2.458   2.009 -0.9888  0.5087 -0.2415
 5363SOL     OW27724   3.783   2.331   3.224 -0.0555 -0.5904  0.0029
 5363SOL    HW127725   3.754   2.422   3.232  0.3545 -0.4539 -0.0619
 5363SOL    HW227726   3.868   2.335   3.180  1.3201 -1.3704  2.6158
 5364SOL     OW27727   0.586   3.965   2.720 -0.2256  0.8846 -0.1189
 5364SOL    HW127728   0.509   4.022   2.714 -0.1819  1.0258  0.6745
 5364SOL    HW227729   0.537   3.883   2.728  1.6431 -0.5016 -2.9991
 5365SOL     OW27730   4.140   4.565   5.894 -0.4353 -0.4738  0.2265
 5365SOL    HW127731   4.172   4.475   5.896  0.9416  0.0143  0.0704
 5365SOL    HW227732   4.220   4.614   5.909 -1.2817  1.1636 -0.6067
 5366SOL     OW27733   2.057   3.841   6.996 -0.0566  0.3195 -0.1880
 5366SOL    HW127734   2.136   3.796   6.969 -0.5286 -1.4575  1.4651
 5366SOL    HW227735   2.105   3.922   7.014 -0.1655  0.5284 -0.8151
 5367SOL     OW27736   4.101   1.756   0.936 -0.5965 -0.1175  0.5483
 5367SOL    HW127737   4.049   1.836   0.940  0.2292  0.4702 -0.3208
 5367SOL    HW227738   4.158   1.776   0.862  0.0847  0.3469  1.1983
 5368SOL     OW27739   0.998   2.977   2.779 -0.3385 -0.3889  0.3621
 5368SOL    HW127740   1.013   3.009   2.690  1.0092 -0.2070  0.6625
 5368SOL    HW227741   1.058   2.903   2.781 -0.4519 -0.4439  1.3042
 5369SOL     OW27742   0.360   0.160   3.026  0.5750  0.3298 -0.4391
 5369SOL    HW127743   0.314   0.145   2.943 -0.6001 -0.3994  0.3484
 5369SOL    HW227744   0.441   0.195   2.989  0.0593  2.8687  0.8327
 5370SOL     OW27745   0.506   3.913   6.329 -0.3048  0.0728 -0.3072
 5370SOL    HW127746   0.445   3.986   6.337 -0.2100  0.2563 -1.3665
 5370SOL    HW227747   0.511   3.895   6.235 -0.4636  1.2923 -0.5515
 5371SOL     OW27748   0.050   2.179   3.166 -0.0231 -0.3453 -0.4915
 5371SOL    HW127749   0.036   2.165   3.260 -0.6312  1.8214 -0.2505
 5371SOL    HW227750   0.034   2.273   3.157 -1.4753 -0.7285 -1.8602
 5372SOL     OW27751   3.432   4.379   9.576  0.2242 -0.2448 -0.6908
 5372SOL    HW127752   3.342   4.408   9.564  0.2211  0.1517  0.2729
 5372SOL    HW227753   3.431   4.382   9.672  2.0633  0.7081 -0.6977
 5373SOL     OW27754   1.575   3.952   3.184 -0.2706  0.1931 -0.2090
 5373SOL    HW127755   1.588   4.045   3.165 -1.8221  0.5965  0.7064
 5373SOL    HW227756   1.484   3.951   3.214 -0.3030  0.0890 -0.3093
 5374SOL     OW27757   0.569   2.611   5.686  0.6071  0.1368  0.1997
 5374SOL    HW127758   0.645   2.650   5.641  1.2007 -1.9020 -0.5497
 5374SOL    HW227759   0.572   2.524   5.646  0.0821  1.6890 -3.2205
 5375SOL     OW27760   3.714   1.365   2.042 -0.2145 -0.5823  0.3423
 5375SOL    HW127761   3.640   1.369   2.103  1.0923  0.7091  1.8192
 5375SOL    HW227762   3.670   1.405   1.967  0.2867 -0.1974  0.2526
 5376SOL     OW27763   0.828   4.698  13.941  0.3301  0.1504 -0.6649
 5376SOL    HW127764   0.740   4.699  13.978  0.5277  1.6173 -0.2500
 5376SOL    HW227765   0.825   0.042  13.894  1.6746  0.9726  0.6831
 5377SOL     OW27766   1.154   0.964   4.013  0.2933  0.5776  0.4944
 5377SOL    HW127767   1.075   1.011   3.984 -0.0815  0.2526  0.9837
 5377SOL    HW227768   1.175   0.992   4.102 -1.3665  0.9228  0.7723
 5378SOL     OW27769   3.876   1.927   5.108 -0.1478 -0.2832  0.4446
 5378SOL    HW127770   3.862   1.977   5.027 -2.3169 -1.7421 -0.0598
 5378SOL    HW227771   3.793   1.951   5.148 -1.0809 -0.1771 -1.5664
 5379SOL     OW27772   1.946   3.872  10.557  0.2741  0.0692  0.0337
 5379SOL    HW127773   1.945   3.967  10.549  0.6968 -0.0264 -1.0451
 5379SOL    HW227774   1.947   3.856  10.463 -0.3726  0.6860 -0.0758
 5380SOL     OW27775   4.092   0.706   6.231  0.3232  0.5325 -0.5534
 5380SOL    HW127776   4.049   0.789   6.253 -0.5807 -0.2443  0.6296
 5380SOL    HW227777   4.029   0.635   6.246 -0.7344  1.4670 -0.5346
 5381SOL     OW27778   3.356   4.073   4.073 -0.4080 -0.3387 -0.3173
 5381SOL    HW127779   3.430   4.020   4.045  0.3015  0.9433 -0.8367
 5381SOL    HW227780   3.292   4.051   4.005 -1.0957  1.6305 -0.2934
 5382SOL     OW27781   4.340   1.220   4.322 -0.0420 -0.3592  0.3140
 5382SOL    HW127782   4.328   1.187   4.234  1.0900  1.9154 -0.6921
 5382SOL    HW227783   4.376   1.140   4.360 -0.6994 -1.1598 -0.7643
 5383SOL     OW27784   0.780   3.440   0.093 -0.0484  0.4652  0.6199
 5383SOL    HW127785   0.870   3.461   0.115  0.3942 -0.7453 -0.0620
 5383SOL    HW227786   0.743   3.429   0.181 -1.5259  0.0945 -0.0336
 5384SOL     OW27787   2.695   0.515   9.415 -0.0438 -0.0972  0.2299
 5384SOL    HW127788   2.787   0.530   9.436 -0.1940  0.1099  0.7450
 5384SOL    HW227789   2.715   0.431   9.374 -0.9765 -0.5607  0.7175
 5385SOL     OW27790   3.186   2.396   2.471 -0.1310  0.0650 -0.5046
 5385SOL    HW127791   3.098   2.384   2.435 -1.3652  1.7832  1.9576
 5385SOL    HW227792   3.200   2.315   2.520  2.4493  0.3444 -0.7731
 5386SOL     OW27793   3.469   1.864   1.568 -1.0042 -0.6499 -0.0156
 5386SOL    HW127794   3.480   1.794   1.504 -3.7642  0.1649 -1.3865
 5386SOL    HW227795   3.456   1.795   1.633 -1.3800 -0.1121  0.4822
 5387SOL     OW27796   3.323   3.166   0.219 -0.0625 -0.3263  0.3407
 5387SOL    HW127797   3.408   3.175   0.176  0.1299  1.2356  1.0452
 5387SOL    HW227798   3.279   3.245   0.188  0.5321 -0.8944 -1.8932
 5388SOL     OW27799   2.560   1.031   7.344  0.3481  0.5570 -0.3256
 5388SOL    HW127800   2.579   1.121   7.373  1.0904  0.2510  0.1532
 5388SOL    HW227801   2.560   1.040   7.249 -0.0297 -0.7805 -0.4448
 5389SOL     OW27802   3.092   0.749   8.903 -0.2689  0.4610 -0.0601
 5389SOL    HW127803   3.148   0.749   8.825  1.4361 -0.3682  1.1540
 5389SOL    HW227804   3.148   0.709   8.969  1.2788  0.8163 -1.1413
 5390SOL     OW27805   2.119   2.668   5.283  0.1897  0.3499  0.3865
 5390SOL    HW127806   2.183   2.710   5.340  1.7504  0.5756 -1.4963
 5390SOL    HW227807   2.083   2.603   5.343  0.2618 -0.8729 -0.8834
 5391SOL     OW27808   3.049   3.474   3.248  0.2251 -0.3873  0.4355
 5391SOL    HW127809   3.041   3.412   3.320 -3.0049 -1.1821 -0.6223
 5391SOL    HW227810   3.067   3.409   3.180  1.7950 -0.7397  1.1735
 5392SOL     OW27811   2.921   0.989   8.275  0.0668 -0.1726 -0.0072
 5392SOL    HW127812   2.903   0.977   8.181 -1.7658 -1.6434  0.5227
 5392SOL    HW227813   3.016   0.983   8.284 -0.2067 -1.6388  2.0181
 5393SOL     OW27814   1.194   1.437   9.855 -0.3046 -0.4382  0.4649
 5393SOL    HW127815   1.275   1.403   9.817  0.8060  1.1202  1.4481
 5393SOL    HW227816   1.220   1.448   9.947  1.8394  2.0434 -0.4597
 5394SOL     OW27817   0.289   0.196   0.671  0.0094 -0.8780  0.0642
 5394SOL    HW127818   0.254   0.141   0.601 -0.0764  0.2262 -0.7541
 5394SOL    HW227819   0.231   0.185   0.747  0.9260  1.4995  1.0980
 5395SOL     OW27820   3.879   2.065   1.593  0.8616 -0.0712 -0.5052
 5395SOL    HW127821   3.840   1.977   1.591  1.1796 -0.2229 -0.0429
 5395SOL    HW227822   3.804   2.124   1.591  1.6227  0.8803 -0.7141
 5396SOL     OW27823   4.632   2.799   5.553  0.3869 -0.2452  0.2899
 5396SOL    HW127824   4.569   2.728   5.565  0.1014  0.1614  1.2006
 5396SOL    HW227825   4.576   2.877   5.552  0.2479 -0.3661 -1.5459
 5397SOL     OW27826   0.159   4.210   3.656  0.6712 -0.1505 -0.0152
 5397SOL    HW127827   0.170   4.278   3.590 -0.3285 -0.7597 -0.8090
 5397SOL    HW227828   0.090   4.158   3.615 -1.6572  1.7449  1.4852
 5398SOL     OW27829   0.009   2.477   3.167 -0.3105  0.2548 -0.2025
 5398SOL    HW127830   4.693   2.544   3.125  1.0300  0.9945 -0.7524
 5398SOL    HW227831   0.059   2.522   3.235 -1.4878  0.6443  0.3949
 5399SOL     OW27832   0.312   2.010   1.909 -0.2248  0.5765  0.6558
 5399SOL    HW127833   0.294   1.922   1.942 -1.7483  1.1411  1.3041
 5399SOL    HW227834   0.245   2.063   1.951 -0.5700  1.2661 -0.7549
 5400SOL     OW27835   3.413   2.201   5.255  0.6058  0.5815  0.0470
 5400SOL    HW127836   3.483   2.237   5.200 -0.0019  0.9810 -0.4750
 5400SOL    HW227837   3.357   2.279   5.264  1.4414  1.4050 -1.6906
 5401SOL     OW27838   0.625   4.618   9.235  0.1293  0.0196  0.7044
 5401SOL    HW127839   0.534   4.646   9.245 -0.9684 -1.5922 -4.5709
 5401SOL    HW227840   0.645   4.594   9.326 -1.1286 -0.2852  0.9100
 5402SOL     OW27841   0.573   4.309  10.246  0.1954 -0.3330 -0.8588
 5402SOL    HW127842   0.586   4.384  10.189 -1.4836 -0.3578 -1.2777
 5402SOL    HW227843   0.549   4.238  10.187 -0.2086  1.1804 -2.4894
 5403SOL     OW27844   2.349   4.471   0.477 -0.3645 -0.4738  0.4650
 5403SOL    HW127845   2.329   4.534   0.408  1.4247  1.6938  1.9419
 5403SOL    HW227846   2.259   4.448   0.500 -0.8352 -1.2765 -2.1201
 5404SOL     OW27847   4.319   3.589   5.060 -0.6593 -0.3292 -0.6055
 5404SOL    HW127848   4.338   3.617   4.970 -0.0604 -0.0392 -0.3859
 5404SOL    HW227849   4.390   3.627   5.111  0.9026 -1.2557 -2.1224
 5405SOL     OW27850   3.308   1.186  12.545  0.3884 -0.1793 -0.1393
 5405SOL    HW127851   3.284   1.118  12.482 -2.0846  0.4923  0.0731
 5405SOL    HW227852   3.390   1.220  12.511  1.6830 -0.6392  2.5388
 5406SOL     OW27853   0.617   3.356  11.807 -0.1833 -0.7671 -0.7758
 5406SOL    HW127854   0.613   3.263  11.830  1.0100 -0.6743 -0.2125
 5406SOL    HW227855   0.608   3.394  11.895 -0.4450  0.8287 -1.4924
 5407SOL     OW27856   3.758   1.831   3.021 -0.0253  0.0470  0.3699
 5407SOL    HW127857   3.693   1.766   3.048 -0.4182  0.3575  0.1707
 5407SOL    HW227858   3.734   1.908   3.073 -0.2637 -1.8782  3.1262
 5408SOL     OW27859   4.217   2.854   7.645 -0.1925  0.0702 -0.1519
 5408SOL    HW127860   4.208   2.866   7.551  0.0408 -2.8879 -0.5251
 5408SOL    HW227861   4.156   2.914   7.688 -2.2566 -1.1319 -1.4645
 5409SOL     OW27862   1.163   1.675   3.464  0.1825 -0.5010 -0.0651
 5409SOL    HW127863   1.225   1.672   3.537  0.2592 -1.8960 -0.1883
 5409SOL    HW227864   1.212   1.637   3.391  0.4162  0.0593 -0.1927
 5410SOL     OW27865   1.647   2.163  13.252  0.0499 -0.1043 -0.1946
 5410SOL    HW127866   1.647   2.222  13.327 -2.5963 -0.8283  0.4030
 5410SOL    HW227867   1.702   2.212  13.191 -0.8849  1.7621  0.4670
 5411SOL     OW27868   3.032   0.089   3.866  0.4191  0.4452 -0.4938
 5411SOL    HW127869   3.012   0.148   3.793  0.6987  0.9049 -0.2061
 5411SOL    HW227870   2.945   0.063   3.895  0.9208 -0.1368  0.4973
 5412SOL     OW27871   1.115   1.603   9.200 -0.2933  0.2923 -1.0622
 5412SOL    HW127872   1.037   1.566   9.158  1.0097 -2.0445 -1.3965
 5412SOL    HW227873   1.136   1.532   9.259  0.0084  1.2823  0.0153
 5413SOL     OW27874   3.435   4.279   3.244  0.9952  0.0801 -0.0911
 5413SOL    HW127875   3.436   4.198   3.294  0.1862  1.5483  2.3279
 5413SOL    HW227876   3.341   4.299   3.239  1.0417 -0.0811 -1.6400
 5414SOL     OW27877   2.425   3.900   3.379  0.0560  0.1481 -0.7898
 5414SOL    HW127878   2.421   3.964   3.308 -0.6752 -0.7081 -1.5062
 5414SOL    HW227879   2.428   3.947   3.463  0.8293 -0.6526 -0.3705
 5415SOL     OW27880   4.339   2.169   5.128 -0.2025  0.1658  0.1888
 5415SOL    HW127881   4.253   2.192   5.093 -0.8169 -0.7415  1.1035
 5415SOL    HW227882   4.368   2.085   5.093 -2.3657 -0.5312  0.0762
 5416SOL     OW27883   0.504   2.462  16.117  0.1619 -0.2023  0.1544
 5416SOL    HW127884   0.453   2.498  16.189 -0.0255 -0.1389 -0.0104
 5416SOL    HW227885   0.476   2.522  16.047  0.4941  0.7393  0.8397
 5417SOL     OW27886   0.604   1.380   6.973 -0.1900  0.1329 -0.0068
 5417SOL    HW127887   0.615   1.424   7.057 -0.2727  1.3003 -0.6145
 5417SOL    HW227888   0.675   1.429   6.932 -0.8131  0.2097 -0.9738
 5418SOL     OW27889   2.518   2.132   8.952  0.5693 -0.3804  0.1880
 5418SOL    HW127890   2.518   2.044   8.915 -1.6692  0.0804 -0.8726
 5418SOL    HW227891   2.609   2.163   8.944  0.0733  1.1521  0.3773
 5419SOL     OW27892   1.776   0.354  10.107  0.7154  0.7363  0.1436
 5419SOL    HW127893   1.774   0.441  10.147  1.4779  1.3588 -1.1992
 5419SOL    HW227894   1.716   0.357  10.033  1.2126 -0.0272 -0.2947
 5420SOL     OW27895   3.025   2.570   7.021  0.0841  0.1578  0.5735
 5420SOL    HW127896   3.119   2.564   7.003 -0.1909  0.5792 -0.9536
 5420SOL    HW227897   2.992   2.531   6.941 -1.6295  0.5865  1.0720
 5421SOL     OW27898   2.764   1.677  10.229 -0.5852  0.0709  0.5445
 5421SOL    HW127899   2.750   1.751  10.288  2.2247  0.7615  0.3065
 5421SOL    HW227900   2.843   1.715  10.191  0.5943 -1.7788  1.1435
 5422SOL     OW27901   3.508   1.699   6.730 -0.1629  0.2162 -0.0132
 5422SOL    HW127902   3.460   1.778   6.757 -0.8585 -0.4130  0.5857
 5422SOL    HW227903   3.435   1.638   6.720 -0.0445  0.5169 -2.6775
 5423SOL     OW27904   4.186   3.093   2.464 -0.0840 -0.4270 -0.4717
 5423SOL    HW127905   4.233   3.017   2.499  1.3113  0.4552 -0.4117
 5423SOL    HW227906   4.151   3.137   2.541 -1.2263  1.2310 -1.9307
 5424SOL     OW27907   2.790   2.979   0.148  0.4313 -0.2537 -0.1125
 5424SOL    HW127908   2.715   2.950   0.201  3.1002 -0.4430  3.5330
 5424SOL    HW227909   2.807   3.063   0.190  0.7806  0.5875 -1.9156
 5425SOL     OW27910   1.822   1.339   9.032  0.0550  0.1720 -0.2447
 5425SOL    HW127911   1.817   1.245   9.044 -0.3683  0.3962  1.2757
 5425SOL    HW227912   1.806   1.380   9.117  1.0746  0.1641 -0.0436
 5426SOL     OW27913   0.226   3.532   3.556 -0.3139 -0.7524 -0.2077
 5426SOL    HW127914   0.314   3.545   3.522 -0.1354 -0.0729  0.5100
 5426SOL    HW227915   0.170   3.554   3.481 -0.1230 -1.3175 -0.5164
 5427SOL     OW27916   0.241   3.620   7.346 -0.1283  0.2724  0.1168
 5427SOL    HW127917   0.279   3.541   7.385  0.8307  2.9640  4.6863
 5427SOL    HW227918   0.211   3.582   7.264  0.7646 -1.4365  0.5666
 5428SOL     OW27919   1.038   2.580  14.696 -0.2711  0.6063  0.3036
 5428SOL    HW127920   1.005   2.512  14.755 -3.0891  0.5362 -1.3706
 5428SOL    HW227921   1.037   2.545  14.607 -1.7742  0.5468  0.3395
 5429SOL     OW27922   4.530   3.634   7.965 -0.0881 -0.5385 -0.2095
 5429SOL    HW127923   4.511   3.553   7.918 -0.9691  0.5778 -1.8022
 5429SOL    HW227924   4.478   3.626   8.045  0.5729  1.8334  0.4640
 5430SOL     OW27925   0.073   1.977   1.613  0.4278  0.1315  0.3749
 5430SOL    HW127926   0.083   1.942   1.701  1.5373 -0.1475  0.1437
 5430SOL    HW227927   4.730   1.932   1.589  0.4276  0.5543 -0.4354
 5431SOL     OW27928   1.165   2.290   8.924 -0.0197  0.1035 -0.3610
 5431SOL    HW127929   1.135   2.381   8.915  0.5113  0.5719  2.7777
 5431SOL    HW227930   1.147   2.255   8.837  2.2636  0.9479 -1.1734
 5432SOL     OW27931   4.080   0.914   8.138  0.4959  0.2603  0.6966
 5432SOL    HW127932   4.137   0.930   8.213  0.5484 -1.0169  0.9293
 5432SOL    HW227933   4.137   0.942   8.066  0.1114  2.6153  1.2931
 5433SOL     OW27934   3.689   0.091  12.560 -0.2852  0.2812  0.1389
 5433SOL    HW127935   3.684   0.069  12.467 -1.4844 -0.7289  0.4532
 5433SOL    HW227936   3.616   0.150  12.579 -0.4592  0.0714  0.1216
 5434SOL     OW27937   0.132   2.899  12.918 -0.2188 -0.2230 -0.2595
 5434SOL    HW127938   0.171   2.878  13.003  1.3622 -0.6627 -1.0904
 5434SOL    HW227939   0.077   2.824  12.897 -0.7878  0.0774  0.1475
 5435SOL     OW27940   1.399   3.430  15.013 -0.3203 -0.3935  0.1093
 5435SOL    HW127941   1.366   3.429  14.923 -2.1429 -4.1067  0.8042
 5435SOL    HW227942   1.419   3.337  15.026  1.3943  0.2883  2.2221
 5436SOL     OW27943   3.404   1.796   7.512  0.0122 -0.2133  0.2981
 5436SOL    HW127944   3.371   1.736   7.446  3.0413 -0.2989 -1.1076
 5436SOL    HW227945   3.430   1.738   7.583  2.4424  0.2235 -0.2610
 5437SOL     OW27946   0.420   0.887   8.036  0.1348 -0.1927 -0.6060
 5437SOL    HW127947   0.359   0.814   8.026 -0.2058  0.1498 -1.0221
 5437SOL    HW227948   0.375   0.953   8.089 -1.7079 -2.1640  0.2522
 5438SOL     OW27949   3.003   0.857   2.131  0.2252 -0.7645  0.3784
 5438SOL    HW127950   2.982   0.869   2.038 -0.7400 -0.4419  0.6311
 5438SOL    HW227951   3.097   0.843   2.123  0.2637 -0.9942  1.3127
 5439SOL     OW27952   3.289   3.062  12.525 -0.0645  0.1635  0.7362
 5439SOL    HW127953   3.244   3.017  12.454  2.2269 -0.9255 -0.0393
 5439SOL    HW227954   3.268   3.005  12.599  0.0572 -2.7439 -1.4604
 5440SOL     OW27955   2.130   0.741   3.490  0.5715 -0.1168 -0.3591
 5440SOL    HW127956   2.107   0.721   3.581  0.1401  1.7205 -0.0596
 5440SOL    HW227957   2.113   0.654   3.455 -0.3700 -0.1193  0.1234
 5441SOL     OW27958   4.007   2.041   2.353  0.2594  0.1044 -0.3588
 5441SOL    HW127959   4.041   1.953   2.339  1.1288  0.3037  0.4910
 5441SOL    HW227960   3.963   2.038   2.439  0.7600  2.7536 -0.0116
 5442SOL     OW27961   1.840   0.969   8.511  0.2335 -0.1714 -0.1326
 5442SOL    HW127962   1.896   0.912   8.458  0.0768  0.4583 -0.9876
 5442SOL    HW227963   1.788   0.913   8.568  1.3259  0.6206  1.6582
 5443SOL     OW27964   1.538   0.933   2.780  0.1973  0.2529 -0.4630
 5443SOL    HW127965   1.543   0.985   2.860  2.1364 -2.2124  1.0186
 5443SOL    HW227966   1.558   1.004   2.719 -1.1697  0.8084 -0.2458
 5444SOL     OW27967   0.771   3.745   3.599 -0.0975 -0.3610  0.2275
 5444SOL    HW127968   0.696   3.754   3.541  0.8924 -0.0631 -1.0002
 5444SOL    HW227969   0.736   3.709   3.680  0.2981  1.1257  1.0619
 5445SOL     OW27970   3.775   3.172   2.677 -0.4381 -0.4989  0.0671
 5445SOL    HW127971   3.767   3.156   2.583  2.4872 -0.8275 -0.1151
 5445SOL    HW227972   3.825   3.096   2.706 -1.2522 -1.1489 -0.2192
 5446SOL     OW27973   0.166   2.326   3.488  0.2852  0.0287  0.0195
 5446SOL    HW127974   0.240   2.327   3.426 -1.2481 -0.1273 -1.8104
 5446SOL    HW227975   0.201   2.291   3.569 -0.6003  1.3479  0.9588
 5447SOL     OW27976   4.481   3.071   6.824 -0.4037  0.0059 -0.4255
 5447SOL    HW127977   4.576   3.085   6.822 -0.5984  1.1361 -1.8606
 5447SOL    HW227978   4.483   2.990   6.874 -2.3924  1.1625  1.5035
 5448SOL     OW27979   3.968   4.524   8.086  0.4071 -0.0065 -0.5394
 5448SOL    HW127980   3.935   4.574   8.011 -1.0673 -0.9760 -0.5355
 5448SOL    HW227981   3.913   4.541   8.163 -1.0365 -1.3842 -1.2595
 5449SOL     OW27982   2.400   4.054   5.583 -0.4007  0.0295  0.2062
 5449SOL    HW127983   2.369   4.137   5.547 -0.4336  0.4020  1.0798
 5449SOL    HW227984   2.486   4.057   5.541 -0.1033  1.4214  0.8966
 5450SOL     OW27985   0.793   1.039   0.337  0.2401  0.1513 -0.0630
 5450SOL    HW127986   0.825   1.129   0.346  0.8670 -0.1283  0.5036
 5450SOL    HW227987   0.829   1.004   0.418  0.5845 -1.5886 -0.9650
 5451SOL     OW27988   0.463   2.753  13.581 -0.3097  0.3948  0.2419
 5451SOL    HW127989   0.530   2.686  13.563  2.0371  2.1740  2.2988
 5451SOL    HW227990   0.431   2.718  13.665  1.2923  0.0318  0.7080
 5452SOL     OW27991   0.403   3.306   6.122 -0.3335 -0.1885 -0.3372
 5452SOL    HW127992   0.391   3.258   6.040  1.9046 -1.1049 -0.1361
 5452SOL    HW227993   0.358   3.240   6.174 -0.7298  0.6444  0.3776
 5453SOL     OW27994   2.538   4.414   9.246 -0.1928 -0.0198 -0.3422
 5453SOL    HW127995   2.617   4.419   9.299 -1.2585  1.9750  1.0317
 5453SOL    HW227996   2.533   4.505   9.219 -0.7512 -0.2111 -0.8890
 5454SOL     OW27997   3.582   0.122   6.142 -0.0853  0.0921 -0.0799
 5454SOL    HW127998   3.599   0.208   6.104 -2.2446  0.2527 -0.6553
 5454SOL    HW227999   3.645   0.067   6.094  2.3678  3.1275 -0.3322
 5455SOL     OW28000   4.674   3.710   0.935 -0.0590  0.7182 -0.2123
 5455SOL    HW128001   0.029   3.703   0.955  0.1337  2.2037 -0.5620
 5455SOL    HW228002   4.657   3.786   0.991  1.0970  0.8853 -0.0919
 5456SOL     OW28003   1.117   2.814   8.347 -0.0963 -0.5571  0.1830
 5456SOL    HW128004   1.085   2.725   8.332 -1.4184  0.1894 -1.4297
 5456SOL    HW228005   1.149   2.839   8.260 -0.9063  0.1573  0.0859
 5457SOL     OW28006   2.302   4.374  15.781  0.3515  0.4183 -0.0026
 5457SOL    HW128007   2.248   4.368  15.701 -0.1006 -1.3159  0.4495
 5457SOL    HW228008   2.388   4.384  15.740 -0.0352  0.1905 -0.8768
 5458SOL     OW28009   3.087   2.889   4.194  0.1900  0.1127  0.2189
 5458SOL    HW128010   3.116   2.811   4.241  0.1486 -1.0224 -1.6568
 5458SOL    HW228011   3.087   2.859   4.103  0.5553  3.5846 -0.9097
 5459SOL     OW28012   2.281   2.776  17.486  0.1492  0.2028  0.6084
 5459SOL    HW128013   2.242   2.699  17.527 -1.4521  1.7703  2.0565
 5459SOL    HW228014   2.243   2.839  17.548 -0.1936  0.0172  0.5904
 5460SOL     OW28015   4.086   2.315   7.427 -0.0302 -0.2737  0.9873
 5460SOL    HW128016   4.051   2.315   7.516  0.4302  2.6417  1.1709
 5460SOL    HW228017   4.180   2.326   7.442  0.0472 -1.5495  1.4148
 5461SOL     OW28018   1.206   3.051  14.929  0.4890  0.5424 -0.4208
 5461SOL    HW128019   1.189   3.081  15.018 -0.7795  2.2682 -1.2297
 5461SOL    HW228020   1.132   3.089  14.881 -0.8117 -1.6015 -0.1200
 5462SOL     OW28021   0.323   2.422  16.538 -0.9368  0.0414  0.1814
 5462SOL    HW128022   0.244   2.400  16.589 -1.6230  0.4972 -0.6780
 5462SOL    HW228023   0.351   2.494  16.594  0.4722 -1.5254  1.4947
 5463SOL     OW28024   4.469   2.203   4.792 -0.1432  0.7188 -0.5746
 5463SOL    HW128025   4.562   2.184   4.795  0.1090  1.9716 -0.3794
 5463SOL    HW228026   4.464   2.290   4.832 -4.0405  1.1601 -1.9526
 5464SOL     OW28027   2.654   0.973  16.664 -0.4259  0.2920 -0.4601
 5464SOL    HW128028   2.599   0.956  16.741 -0.3051 -1.3283 -0.7417
 5464SOL    HW228029   2.618   1.054  16.627 -0.3801  0.4167 -0.2370
 5465SOL     OW28030   0.900   2.117   9.899 -0.6359  0.5059  0.0345
 5465SOL    HW128031   0.860   2.039   9.860  0.8411 -0.1984 -0.0571
 5465SOL    HW228032   0.950   2.085   9.974 -0.9336 -0.8658 -0.3457
 5466SOL     OW28033   2.268   3.543   1.451  0.2034  0.3184 -0.0465
 5466SOL    HW128034   2.182   3.500   1.449  0.1250  0.4652  0.3095
 5466SOL    HW228035   2.301   3.536   1.540 -1.5985  2.5036  0.7650
 5467SOL     OW28036   3.417   0.889   2.969 -0.4402 -0.4188  0.0842
 5467SOL    HW128037   3.411   0.942   3.048 -1.0242  0.1060 -0.3125
 5467SOL    HW228038   3.508   0.903   2.942 -0.7888  1.5051 -0.0949
 5468SOL     OW28039   2.073   1.128   7.094  0.3044 -0.2274  0.4314
 5468SOL    HW128040   2.079   1.219   7.122  1.7469 -0.3377  0.4630
 5468SOL    HW228041   1.997   1.096   7.143  0.4277 -2.8523 -1.0779
 5469SOL     OW28042   3.315   1.320   0.237 -0.4001 -0.3664  0.1726
 5469SOL    HW128043   3.224   1.297   0.216 -0.0088 -0.0914 -1.8345
 5469SOL    HW228044   3.355   1.348   0.155  0.8692  0.3699  1.0488
 5470SOL     OW28045   2.471   0.547  10.890  0.1541  0.0046 -0.1681
 5470SOL    HW128046   2.550   0.500  10.915  0.0212 -0.4157 -0.5387
 5470SOL    HW228047   2.496   0.557  10.798  2.7568  0.5497  0.6027
 5471SOL     OW28048   2.717   1.934   7.028  0.1696  0.0893 -0.0277
 5471SOL    HW128049   2.636   1.982   7.007  0.6088  1.6582  1.8942
 5471SOL    HW228050   2.736   1.974   7.113  1.6585  0.4914 -0.5533
 5472SOL     OW28051   1.021   1.916   0.059  0.2636  0.3345 -0.3271
 5472SOL    HW128052   1.010   1.976  17.736  0.2455  0.1507 -0.4717
 5472SOL    HW228053   1.024   1.832   0.013 -0.0207  0.1316  0.0274
 5473SOL     OW28054   2.160   3.764  16.081  0.5097 -0.1917 -0.0490
 5473SOL    HW128055   2.155   3.710  16.160  1.3665  1.8546  1.3871
 5473SOL    HW228056   2.250   3.748  16.053  0.3962  1.4202 -1.3245
 5474SOL     OW28057   2.183   1.005   8.555 -0.4354  0.0620 -0.2722
 5474SOL    HW128058   2.172   1.089   8.511  1.6243 -0.1304 -1.1714
 5474SOL    HW228059   2.216   0.948   8.485 -0.3425  0.2116 -0.3490
 5475SOL     OW28060   1.768   1.733   8.743 -0.2410  0.5126  0.1226
 5475SOL    HW128061   1.862   1.716   8.751 -0.7456 -0.6840  3.1803
 5475SOL    HW228062   1.724   1.663   8.790 -0.9856 -0.5560 -2.1623
 5476SOL     OW28063   4.617   3.137   2.093 -0.1446  0.0967  0.1579
 5476SOL    HW128064   4.682   3.206   2.082 -1.3868  1.4432  1.2424
 5476SOL    HW228065   4.542   3.179   2.051 -1.2468 -2.1008 -0.0697
 5477SOL     OW28066   2.251   3.062   7.493 -0.5523  0.3809  0.4406
 5477SOL    HW128067   2.213   3.141   7.455 -0.8858  0.5254  1.0756
 5477SOL    HW228068   2.345   3.079   7.486 -0.7128  1.1136  0.0819
 5478SOL     OW28069   3.517   1.592  13.346  0.0012  0.2660  0.1438
 5478SOL    HW128070   3.445   1.589  13.409  3.2231 -0.8733  3.8033
 5478SOL    HW228071   3.591   1.635  13.391 -0.1820  0.1154  0.5918
 5479SOL     OW28072   0.679   1.890  17.182  0.5478 -0.1171  0.5434
 5479SOL    HW128073   0.629   1.968  17.207 -1.6921 -1.4607  0.1840
 5479SOL    HW228074   0.767   1.918  17.209  1.3177 -0.0049 -2.0893
 5480SOL     OW28075   3.651   0.220   8.894  0.7985  0.2859  0.0607
 5480SOL    HW128076   3.643   0.304   8.940 -1.4562  0.8882 -1.4712
 5480SOL    HW228077   3.670   0.244   8.803 -2.9605 -0.8602 -1.0101
 5481SOL     OW28078   4.095   3.480   3.642 -0.0154  0.2937 -0.2136
 5481SOL    HW128079   4.035   3.422   3.688  0.4231 -0.3027 -0.3838
 5481SOL    HW228080   4.099   3.546   3.711 -2.7137 -0.3031  0.5289
 5482SOL     OW28081   0.618   3.260   6.832 -0.1596  0.5704  0.7841
 5482SOL    HW128082   0.570   3.179   6.814  1.2727 -0.2891  0.8237
 5482SOL    HW228083   0.696   3.249   6.777 -0.5481  2.5065 -0.1493
 5483SOL     OW28084   1.869   2.902  10.552 -0.1799 -0.2102 -0.3604
 5483SOL    HW128085   1.923   2.932  10.479  0.1810  0.1244  0.0446
 5483SOL    HW228086   1.785   2.935  10.520 -0.2937 -0.2744 -0.1286
 5484SOL     OW28087   0.751   2.333   5.735  0.1730  0.0196  0.8703
 5484SOL    HW128088   0.755   2.391   5.811 -1.4025  0.8126  0.3454
 5484SOL    HW228089   0.814   2.371   5.673 -1.5627 -0.9887 -1.5156
 5485SOL     OW28090   0.284   3.442   1.612 -0.2357  0.3644  0.1615
 5485SOL    HW128091   0.293   3.518   1.554 -0.2928  1.4050  1.5079
 5485SOL    HW228092   0.244   3.380   1.551  1.4756 -1.5634  0.9952
 5486SOL     OW28093   3.969   3.519   0.647  0.7383 -0.1544 -0.7133
 5486SOL    HW128094   3.883   3.486   0.620  0.6795 -0.9099  0.3911
 5486SOL    HW228095   4.020   3.438   0.634  0.6565 -0.0527 -1.7324
 5487SOL     OW28096   3.399   0.164   4.734  0.2694 -0.0676  0.0559
 5487SOL    HW128097   3.333   0.094   4.730 -1.2161  1.2409  1.6492
 5487SOL    HW228098   3.450   0.137   4.810  0.9907  2.1951  0.3707
 5488SOL     OW28099   3.001   2.465   5.876 -0.5159  0.0342 -0.5224
 5488SOL    HW128100   2.992   2.381   5.921  1.8719 -0.5546 -1.1453
 5488SOL    HW228101   3.020   2.508   5.960  1.6045 -1.9082  0.0040
 5489SOL     OW28102   2.182   4.240  12.130 -0.4563  0.0702 -0.3594
 5489SOL    HW128103   2.088   4.258  12.124 -0.5041 -0.1848 -0.3678
 5489SOL    HW228104   2.184   4.173  12.062  0.7787 -0.4113  0.1681
 5490SOL     OW28105   1.818   2.713   9.030  0.1607  0.1820  0.3421
 5490SOL    HW128106   1.816   2.808   9.047 -0.9015  0.0651  0.8653
 5490SOL    HW228107   1.740   2.709   8.974  0.1207 -1.8996  0.5683
 5491SOL     OW28108   2.460   0.209   1.802 -0.4803 -0.3606 -0.2421
 5491SOL    HW128109   2.448   0.168   1.716 -0.7870 -2.3570  0.7527
 5491SOL    HW228110   2.385   0.268   1.792  0.6827  1.0680 -0.4653
 5492SOL     OW28111   1.418   0.752  10.736 -0.8974 -0.1176  0.3139
 5492SOL    HW128112   1.326   0.777  10.725  0.1498  4.1403  1.2140
 5492SOL    HW228113   1.412   0.656  10.727  1.4407 -0.3592  1.5106
 5493SOL     OW28114   2.826   0.120   1.687 -0.3242 -0.4270  0.1220
 5493SOL    HW128115   2.752   0.163   1.644 -1.1317 -0.5201  1.3938
 5493SOL    HW228116   2.880   0.089   1.614  0.5999  0.4743  0.4275
 5494SOL     OW28117   1.876   1.724   3.624 -0.0099  0.1365  0.2863
 5494SOL    HW128118   1.877   1.724   3.720  0.8728  0.6073  0.2801
 5494SOL    HW228119   1.819   1.798   3.601  0.0044  0.7993  2.3756
 5495SOL     OW28120   2.372   3.442   3.473 -0.0922 -0.7826 -0.5999
 5495SOL    HW128121   2.432   3.511   3.447 -0.0223 -0.1810  1.1756
 5495SOL    HW228122   2.408   3.365   3.430 -1.9490 -0.7160 -2.3085
 5496SOL     OW28123   2.652   3.813   0.556 -0.4923 -0.6428 -0.4440
 5496SOL    HW128124   2.611   3.751   0.495 -0.8195 -2.0427  1.2120
 5496SOL    HW228125   2.691   3.875   0.494 -0.4657  0.2879  0.4891
 5497SOL     OW28126   1.051   0.606  15.946 -0.0882 -0.3147  0.0422
 5497SOL    HW128127   1.042   0.700  15.960 -0.0351 -0.1575 -0.9341
 5497SOL    HW228128   1.023   0.584  15.857  2.6915 -0.6379 -0.7463
 5498SOL     OW28129   1.249   4.675   7.948 -0.6586 -0.0475 -0.0356
 5498SOL    HW128130   1.223   4.584   7.933 -1.1507 -0.0604  0.8919
 5498SOL    HW228131   1.191   4.720   7.886 -0.7659 -1.3247 -0.8731
 5499SOL     OW28132   4.064   1.413   5.606 -0.7174  0.1537  0.4281
 5499SOL    HW128133   3.991   1.470   5.581  1.3070  2.0872 -1.1060
 5499SOL    HW228134   4.077   1.434   5.698  1.8052  0.4003  0.0153
 5500SOL     OW28135   0.864   3.341   2.132  0.4610 -0.0388 -0.2006
 5500SOL    HW128136   0.940   3.283   2.122 -0.6012 -1.7796  1.6995
 5500SOL    HW228137   0.914   3.411   2.175 -1.0556  0.5228  0.6392
 5501SOL     OW28138   1.375   2.716   6.606 -0.4466  0.4176  0.0317
 5501SOL    HW128139   1.440   2.769   6.561  0.0937 -0.7133 -0.5270
 5501SOL    HW228140   1.351   2.781   6.673 -0.8847 -0.5664  0.8352
 5502SOL     OW28141   2.201   2.265  13.820  0.2084  0.7868  0.4867
 5502SOL    HW128142   2.202   2.190  13.880 -1.2814  1.2098  1.0264
 5502SOL    HW228143   2.140   2.236  13.753 -1.6581  1.0377  2.0742
 5503SOL     OW28144   2.272   1.241  10.253 -0.5709 -0.2029 -0.2035
 5503SOL    HW128145   2.231   1.169  10.206  1.9862 -1.5493 -0.3575
 5503SOL    HW228146   2.322   1.194  10.320 -1.2975 -1.5674 -0.6352
 5504SOL     OW28147   3.378   3.700  10.034 -0.2443  0.3570 -0.6490
 5504SOL    HW128148   3.379   3.683  10.129  2.5947  0.3942 -0.6577
 5504SOL    HW228149   3.412   3.622   9.991  2.1700  0.4304  1.1354
 5505SOL     OW28150   4.480   3.241  12.686  0.3586 -0.0117 -0.8191
 5505SOL    HW128151   4.562   3.287  12.671 -0.3554  1.9413  1.2285
 5505SOL    HW228152   4.515   3.173  12.743  0.2971 -0.2956 -1.1153
 5506SOL     OW28153   0.313   3.364  10.087  0.2036 -0.4312 -0.3217
 5506SOL    HW128154   0.344   3.359  10.178  1.9057  0.9645 -0.8222
 5506SOL    HW228155   0.230   3.409  10.096 -0.6181 -1.8716 -0.6583
 5507SOL     OW28156   3.233   2.117   8.676  0.2174  0.2852  0.5970
 5507SOL    HW128157   3.281   2.035   8.692 -1.0180 -0.8316 -1.2947
 5507SOL    HW228158   3.155   2.089   8.628 -0.1532  0.2389  1.2359
 5508SOL     OW28159   0.315   1.321   6.157  0.1597  0.1101 -0.0356
 5508SOL    HW128160   0.320   1.416   6.144  0.1999 -0.1228 -1.6598
 5508SOL    HW228161   0.221   1.313   6.170 -0.3201  3.7317 -1.2463
 5509SOL     OW28162   3.836   4.626   5.294 -0.4912  0.3647  0.1345
 5509SOL    HW128163   3.851   4.625   5.199  0.0542  2.4678  0.1976
 5509SOL    HW228164   3.854   4.720   5.291  0.5627  0.2076  1.3657
 5510SOL     OW28165   3.847   3.906  14.811  0.2825  0.3874  0.6211
 5510SOL    HW128166   3.866   3.838  14.877  1.2133  0.3562  0.3281
 5510SOL    HW228167   3.931   3.894  14.767 -0.7025 -0.3200 -1.0371
 5511SOL     OW28168   0.283   3.084   6.237  0.0199  0.2989 -0.4100
 5511SOL    HW128169   0.303   2.991   6.238  0.6715  0.4315 -0.7895
 5511SOL    HW228170   0.214   3.075   6.171  0.2862 -0.1465 -0.6298
 5512SOL     OW28171   0.794   3.641  17.012 -0.2545  0.0190  0.2912
 5512SOL    HW128172   0.747   3.675  16.936 -0.0697 -1.6052 -0.5437
 5512SOL    HW228173   0.776   3.547  17.006  3.4878 -0.6306 -0.9200
 5513SOL     OW28174   1.814   4.424  16.462 -0.4402 -0.7388  0.2263
 5513SOL    HW128175   1.822   4.416  16.367 -0.3169 -0.9024  0.2512
 5513SOL    HW228176   1.769   4.508  16.475  0.0173 -0.3890 -0.5096
 5514SOL     OW28177   1.014   1.775   5.334 -0.0817  0.4498  0.5513
 5514SOL    HW128178   1.044   1.745   5.420 -2.0385  0.0723  1.1122
 5514SOL    HW228179   1.061   1.859   5.334 -0.4557  0.6526 -0.9765
 5515SOL     OW28180   1.207   3.450   5.247 -0.1064 -0.0044 -0.1764
 5515SOL    HW128181   1.205   3.369   5.298 -1.8075  1.7079  2.4673
 5515SOL    HW228182   1.157   3.507   5.306  0.9048  1.6800 -0.9566
 5516SOL     OW28183   2.153   2.107   3.532  0.1869  0.1940  0.3767
 5516SOL    HW128184   2.171   2.188   3.486 -0.4715  0.0494 -0.1225
 5516SOL    HW228185   2.089   2.137   3.596  1.7590 -1.2005  2.6212
 5517SOL     OW28186   4.599   0.396  16.096 -0.0176  0.0436 -0.3240
 5517SOL    HW128187   4.525   0.424  16.043  2.4374  0.9465 -3.2225
 5517SOL    HW228188   4.606   0.478  16.144 -1.2386 -1.1160  1.8662
 5518SOL     OW28189   1.308   3.701  15.030  0.0002 -0.4771 -0.0841
 5518SOL    HW128190   1.380   3.657  14.984 -1.6014 -0.6130 -2.5073
 5518SOL    HW228191   1.236   3.710  14.967 -0.4074 -0.4798  0.3877
 5519SOL     OW28192   4.251   0.134   9.078  0.4397  0.1917 -0.0502
 5519SOL    HW128193   4.342   0.137   9.050  0.6053 -0.2409  0.4394
 5519SOL    HW228194   4.225   0.222   9.050 -1.0704  0.0996  1.0186
 5520SOL     OW28195   2.420   2.223   5.215  0.3701  0.2257 -0.7340
 5520SOL    HW128196   2.398   2.300   5.267  0.8118  0.1451 -0.4272
 5520SOL    HW228197   2.477   2.183   5.281  0.1206  1.2904  0.1195
 5521SOL     OW28198   3.110   3.797   3.466 -0.4230 -0.1224 -0.1802
 5521SOL    HW128199   3.038   3.740   3.495 -0.6132 -0.4311 -1.2397
 5521SOL    HW228200   3.154   3.732   3.411 -2.4074 -1.7995  0.2091
 5522SOL     OW28201   2.798   3.291   0.007  0.2001  0.6941 -0.2767
 5522SOL    HW128202   2.715   3.283  17.711  0.6879  1.4559 -1.2709
 5522SOL    HW228203   2.774   3.267   0.096 -1.4229 -3.6332 -1.9019
 5523SOL     OW28204   0.059   4.095  16.923 -0.2616 -0.3394  0.1429
 5523SOL    HW128205   4.709   4.063  16.903 -0.2116 -0.3661 -0.0359
 5523SOL    HW228206   0.090   4.021  16.975 -0.5319 -0.1612  0.5560
 5524SOL     OW28207   1.065   0.990   6.944 -0.3465 -0.5214 -0.1258
 5524SOL    HW128208   0.989   0.975   6.888 -0.1047 -0.9923 -0.3224
 5524SOL    HW228209   1.091   1.077   6.914  0.5465 -1.3592 -1.7756
 5525SOL     OW28210   0.427   0.846   4.161 -0.0651 -0.2072 -0.4008
 5525SOL    HW128211   0.344   0.808   4.190  0.9036 -1.1596  1.1400
 5525SOL    HW228212   0.472   0.864   4.244 -0.7382  0.8447 -0.2658
 5526SOL     OW28213   0.246   4.239   5.966  0.1616 -0.3989 -0.0074
 5526SOL    HW128214   0.166   4.246   6.019  0.6186 -0.1362  0.6399
 5526SOL    HW228215   0.214   4.276   5.883 -0.9856 -1.7214 -0.1722
 5527SOL     OW28216   0.694   1.322   8.638  0.7351 -0.8738  0.3011
 5527SOL    HW128217   0.700   1.230   8.664  0.9022 -1.0079 -0.2193
 5527SOL    HW228218   0.782   1.347   8.613  0.3745 -0.8693 -0.9747
 5528SOL     OW28219   2.828   0.727  10.256  0.3997 -0.5380 -0.0816
 5528SOL    HW128220   2.895   0.773  10.205  1.9818 -1.4138  1.1892
 5528SOL    HW228221   2.878   0.687  10.327 -0.8128 -1.2241  0.3920
 5529SOL     OW28222   1.519   0.198   8.358 -0.2006  0.2087 -0.1578
 5529SOL    HW128223   1.488   0.108   8.352 -1.6188  0.6992 -0.1336
 5529SOL    HW228224   1.474   0.246   8.288 -1.2662  0.6736  0.8542
 5530SOL     OW28225   2.527   3.305  17.589 -0.2745  0.1271  0.6002
 5530SOL    HW128226   2.542   3.280  17.498 -1.5368  0.6518  0.2548
 5530SOL    HW228227   2.447   3.255  17.604  0.6578 -1.4100  0.4320
 5531SOL     OW28228   3.371   0.122   0.146 -0.0548  0.1833 -0.2141
 5531SOL    HW128229   3.448   0.086   0.102 -0.9594  0.6472 -2.1385
 5531SOL    HW228230   3.341   0.045   0.196  0.5540  2.1273  3.1781
 5532SOL     OW28231   4.721   0.553   7.407 -0.4762 -0.3946 -0.2382
 5532SOL    HW128232   4.720   0.457   7.404 -0.5758 -0.4074  0.1296
 5532SOL    HW228233   0.024   0.567   7.322  0.3238  1.8552  0.5149
 5533SOL     OW28234   4.337   1.607   1.130 -0.4568  0.1771  0.2072
 5533SOL    HW128235   4.295   1.680   1.084  0.0595  0.5227  0.2904
 5533SOL    HW228236   4.337   1.531   1.072 -1.9981  1.8707 -1.9849
 5534SOL     OW28237   0.894   1.794  14.810 -0.0952  0.1761  0.3551
 5534SOL    HW128238   0.933   1.809  14.724 -0.0391 -0.3895  0.2791
 5534SOL    HW228239   0.912   1.880  14.848 -1.9010  0.3727  0.7657
 5535SOL     OW28240   0.860   2.506   4.280  0.4990  0.5149  0.2119
 5535SOL    HW128241   0.812   2.581   4.313 -1.7082 -0.7539 -0.1237
 5535SOL    HW228242   0.839   2.517   4.188  3.8407 -0.0571 -0.6188
 5536SOL     OW28243   1.500   0.608  15.091 -0.7463  0.7386 -0.4737
 5536SOL    HW128244   1.520   0.559  15.011  0.1875 -1.1086  0.8795
 5536SOL    HW228245   1.536   0.696  15.086  2.2769 -0.5784 -1.6878
 5537SOL     OW28246   0.488   3.232  15.471  0.5826 -0.0806 -0.6985
 5537SOL    HW128247   0.575   3.232  15.431 -0.2145 -2.7596 -2.4303
 5537SOL    HW228248   0.431   3.186  15.409 -0.3414  1.6049 -1.0910
 5538SOL     OW28249   4.253   1.168   6.801  0.0753  0.5011 -0.0256
 5538SOL    HW128250   4.290   1.121   6.876  1.8382  0.5017 -0.8958
 5538SOL    HW228251   4.168   1.197   6.832  0.2267  1.8711 -0.8606
 5539SOL     OW28252   1.694   0.995   5.600 -0.3834  0.2264 -0.0012
 5539SOL    HW128253   1.761   0.957   5.543  0.0271  0.8926  0.0349
 5539SOL    HW228254   1.700   0.938   5.677  0.1247  1.5534  0.9446
 5540SOL     OW28255   0.938   2.285   2.340 -0.3584  0.0384  0.0437
 5540SOL    HW128256   1.019   2.292   2.289  0.8813  0.9920  2.1092
 5540SOL    HW228257   0.982   2.271   2.424  0.6712  2.2197 -0.1402
 5541SOL     OW28258   3.772   2.186   8.024  0.0642  0.2140  0.0995
 5541SOL    HW128259   3.725   2.103   8.034  0.4602 -0.0352 -0.0829
 5541SOL    HW228260   3.860   2.157   7.999  0.6174 -0.0477  2.4139
 5542SOL     OW28261   4.735   4.268   7.086 -0.2858 -0.2992  0.1355
 5542SOL    HW128262   0.022   4.331   7.154  2.7509  0.3590 -1.5793
 5542SOL    HW228263   0.010   4.321   7.008 -0.9602  0.1379  0.3266
 5543SOL     OW28264   0.122   3.290   6.713 -0.2983  0.3415  0.1312
 5543SOL    HW128265   0.051   3.354   6.719  0.0826  0.8396 -0.7679
 5543SOL    HW228266   0.188   3.350   6.748 -1.4752  1.4637  0.4170
 5544SOL     OW28267   2.100   2.543   4.272  0.7103 -0.0621  0.0595
 5544SOL    HW128268   2.041   2.505   4.207 -0.0545 -0.9208  1.2461
 5544SOL    HW228269   2.043   2.611   4.308  1.3963  0.8370 -0.5767
 5545SOL     OW28270   4.019   0.992  11.926 -0.3080  0.4243 -0.0435
 5545SOL    HW128271   3.947   0.989  11.863  0.2055 -0.0054 -0.6112
 5545SOL    HW228272   4.001   1.070  11.978 -0.9871  0.0762  0.2555
 5546SOL     OW28273   3.276   3.303  10.529  0.4150  0.1445 -0.5298
 5546SOL    HW128274   3.192   3.311  10.573 -0.5931  0.2166 -2.4393
 5546SOL    HW228275   3.258   3.290  10.436  1.7159 -1.4477 -0.5627
 5547SOL     OW28276   3.269   0.557   0.553 -0.0377  0.0648  0.2295
 5547SOL    HW128277   3.346   0.567   0.609 -1.0948 -1.2732  1.9614
 5547SOL    HW228278   3.273   0.624   0.485 -1.7754  1.7207  1.7569
 5548SOL     OW28279   2.617   4.717  16.691 -0.1992 -0.2033  0.4325
 5548SOL    HW128280   2.629   4.643  16.750 -1.3620 -1.1163 -0.4690
 5548SOL    HW228281   2.602   4.680  16.603  0.2108  1.0917 -0.1792
 5549SOL     OW28282   1.402   0.010  13.606  0.0352  0.1891  0.0277
 5549SOL    HW128283   1.405   4.691  13.529  1.1600  1.2162 -0.6925
 5549SOL    HW228284   1.466   4.702  13.660  0.9648 -0.8873 -1.9595
 5550SOL     OW28285   4.442   4.496  11.120 -0.4927  0.1295 -0.3243
 5550SOL    HW128286   4.427   4.412  11.078 -0.9068  0.4028 -0.7298
 5550SOL    HW228287   4.364   4.531  11.076  0.1178  3.1738  0.9841
 5551SOL     OW28288   2.703   4.686   4.453 -0.1438  0.1285 -0.8527
 5551SOL    HW128289   2.638   0.018   4.462 -2.3290 -2.1292  1.0623
 5551SOL    HW228290   2.648   4.613   4.424 -0.5889  0.2274 -0.2592
 5552SOL     OW28291   3.735   2.707   3.110 -0.2329  0.4485  0.1334
 5552SOL    HW128292   3.645   2.675   3.119 -0.4592  1.1219  0.3024
 5552SOL    HW228293   3.775   2.658   3.181  3.5930  1.0706 -1.5767
 5553SOL     OW28294   3.906   3.894   5.549  0.0308  0.2345 -0.0330
 5553SOL    HW128295   3.883   3.965   5.488  0.1989 -0.3372 -0.7721
 5553SOL    HW228296   3.853   3.917   5.625 -1.2188 -0.9334 -0.5360
 5554SOL     OW28297   4.163   0.248   8.645 -0.2133 -0.3153 -0.1265
 5554SOL    HW128298   4.094   0.295   8.691 -1.4929 -0.5992 -1.7440
 5554SOL    HW228299   4.156   0.168   8.697  0.5032 -0.6004 -0.4644
 5555SOL     OW28300   1.130   3.139   4.333 -0.2456  0.1299  0.1513
 5555SOL    HW128301   1.132   3.083   4.410  1.5070 -2.0944 -1.5189
 5555SOL    HW228302   1.164   3.219   4.374 -0.1670 -0.1341  0.6007
 5556SOL     OW28303   4.352   4.224   4.995  0.3979  0.6520 -0.5920
 5556SOL    HW128304   4.326   4.306   5.037 -3.8907 -0.8122 -0.3332
 5556SOL    HW228305   4.287   4.168   5.038 -0.4661  2.2276  0.1443
 5557SOL     OW28306   3.955   4.315   2.772  0.1629 -0.0991  0.3057
 5557SOL    HW128307   4.010   4.250   2.729  0.2003  0.1269  0.0163
 5557SOL    HW228308   3.916   4.359   2.697 -1.2557  0.7768  1.5441
 5558SOL     OW28309   1.325   1.470   7.470  0.0412  0.2245 -0.1385
 5558SOL    HW128310   1.381   1.519   7.530 -0.6027  1.5816 -0.6485
 5558SOL    HW228311   1.258   1.441   7.532 -0.7400  2.3247 -0.0061
 5559SOL     OW28312   0.454   4.082   4.660  0.3145  0.0797 -0.4574
 5559SOL    HW128313   0.381   4.094   4.720  1.0071 -1.6155  0.7218
 5559SOL    HW228314   0.438   4.151   4.596 -0.0156  0.6877  0.2913
 5560SOL     OW28315   2.201   1.732   7.007 -0.3727 -0.0550  0.1576
 5560SOL    HW128316   2.279   1.694   6.967 -0.0798  2.1894 -1.4459
 5560SOL    HW228317   2.229   1.742   7.097 -1.3911  1.8025  0.2863
 5561SOL     OW28318   0.288   0.949   4.509 -0.1391  0.0954 -0.2001
 5561SOL    HW128319   0.289   1.012   4.437 -2.0184 -1.2993 -1.4824
 5561SOL    HW228320   0.285   0.863   4.467 -4.2772  0.5706 -0.8308
 5562SOL     OW28321   3.790   4.225   6.896 -0.3695 -0.1879 -0.7446
 5562SOL    HW128322   3.841   4.298   6.931  0.8309 -1.4700  0.1358
 5562SOL    HW228323   3.832   4.160   6.951 -2.2969 -1.6828 -1.0480
 5563SOL     OW28324   0.682   4.141   4.885  0.4259  0.2352 -0.1900
 5563SOL    HW128325   0.742   4.212   4.909 -0.3446  0.3868  1.2723
 5563SOL    HW228326   0.601   4.191   4.883  1.0981  1.2980 -1.2414
 5564SOL     OW28327   3.478   0.591   2.418 -0.2900  0.6329 -0.4362
 5564SOL    HW128328   3.533   0.656   2.461  0.7541  0.1434 -1.0578
 5564SOL    HW228329   3.403   0.593   2.478  1.2336 -0.8230  1.5494
 5565SOL     OW28330   0.956   0.243   8.149 -0.0246  0.0970 -0.9550
 5565SOL    HW128331   0.984   0.223   8.239  1.2594 -2.9280 -2.0214
 5565SOL    HW228332   1.027   0.305   8.134 -0.1793  0.4776 -0.1293
 5566SOL     OW28333   2.745   3.544   2.566  0.0434  0.0213  0.1348
 5566SOL    HW128334   2.777   3.592   2.643 -0.1154  1.5695 -0.7520
 5566SOL    HW228335   2.800   3.579   2.496 -0.7771  3.2607  1.0769
 5567SOL     OW28336   3.077   3.011  10.553  0.2058  0.5420 -0.0739
 5567SOL    HW128337   3.082   3.069  10.477  2.5513  0.4680  0.0332
 5567SOL    HW228338   3.089   3.074  10.624  1.8513  2.0765 -1.7070
 5568SOL     OW28339   3.250   4.681   0.382 -0.4983  0.6132 -0.2652
 5568SOL    HW128340   3.195   4.725   0.447 -1.6617 -3.1322  1.2791
 5568SOL    HW228341   3.225   4.590   0.401 -2.9217  0.8758 -2.1746
 5569SOL     OW28342   0.370   1.526   2.862 -0.0540  0.1629 -0.1051
 5569SOL    HW128343   0.285   1.513   2.820 -0.6343  1.7969  0.5864
 5569SOL    HW228344   0.354   1.606   2.911 -0.4706 -0.5234  0.8967
 5570SOL     OW28345   2.231   3.575   1.870 -0.0329  0.4367  0.1001
 5570SOL    HW128346   2.175   3.590   1.946 -0.9693  1.4038 -0.7711
 5570SOL    HW228347   2.309   3.602   1.919 -1.2869  2.3249  1.0690
 5571SOL     OW28348   1.907   2.545  11.769 -0.0974 -0.3409  0.4241
 5571SOL    HW128349   2.002   2.534  11.768 -0.1743 -1.0131  0.4622
 5571SOL    HW228350   1.891   2.564  11.677  0.0122  0.4009  0.5536
 5572SOL     OW28351   0.599   1.468  10.003 -0.4672  0.1767 -0.0864
 5572SOL    HW128352   0.668   1.533   9.992  0.8943 -1.2653 -0.1113
 5572SOL    HW228353   0.643   1.401   9.951 -1.7279 -1.9952  1.6449
 5573SOL     OW28354   3.453   1.043  10.687  0.4739 -0.0724  0.2209
 5573SOL    HW128355   3.451   0.976  10.755  0.3617  1.0895  1.3506
 5573SOL    HW228356   3.404   0.985  10.628  2.0783 -1.7514  0.5385
 5574SOL     OW28357   4.051   0.075  11.690 -0.2973 -0.5857 -0.3675
 5574SOL    HW128358   4.140   0.048  11.667  0.8252  1.2552  1.7499
 5574SOL    HW228359   4.007   0.048  11.610  0.4906 -1.0730 -0.6350
 5575SOL     OW28360   0.099   0.201  17.119  0.5131 -0.1584 -0.1522
 5575SOL    HW128361   0.149   0.190  17.039 -1.6616  0.9813 -1.6560
 5575SOL    HW228362   0.025   0.244  17.077  0.4976  1.0836  1.1205
 5576SOL     OW28363   2.627   4.190   6.051 -0.6275 -0.1536  0.0698
 5576SOL    HW128364   2.630   4.101   6.084  0.6675  0.2785  1.1416
 5576SOL    HW228365   2.666   4.180   5.964  2.5670 -2.6345  1.7917
 5577SOL     OW28366   2.096   0.995   3.788 -0.0163  0.1803 -0.4054
 5577SOL    HW128367   2.185   1.000   3.823  0.9091  0.4974 -2.8381
 5577SOL    HW228368   2.089   0.900   3.783 -0.5165  0.1817  0.1723
 5578SOL     OW28369   2.810   2.409   3.309  0.0461  0.0733 -0.5916
 5578SOL    HW128370   2.898   2.446   3.314 -0.2422  0.5873  0.6607
 5578SOL    HW228371   2.833   2.317   3.297  0.7888  0.2949 -0.8876
 5579SOL     OW28372   2.030   1.269  10.810 -0.3040  0.2868 -0.3923
 5579SOL    HW128373   1.954   1.221  10.778 -0.6052  0.8016 -0.4502
 5579SOL    HW228374   1.990   1.348  10.848 -1.0148  0.0569 -0.6706
 5580SOL     OW28375   3.763   1.009   4.963 -0.3538  0.5652  0.2046
 5580SOL    HW128376   3.746   1.058   5.044  0.2210 -0.6915  1.0883
 5580SOL    HW228377   3.848   1.042   4.933  0.7162 -2.9503 -0.5982
 5581SOL     OW28378   1.006   2.236   4.726 -0.1887  0.1119 -0.2918
 5581SOL    HW128379   0.970   2.148   4.713  2.7926 -0.9903 -0.9624
 5581SOL    HW228380   1.000   2.266   4.635  1.1985 -0.6396 -0.6259
 5582SOL     OW28381   1.099   3.702   7.005  0.0447  0.1299 -0.0147
 5582SOL    HW128382   1.172   3.736   6.952  1.0796  0.8608  1.8606
 5582SOL    HW228383   1.095   3.775   7.067 -0.9655  1.4705 -1.6508
 5583SOL     OW28384   4.421   0.134  10.088  0.2591 -0.1693  0.1230
 5583SOL    HW128385   4.481   0.160  10.157 -1.0697  2.0428  0.4625
 5583SOL    HW228386   4.461   0.143  10.001  1.2704 -0.0873  0.6004
 5584SOL     OW28387   2.360   4.648   5.324 -0.1975  0.6184  0.2263
 5584SOL    HW128388   2.340   4.676   5.413  0.7300  1.2706  0.2233
 5584SOL    HW228389   2.285   4.681   5.274  0.6551 -1.3899 -2.4276
 5585SOL     OW28390   4.238   0.403   5.005 -0.0957 -0.5462 -0.0024
 5585SOL    HW128391   4.306   0.340   5.028  0.1782  0.4003  1.7246
 5585SOL    HW228392   4.159   0.353   5.021 -0.8815  0.0546 -1.9199
 5586SOL     OW28393   1.276   3.100   8.890 -0.2979 -0.0932 -0.0478
 5586SOL    HW128394   1.204   3.093   8.952  0.7269 -2.1801  0.9042
 5586SOL    HW228395   1.272   3.019   8.839 -1.3079  1.3756 -2.3151
 5587SOL     OW28396   0.978   2.084   1.496 -0.3412 -0.2320  0.6567
 5587SOL    HW128397   1.067   2.087   1.459 -0.2183 -1.1931  0.8571
 5587SOL    HW228398   0.969   2.179   1.490 -0.2753 -0.3555 -1.4083
 5588SOL     OW28399   3.630   1.477   9.704 -0.3949 -1.0324 -0.2357
 5588SOL    HW128400   3.701   1.514   9.652 -2.1818  1.0971 -1.1647
 5588SOL    HW228401   3.678   1.471   9.786  2.9773  2.5260 -1.9565
 5589SOL     OW28402   0.770   1.803   4.031 -0.1364 -0.7537  0.1647
 5589SOL    HW128403   0.708   1.756   4.087 -2.3929  0.3057 -1.4664
 5589SOL    HW228404   0.809   1.874   4.082 -2.1643  0.7872 -0.4360
 5590SOL     OW28405   3.333   3.326  12.119  0.0288 -0.0040  0.2943
 5590SOL    HW128406   3.275   3.318  12.195  2.3887 -1.0221  2.0002
 5590SOL    HW228407   3.419   3.318  12.161  0.0004  1.2545  0.5949
 5591SOL     OW28408   4.223   0.994   3.547  0.3015 -0.2789  0.3484
 5591SOL    HW128409   4.255   0.943   3.621  1.8758  0.7434  0.3668
 5591SOL    HW228410   4.129   0.987   3.567  0.5683  1.1132  2.1205
 5592SOL     OW28411   2.444   4.018   0.678 -0.2042 -0.1049 -0.0055
 5592SOL    HW128412   2.447   4.004   0.583 -0.5953  0.3911 -0.0915
 5592SOL    HW228413   2.499   3.945   0.707  0.4473 -0.1238 -1.2391
 5593SOL     OW28414   4.013   1.366   3.673 -0.1107  0.0626  0.2074
 5593SOL    HW128415   4.077   1.410   3.617 -0.8595  2.0341  0.9086
 5593SOL    HW228416   3.996   1.290   3.617  0.5714  0.0739 -0.0126
 5594SOL     OW28417   4.371   2.083   5.770 -0.2582 -0.1376  0.1589
 5594SOL    HW128418   4.417   2.159   5.804 -1.2004  1.4743 -2.1872
 5594SOL    HW228419   4.439   2.017   5.783 -0.6586 -0.4782  0.5416
 5595SOL     OW28420   0.543   4.409   1.948 -0.7897  0.4390 -0.0009
 5595SOL    HW128421   0.460   4.420   1.901 -0.6666 -0.2702 -0.3828
 5595SOL    HW228422   0.564   4.317   1.932 -0.1898  0.2120  2.0752
 5596SOL     OW28423   0.509   0.233   5.725 -0.2098 -0.2160 -0.3001
 5596SOL    HW128424   0.478   0.175   5.795 -0.5315  0.9977  0.5622
 5596SOL    HW228425   0.555   0.166   5.674 -1.4121 -0.8067 -0.6279
 5597SOL     OW28426   3.629   3.301   6.769 -0.2424  0.1360 -0.2778
 5597SOL    HW128427   3.697   3.318   6.834  0.6186 -3.5933 -0.2297
 5597SOL    HW228428   3.597   3.216   6.798  0.5219 -0.6706 -1.7643
 5598SOL     OW28429   0.449   1.920   9.703  0.3250 -0.2915 -0.0541
 5598SOL    HW128430   0.361   1.933   9.669  0.8324  1.5890 -0.6493
 5598SOL    HW228431   0.426   1.880   9.787 -1.8252 -0.2297 -0.6248
 5599SOL     OW28432   3.522   0.393   2.646  0.2245 -0.7746  0.2266
 5599SOL    HW128433   3.572   0.460   2.598  0.2736 -0.3962  0.8088
 5599SOL    HW228434   3.460   0.362   2.580  0.6906 -0.3815 -0.4007
 5600SOL     OW28435   1.960   4.653   3.343  0.3132 -0.2673  0.2074
 5600SOL    HW128436   1.931   4.710   3.414 -3.0903  0.6917 -1.9875
 5600SOL    HW228437   1.882   4.659   3.288  0.1030 -0.1860  0.5141
 5601SOL     OW28438   0.775   3.884   8.302  0.4021 -0.3139 -0.4591
 5601SOL    HW128439   0.769   3.958   8.241 -0.9007 -1.4531 -1.7210
 5601SOL    HW228440   0.744   3.925   8.382  2.4916  1.2051 -0.4054
 5602SOL     OW28441   2.571   0.969   8.757 -0.3400 -0.7719 -0.3655
 5602SOL    HW128442   2.626   1.026   8.811  2.7956 -2.9831 -1.2626
 5602SOL    HW228443   2.604   0.885   8.787  0.9328 -1.1416 -2.8326
 5603SOL     OW28444   0.442   2.369   1.319 -0.1100 -0.2939 -0.0870
 5603SOL    HW128445   0.366   2.425   1.335  0.5536  0.3220  0.9422
 5603SOL    HW228446   0.397   2.290   1.289 -1.1805  0.2895 -0.0317
 5604SOL     OW28447   1.528   3.246   8.064  0.3905 -0.0908  0.0431
 5604SOL    HW128448   1.515   3.177   8.128  0.1473 -0.8659 -0.8469
 5604SOL    HW228449   1.622   3.253   8.047 -0.2525  0.2544 -3.3950
 5605SOL     OW28450   0.763   4.095   7.568 -0.6341  0.3438  0.0570
 5605SOL    HW128451   0.749   4.189   7.578  0.9500  0.3533  2.2289
 5605SOL    HW228452   0.799   4.070   7.654 -1.7489  0.2722  0.4962
 5606SOL     OW28453   0.068   0.293   4.983 -0.0915 -0.2270 -0.0075
 5606SOL    HW128454   0.050   0.211   4.936  0.9061  0.6396 -1.8977
 5606SOL    HW228455   4.730   0.348   4.965 -0.7508 -0.8426  0.9171
 5607SOL     OW28456   2.732   0.715   8.749 -0.6061  0.1632 -0.0048
 5607SOL    HW128457   2.791   0.747   8.680  0.7729 -0.4184  0.9174
 5607SOL    HW228458   2.793   0.655   8.793  0.0414  0.5928 -0.3264
 5608SOL     OW28459   3.289   2.070   1.216  0.1225  0.2892 -0.2226
 5608SOL    HW128460   3.383   2.084   1.202  0.2964 -0.3600  0.2635
 5608SOL    HW228461   3.278   1.978   1.241 -1.1102  0.0207 -1.7466
 5609SOL     OW28462   0.498   2.503   6.415 -0.1673  0.3988  0.6086
 5609SOL    HW128463   0.552   2.491   6.493 -0.3584 -2.5089  0.2748
 5609SOL    HW228464   0.409   2.483   6.444  0.3697  0.1392  2.0327
 5610SOL     OW28465   0.409   1.894   4.252  0.1541 -0.2458 -0.1216
 5610SOL    HW128466   0.402   1.986   4.279  1.6796 -0.5270  1.2551
 5610SOL    HW228467   0.342   1.852   4.307 -1.3164  1.7870 -0.3484
 5611SOL     OW28468   1.207   1.863   3.188 -0.9260 -0.1589 -0.3628
 5611SOL    HW128469   1.212   1.939   3.130 -0.6842  0.6009  0.6529
 5611SOL    HW228470   1.295   1.865   3.225 -1.1616  1.8118  0.1083
 5612SOL     OW28471   0.626   1.052   7.024 -0.2731 -0.4681 -0.3566
 5612SOL    HW128472   0.686   1.002   7.079 -0.4783 -1.3129 -0.8987
 5612SOL    HW228473   0.637   1.144   7.051 -1.0747 -0.6858  0.6996
 5613SOL     OW28474   1.033   4.588  11.529  0.0716 -0.5620 -0.2509
 5613SOL    HW128475   1.002   4.664  11.579  0.2929  0.2117 -1.2729
 5613SOL    HW228476   1.124   4.579  11.558  0.1621 -0.8034 -0.6121
 5614SOL     OW28477   1.996   2.003   7.607  0.0191 -0.0645  0.1591
 5614SOL    HW128478   1.931   2.032   7.543 -0.2796  0.0070  0.4977
 5614SOL    HW228479   2.034   2.089   7.628  0.2456 -0.8095  2.7365
 5615SOL     OW28480   2.069   2.694  14.462  0.3429 -0.1556  0.1334
 5615SOL    HW128481   2.022   2.755  14.518 -0.0123  0.6616 -1.0563
 5615SOL    HW228482   2.067   2.744  14.380  2.7940  0.2975  0.3757
 5616SOL     OW28483   2.064   4.110   8.946 -0.1039 -0.4212 -0.2519
 5616SOL    HW128484   2.108   4.058   9.013  0.3666  1.8107  1.1888
 5616SOL    HW228485   2.106   4.195   8.958  0.4372 -0.6226 -0.7054
 5617SOL     OW28486   2.147   3.936   6.634 -0.5989 -0.3995  0.6605
 5617SOL    HW128487   2.136   3.844   6.655 -2.6580 -0.0926  0.8585
 5617SOL    HW228488   2.062   3.963   6.601 -0.2479 -0.4190 -0.2639
 5618SOL     OW28489   2.996   3.801   7.487 -0.1299  0.4471 -0.5798
 5618SOL    HW128490   2.955   3.840   7.410  0.9156  1.4840 -0.6081
 5618SOL    HW228491   3.080   3.780   7.446 -0.1314  3.3852 -2.0803
 5619SOL     OW28492   0.119   2.975   3.897  0.1735  0.2666  0.3296
 5619SOL    HW128493   0.045   2.967   3.957  0.2502 -2.3007  0.1146
 5619SOL    HW228494   0.188   2.956   3.961  1.0349  0.8350 -0.4270
 5620SOL     OW28495   3.904   3.419   8.723  0.3768  0.0362 -0.2463
 5620SOL    HW128496   3.837   3.444   8.659  1.6819  0.5884 -1.4017
 5620SOL    HW228497   3.977   3.475   8.696  0.3935 -0.5558 -1.4208
 5621SOL     OW28498   2.931   4.118   2.161  0.1604 -0.1380 -0.5098
 5621SOL    HW128499   2.897   4.208   2.159 -1.5569 -0.7525  1.3266
 5621SOL    HW228500   2.922   4.111   2.066  4.2211 -2.0731 -0.7724
 5622SOL     OW28501   1.803   3.183   4.594 -0.2567  0.2375  0.1144
 5622SOL    HW128502   1.864   3.251   4.565 -1.1582  0.3688 -1.4609
 5622SOL    HW228503   1.778   3.148   4.509  0.4923 -1.2830  0.5157
 5623SOL     OW28504   3.130   2.272   7.608  0.1565 -0.3567 -0.4259
 5623SOL    HW128505   3.213   2.307   7.577  1.2676 -1.0462  1.7547
 5623SOL    HW228506   3.157   2.181   7.625  1.1254 -0.2915 -1.6371
 5624SOL     OW28507   4.258   4.269   2.386  0.0422  0.1760  0.3573
 5624SOL    HW128508   4.295   4.278   2.299 -2.5770 -0.1384 -0.7895
 5624SOL    HW228509   4.264   4.359   2.418 -1.5115  0.1038  0.8659
 5625SOL     OW28510   0.853   0.422   3.108  0.1240  0.4224  0.1790
 5625SOL    HW128511   0.816   0.334   3.100  1.3713 -0.2057  1.3928
 5625SOL    HW228512   0.816   0.463   3.030  1.9800  1.4867 -0.1274
 5626SOL     OW28513   2.344   4.242   5.231 -0.4108  0.1571  0.2345
 5626SOL    HW128514   2.436   4.269   5.233  0.0495 -1.5834  2.0594
 5626SOL    HW228515   2.322   4.230   5.324  2.7423 -0.3284  0.9109
 5627SOL     OW28516   4.382   4.302   6.044 -0.6437  0.3982  0.2806
 5627SOL    HW128517   4.315   4.336   5.985 -1.2740 -0.2681  0.6164
 5627SOL    HW228518   4.327   4.280   6.119  0.4678 -2.8838  0.1225
 5628SOL     OW28519   1.192   3.661  17.408  0.5640  0.0979  0.0977
 5628SOL    HW128520   1.137   3.647  17.332 -0.9916  0.6173  1.1285
 5628SOL    HW228521   1.143   3.732  17.450 -1.0488 -0.9740  0.0149
 5629SOL     OW28522   2.167   1.489  10.286  0.4046 -0.3193 -0.0300
 5629SOL    HW128523   2.232   1.532  10.341 -0.1946  2.8184 -1.7483
 5629SOL    HW228524   2.211   1.404  10.281 -2.2020 -1.5804 -1.2335
 5630SOL     OW28525   1.353   4.134   6.509  0.2225  0.1588  0.2362
 5630SOL    HW128526   1.407   4.204   6.544  0.9952 -0.8672  1.0675
 5630SOL    HW228527   1.347   4.151   6.415  1.7020  0.2588  0.1580
 5631SOL     OW28528   3.657   1.848   7.801  0.0474 -0.0388  0.1586
 5631SOL    HW128529   3.720   1.813   7.865 -1.0644  0.0346  1.2854
 5631SOL    HW228530   3.595   1.775   7.803 -0.2858  0.2350 -0.2716
 5632SOL     OW28531   3.362   0.882   5.128  0.5473 -0.2842  0.2800
 5632SOL    HW128532   3.432   0.912   5.069  1.0945  0.1410  1.1574
 5632SOL    HW228533   3.348   0.798   5.084 -0.5496  0.1777 -0.2822
 5633SOL     OW28534   3.870   2.512   0.353  0.2453  0.0576 -0.4027
 5633SOL    HW128535   3.881   2.521   0.447 -0.7332  3.3580 -0.5899
 5633SOL    HW228536   3.958   2.545   0.333 -0.2122  1.1854 -0.5881
 5634SOL     OW28537   1.482   0.454   6.532 -0.0290 -0.0800  0.1022
 5634SOL    HW128538   1.394   0.446   6.494 -0.7418 -0.7780  1.9236
 5634SOL    HW228539   1.505   0.541   6.499 -0.7040  0.0470 -0.0335
 5635SOL     OW28540   2.954   2.886   6.010  0.0281 -0.5191 -0.0368
 5635SOL    HW128541   2.902   2.954   6.054  1.1212  0.4478 -0.2430
 5635SOL    HW228542   2.939   2.816   6.074 -0.9860 -0.2007  0.0790
 5636SOL     OW28543   2.088   0.616   2.107  0.4097  0.5109 -0.3775
 5636SOL    HW128544   2.003   0.599   2.149  0.4768  0.3586 -0.3020
 5636SOL    HW228545   2.078   0.707   2.079 -1.0465  0.5201  0.1794
 5637SOL     OW28546   3.168   0.261   7.123  0.1568 -0.4121  0.2649
 5637SOL    HW128547   3.091   0.290   7.172 -0.9231 -2.6200 -0.1383
 5637SOL    HW228548   3.140   0.272   7.032 -2.1301 -0.9595  0.8924
 5638SOL     OW28549   4.574   4.627   1.807  0.0693 -0.4571  0.4178
 5638SOL    HW128550   4.515   4.639   1.733  3.1572  0.9692 -1.7702
 5638SOL    HW228551   4.578   4.532   1.817 -1.2341 -0.6402 -0.7218
 5639SOL     OW28552   3.589   0.195  17.491 -0.2370 -0.0360 -0.5176
 5639SOL    HW128553   3.612   0.146  17.412  0.5225 -0.1835 -0.2094
 5639SOL    HW228554   3.563   0.275  17.445  0.9101 -0.1325 -1.3368
 5640SOL     OW28555   3.911   0.179   8.048 -0.5328 -0.0958  0.2735
 5640SOL    HW128556   3.976   0.167   7.979 -1.4843  0.5008 -0.7241
 5640SOL    HW228557   3.832   0.140   8.011 -0.2986 -0.9996  0.7025
 5641SOL     OW28558   3.837   1.793   1.639  0.4227  0.0280 -0.4663
 5641SOL    HW128559   3.817   1.743   1.560 -1.5477 -0.6075  0.4280
 5641SOL    HW228560   3.832   1.723   1.705  0.0145  1.5499  1.1155
 5642SOL     OW28561   0.777   0.716   6.210  0.5896 -0.1315  0.1507
 5642SOL    HW128562   0.870   0.704   6.187  0.7020  1.7086 -0.3620
 5642SOL    HW228563   0.751   0.778   6.142  1.4621  1.1807  1.0074
 5643SOL     OW28564   0.182   1.232  12.585  0.1412  0.1657  0.1215
 5643SOL    HW128565   0.265   1.275  12.601 -0.5905  1.9376 -0.8631
 5643SOL    HW228566   0.187   1.212  12.491  0.9574  0.5535  0.0848
 5644SOL     OW28567   3.006   3.287  10.626 -0.0427  0.1753  0.4758
 5644SOL    HW128568   3.010   3.377  10.593 -2.0898 -0.1863 -0.7615
 5644SOL    HW228569   3.056   3.295  10.708 -1.1519 -5.0745  1.6593
 5645SOL     OW28570   1.627   4.694   2.938  0.5547 -0.5523  0.6522
 5645SOL    HW128571   1.623   0.049   2.957  2.6104 -0.2806 -0.2390
 5645SOL    HW228572   1.710   4.669   2.979  1.2409 -0.7913 -0.8773
 5646SOL     OW28573   1.201   4.566   4.082  0.0269  0.5245  0.6819
 5646SOL    HW128574   1.185   4.644   4.136 -0.4294  1.3843 -0.6760
 5646SOL    HW228575   1.147   4.515   4.141 -1.5373  0.8111 -0.4825
 5647SOL     OW28576   2.924   0.753  13.247 -0.0989  0.0499 -0.2440
 5647SOL    HW128577   2.850   0.810  13.267  0.7215  1.6888 -1.7953
 5647SOL    HW228578   2.987   0.779  13.314  0.8455 -1.5532 -0.5059
 5648SOL     OW28579   1.597   1.482  13.432  0.5090  0.3078 -0.3200
 5648SOL    HW128580   1.670   1.459  13.375 -0.4016 -0.1530 -1.2971
 5648SOL    HW228581   1.619   1.424  13.505  2.1686 -0.6683 -1.5952
 5649SOL     OW28582   3.579   2.826   4.243  0.4778 -0.1798  0.1315
 5649SOL    HW128583   3.520   2.874   4.301  1.3082  0.1719  0.6990
 5649SOL    HW228584   3.616   2.759   4.300  0.0331 -0.4708  0.0717
 5650SOL     OW28585   4.601   3.923   0.417 -0.0243  0.1435  0.3595
 5650SOL    HW128586   4.678   3.962   0.460  1.6517 -2.8528  0.0613
 5650SOL    HW228587   4.625   3.837   0.382  1.3022  0.3255  0.7908
 5651SOL     OW28588   0.898   4.173   3.376 -0.5862  0.0778 -0.6334
 5651SOL    HW128589   0.846   4.221   3.439 -1.1959 -0.3843 -0.7829
 5651SOL    HW228590   0.918   4.248   3.320  0.9859 -0.3672 -0.6831
 5652SOL     OW28591   4.124   4.289   6.649  0.1946  0.7723 -0.5405
 5652SOL    HW128592   4.207   4.304   6.603  0.3862 -0.0398 -0.4547
 5652SOL    HW228593   4.133   4.200   6.682 -0.9712  0.9413  0.2373
 5653SOL     OW28594   0.704   4.274   1.461  0.1374 -0.2417 -0.1525
 5653SOL    HW128595   0.733   4.320   1.381  1.4630 -0.0413  0.4403
 5653SOL    HW228596   0.785   4.229   1.485 -1.5853 -2.7837  0.8380
 5654SOL     OW28597   3.488   3.015   0.423  0.1942 -0.4848 -0.2645
 5654SOL    HW128598   3.394   3.000   0.414 -0.8357  6.5743 -1.4615
 5654SOL    HW228599   3.499   3.081   0.355 -2.5574  0.2041 -0.0356
 5655SOL     OW28600   0.874   1.123   5.052 -0.5240  0.1818 -0.0196
 5655SOL    HW128601   0.924   1.193   5.094 -1.8054  1.5804 -0.8405
 5655SOL    HW228602   0.793   1.130   5.103 -1.4185 -0.8596 -1.2924
 5656SOL     OW28603   0.333   2.588  17.380  0.2202  0.2218  0.0721
 5656SOL    HW128604   0.339   2.682  17.360  2.0704  0.0665 -0.0944
 5656SOL    HW228605   0.322   2.587  17.475  1.1644  0.3930  0.1819
 5657SOL     OW28606   0.138   2.178   5.636  0.2548  0.2099 -0.6058
 5657SOL    HW128607   0.048   2.149   5.616  0.1403 -1.4884  2.3925
 5657SOL    HW228608   0.149   2.177   5.731  0.1897 -0.8202 -0.5999
 5658SOL     OW28609   0.894   4.643   8.524  0.8261 -0.2123 -0.5616
 5658SOL    HW128610   0.842   4.692   8.587 -1.6896 -0.8691 -2.1167
 5658SOL    HW228611   0.960   4.707   8.500 -0.5366  0.9217 -1.3340
 5659SOL     OW28612   2.936   2.575   3.916  0.0623  0.9148 -0.1422
 5659SOL    HW128613   2.908   2.486   3.937 -2.2123  1.6464 -0.0926
 5659SOL    HW228614   2.915   2.574   3.823 -2.0217  1.7154  0.3239
 5660SOL     OW28615   1.563   4.029  12.107  0.3238  0.2318 -0.3386
 5660SOL    HW128616   1.541   4.064  12.021 -2.3103 -0.9789 -0.1443
 5660SOL    HW228617   1.593   3.942  12.082  0.4711 -0.0189  0.7262
 5661SOL     OW28618   2.793   3.411   3.593 -0.7565 -0.1061 -0.1608
 5661SOL    HW128619   2.878   3.417   3.637 -0.6059  0.4835 -0.5380
 5661SOL    HW228620   2.778   3.320   3.565 -1.2660 -0.2040  0.4321
 5662SOL     OW28621   3.135   0.487  13.223  0.7591 -1.1127  0.0420
 5662SOL    HW128622   3.145   0.553  13.154 -1.1072  1.2685  2.0698
 5662SOL    HW228623   3.048   0.516  13.252 -0.0333 -2.3437 -1.0766
 5663SOL     OW28624   1.682   0.313   4.423 -0.4642 -0.1902  0.1444
 5663SOL    HW128625   1.692   0.267   4.507 -0.6367  0.1314  0.3430
 5663SOL    HW228626   1.772   0.343   4.414 -1.4154  2.3266 -0.9441
 5664SOL     OW28627   4.574   2.456   4.468 -0.4629  0.2735 -0.3883
 5664SOL    HW128628   4.612   2.399   4.535 -0.5281  0.0520 -0.5375
 5664SOL    HW228629   4.612   2.422   4.386 -2.4874  0.3438 -1.3585
 5665SOL     OW28630   1.381   0.965  13.606  0.0012 -0.1042 -0.2525
 5665SOL    HW128631   1.414   0.889  13.653  1.5050  0.6711 -0.0572
 5665SOL    HW228632   1.287   0.970  13.627  0.0663  1.0178 -0.2082
 5666SOL     OW28633   1.328   4.235   0.150  0.0508 -0.1170 -0.7527
 5666SOL    HW128634   1.235   4.225   0.130  0.0016 -1.3080  0.0503
 5666SOL    HW228635   1.333   4.193   0.236 -0.0883  2.0163  0.2967
 5667SOL     OW28636   1.837   0.838   9.328 -0.3870 -0.9715  0.3115
 5667SOL    HW128637   1.884   0.802   9.253  0.5474  1.9454 -0.5002
 5667SOL    HW228638   1.910   0.887   9.364 -1.5356 -0.4687  1.9238
 5668SOL     OW28639   0.931   4.601  12.854  0.0651  0.8441  0.5589
 5668SOL    HW128640   0.979   4.524  12.885 -1.5776 -0.8865 -1.2011
 5668SOL    HW228641   0.844   4.562  12.850  0.7359 -0.4558 -1.4697
 5669SOL     OW28642   3.470   0.114  15.908  0.1828  0.2982 -0.3026
 5669SOL    HW128643   3.393   0.120  15.965 -1.1858 -0.7627 -2.0389
 5669SOL    HW228644   3.534   0.153  15.968 -0.6624  1.5703 -0.2359
 5670SOL     OW28645   2.228   3.006   6.235  0.2618  0.3471 -0.0159
 5670SOL    HW128646   2.176   3.066   6.290  0.9697  0.5157  0.4655
 5670SOL    HW228647   2.216   2.922   6.278  2.8296 -0.3533 -0.6712
 5671SOL     OW28648   3.391   2.622   4.897  0.4333 -0.3948  0.6490
 5671SOL    HW128649   3.305   2.657   4.920 -0.1052  0.2685 -2.4352
 5671SOL    HW228650   3.448   2.663   4.962 -1.3222  0.2939  1.7656
 5672SOL     OW28651   3.840   2.159   1.307 -0.0296  0.0759 -0.1686
 5672SOL    HW128652   3.793   2.163   1.391  0.4019 -1.4852  0.1505
 5672SOL    HW228653   3.920   2.200   1.340 -0.4883  0.6667  0.2046
 5673SOL     OW28654   2.580   1.577   3.819  0.0535  0.2462  0.2283
 5673SOL    HW128655   2.541   1.521   3.752  0.3098 -2.3889  2.2543
 5673SOL    HW228656   2.634   1.510   3.861 -1.1468 -1.1996 -0.5392
 5674SOL     OW28657   3.291   1.045   5.418 -0.0965 -0.0937 -0.2957
 5674SOL    HW128658   3.348   1.066   5.344  2.5134 -2.1749  1.1521
 5674SOL    HW228659   3.358   1.072   5.480  0.1811 -2.0789  0.2764
 5675SOL     OW28660   1.321   2.035   5.636  0.5656  0.2701 -0.1691
 5675SOL    HW128661   1.404   2.007   5.597  0.0403 -0.7006 -0.5931
 5675SOL    HW228662   1.303   1.960   5.693 -0.6185  0.2698 -0.5430
 5676SOL     OW28663   2.082   0.017  13.076 -0.3789 -0.0323 -0.5498
 5676SOL    HW128664   2.155   0.030  13.137 -1.1249  0.6981  0.2008
 5676SOL    HW228665   2.129   0.016  12.993  0.9008  0.1521  0.1724
 5677SOL     OW28666   2.060   1.646   2.077 -0.5350  0.8223 -0.0623
 5677SOL    HW128667   1.976   1.613   2.045  0.0364  0.3397 -1.0469
 5677SOL    HW228668   2.091   1.704   2.008  1.3638  0.5376  0.5383
 5678SOL     OW28669   1.479   4.182   0.873 -0.0467 -0.1926  0.3176
 5678SOL    HW128670   1.497   4.225   0.957  0.7617 -1.0953  0.6036
 5678SOL    HW228671   1.510   4.093   0.892 -1.9171 -0.8749  0.2222
 5679SOL     OW28672   1.736   1.789   8.188 -0.2296 -0.3648  0.0861
 5679SOL    HW128673   1.718   1.706   8.232 -0.2591 -0.0914  0.5845
 5679SOL    HW228674   1.660   1.844   8.207 -0.6596 -0.3952 -1.4946
 5680SOL     OW28675   2.999   2.736   2.784 -0.2536  0.0424  0.3231
 5680SOL    HW128676   2.911   2.731   2.823 -0.5823  0.9567 -0.2901
 5680SOL    HW228677   3.004   2.829   2.761  0.9058  0.1566  1.0675
 5681SOL     OW28678   4.312   3.084   5.189 -0.1428 -0.3204  0.2807
 5681SOL    HW128679   4.225   3.065   5.153 -0.4949  2.4677 -0.2960
 5681SOL    HW228680   4.283   3.114   5.275  0.1250 -1.2552  0.7003
 5682SOL     OW28681   1.472   3.115   4.513  0.2359 -0.1844  0.3203
 5682SOL    HW128682   1.378   3.124   4.525 -0.0420 -0.7605 -1.3851
 5682SOL    HW228683   1.501   3.206   4.519 -0.4069 -0.1233  2.4021
 5683SOL     OW28684   4.090   1.673  13.324 -0.3724 -0.0223  0.3861
 5683SOL    HW128685   4.083   1.760  13.285  1.8098 -0.7382 -1.5775
 5683SOL    HW228686   4.093   1.689  13.418  1.7427  1.5940  0.0301
 5684SOL     OW28687   1.122   3.192   0.614 -0.4583 -0.6435  0.4064
 5684SOL    HW128688   1.124   3.153   0.527 -2.3624  1.9709 -0.8053
 5684SOL    HW228689   1.171   3.121   0.655  1.1260  0.9868  1.3424
 5685SOL     OW28690   2.416   3.571  13.237  0.3515 -0.0114  0.0378
 5685SOL    HW128691   2.463   3.653  13.251 -1.5620  0.9270  1.0456
 5685SOL    HW228692   2.327   3.602  13.255 -0.0771 -0.8250 -0.6760
 5686SOL     OW28693   0.660   2.646   1.316 -0.3259 -0.2310  0.2306
 5686SOL    HW128694   0.608   2.665   1.238 -0.2180 -1.0906 -0.0511
 5686SOL    HW228695   0.735   2.705   1.304  0.5236 -1.5941 -1.2586
 5687SOL     OW28696   0.006   2.533  10.645  0.5579  0.2817 -0.1585
 5687SOL    HW128697   0.091   2.578  10.643  0.5319  0.2610 -1.5900
 5687SOL    HW228698   0.046   2.446  10.638 -0.8784 -0.2891 -1.1514
 5688SOL     OW28699   2.974   3.347   7.847 -0.2052 -0.2114 -0.1180
 5688SOL    HW128700   2.961   3.442   7.847 -2.6622 -0.5365  1.6773
 5688SOL    HW228701   2.888   3.311   7.825  0.2168 -1.5983  0.4870
 5689SOL     OW28702   4.161   2.318   3.427 -0.1820 -0.4321 -0.4669
 5689SOL    HW128703   4.086   2.347   3.479 -0.8407  0.0088 -1.6547
 5689SOL    HW228704   4.169   2.224   3.441  0.6922 -0.1202  1.1996
 5690SOL     OW28705   1.915   1.844   2.519  0.0383 -0.4490 -0.2175
 5690SOL    HW128706   1.990   1.804   2.562  0.7170 -1.6692 -2.5302
 5690SOL    HW228707   1.910   1.794   2.437  0.6759  1.9016 -1.7006
 5691SOL     OW28708   0.358   4.736   4.565  0.2037 -0.2049  0.2992
 5691SOL    HW128709   0.305   0.075   4.585  0.6592  0.1050  0.3432
 5691SOL    HW228710   0.295   4.691   4.510  2.5627 -1.0882 -1.6729
 5692SOL     OW28711   2.018   0.931   0.163  0.3456 -0.1476  0.1259
 5692SOL    HW128712   1.951   0.996   0.183  1.9224  1.5501 -0.1365
 5692SOL    HW228713   2.026   0.888   0.248  1.7520 -0.7320 -0.2981
 5693SOL     OW28714   2.699   3.251   2.520  0.2249  0.0615  0.3116
 5693SOL    HW128715   2.609   3.242   2.489 -0.4181  2.3886  1.5062
 5693SOL    HW228716   2.696   3.345   2.535 -0.5792 -0.2923  2.3277
 5694SOL     OW28717   3.273   1.845  12.359  0.4116 -0.4188  0.6300
 5694SOL    HW128718   3.309   1.929  12.330 -0.4539 -0.4755 -0.6000
 5694SOL    HW228719   3.321   1.778  12.310  1.6353  0.5030  0.5474
 5695SOL     OW28720   3.831   0.149   5.951 -0.3745 -0.0351 -0.0653
 5695SOL    HW128721   3.829   0.056   5.928  0.4924 -0.3575  1.1885
 5695SOL    HW228722   3.925   0.164   5.952 -0.3876  0.1181 -0.7668
 5696SOL     OW28723   4.220   1.528  16.826  0.2903 -0.0802 -0.1689
 5696SOL    HW128724   4.237   1.437  16.800 -0.0283 -0.0906 -0.3409
 5696SOL    HW228725   4.216   1.562  16.737  0.9983  0.0397 -0.1597
 5697SOL     OW28726   3.029   0.651   6.448  0.2176 -0.1072  0.0092
 5697SOL    HW128727   2.984   0.594   6.385 -0.9579  2.3387 -1.3846
 5697SOL    HW228728   3.118   0.616   6.448  0.6519  0.9840  0.3433
 5698SOL     OW28729   3.358   2.956   1.836 -0.4295 -0.4268  0.1169
 5698SOL    HW128730   3.377   2.937   1.745  1.3993 -0.6976  0.5661
 5698SOL    HW228731   3.442   2.981   1.874  0.2617 -1.3475 -0.8349
 5699SOL     OW28732   1.333   2.067   3.052  0.4456 -0.1323 -0.5292
 5699SOL    HW128733   1.425   2.058   3.078  0.5276  1.7090 -0.1432
 5699SOL    HW228734   1.330   2.159   3.024 -0.7185 -0.2664 -0.8074
 5700SOL     OW28735   2.699   0.739   0.363 -0.2273  0.0409  0.0885
 5700SOL    HW128736   2.639   0.807   0.396  0.1659 -0.5164  1.9637
 5700SOL    HW228737   2.680   0.729   0.270 -1.3588 -2.1480  0.5546
 5701SOL     OW28738   1.283   2.313   8.450 -0.0501  0.8522 -0.2230
 5701SOL    HW128739   1.321   2.271   8.528 -0.0495 -0.1488 -0.7628
 5701SOL    HW228740   1.192   2.323   8.478 -0.5658  0.9781 -1.9592
 5702SOL     OW28741   4.213   2.411   6.949  0.1594  0.3115 -0.3397
 5702SOL    HW128742   4.258   2.427   6.866  2.4765 -0.7925  0.6854
 5702SOL    HW228743   4.171   2.326   6.934 -1.0308  0.2774  3.0970
 5703SOL     OW28744   2.189   0.880  12.495  0.1132  0.2198 -0.2800
 5703SOL    HW128745   2.225   0.905  12.410 -0.7474  0.8099 -0.4706
 5703SOL    HW228746   2.237   0.944  12.548 -1.0684 -0.2939  1.3990
 5704SOL     OW28747   2.090   3.984  15.939  0.1198  0.9424 -0.1600
 5704SOL    HW128748   2.125   3.909  15.986 -0.3546 -0.5012 -2.1230
 5704SOL    HW228749   2.137   4.059  15.977 -2.1978  1.1672  2.2479
 5705SOL     OW28750   1.574   0.210   2.943 -0.5830  0.0719 -0.0902
 5705SOL    HW128751   1.612   0.265   3.012 -0.4164 -0.2423  0.0669
 5705SOL    HW228752   1.504   0.267   2.911 -0.3223  0.1833 -0.4560
 5706SOL     OW28753   2.028   0.596   8.039 -0.2476 -0.4987  0.0071
 5706SOL    HW128754   2.025   0.504   8.067  0.4876 -0.2834  0.8128
 5706SOL    HW228755   1.985   0.592   7.954 -0.8983  0.2781  0.3038
 5707SOL     OW28756   0.847   0.060   3.416  0.1724  0.3204  0.0688
 5707SOL    HW128757   0.865   4.707   3.437  3.3613  0.4365 -2.2241
 5707SOL    HW228758   0.868   0.110   3.495 -1.4612  1.7309 -0.3936
 5708SOL     OW28759   0.120   4.462   4.177 -0.1555 -0.3798  0.2142
 5708SOL    HW128760   0.190   4.401   4.200  1.5155  1.7539  0.7752
 5708SOL    HW228761   0.061   4.454   4.252 -0.9025 -2.0517 -0.5493
 5709SOL     OW28762   1.480   2.513   8.438  0.5608 -0.7627 -0.2033
 5709SOL    HW128763   1.412   2.446   8.430  0.6673 -0.7378 -1.3503
 5709SOL    HW228764   1.556   2.459   8.459  0.6841 -0.7934 -0.7464
 5710SOL     OW28765   2.700   0.212   6.090  0.4495 -0.4335 -0.3900
 5710SOL    HW128766   2.726   0.240   6.002 -0.6077  3.2282  0.4491
 5710SOL    HW228767   2.745   0.128   6.098 -1.6823 -1.4802  0.7633
 5711SOL     OW28768   0.683   3.566   7.637  0.2336  0.1556  0.4573
 5711SOL    HW128769   0.742   3.519   7.696  0.9200 -0.7235 -0.9463
 5711SOL    HW228770   0.599   3.532   7.668 -0.4455  0.4863 -0.9940
 5712SOL     OW28771   0.447   4.717   1.517 -0.6436 -0.3507 -0.3319
 5712SOL    HW128772   0.365   4.717   1.566 -1.9825  3.0790 -2.5569
 5712SOL    HW228773   0.499   4.655   1.567  1.4840  2.6225  1.1409
 5713SOL     OW28774   2.705   0.931  11.617  0.4170  0.4143 -0.6481
 5713SOL    HW128775   2.698   0.978  11.533  1.2470  1.1914 -0.2835
 5713SOL    HW228776   2.750   0.993  11.674  0.7977  1.4116 -2.0344
 5714SOL     OW28777   3.480   3.003   6.607  0.2889 -0.3738  0.0758
 5714SOL    HW128778   3.493   3.093   6.575  1.8355 -0.5197  0.2967
 5714SOL    HW228779   3.494   2.960   6.523 -0.8672  0.7779 -0.7154
 5715SOL     OW28780   1.982   1.885   8.048  0.1367 -0.3316 -0.3416
 5715SOL    HW128781   1.976   1.837   7.965 -0.3065  0.1545 -0.5914
 5715SOL    HW228782   1.914   1.844   8.102  1.5476 -1.2845  0.7043
 5716SOL     OW28783   2.122   1.057   2.933  0.2557 -0.4224  0.1409
 5716SOL    HW128784   2.174   0.989   2.976 -1.8612 -1.7992  0.5099
 5716SOL    HW228785   2.111   1.121   3.003 -1.7113 -0.5100 -0.0818
 5717SOL     OW28786   2.064   2.177   6.971  0.2282 -0.2163  0.1981
 5717SOL    HW128787   2.111   2.105   7.011 -1.1748  0.5179  3.1679
 5717SOL    HW228788   2.128   2.190   6.901  0.6169 -2.5678  0.1496
 5718SOL     OW28789   0.635   0.062   2.614 -0.5610  0.0862  0.3157
 5718SOL    HW128790   0.711   0.098   2.660 -0.6247  1.1303 -0.3853
 5718SOL    HW228791   0.683   0.007   2.552  1.6429 -0.7106  2.7190
 5719SOL     OW28792   0.065   2.665   2.496  0.6685  0.3170 -0.5003
 5719SOL    HW128793   0.125   2.707   2.433 -0.3824  1.3976 -0.7797
 5719SOL    HW228794   0.084   2.724   2.569 -0.1003 -1.8302  1.4044
 5720SOL     OW28795   4.269   3.301   4.240 -0.4025  0.1174  0.1828
 5720SOL    HW128796   4.355   3.323   4.276 -0.3243 -2.3102  1.4724
 5720SOL    HW228797   4.272   3.337   4.151  0.2381  1.7535  0.8601
 5721SOL     OW28798   1.893   4.103   7.192  0.2597  0.5306 -0.5592
 5721SOL    HW128799   1.947   4.164   7.244  0.9549 -1.5198  1.1052
 5721SOL    HW228800   1.820   4.086   7.252  0.9633 -0.7969 -0.0874
 5722SOL     OW28801   0.963   4.028   2.571 -0.0769  0.1848  0.9526
 5722SOL    HW128802   0.997   4.112   2.542 -0.7182 -0.4379 -1.5968
 5722SOL    HW228803   1.042   3.976   2.555  0.3989  1.2156  0.0168
 5723SOL     OW28804   2.756   3.604   6.400  0.4457  0.5930 -0.0542
 5723SOL    HW128805   2.747   3.697   6.381 -0.4286  0.1648 -1.7150
 5723SOL    HW228806   2.685   3.582   6.460 -1.3556  1.7545 -1.7814
 5724SOL     OW28807   4.286   3.802  12.080 -0.1896 -0.4384 -0.1903
 5724SOL    HW128808   4.275   3.885  12.035  0.0200 -0.3645 -0.1046
 5724SOL    HW228809   4.193   3.781  12.094  0.4208 -2.0392  1.6282
 5725SOL     OW28810   4.244   0.113  15.736 -0.3900  0.1099  0.0043
 5725SOL    HW128811   4.262   0.023  15.707 -2.1248 -1.1111  2.6799
 5725SOL    HW228812   4.150   0.112  15.754 -0.1565  0.0556  1.2455
 5726SOL     OW28813   0.953   1.784   7.227  0.2537 -0.7103  0.0115
 5726SOL    HW128814   1.045   1.776   7.248  0.4559  0.0646 -0.5779
 5726SOL    HW228815   0.956   1.823   7.140 -1.2749  1.4639  0.9336
 5727SOL     OW28816   1.549   3.262  16.801 -0.1974  0.6767  0.3162
 5727SOL    HW128817   1.553   3.298  16.712  0.7382 -0.8863 -0.2786
 5727SOL    HW228818   1.470   3.208  16.800  0.8465 -0.8323 -1.2638
 5728SOL     OW28819   4.202   3.473  11.445  0.2392 -0.1981  0.4089
 5728SOL    HW128820   4.288   3.515  11.439  0.0931  0.1299  0.6035
 5728SOL    HW228821   4.169   3.533  11.377 -3.1004  0.9257  3.0275
 5729SOL     OW28822   3.658   4.536  14.338  0.4235 -0.8162  0.0461
 5729SOL    HW128823   3.726   4.599  14.363 -0.1298 -1.4000  2.9886
 5729SOL    HW228824   3.577   4.587  14.348  2.0098  1.4640  1.4098
 5730SOL     OW28825   1.580   2.791   6.457  0.0012  0.0850  0.1139
 5730SOL    HW128826   1.663   2.755   6.489  1.3425  1.2658 -1.9460
 5730SOL    HW228827   1.565   2.735   6.381  2.5564  2.2167 -1.9868
 5731SOL     OW28828   4.322   4.434  14.937  0.7268 -0.2785  0.0450
 5731SOL    HW128829   4.246   4.426  14.994  0.5067  2.5511  0.1379
 5731SOL    HW228830   4.337   4.343  14.912 -0.2533 -0.1853 -0.8861
 5732SOL     OW28831   1.132   0.658   2.749 -0.0874 -0.1491 -0.0228
 5732SOL    HW128832   1.156   0.739   2.795 -1.3366  1.0137 -1.4281
 5732SOL    HW228833   1.186   0.667   2.671  0.9198 -0.5170  0.6406
 5733SOL     OW28834   4.202   2.009   1.437 -0.3482 -0.0591  0.5056
 5733SOL    HW128835   4.181   2.068   1.509  1.2801  1.0599  0.0601
 5733SOL    HW228836   4.157   1.933   1.474  1.8509 -0.9492  1.3236
 5734SOL     OW28837   3.800   2.184  15.993 -0.4203 -0.3515  0.0080
 5734SOL    HW128838   3.760   2.097  15.989  2.0612 -1.4380 -1.0711
 5734SOL    HW228839   3.741   2.242  16.041 -2.8041 -0.4097 -2.8359
 5735SOL     OW28840   0.419   4.321   3.997 -0.0015 -0.3434  0.0254
 5735SOL    HW128841   0.484   4.256   4.022 -0.7886 -1.1123  0.0587
 5735SOL    HW228842   0.429   4.374   4.076 -2.0235 -2.1607  1.4952
 5736SOL     OW28843   1.942   3.031   0.684  0.1094 -0.3182  0.1219
 5736SOL    HW128844   1.863   3.053   0.635  1.5755  0.3847 -1.8739
 5736SOL    HW228845   1.963   2.940   0.662 -3.2492 -0.7168 -1.4587
 5737SOL     OW28846   2.161   0.960  15.846  0.1178  0.1953  0.1929
 5737SOL    HW128847   2.232   0.977  15.785  0.5621 -0.1297  0.6174
 5737SOL    HW228848   2.196   0.990  15.930  2.7381 -2.2230 -0.0342
 5738SOL     OW28849   1.881   0.281  10.461 -0.0565 -0.0437 -0.2953
 5738SOL    HW128850   1.851   0.223  10.391  0.5169  0.2328 -0.7680
 5738SOL    HW228851   1.846   0.364  10.430  2.0965  2.4001  3.9008
 5739SOL     OW28852   0.694   4.635   1.881  0.1894 -0.2150  0.1730
 5739SOL    HW128853   0.710   4.585   1.801 -2.2254  1.1212 -1.1399
 5739SOL    HW228854   0.635   4.571   1.921  0.9647 -0.8183  0.3668
 5740SOL     OW28855   0.536   2.542   9.628 -0.4794 -0.1563  0.2332
 5740SOL    HW128856   0.504   2.457   9.598 -0.0185  0.6573 -2.5629
 5740SOL    HW228857   0.625   2.515   9.651 -0.7217 -0.0268  1.3685
 5741SOL     OW28858   2.382   3.081   2.641  0.7835  0.1067 -0.3287
 5741SOL    HW128859   2.336   3.035   2.711  1.7083 -1.5913 -0.8641
 5741SOL    HW228860   2.465   3.035   2.641  1.3127  1.0552  0.6402
 5742SOL     OW28861   0.540   3.040   6.663 -0.1172  0.0381  0.0669
 5742SOL    HW128862   0.591   3.086   6.597 -1.0856  0.0499 -0.6614
 5742SOL    HW228863   0.469   2.994   6.618 -0.2806 -0.9931  1.3415
 5743SOL     OW28864   0.431   1.967   7.996 -0.3619 -0.1009 -0.5759
 5743SOL    HW128865   0.431   1.891   8.053 -0.3652  0.5658  0.3163
 5743SOL    HW228866   0.497   2.022   8.039  0.5167 -1.6580  0.0726
 5744SOL     OW28867   4.099   1.854   5.260  0.5088  0.5491 -0.3020
 5744SOL    HW128868   4.075   1.884   5.348  2.9600  0.9488  0.2232
 5744SOL    HW228869   4.035   1.914   5.220  0.8995  0.0493 -1.6879
 5745SOL     OW28870   1.976   3.421   7.722  0.8629 -0.5334 -0.2922
 5745SOL    HW128871   2.050   3.442   7.665 -0.1138  1.3957 -0.8280
 5745SOL    HW228872   1.997   3.467   7.804  0.8455 -0.5465 -0.2804
 5746SOL     OW28873   0.328   2.117  16.872  0.1416  0.4136  0.0825
 5746SOL    HW128874   0.288   2.148  16.791  1.6371 -2.2217 -1.7002
 5746SOL    HW228875   0.307   2.189  16.930  1.5523  1.2817 -0.4798
 5747SOL     OW28876   0.409   0.372  10.762 -0.9048  0.1855 -0.3502
 5747SOL    HW128877   0.468   0.298  10.744  0.2859  0.5212  2.2502
 5747SOL    HW228878   0.464   0.440  10.799 -1.7331  0.1476  0.9339
 5748SOL     OW28879   3.180   1.120   8.985 -0.0459 -0.2249 -0.2442
 5748SOL    HW128880   3.237   1.180   8.938  0.3050 -1.1517 -1.0103
 5748SOL    HW228881   3.145   1.177   9.053 -0.9974 -1.5331  0.3603
 5749SOL     OW28882   0.822   4.127  16.221 -0.1134  0.3365 -0.0229
 5749SOL    HW128883   0.841   4.065  16.151  3.0170  0.5056  0.6724
 5749SOL    HW228884   0.814   4.208  16.170  0.5554  0.8870  0.7565
 5750SOL     OW28885   2.932   4.355   4.729  0.2792 -0.0739 -0.1440
 5750SOL    HW128886   2.887   4.391   4.653  1.8284 -2.6264 -2.2641
 5750SOL    HW228887   2.994   4.295   4.688 -0.5578 -1.3740  0.4740
 5751SOL     OW28888   1.794   1.509  10.531 -0.6764 -0.0455 -0.4431
 5751SOL    HW128889   1.818   1.420  10.556  0.5250  0.6631  0.9525
 5751SOL    HW228890   1.863   1.557  10.577 -0.3136 -1.4435  0.4629
 5752SOL     OW28891   2.421   3.985   7.793 -0.6748  0.3568  0.4055
 5752SOL    HW128892   2.375   3.941   7.864 -2.4911  0.6174 -0.6121
 5752SOL    HW228893   2.382   4.072   7.794 -0.9897  0.2144  0.5831
 5753SOL     OW28894   0.883   0.419   7.512  0.4567  0.4031 -0.3491
 5753SOL    HW128895   0.814   0.380   7.565  0.8515 -1.3618 -1.1430
 5753SOL    HW228896   0.861   0.401   7.420  0.7329  0.1596 -0.3692
 5754SOL     OW28897   1.291   2.868   6.250 -0.6117 -0.0516  0.8778
 5754SOL    HW128898   1.213   2.814   6.261 -1.4037  1.0428  0.7224
 5754SOL    HW228899   1.290   2.919   6.331 -1.3977  0.4914  0.5327
 5755SOL     OW28900   3.683   2.721   3.776 -0.5364 -0.1866 -0.0661
 5755SOL    HW128901   3.723   2.775   3.844  1.3802 -0.2996 -1.1045
 5755SOL    HW228902   3.683   2.789   3.709  4.2817  2.4180  2.5926
 5756SOL     OW28903   0.375   2.802   3.617 -0.3960 -0.3904  0.6025
 5756SOL    HW128904   0.284   2.803   3.645 -0.7297 -1.3846 -0.4561
 5756SOL    HW228905   0.415   2.825   3.701  0.6275  0.1703 -0.0408
 5757SOL     OW28906   2.994   2.422   2.086 -0.4066 -0.0439 -0.4471
 5757SOL    HW128907   3.018   2.515   2.085  0.7337 -0.3156  1.1285
 5757SOL    HW228908   2.904   2.425   2.055 -0.2570 -1.4811 -1.0007
 5758SOL     OW28909   2.912   2.790  16.726  0.0272  0.5037  0.9323
 5758SOL    HW128910   2.973   2.853  16.687  0.4064  0.1316  0.9343
 5758SOL    HW228911   2.852   2.780  16.652  0.2379  0.1688  0.8091
 5759SOL     OW28912   2.080   3.689   2.084  0.5430  0.3025  0.3338
 5759SOL    HW128913   2.122   3.775   2.085 -2.6529  1.8354  2.0758
 5759SOL    HW228914   1.989   3.703   2.060  0.8033 -1.7152 -1.7730
 5760SOL     OW28915   3.134   2.985  11.032  0.0632  0.6819  0.3294
 5760SOL    HW128916   3.223   2.986  10.996 -0.0589  0.4647  0.0204
 5760SOL    HW228917   3.137   2.934  11.113 -0.7038 -0.4719 -0.3734
 5761SOL     OW28918   2.598   1.944   3.092  0.4855  0.2417 -0.2607
 5761SOL    HW128919   2.656   1.960   3.167  1.1035 -0.0909 -0.6628
 5761SOL    HW228920   2.575   2.035   3.073  1.7022  0.3635 -1.1645
 5762SOL     OW28921   2.526   2.597   3.348 -0.2601 -0.5800 -0.0100
 5762SOL    HW128922   2.453   2.629   3.400  1.7168  0.1625  2.3254
 5762SOL    HW228923   2.480   2.584   3.265  0.3124 -0.2848 -0.3777
 5763SOL     OW28924   3.570   3.789  13.198  0.2226  0.6348 -0.1418
 5763SOL    HW128925   3.564   3.703  13.156  0.6201  0.8538 -0.6369
 5763SOL    HW228926   3.665   3.800  13.205  0.2720 -0.2417  0.6071
 5764SOL     OW28927   4.284   3.436   2.454 -0.2044 -0.2785 -0.2653
 5764SOL    HW128928   4.283   3.404   2.544 -0.9938  2.4273  0.7070
 5764SOL    HW228929   4.324   3.362   2.408  1.2746  1.6565 -2.1301
 5765SOL     OW28930   0.239   4.162   3.092 -0.8107  0.6790  0.0906
 5765SOL    HW128931   0.219   4.090   3.032  1.1877  0.4840 -0.3425
 5765SOL    HW228932   0.236   4.236   3.032 -1.6352 -1.3812 -2.4132
 5766SOL     OW28933   0.319   3.998  17.329 -0.0653 -0.0400  0.7760
 5766SOL    HW128934   0.270   3.979  17.250  1.7363 -3.0198  0.3738
 5766SOL    HW228935   0.351   3.912  17.355  0.3347 -0.4968 -1.3163
 5767SOL     OW28936   3.095   2.180   5.690  0.0967  0.3591  0.7758
 5767SOL    HW128937   3.162   2.248   5.695 -0.6172  1.0656  0.8912
 5767SOL    HW228938   3.096   2.170   5.595 -0.3376 -1.6395  0.9897
 5768SOL     OW28939   4.470   1.071   7.154 -0.5779 -0.1293  0.2873
 5768SOL    HW128940   4.537   1.008   7.181 -1.2426 -0.6180  0.8094
 5768SOL    HW228941   4.425   1.030   7.080 -1.3219  1.0736  0.0687
 5769SOL     OW28942   0.747   1.208  14.975  0.2676 -0.1102 -0.1460
 5769SOL    HW128943   0.806   1.273  14.935 -0.4782  1.1241  0.7491
 5769SOL    HW228944   0.721   1.152  14.902 -0.3387 -0.8144  0.6174
 5770SOL     OW28945   2.244   1.092  16.109  0.2378  0.0480  0.3500
 5770SOL    HW128946   2.321   1.148  16.101  0.4033 -0.0979  0.9260
 5770SOL    HW228947   2.195   1.124  16.184 -0.6800  2.1167 -1.1315
 5771SOL     OW28948   1.453   4.292   5.998 -0.2216  0.3082 -0.3934
 5771SOL    HW128949   1.547   4.278   5.991 -0.2982 -1.1341  1.4711
 5771SOL    HW228950   1.435   4.269   5.907 -0.4736 -3.3136  0.5797
 5772SOL     OW28951   0.452   2.777   8.037  0.4430 -0.6326 -0.2339
 5772SOL    HW128952   0.498   2.846   8.086 -2.9444  0.5564  1.2728
 5772SOL    HW228953   0.504   2.699   8.057 -1.5898 -1.6785  0.9666
 5773SOL     OW28954   2.649   0.001  11.168 -0.0432  0.0000 -0.2699
 5773SOL    HW128955   2.738   0.029  11.149 -1.1350  2.1451 -2.3184
 5773SOL    HW228956   2.592   0.053  11.111  1.3327  2.7477  0.8925
 5774SOL     OW28957   1.974   2.875  16.285 -0.3528 -0.0495  0.8588
 5774SOL    HW128958   2.067   2.852  16.296 -0.7354 -1.4357  1.2587
 5774SOL    HW228959   1.971   2.935  16.211 -0.0228  0.6666  1.4357
 5775SOL     OW28960   2.870   1.323  11.049  0.0154 -0.6235  0.1943
 5775SOL    HW128961   2.943   1.323  10.987  0.1500 -0.9379  0.3511
 5775SOL    HW228962   2.805   1.349  10.984 -0.9070 -1.4566  0.7793
 5776SOL     OW28963   0.574   2.302  16.866  0.5898  0.4964  0.1155
 5776SOL    HW128964   0.651   2.358  16.854 -0.7496  2.0474 -1.1959
 5776SOL    HW228965   0.542   2.316  16.955 -0.1564  0.7021 -0.1890
 5777SOL     OW28966   1.699   3.007   5.747 -0.7041 -0.0021  0.4251
 5777SOL    HW128967   1.679   2.914   5.738 -1.5919  0.2763 -0.3957
 5777SOL    HW228968   1.732   3.021   5.836  1.8038  0.0596 -0.5181
 5778SOL     OW28969   2.331   4.463   7.757  0.5113  0.4312 -0.5077
 5778SOL    HW128970   2.356   4.519   7.684  2.2550  1.5852  0.9694
 5778SOL    HW228971   2.399   4.395   7.757 -0.1479 -0.2322 -1.2325
 5779SOL     OW28972   4.246   4.116  11.552  0.1485 -0.1129  0.2134
 5779SOL    HW128973   4.258   4.087  11.643 -0.4079 -0.8145  0.0604
 5779SOL    HW228974   4.298   4.196  11.563 -0.3306  0.0802  1.0360
 5780SOL     OW28975   3.128   2.913   6.614  0.2442 -0.6302  0.3731
 5780SOL    HW128976   3.185   2.988   6.628 -0.3335 -0.0810 -0.2419
 5780SOL    HW228977   3.055   2.930   6.554 -0.8244 -0.3382  1.7476
 5781SOL     OW28978   0.047   0.838   4.672  1.1209  0.0751  0.0436
 5781SOL    HW128979   4.715   0.875   4.619  0.6557  0.1206  0.6824
 5781SOL    HW228980   0.114   0.899   4.643  0.7821  0.9075  0.9891
 5782SOL     OW28981   4.144   3.899   2.652 -0.0948  0.3818  0.4166
 5782SOL    HW128982   4.111   3.810   2.654 -0.2565  0.4400  0.3916
 5782SOL    HW228983   4.171   3.904   2.560  1.8467 -0.3587  0.9609
 5783SOL     OW28984   2.727   3.249   2.111  1.1421 -0.3353 -0.1616
 5783SOL    HW128985   2.696   3.158   2.115  2.2720 -0.6149  1.7995
 5783SOL    HW228986   2.811   3.239   2.156  0.9044  0.0227  0.3672
 5784SOL     OW28987   1.026   0.377   4.995 -0.2959  0.3829 -0.7944
 5784SOL    HW128988   1.024   0.355   5.088 -0.0925  0.6366 -0.7289
 5784SOL    HW228989   0.952   0.437   5.001 -0.0736  0.5754  0.0755
 5785SOL     OW28990   3.371   2.072  12.234  0.1995 -0.4156 -0.8698
 5785SOL    HW128991   3.358   2.107  12.146  0.7067  2.0067  0.0276
 5785SOL    HW228992   3.466   2.062  12.225 -0.0642 -0.8021 -3.1516
 5786SOL     OW28993   4.614   4.681  16.127  0.2342 -0.2066 -0.3554
 5786SOL    HW128994   4.524   4.706  16.105  1.0801  0.8395 -2.6006
 5786SOL    HW228995   4.639   0.021  16.175 -2.5476 -0.2193  1.1487
 5787SOL     OW28996   0.413   0.257   4.118 -0.2025  0.1917  0.2138
 5787SOL    HW128997   0.419   0.201   4.041  0.6594  1.9330 -0.9859
 5787SOL    HW228998   0.441   0.343   4.087 -0.3115  0.9027  2.0516
 5788SOL     OW28999   0.844   3.797  10.434  0.1888  0.3303  0.1738
 5788SOL    HW129000   0.806   3.885  10.438  0.2136  0.3315  0.3944
 5788SOL    HW229001   0.919   3.821  10.380  0.9485  1.3509  1.6593
 5789SOL     OW29002   1.006   1.085   7.259 -0.7475  0.2929 -0.3047
 5789SOL    HW129003   1.068   1.037   7.315  0.2396  0.8881 -0.8743
 5789SOL    HW229004   1.025   1.037   7.178 -0.0513 -0.5944  0.3833
 5790SOL     OW29005   4.212   4.721   3.602  0.1863  0.4118 -0.5092
 5790SOL    HW129006   4.279   4.698   3.536 -1.4892  0.3083 -2.1789
 5790SOL    HW229007   4.242   0.073   3.612  0.0808  0.2043  1.5496
 5791SOL     OW29008   0.713   1.823  11.638  0.3367  0.3371 -0.5652
 5791SOL    HW129009   0.686   1.902  11.685  3.3572  1.4486 -0.7073
 5791SOL    HW229010   0.803   1.846  11.613  0.8634 -0.3416  0.6889
 5792SOL     OW29011   2.618   4.674   0.987  0.2710 -0.0401  0.2851
 5792SOL    HW129012   2.650   4.669   0.897  1.9398 -1.2098  0.9280
 5792SOL    HW229013   2.550   0.000   0.971 -0.5358 -0.7001  1.0775
 5793SOL     OW29014   1.731   1.287   3.653 -0.1809  0.2473  0.0257
 5793SOL    HW129015   1.695   1.303   3.740  0.1903 -0.8586  0.3766
 5793SOL    HW229016   1.809   1.233   3.666 -0.3679 -0.4743 -1.7591
 5794SOL     OW29017   2.719   3.635   7.544  0.5321 -0.6850  1.4463
 5794SOL    HW129018   2.677   3.680   7.472 -0.4157 -2.0357  1.1477
 5794SOL    HW229019   2.741   3.698   7.613  0.7407 -0.2210  0.9490
 5795SOL     OW29020   0.651   3.598   3.798  0.2098 -0.3634  0.2057
 5795SOL    HW129021   0.607   3.648   3.867  0.1857  0.7270 -0.6138
 5795SOL    HW229022   0.630   3.504   3.805 -1.4012  0.1282  2.1171
 5796SOL     OW29023   4.626   2.643   7.561 -0.1796 -0.3914 -0.3130
 5796SOL    HW129024   4.700   2.703   7.566 -0.3803 -0.4158  2.7966
 5796SOL    HW229025   4.570   2.704   7.608 -0.2357  0.7947 -1.9271
 5797SOL     OW29026   1.287   4.026  17.499 -0.0350 -0.4627  0.6843
 5797SOL    HW129027   1.268   3.993  17.586 -0.0748 -1.5752  0.2542
 5797SOL    HW229028   1.315   4.114  17.524 -1.0251  0.6760 -2.1123
 5798SOL     OW29029   3.491   1.111   5.581  0.2855 -0.1734 -0.2991
 5798SOL    HW129030   3.537   1.193   5.596 -1.1152  0.6672 -0.5700
 5798SOL    HW229031   3.554   1.040   5.595 -0.9891 -1.0931  0.8297
 5799SOL     OW29032   1.243   4.361   2.624  0.4165 -0.0945 -0.3405
 5799SOL    HW129033   1.233   4.423   2.696  1.7690  1.1554 -1.2401
 5799SOL    HW229034   1.307   4.404   2.567  0.8488 -0.4818 -0.1454
 5800SOL     OW29035   2.216   4.352   6.922 -0.4145  0.3440  0.0471
 5800SOL    HW129036   2.178   4.383   7.005  0.2908  1.6660 -0.1207
 5800SOL    HW229037   2.292   4.410   6.917 -1.9177  2.2872 -0.0512
 5801SOL     OW29038   3.847   4.720   6.272  0.3132  0.1650  0.3271
 5801SOL    HW129039   3.804   0.053   6.321 -0.7727  0.5799 -1.2264
 5801SOL    HW229040   3.935   0.017   6.261  0.4916 -0.4029 -0.0565
 5802SOL     OW29041   0.247   1.530   7.420  0.3027  0.1584 -0.7193
 5802SOL    HW129042   0.172   1.477   7.394 -0.7032  1.3862 -0.2923
 5802SOL    HW229043   0.197   1.607   7.447  0.7765  0.3839 -0.4800
 5803SOL     OW29044   4.312   1.772   3.400 -0.1422  0.6863 -0.6711
 5803SOL    HW129045   4.282   1.731   3.319 -1.4843 -0.6050  0.4626
 5803SOL    HW229046   4.406   1.764   3.384  0.2055 -1.2236  2.2413
 5804SOL     OW29047   3.707   0.807   2.153 -0.5750  0.4753  0.3578
 5804SOL    HW129048   3.735   0.857   2.076  1.3195 -0.7895  0.2374
 5804SOL    HW229049   3.669   0.874   2.210  0.1530 -0.1138  1.5231
 5805SOL     OW29050   4.111   0.988   7.081 -0.6453  0.1977 -0.4080
 5805SOL    HW129051   4.130   0.920   7.145 -1.2224 -0.5266 -0.9948
 5805SOL    HW229052   4.027   1.022   7.112  0.7482  1.8526  1.4582
 5806SOL     OW29053   2.333   0.874   3.373 -0.1118 -0.1033 -0.2110
 5806SOL    HW129054   2.403   0.831   3.421 -1.0165  0.9814  2.1063
 5806SOL    HW229055   2.251   0.842   3.410 -0.7904 -0.6242 -2.1462
 5807SOL     OW29056   1.073   0.496   4.503  0.4209 -0.2852  0.3979
 5807SOL    HW129057   0.983   0.501   4.535 -0.3831  1.0709 -2.0461
 5807SOL    HW229058   1.116   0.553   4.567 -2.3886  2.6143 -0.2891
 5808SOL     OW29059   3.005   0.198   1.897  0.6060  0.3183  0.0891
 5808SOL    HW129060   2.956   0.175   1.819  0.7334 -3.6043  1.1388
 5808SOL    HW229061   3.052   0.114   1.899 -0.9361 -0.5370  0.3783
 5809SOL     OW29062   1.645   3.097   0.112  0.7655 -0.0676 -0.5940
 5809SOL    HW129063   1.701   3.094   0.034 -0.1691  0.5534 -1.3086
 5809SOL    HW229064   1.611   3.008   0.112  0.6324 -0.0201 -2.0901
 5810SOL     OW29065   2.401   4.204  13.017  0.0332 -0.5676 -0.2873
 5810SOL    HW129066   2.364   4.292  13.014  2.1756  0.4524  3.2872
 5810SOL    HW229067   2.328   4.153  13.053 -0.7242  0.1977 -0.7322
 5811SOL     OW29068   3.988   2.193   6.112  0.0695  0.7989  0.5104
 5811SOL    HW129069   4.073   2.229   6.087 -0.6617  3.1681  1.4170
 5811SOL    HW229070   3.942   2.271   6.083  1.7165  2.0875  1.3176
 5812SOL     OW29071   1.481   4.148  11.849 -0.3737 -0.1934  0.8816
 5812SOL    HW129072   1.466   4.238  11.819 -2.6596 -1.0853 -0.6315
 5812SOL    HW229073   1.398   4.107  11.826  0.0272 -0.5134 -0.0140
 5813SOL     OW29074   2.658   4.449  11.086  0.1406 -0.2249 -0.0885
 5813SOL    HW129075   2.665   4.541  11.110  2.0472 -0.1393 -1.0116
 5813SOL    HW229076   2.702   4.401  11.155  0.7162  2.9394  1.7504
 5814SOL     OW29077   1.660   2.546   1.403  0.3337  0.1719  0.4032
 5814SOL    HW129078   1.598   2.476   1.419 -1.1161  0.7922 -2.4469
 5814SOL    HW229079   1.680   2.515   1.315  1.1980 -2.5617  1.5767
 5815SOL     OW29080   0.236   1.016   5.766  0.3536 -0.0771 -0.3509
 5815SOL    HW129081   0.154   1.064   5.777  0.0434 -0.9534  1.0556
 5815SOL    HW229082   0.297   1.084   5.794 -2.0036  2.6126 -1.7426
 5816SOL     OW29083   3.588   0.611   2.852  0.3133 -0.3512  0.3335
 5816SOL    HW129084   3.641   0.578   2.779 -1.1225  2.5513 -2.0528
 5816SOL    HW229085   3.513   0.638   2.799  0.5099  2.0087  1.2707
 5817SOL     OW29086   3.450   3.788  15.680  0.0223 -0.0412 -0.2275
 5817SOL    HW129087   3.414   3.714  15.632 -1.9950  0.0708  1.1045
 5817SOL    HW229088   3.531   3.801  15.631  0.9266  0.1591  1.3176
 5818SOL     OW29089   3.560   3.911   0.571  0.5691 -0.0752  0.5710
 5818SOL    HW129090   3.583   3.821   0.591 -0.1449 -0.0912  1.3243
 5818SOL    HW229091   3.498   3.927   0.642 -0.7625  1.3322 -0.8921
 5819SOL     OW29092   3.523   1.611   7.970 -0.7747 -0.3124  0.1421
 5819SOL    HW129093   3.588   1.638   8.036 -0.9546 -2.5835  1.2623
 5819SOL    HW229094   3.503   1.529   8.015 -2.0374  0.4911  1.0295
 5820SOL     OW29095   2.015   2.883   9.272  0.3458  0.1106  0.1965
 5820SOL    HW129096   1.974   2.938   9.339  1.3500  0.3120  0.6594
 5820SOL    HW229097   2.107   2.880   9.300  0.5717 -0.5962 -0.6377
 5821SOL     OW29098   2.022   1.560  14.887  0.2171  0.0726 -0.3422
 5821SOL    HW129099   1.961   1.607  14.944 -1.3911 -1.6589 -0.6241
 5821SOL    HW229100   2.099   1.611  14.913  0.7902 -1.1536  0.4012
 5822SOL     OW29101   3.845   3.405   3.145 -0.1017  0.1330  0.1020
 5822SOL    HW129102   3.889   3.471   3.199 -2.4391  1.6208  0.1830
 5822SOL    HW229103   3.814   3.452   3.067 -2.3086 -0.3117  0.7036
 5823SOL     OW29104   2.833   3.771  13.156  0.1747  0.0856 -0.5203
 5823SOL    HW129105   2.913   3.817  13.182  1.1504 -1.3877 -0.9138
 5823SOL    HW229106   2.771   3.836  13.189  2.0192  0.4811  2.1930
 5824SOL     OW29107   2.343   0.859   2.630 -0.1461  0.1025 -0.2358
 5824SOL    HW129108   2.342   0.778   2.580  1.6430  0.4907 -0.9263
 5824SOL    HW229109   2.253   0.882   2.609  0.6048  2.5605 -0.7590
 5825SOL     OW29110   2.327   2.358   1.274  0.3646  0.4055 -0.1892
 5825SOL    HW129111   2.305   2.362   1.367  0.3112  0.8579 -0.2208
 5825SOL    HW229112   2.283   2.275   1.252 -2.4633  1.4626  1.4135
 5826SOL     OW29113   3.126   2.216   6.841  0.1700 -0.0341 -0.2633
 5826SOL    HW129114   3.113   2.213   6.936  2.3100  1.1876  0.0652
 5826SOL    HW229115   3.115   2.307   6.814 -0.2343 -0.1289 -0.4137
 5827SOL     OW29116   1.691   2.480   9.955  0.2285  0.3842 -0.2474
 5827SOL    HW129117   1.696   2.407   9.893 -0.0310  0.4144 -0.3049
 5827SOL    HW229118   1.732   2.548   9.902  0.3547  1.7207  1.5702
 5828SOL     OW29119   1.814   2.472  10.216 -0.2768  0.2274 -0.0950
 5828SOL    HW129120   1.824   2.455  10.122 -1.1729  0.5853 -0.2560
 5828SOL    HW229121   1.770   2.391  10.240 -0.8777  0.2049 -1.3152
 5829SOL     OW29122   2.515   2.228   8.346 -0.1490 -0.3602  0.1013
 5829SOL    HW129123   2.426   2.259   8.364 -0.1362  0.4846 -1.3114
 5829SOL    HW229124   2.503   2.133   8.336  1.0735 -0.5301  0.2497
 5830SOL     OW29125   1.519   4.489   4.756 -0.6752 -0.2079 -0.4013
 5830SOL    HW129126   1.495   4.566   4.705 -1.7794 -0.5167 -0.3548
 5830SOL    HW229127   1.468   4.417   4.720 -2.3823  0.5375  0.5305
 5831SOL     OW29128   3.585   0.610   1.990  0.9818  0.2133  0.2522
 5831SOL    HW129129   3.509   0.666   1.973 -0.9048 -2.1076  1.0048
 5831SOL    HW229130   3.645   0.660   2.046  2.1372  0.2940 -1.0630
 5832SOL     OW29131   3.055   0.122   2.615 -0.6292 -0.3288  1.1479
 5832SOL    HW129132   3.026   0.206   2.579  1.7683 -0.7032 -1.6895
 5832SOL    HW229133   3.036   0.125   2.708 -0.3358 -1.3106  1.2386
 5833SOL     OW29134   1.412   2.824   1.921 -0.5431 -0.3197 -0.0652
 5833SOL    HW129135   1.481   2.886   1.897  0.6392 -0.8534  1.9440
 5833SOL    HW229136   1.351   2.880   1.970 -0.4589 -0.5627  0.3189
 5834SOL     OW29137   0.391   2.767   0.633 -0.2942 -0.2223 -0.4573
 5834SOL    HW129138   0.405   2.848   0.681  0.1318 -1.3989  1.4306
 5834SOL    HW229139   0.478   2.736   0.607 -0.4026  0.1013 -1.1995
 5835SOL     OW29140   2.496   2.202  13.157 -0.0979  0.5184  0.0649
 5835SOL    HW129141   2.410   2.163  13.167 -0.1281  0.1382 -1.6933
 5835SOL    HW229142   2.480   2.272  13.221 -0.7691 -0.3923  0.8929
 5836SOL     OW29143   3.941   0.945   3.537 -0.1486 -0.0812 -0.0114
 5836SOL    HW129144   3.927   0.870   3.594  1.4931 -0.9759 -0.7730
 5836SOL    HW229145   3.861   0.937   3.485  1.0245  1.1112 -2.0190
 5837SOL     OW29146   3.825   4.451   2.953  0.1265 -0.3074 -0.4840
 5837SOL    HW129147   3.756   4.385   2.965  0.4095 -0.2962  1.1515
 5837SOL    HW229148   3.890   4.404   2.901 -1.5696 -0.0529 -2.8821
 5838SOL     OW29149   3.148   2.293   3.989  0.6066  0.8023 -0.3685
 5838SOL    HW129150   3.171   2.225   3.926  0.5839 -0.0567  0.5566
 5838SOL    HW229151   3.098   2.242   4.053  0.1599  0.2729 -1.1309
 5839SOL     OW29152   0.907   3.821   2.372  0.4013  0.0234 -0.2673
 5839SOL    HW129153   0.960   3.897   2.350  0.5930  0.2421  0.9427
 5839SOL    HW229154   0.898   3.840   2.465 -0.7375 -1.7806  0.0058
 5840SOL     OW29155   0.909   0.019  14.669  0.1028  0.2248 -0.2855
 5840SOL    HW129156   0.960   4.681  14.696  1.0255  1.2028  0.7413
 5840SOL    HW229157   0.967   0.045  14.598  0.3806 -0.6910 -0.3892
 5841SOL     OW29158   4.616   3.222   5.465  0.5151  0.3079 -0.0122
 5841SOL    HW129159   4.588   3.253   5.379  0.9890 -0.3537 -0.4068
 5841SOL    HW229160   4.578   3.297   5.510 -0.7581 -0.4941  0.2240
 5842SOL     OW29161   3.784   4.174   0.755  0.2867  0.0332  0.3272
 5842SOL    HW129162   3.815   4.263   0.739 -2.2143  0.7398 -0.5358
 5842SOL    HW229163   3.744   4.155   0.670  2.2265  0.9461 -0.7831
 5843SOL     OW29164   3.214   4.544   6.578  0.1213  0.5968 -0.0174
 5843SOL    HW129165   3.275   4.490   6.629 -2.2054  0.0508  2.2513
 5843SOL    HW229166   3.270   4.569   6.505  1.2721  1.5942  1.2036
 5844SOL     OW29167   4.074   2.408  15.106  0.1793  0.7802 -0.4635
 5844SOL    HW129168   4.120   2.457  15.174  0.4622  0.3359 -0.3355
 5844SOL    HW229169   4.139   2.377  15.044  1.6283  1.3104  0.7768
 5845SOL     OW29170   0.679   3.385   4.594 -0.0692  0.9649  0.1469
 5845SOL    HW129171   0.649   3.460   4.543 -2.3548 -0.7771 -1.0902
 5845SOL    HW229172   0.600   3.358   4.642  0.1385  0.6887  0.3280
 5846SOL     OW29173   2.346   3.641   8.581 -0.1375  0.7411 -0.3474
 5846SOL    HW129174   2.300   3.564   8.548  1.9474 -0.1844 -1.0881
 5846SOL    HW229175   2.283   3.709   8.557 -0.2817  0.8972  0.4634
 5847SOL     OW29176   0.769   1.864   6.502  0.1892 -0.5789 -0.1995
 5847SOL    HW129177   0.864   1.859   6.504  0.1882 -0.4782  0.0839
 5847SOL    HW229178   0.754   1.923   6.428  1.1786 -0.9381 -0.6822
 5848SOL     OW29179   2.135   3.732   3.819  0.3678  0.4620  0.9686
 5848SOL    HW129180   2.208   3.673   3.837  1.1833  1.3436  0.5535
 5848SOL    HW229181   2.069   3.665   3.800  0.1616  0.1679  2.6937
 5849SOL     OW29182   2.982   4.317  12.822 -0.1482  0.2866  0.0187
 5849SOL    HW129183   2.986   4.284  12.913 -2.1837 -0.9315 -0.3329
 5849SOL    HW229184   3.068   4.300  12.784  0.1501  2.2655 -0.1619
 5850SOL     OW29185   3.398   2.759   6.744 -0.0018 -0.3470 -0.3311
 5850SOL    HW129186   3.486   2.733   6.716 -0.2678 -0.5198 -1.0104
 5850SOL    HW229187   3.402   2.853   6.728 -2.3622 -0.0125  0.9877
 5851SOL     OW29188   2.669   0.060   5.753 -0.3941  0.1130  0.3481
 5851SOL    HW129189   2.695   4.712   5.724  1.5934  0.8359 -0.0238
 5851SOL    HW229190   2.731   0.114   5.704  0.9105 -2.5202 -0.8828
 5852SOL     OW29191   4.396   3.887  16.720 -0.1467 -0.1596 -0.1727
 5852SOL    HW129192   4.313   3.925  16.689  0.7090  0.0704 -2.1492
 5852SOL    HW229193   4.386   3.796  16.694 -2.1139  0.4922 -1.6975
 5853SOL     OW29194   3.847   1.576   2.553  0.1171 -0.3494  0.7651
 5853SOL    HW129195   3.823   1.663   2.521 -0.3902 -1.8914 -3.1735
 5853SOL    HW229196   3.760   1.557   2.587 -1.1286 -0.5255 -2.4569
 5854SOL     OW29197   2.374   1.723  16.499  0.4580 -0.3439  0.1053
 5854SOL    HW129198   2.429   1.716  16.421  1.2517  1.1944  0.5389
 5854SOL    HW229199   2.341   1.812  16.491 -1.0745 -1.0979 -1.9540
 5855SOL     OW29200   4.633   3.399   7.043 -0.0202 -0.1129  0.1608
 5855SOL    HW129201   4.639   3.413   6.948  0.7709  0.7042  0.3305
 5855SOL    HW229202   4.728   3.386   7.045 -0.1912 -1.4671 -0.0710
 5856SOL     OW29203   3.858   3.264   4.442 -0.1623 -0.1394  0.1759
 5856SOL    HW129204   3.907   3.181   4.445 -0.3981 -0.2787  0.1864
 5856SOL    HW229205   3.852   3.275   4.537 -0.8362  0.3050  0.0815
 5857SOL     OW29206   2.106   4.303   4.074  0.5383  0.3675  0.3765
 5857SOL    HW129207   2.167   4.238   4.108 -0.1354 -0.0734  0.7549
 5857SOL    HW229208   2.024   4.271   4.113  0.3290  1.3013  0.7180
 5858SOL     OW29209   2.188   0.318   3.262 -0.1035  0.5603  0.4451
 5858SOL    HW129210   2.254   0.381   3.233  1.5985 -0.7286  1.5762
 5858SOL    HW229211   2.208   0.233   3.223 -1.2690  0.5283 -0.0984
 5859SOL     OW29212   4.035   4.282  14.963 -0.2354  0.2164  0.6123
 5859SOL    HW129213   4.099   4.249  14.899 -1.5033 -1.4270  0.2164
 5859SOL    HW229214   3.955   4.279  14.910 -0.1322  0.1747  0.4577
 5860SOL     OW29215   4.561   0.058   6.286  0.1366 -0.3065  0.2428
 5860SOL    HW129216   4.623   0.066   6.213 -0.1642 -2.2826 -0.2490
 5860SOL    HW229217   4.582   0.127   6.348  0.5109 -0.6053  0.4450
 5861SOL     OW29218   3.314   4.412   2.020  0.1186  0.1873  0.1409
 5861SOL    HW129219   3.297   4.498   2.059 -0.1591 -0.1347  0.7324
 5861SOL    HW229220   3.337   4.375   2.105 -1.1534  1.7655  1.1890
 5862SOL     OW29221   3.913   3.594   2.069 -0.1699 -0.3053  0.1118
 5862SOL    HW129222   3.831   3.644   2.070 -0.8913 -1.4776 -1.1918
 5862SOL    HW229223   3.953   3.599   2.156 -0.5094  0.4961  0.2295
 5863SOL     OW29224   3.722   0.565   2.578 -0.5025  0.7427 -0.3591
 5863SOL    HW129225   3.728   0.647   2.529  0.3234  0.3044 -0.9776
 5863SOL    HW229226   3.811   0.552   2.610 -0.2179  0.6839 -1.1808
 5864SOL     OW29227   2.424   0.033   6.949 -0.3621  0.2701  0.4663
 5864SOL    HW129228   2.450   0.123   6.968  2.4425  0.0996 -2.5958
 5864SOL    HW229229   2.412   0.001   7.038 -0.7074 -0.8685  0.0108
 5865SOL     OW29230   0.751   0.201  11.292  0.2328  0.2804 -0.0805
 5865SOL    HW129231   0.790   0.259  11.357 -2.5479  0.8805  1.0256
 5865SOL    HW229232   0.738   0.124  11.347  5.3425 -0.5944 -0.0489
 5866SOL     OW29233   1.135   3.277   3.420 -0.1732  0.3747  0.2872
 5866SOL    HW129234   1.176   3.338   3.359  0.4297 -1.0503 -0.7427
 5866SOL    HW229235   1.073   3.332   3.468  0.4436  0.4615  0.9852
 5867SOL     OW29236   1.294   3.604  17.086  0.2979  0.2339  0.1776
 5867SOL    HW129237   1.370   3.589  17.143  0.7269  1.8781  0.0232
 5867SOL    HW229238   1.330   3.595  16.998 -0.9949 -2.1179 -0.1154
 5868SOL     OW29239   3.296   2.000   4.139 -0.7514  0.2078 -0.0128
 5868SOL    HW129240   3.233   2.037   4.200  0.2112 -2.0497  2.3643
 5868SOL    HW229241   3.307   1.914   4.180  1.0373 -0.7713 -2.5116
 5869SOL     OW29242   4.314   2.325   0.216  0.2622 -0.6827 -0.0114
 5869SOL    HW129243   4.287   2.333   0.124 -0.9219  1.3468  0.5134
 5869SOL    HW229244   4.397   2.279   0.202  2.1270  1.8763  2.5836
 5870SOL     OW29245   3.718   4.575  17.311 -0.2188 -0.1825  0.1654
 5870SOL    HW129246   3.699   4.551  17.401  1.5862 -1.5307  0.1993
 5870SOL    HW229247   3.646   4.531  17.266 -0.1265  0.2811 -0.4493
 5871SOL     OW29248   1.838   4.539   9.164  0.4810 -0.1433  0.3275
 5871SOL    HW129249   1.866   4.553   9.254  0.8966  0.7767  0.0644
 5871SOL    HW229250   1.753   4.497   9.171  0.4166 -0.0520  0.0893
 5872SOL     OW29251   1.959   3.254   7.085  0.2088  0.5102 -0.6105
 5872SOL    HW129252   1.939   3.298   7.002 -1.9524 -0.8437 -0.7832
 5872SOL    HW229253   1.903   3.177   7.077  0.1416  0.5431 -0.4540
 5873SOL     OW29254   0.681   2.302   7.178 -0.5525 -0.1817  0.1796
 5873SOL    HW129255   0.632   2.346   7.247 -0.0560 -0.4082  0.6713
 5873SOL    HW229256   0.737   2.238   7.223 -0.3559 -0.5443 -0.5779
 5874SOL     OW29257   3.117   1.888   5.748  0.0682  0.4197 -0.1397
 5874SOL    HW129258   3.092   1.880   5.840 -3.4321 -1.4694 -1.2798
 5874SOL    HW229259   3.107   1.980   5.724 -0.5041  0.9699  2.1426
 5875SOL     OW29260   2.053   2.556   8.347 -0.0613 -0.5836 -0.0187
 5875SOL    HW129261   2.057   2.510   8.431 -0.1975  0.5906  0.6285
 5875SOL    HW229262   2.137   2.601   8.338 -0.9931  0.8230 -1.5627
 5876SOL     OW29263   2.078   1.621   9.491 -0.1055 -0.6274 -0.0535
 5876SOL    HW129264   1.993   1.587   9.519 -0.5521  2.2813  2.2300
 5876SOL    HW229265   2.052   1.681   9.422  2.0690 -0.6377 -0.8836
 5877SOL     OW29266   1.741   2.498  15.020  0.0814 -0.6062  0.4366
 5877SOL    HW129267   1.741   2.405  14.997  1.5920 -1.0589  2.2771
 5877SOL    HW229268   1.649   2.525  15.024  0.8326  1.8843  1.5818
 5878SOL     OW29269   1.728   4.012   9.008 -0.2261  0.8245 -0.1609
 5878SOL    HW129270   1.791   4.058   8.952 -1.4166  1.3761 -1.0594
 5878SOL    HW229271   1.653   4.027   8.951  1.3307 -0.0358 -2.4375
 5879SOL     OW29272   1.404   2.588   5.244  0.8085 -0.4650 -0.3431
 5879SOL    HW129273   1.407   2.614   5.152 -0.0531 -0.7377 -0.4578
 5879SOL    HW229274   1.345   2.515   5.224 -0.5420  0.2040  1.2232
 5880SOL     OW29275   3.033   1.801   2.486  0.2541 -0.0751 -0.5510
 5880SOL    HW129276   2.979   1.876   2.462  3.2262  2.6116  1.1695
 5880SOL    HW229277   3.040   1.807   2.581 -1.0977 -0.3139 -0.4496
 5881SOL     OW29278   3.778   2.842   0.835  0.5841  0.5085 -0.0363
 5881SOL    HW129279   3.710   2.847   0.902 -2.6500 -2.9006 -3.1311
 5881SOL    HW229280   3.732   2.845   0.752 -0.0643 -0.8221  0.2744
 5882SOL     OW29281   2.986   2.564  11.879 -0.0784  0.2368  0.0344
 5882SOL    HW129282   2.905   2.519  11.903 -1.2592  3.0060  1.2514
 5882SOL    HW229283   2.985   2.556  11.784  2.0294  4.5852 -0.4067
 5883SOL     OW29284   1.819   2.078   7.160 -0.1814  0.4441  0.2994
 5883SOL    HW129285   1.775   2.025   7.093 -1.9324 -1.2555  2.8286
 5883SOL    HW229286   1.904   2.095   7.120 -0.9450 -1.1383 -2.0073
 5884SOL     OW29287   1.340   3.909   8.063  0.8939  0.3826 -0.5034
 5884SOL    HW129288   1.429   3.935   8.043  1.1769  1.3430  2.0499
 5884SOL    HW229289   1.317   3.866   7.981 -1.2341 -0.1186  0.3344
 5885SOL     OW29290   0.592   4.597  14.578 -0.5130 -0.2713 -0.3601
 5885SOL    HW129291   0.535   4.674  14.585 -2.4074 -1.4316 -3.2896
 5885SOL    HW229292   0.659   4.628  14.517 -0.0547 -2.9245 -1.1893
 5886SOL     OW29293   2.093   3.779  13.128  0.1999 -0.2721  0.6233
 5886SOL    HW129294   2.095   3.748  13.219 -0.5359  0.5822  0.9309
 5886SOL    HW229295   2.163   3.732  13.082 -0.2911 -1.2321  0.8542
 5887SOL     OW29296   0.464   0.623   4.868 -0.4454  0.2844  0.5576
 5887SOL    HW129297   0.452   0.623   4.963 -0.8345 -0.5339  0.5059
 5887SOL    HW229298   0.542   0.571   4.854  0.1778  1.9765 -2.1951
 5888SOL     OW29299   3.908   1.574   8.655  0.5571 -0.8793  0.1329
 5888SOL    HW129300   3.994   1.553   8.618  0.9092  1.2740 -0.2852
 5888SOL    HW229301   3.853   1.496   8.648 -1.0958  0.1450  1.7439
 5889SOL     OW29302   1.607   4.571  13.960  0.0230 -0.3088  0.3687
 5889SOL    HW129303   1.535   4.634  13.957  1.4661  1.2519 -1.0368
 5889SOL    HW229304   1.591   4.536  13.872 -1.5845 -1.9267  1.2848
 5890SOL     OW29305   4.724   2.218   4.877 -0.1668 -0.2860  0.0249
 5890SOL    HW129306   0.052   2.149   4.878  0.4499  0.3185  0.5124
 5890SOL    HW229307   4.716   2.236   4.971 -2.8910 -1.1718 -0.0155
 5891SOL     OW29308   2.631   0.258   0.800  0.9046  0.4880  0.0297
 5891SOL    HW129309   2.645   0.315   0.724  1.6582 -1.3410 -1.1967
 5891SOL    HW229310   2.721   0.246   0.832  0.4987  0.5769  1.1997
 5892SOL     OW29311   1.969   2.617   7.858  0.3234  0.3496  0.1786
 5892SOL    HW129312   1.947   2.574   7.940 -0.8111  0.3432 -0.1230
 5892SOL    HW229313   1.882   2.654   7.838  0.2785  0.2306  0.1548
 5893SOL     OW29314   1.801   2.498   4.810 -0.2212  0.0150  0.1336
 5893SOL    HW129315   1.721   2.533   4.849 -0.9069  0.2734 -1.4869
 5893SOL    HW229316   1.761   2.420   4.770 -1.3252  1.7221 -2.1016
 5894SOL     OW29317   4.374   0.476   6.239 -0.1431 -0.3634 -0.1868
 5894SOL    HW129318   4.291   0.524   6.236  0.3970  0.5148 -0.7775
 5894SOL    HW229319   4.349   0.398   6.289  0.2083  0.1077  0.7214
 5895SOL     OW29320   2.733   2.870   2.385  0.3715  0.2695 -0.3694
 5895SOL    HW129321   2.784   2.888   2.305  0.9167  1.9569  0.3560
 5895SOL    HW229322   2.786   2.819   2.446  1.1652 -0.4480 -1.6619
 5896SOL     OW29323   2.183   1.513   4.794 -1.0571  0.6200 -0.6411
 5896SOL    HW129324   2.124   1.445   4.760 -0.9228 -0.9186  2.2090
 5896SOL    HW229325   2.142   1.589   4.751  0.2565  0.9588 -1.2859
 5897SOL     OW29326   3.082   4.231   2.391  0.1056 -0.2034 -0.1664
 5897SOL    HW129327   3.159   4.274   2.353 -1.2474  1.1459 -1.3837
 5897SOL    HW229328   3.055   4.162   2.331  1.2363 -1.9857  1.3878
 5898SOL     OW29329   0.143   2.285  16.696 -0.7758 -0.5710 -0.5246
 5898SOL    HW129330   0.070   2.233  16.662 -0.7958 -2.2690  2.0696
 5898SOL    HW229331   0.101   2.343  16.759 -1.9695  0.3777 -2.2125
 5899SOL     OW29332   3.568   0.263   3.033 -0.1814  0.1384  0.0451
 5899SOL    HW129333   3.556   0.185   3.088  0.1455  0.7100  0.9222
 5899SOL    HW229334   3.537   0.232   2.949  1.1253  1.7472 -1.0287
 5900SOL     OW29335   3.861   3.905   7.666  0.0570  0.3473 -0.3912
 5900SOL    HW129336   3.946   3.861   7.660  1.8743  3.8188 -0.6061
 5900SOL    HW229337   3.826   3.877   7.582  1.0498 -0.1630 -0.6374
 5901SOL     OW29338   4.150   1.126   8.583  0.2030  0.2433 -0.4699
 5901SOL    HW129339   4.127   1.087   8.667 -1.7719  1.1292 -0.5822
 5901SOL    HW229340   4.215   1.062   8.554 -0.4119  0.3078 -2.0018
 5902SOL     OW29341   2.922   2.143   2.610 -0.5425 -0.6172 -0.4956
 5902SOL    HW129342   2.994   2.206   2.604 -0.1744 -0.9211  0.8032
 5902SOL    HW229343   2.968   2.067   2.646 -0.3239 -0.7456 -1.0428
 5903SOL     OW29344   1.160   1.660   5.112 -0.5838 -0.5145  0.5282
 5903SOL    HW129345   1.241   1.663   5.162 -0.6104 -3.0933  0.7417
 5903SOL    HW229346   1.092   1.677   5.178  0.1909 -0.2644  1.2551
 5904SOL     OW29347   2.646   3.493  15.526  0.0973 -0.3063  0.1174
 5904SOL    HW129348   2.572   3.521  15.472  0.7330 -2.1160 -1.6883
 5904SOL    HW229349   2.718   3.542  15.484  0.4504 -1.5483 -0.7164
 5905SOL     OW29350   2.367   2.619   4.266 -0.4023 -0.4017 -1.0132
 5905SOL    HW129351   2.352   2.707   4.231  0.3950  0.4799  0.8617
 5905SOL    HW229352   2.280   2.603   4.304 -0.0754  2.6959  1.0210
 5906SOL     OW29353   3.345   0.135   8.811  0.2930  0.0363  0.3217
 5906SOL    HW129354   3.344   0.119   8.717  1.1844  0.9566  0.1651
 5906SOL    HW229355   3.424   0.089   8.839  1.1180  1.5658  0.4807
 5907SOL     OW29356   1.816   4.684   3.933 -0.3364  0.9169 -0.2311
 5907SOL    HW129357   1.907   4.666   3.956 -0.2527 -0.1389 -1.4095
 5907SOL    HW229358   1.773   4.612   3.979 -0.4551  1.1684  0.0522
 5908SOL     OW29359   0.397   3.410   5.082  0.5098 -0.1426  0.2201
 5908SOL    HW129360   0.423   3.318   5.072 -0.8920 -0.6913  1.5194
 5908SOL    HW229361   0.434   3.437   5.166 -2.8439 -1.9318  2.2753
 5909SOL     OW29362   3.862   2.735   7.360 -0.1337 -0.1800  0.5136
 5909SOL    HW129363   3.858   2.723   7.455 -1.8493 -0.0194  0.4673
 5909SOL    HW229364   3.901   2.656   7.323 -1.0948  0.1030 -1.1309
 5910SOL     OW29365   0.276   4.641  14.773  0.1804  0.2659  0.5522
 5910SOL    HW129366   0.348   4.703  14.780  1.3740 -0.9189 -1.4620
 5910SOL    HW229367   0.209   4.705  14.748 -1.0818 -0.7229  1.3804
 5911SOL     OW29368   2.556   3.555   7.126  0.0589 -0.0779 -0.2323
 5911SOL    HW129369   2.535   3.480   7.182 -2.1243 -0.8689 -2.1413
 5911SOL    HW229370   2.568   3.621   7.195 -0.8758 -0.2200  0.0712
 5912SOL     OW29371   3.340   2.354   5.716  0.6626  0.0926 -0.1190
 5912SOL    HW129372   3.369   2.268   5.746 -0.7809  0.0844  1.2649
 5912SOL    HW229373   3.404   2.362   5.646  0.9352  1.2863  0.2603
 5913SOL     OW29374   2.658   3.206  12.544 -0.0106 -0.3789 -0.4636
 5913SOL    HW129375   2.748   3.239  12.552 -0.5028  0.6481  0.7789
 5913SOL    HW229376   2.661   3.128  12.488  0.3143  0.2938 -1.3759
 5914SOL     OW29377   4.190   3.214  11.507 -0.5010  0.1041 -0.6059
 5914SOL    HW129378   4.200   3.286  11.444 -2.8540 -0.1133 -1.2508
 5914SOL    HW229379   4.275   3.174  11.489  0.0937  1.2464 -0.3681
 5915SOL     OW29380   3.266   0.372   0.244 -0.7136 -0.1518  0.5270
 5915SOL    HW129381   3.299   0.288   0.213  0.6646  0.2227  0.9910
 5915SOL    HW229382   3.174   0.345   0.241 -0.9674  0.8953 -1.1789
 5916SOL     OW29383   4.614   1.637   6.037 -0.3649 -0.5432  0.2367
 5916SOL    HW129384   4.673   1.572   6.000 -1.7273 -1.4950 -0.2281
 5916SOL    HW229385   4.559   1.582   6.092 -0.6254  0.9550  1.4750
 5917SOL     OW29386   2.913   0.777  16.411 -0.0959  0.0244  0.1793
 5917SOL    HW129387   2.938   0.855  16.360 -0.7876  0.9117  1.1952
 5917SOL    HW229388   2.991   0.722  16.405  0.6076  1.1445 -0.9886
 5918SOL     OW29389   1.947   4.600   9.416  0.7202 -0.3363 -0.2639
 5918SOL    HW129390   1.962   4.545   9.493 -1.5470 -1.0762 -0.3443
 5918SOL    HW229391   2.037   4.624   9.393  0.4651  1.5706  0.6819
 5919SOL     OW29392   1.449   3.162   0.302  0.1214 -0.2631  0.1982
 5919SOL    HW129393   1.531   3.127   0.266 -0.1031  0.8244 -1.3562
 5919SOL    HW229394   1.426   3.228   0.237 -0.7745  1.2653  2.0695
 5920SOL     OW29395   2.258   3.441  13.554 -0.1869 -0.8089 -0.0597
 5920SOL    HW129396   2.327   3.381  13.581 -0.1387 -0.3240  0.8941
 5920SOL    HW229397   2.309   3.521  13.545 -0.7071 -0.4603  0.0521
 5921SOL     OW29398   1.518   3.619   4.911  0.4926 -0.3680 -0.5155
 5921SOL    HW129399   1.466   3.672   4.971  0.8466  0.5796 -1.0469
 5921SOL    HW229400   1.591   3.595   4.968 -0.2390 -0.8123  0.2452
 5922SOL     OW29401   1.253   4.469  16.990 -0.7687  0.1518  0.1058
 5922SOL    HW129402   1.253   4.389  17.041 -4.1252 -1.5213 -2.4892
 5922SOL    HW229403   1.284   4.433  16.907 -0.6427  1.0054 -0.2182
 5923SOL     OW29404   0.633   2.691   0.546  0.3140 -0.4778 -0.0918
 5923SOL    HW129405   0.727   2.687   0.566  0.3505 -0.8687 -0.3371
 5923SOL    HW229406   0.636   2.657   0.457  0.1152  0.0356 -0.2937
 5924SOL     OW29407   1.264   1.592   1.458  0.5147 -0.4082 -0.4171
 5924SOL    HW129408   1.192   1.638   1.415  0.5141 -0.5556 -0.5757
 5924SOL    HW229409   1.291   1.537   1.384  2.1565  1.1305 -0.9550
 5925SOL     OW29410   1.224   3.543   3.270 -0.3501 -0.3625 -0.1685
 5925SOL    HW129411   1.302   3.594   3.252 -1.3892  1.5496  0.7625
 5925SOL    HW229412   1.171   3.563   3.193  0.0489 -1.4817 -0.7285
 5926SOL     OW29413   1.965   2.009   4.430  0.7298  0.0366  1.0188
 5926SOL    HW129414   1.886   1.987   4.381  0.9995  2.2986 -0.4671
 5926SOL    HW229415   2.030   2.010   4.360  3.1743  1.6608  3.2742
 5927SOL     OW29416   1.403   3.699   2.965  0.1435 -0.2124  0.0266
 5927SOL    HW129417   1.466   3.736   2.904 -0.9322  1.4572 -0.0781
 5927SOL    HW229418   1.334   3.765   2.958  0.8188  0.4984  0.0657
 5928SOL     OW29419   1.165   0.268   3.311 -0.0781 -0.8240 -0.4166
 5928SOL    HW129420   1.147   0.199   3.375 -0.8188 -2.6832 -2.6055
 5928SOL    HW229421   1.074   0.294   3.296  0.6771  2.1829  0.2252
 5929SOL     OW29422   4.722   3.157   3.749 -0.0835  0.0045  0.1198
 5929SOL    HW129423   4.677   3.166   3.833 -0.1016 -0.5827  0.1728
 5929SOL    HW229424   0.065   3.111   3.768  0.7778  1.0555 -1.0304
 5930SOL     OW29425   2.458   0.397   1.351  0.3519 -0.2344  0.6879
 5930SOL    HW129426   2.485   0.356   1.269 -1.8807 -0.9179  0.2878
 5930SOL    HW229427   2.523   0.467   1.348  1.8828 -1.6002  1.8585
 5931SOL     OW29428   4.369   2.354   3.816  0.0913 -0.1415 -0.1296
 5931SOL    HW129429   4.425   2.285   3.781  0.9769  0.0087  1.0156
 5931SOL    HW229430   4.414   2.435   3.790 -0.2695 -0.7053 -2.5299
 5932SOL     OW29431   2.994   1.223   3.570 -0.4705 -0.3461  0.2486
 5932SOL    HW129432   3.089   1.223   3.569 -0.4663  0.3153  0.9707
 5932SOL    HW229433   2.963   1.180   3.491  0.7733 -0.6975 -0.0322
 5933SOL     OW29434   1.694   1.814  11.393 -0.4302  0.2250  0.2266
 5933SOL    HW129435   1.697   1.838  11.301  2.1905 -0.2079  0.1937
 5933SOL    HW229436   1.742   1.883  11.439  0.6546 -0.4568  0.1197
 5934SOL     OW29437   3.090   0.136  17.658 -0.2579  0.5459 -0.1112
 5934SOL    HW129438   3.175   0.160  17.622 -0.9091  2.0929 -0.6312
 5934SOL    HW229439   3.080   0.198  17.730 -0.6355  0.5156 -0.1397
 5935SOL     OW29440   0.171   1.945  12.118  0.3012 -0.1478 -0.5180
 5935SOL    HW129441   0.218   1.924  12.037  0.6574  0.9886 -0.6138
 5935SOL    HW229442   0.097   1.992  12.080  1.3888  1.7636 -0.2765
 5936SOL     OW29443   4.433   2.896   3.847  0.5379  0.8718 -0.1151
 5936SOL    HW129444   4.479   2.963   3.899  2.2756  1.1972 -2.0442
 5936SOL    HW229445   4.498   2.827   3.858  1.9168  2.2760  0.5617
 5937SOL     OW29446   2.516   4.286  11.660 -0.3045 -0.1179  0.4500
 5937SOL    HW129447   2.426   4.312  11.642 -0.2253 -0.5316 -0.5409
 5937SOL    HW229448   2.560   4.371  11.659 -1.0609  0.2477 -1.3314
 5938SOL     OW29449   1.274   2.977  16.558 -0.1259 -0.7065  0.0499
 5938SOL    HW129450   1.316   2.903  16.515 -1.7707 -0.9521 -1.1040
 5938SOL    HW229451   1.196   2.930  16.586  0.5062 -1.8699 -0.1421
 5939SOL     OW29452   0.537   1.712   6.484  0.1534 -0.4632  0.4247
 5939SOL    HW129453   0.483   1.781   6.446 -0.4059 -0.0782  1.9085
 5939SOL    HW229454   0.615   1.766   6.468 -1.6705  1.9245 -0.4765
 5940SOL     OW29455   1.118   2.239  11.003 -0.3538 -0.8445 -0.2514
 5940SOL    HW129456   1.133   2.148  10.975 -0.8901 -0.5476 -1.5197
 5940SOL    HW229457   1.032   2.238  11.044 -0.8724  2.0422 -1.2956
 5941SOL     OW29458   3.561   4.331  15.088 -0.3997 -0.1186  0.0928
 5941SOL    HW129459   3.518   4.246  15.076 -0.2335 -0.1107 -0.5702
 5941SOL    HW229460   3.586   4.352  14.998  1.7051 -0.3389  0.6174
 5942SOL     OW29461   3.027   2.710   2.063 -0.2694 -0.7529  0.7811
 5942SOL    HW129462   3.113   2.694   2.026 -1.0233  1.0047 -1.7670
 5942SOL    HW229463   3.034   2.805   2.076 -0.8041 -0.6849  0.5950
 5943SOL     OW29464   4.076   4.424   3.425 -0.6054  0.1393 -0.0695
 5943SOL    HW129465   4.158   4.456   3.461 -0.3272 -1.4321  0.7001
 5943SOL    HW229466   4.025   4.505   3.420 -1.7104 -0.5789 -0.6688
 5944SOL     OW29467   1.770   3.387   6.195 -0.3612  0.0300 -0.4010
 5944SOL    HW129468   1.747   3.478   6.211 -1.6860 -0.4665  0.5299
 5944SOL    HW229469   1.758   3.382   6.100 -3.4736  1.1000 -0.0892
 5945SOL     OW29470   0.168   4.287   7.450 -0.6725  0.3191  0.5321
 5945SOL    HW129471   0.243   4.342   7.471 -1.4362  1.6751 -0.2968
 5945SOL    HW229472   0.226   4.213   7.433 -0.9041 -0.1991  2.0685
 5946SOL     OW29473   1.419   2.095  13.129  0.0613  0.3957 -0.5777
 5946SOL    HW129474   1.378   2.182  13.131  0.0284  0.4032 -1.4620
 5946SOL    HW229475   1.504   2.109  13.169 -0.0651  0.4599 -0.3297
 5947SOL     OW29476   2.328   2.986   3.764 -0.0405  0.5563 -0.2347
 5947SOL    HW129477   2.410   3.036   3.761  0.8865 -1.0224 -1.2299
 5947SOL    HW229478   2.340   2.930   3.840 -0.6206 -2.4728 -2.3766
 5948SOL     OW29479   0.760   0.281   7.706  0.5069 -0.7464 -0.4334
 5948SOL    HW129480   0.729   0.347   7.768  1.3427  0.4597 -1.2916
 5948SOL    HW229481   0.782   0.211   7.768  2.2004  0.9909  0.9251
 5949SOL     OW29482   0.399   4.213  11.754  0.1946  0.0127 -0.2646
 5949SOL    HW129483   0.477   4.231  11.807  0.0968  1.5317 -0.6499
 5949SOL    HW229484   0.399   4.290  11.698  2.1837 -1.5656 -2.4425
 5950SOL     OW29485   3.480   2.461   2.034  0.2462 -0.1648 -0.2981
 5950SOL    HW129486   3.542   2.399   2.074  0.8363  1.4558  1.2878
 5950SOL    HW229487   3.407   2.406   2.005 -0.0944  1.2007 -1.9770
 5951SOL     OW29488   0.741   2.755   7.556 -0.3257  0.1501 -0.2526
 5951SOL    HW129489   0.753   2.793   7.469 -1.1599  1.1585  0.0605
 5951SOL    HW229490   0.657   2.791   7.587 -0.7434 -0.9508 -0.1142
 5952SOL     OW29491   1.080   0.104  17.169  0.0499 -0.3871  0.4008
 5952SOL    HW129492   1.047   0.159  17.098  3.1861 -0.3251 -1.0347
 5952SOL    HW229493   0.998   0.081  17.212 -0.0642  0.0389  0.4133
 5953SOL     OW29494   0.379   0.887   5.105 -0.5176 -0.0732 -0.0891
 5953SOL    HW129495   0.349   0.798   5.124 -1.1783  0.3094  0.6430
 5953SOL    HW229496   0.376   0.877   5.010 -1.8061  0.8591 -0.1531
 5954SOL     OW29497   1.764   2.771   5.151 -0.2171 -0.1853  0.5106
 5954SOL    HW129498   1.770   2.771   5.247  1.5061  0.4491  0.3950
 5954SOL    HW229499   1.795   2.685   5.124 -2.5013 -0.3412 -1.6778
 5955SOL     OW29500   2.387   4.586   8.005 -0.0304 -0.2904  0.3287
 5955SOL    HW129501   2.366   4.518   8.069  0.4200  0.9706  1.8252
 5955SOL    HW229502   2.382   4.542   7.921 -0.9748 -1.3544  0.9453
 5956SOL     OW29503   4.610   1.831   8.180 -0.4652  0.0620 -0.0827
 5956SOL    HW129504   4.590   1.795   8.094 -2.4262  1.0613 -0.0471
 5956SOL    HW229505   4.527   1.818   8.225  0.6928 -0.8920  1.7889
 5957SOL     OW29506   4.353   2.223   6.354  0.3352  0.8263 -0.5993
 5957SOL    HW129507   4.276   2.168   6.367 -0.4682  2.3441  0.9915
 5957SOL    HW229508   4.343   2.247   6.262 -0.4350 -2.2092 -1.3118
 5958SOL     OW29509   1.101   1.571  16.018  0.1176  0.6404 -0.4730
 5958SOL    HW129510   1.170   1.511  15.991 -1.4357 -1.1993 -0.3413
 5958SOL    HW229511   1.078   1.600  15.930  2.1868  0.0162 -1.2201
 5959SOL     OW29512   4.450   3.009   6.230  0.0003 -0.5447 -0.2383
 5959SOL    HW129513   4.355   3.011   6.239 -0.3734 -1.7071 -3.7958
 5959SOL    HW229514   4.473   2.989   6.321  3.5930 -0.6008 -1.1565
 5960SOL     OW29515   3.237   0.371   1.926  0.0483 -0.1255 -0.0065
 5960SOL    HW129516   3.155   0.327   1.947 -0.4103  1.2665  1.0962
 5960SOL    HW229517   3.254   0.335   1.839 -1.2643  0.8568 -0.6703
 5961SOL     OW29518   4.059   0.998   6.065 -0.0600  0.2479 -0.1725
 5961SOL    HW129519   4.070   1.093   6.057  1.4822  0.0831 -0.0669
 5961SOL    HW229520   4.088   0.986   6.156  0.7245  1.0990 -0.3071
 5962SOL     OW29521   1.361   3.614  15.992 -0.3672  0.7765  0.1037
 5962SOL    HW129522   1.426   3.627  16.062  0.2785 -2.1067  0.0467
 5962SOL    HW229523   1.418   3.635  15.919 -0.7636 -0.5553 -0.5921
 5963SOL     OW29524   1.508   3.074  17.155  1.1914 -0.1023  0.3920
 5963SOL    HW129525   1.463   3.144  17.203  0.4753 -1.7845  2.1820
 5963SOL    HW229526   1.553   3.024  17.224  2.2476 -3.2791 -2.6015
 5964SOL     OW29527   3.913   1.223   3.443 -0.7773  0.0529 -0.0791
 5964SOL    HW129528   3.929   1.129   3.455  0.1892  0.2821  0.4481
 5964SOL    HW229529   3.939   1.252   3.355  0.7779  1.7019  0.9342
 5965SOL     OW29530   1.290   4.216   5.539 -0.0674 -0.4585 -0.6927
 5965SOL    HW129531   1.218   4.258   5.492  0.0139  0.5585  0.0742
 5965SOL    HW229532   1.242   4.169   5.607  0.8320 -0.4931 -0.0690
 5966SOL     OW29533   2.403   0.084   7.292  0.0721  0.0967 -0.0800
 5966SOL    HW129534   2.393   0.168   7.337  1.3942  0.9385 -1.3719
 5966SOL    HW229535   2.490   0.093   7.254  0.0800  0.5147  0.0418
 5967SOL     OW29536   1.360   4.425  14.525  0.0137 -0.1577  0.8535
 5967SOL    HW129537   1.343   4.333  14.543 -1.9638 -0.3319 -1.8199
 5967SOL    HW229538   1.428   4.421  14.458 -1.9928  0.0863 -1.2208
 5968SOL     OW29539   0.282   1.538  12.250  0.2912  0.1072 -0.2521
 5968SOL    HW129540   0.339   1.476  12.296  0.0989 -2.7036 -3.7839
 5968SOL    HW229541   0.338   1.553  12.175 -1.3876  0.6748 -1.4022
 5969SOL     OW29542   1.347   4.322  13.919  0.5876 -0.2086  0.1065
 5969SOL    HW129543   1.412   4.392  13.918 -2.1753  2.3405 -1.0474
 5969SOL    HW229544   1.364   4.275  13.837 -0.1099  0.2711 -0.3137
 5970SOL     OW29545   0.024   3.057   6.788 -0.2130  0.2923  0.3858
 5970SOL    HW129546   0.100   3.030   6.841 -0.6152  0.2463  0.9362
 5970SOL    HW229547   0.041   3.147   6.762  1.4304 -0.9392 -2.8671
 5971SOL     OW29548   3.899   3.274   8.117  0.7009 -0.7772 -0.2143
 5971SOL    HW129549   3.848   3.289   8.037 -1.3759  0.5767  1.3731
 5971SOL    HW229550   3.889   3.179   8.130  1.5307 -1.0064 -1.2184
 5972SOL     OW29551   1.496   4.022   8.815  0.1404  0.1644  0.2304
 5972SOL    HW129552   1.444   3.967   8.873 -0.8455  1.3166  0.4366
 5972SOL    HW229553   1.452   4.006   8.731 -0.0893 -1.5921  0.7044
 5973SOL     OW29554   1.217   2.746  16.886  0.5746 -0.0438 -0.2256
 5973SOL    HW129555   1.229   2.747  16.981  1.5749 -0.4791 -0.3477
 5973SOL    HW229556   1.130   2.785  16.876  0.7997  0.3855 -0.4872
 5974SOL     OW29557   1.803   4.290   6.232 -0.3450 -0.2496 -0.5898
 5974SOL    HW129558   1.876   4.229   6.217 -0.5144 -1.1703  2.3260
 5974SOL    HW229559   1.751   4.281   6.152 -0.1733  0.7583 -0.8168
 5975SOL     OW29560   2.234   0.148  12.444 -0.4013 -0.1958 -0.2207
 5975SOL    HW129561   2.213   0.161  12.536 -0.0015  2.7424 -0.5637
 5975SOL    HW229562   2.224   0.234  12.405  0.6091  0.9919  2.1403
 5976SOL     OW29563   1.571   2.857   3.053  0.4387 -0.0190 -0.5150
 5976SOL    HW129564   1.626   2.934   3.038  0.1762 -0.0009 -1.4315
 5976SOL    HW229565   1.490   2.906   3.068  0.4327 -0.6796  1.6169
 5977SOL     OW29566   2.216   0.874   7.172 -0.0072  0.1054 -0.3172
 5977SOL    HW129567   2.280   0.849   7.105  0.9425  1.3920  0.1388
 5977SOL    HW229568   2.187   0.955   7.131 -2.0194 -1.0879 -1.3074
 5978SOL     OW29569   1.422   0.539  11.603  0.7429  0.3050 -0.7305
 5978SOL    HW129570   1.375   0.537  11.519  0.8019  1.5315 -0.7938
 5978SOL    HW229571   1.437   0.633  11.616  0.7731 -0.0281  1.5666
 5979SOL     OW29572   3.233   2.018   2.199 -0.3901 -0.5518  0.0515
 5979SOL    HW129573   3.159   2.074   2.174 -1.3014 -0.6922  2.4673
 5979SOL    HW229574   3.195   1.933   2.220  1.6569 -0.8828  2.3858
 5980SOL     OW29575   3.322   2.391   4.709  0.0386  0.6684  0.2555
 5980SOL    HW129576   3.353   2.466   4.758  1.3297  0.1740  0.2049
 5980SOL    HW229577   3.238   2.420   4.673  1.8447  1.2491 -3.5572
 5981SOL     OW29578   2.874   0.396  16.865  0.0756  0.1942  0.1822
 5981SOL    HW129579   2.879   0.321  16.924  2.0807  0.4554  0.3423
 5981SOL    HW229580   2.815   0.356  16.801  2.4378 -1.4359 -1.0021
 5982SOL     OW29581   2.798   3.680  10.477  0.7661 -0.1825  0.3386
 5982SOL    HW129582   2.711   3.678  10.517  0.6859  1.5190  0.2485
 5982SOL    HW229583   2.806   3.766  10.436 -1.7679 -0.5175 -0.8449
 5983SOL     OW29584   3.959   4.701  11.455 -0.6032  0.4258  0.3152
 5983SOL    HW129585   3.969   4.608  11.475  3.2150  0.5106 -1.1121
 5983SOL    HW229586   4.007   4.708  11.372 -0.1066 -0.1284  0.5532
 5984SOL     OW29587   1.268   1.960  13.532 -0.1737  0.1081  0.0146
 5984SOL    HW129588   1.255   2.044  13.490  2.6433  1.1191  1.1413
 5984SOL    HW229589   1.181   1.926  13.550 -0.1749  1.7099  3.1345
 5985SOL     OW29590   3.330   2.433   4.128  0.5091 -0.7053  0.0605
 5985SOL    HW129591   3.254   2.420   4.071 -0.2334  1.5996  0.5478
 5985SOL    HW229592   3.354   2.342   4.147 -0.7278 -0.6670  1.7392
 5986SOL     OW29593   0.691   4.535  12.780  0.3400  0.0089  0.2026
 5986SOL    HW129594   0.680   4.441  12.767 -0.2156 -0.1789  2.0206
 5986SOL    HW229595   0.607   4.569  12.749  0.0312 -0.3583  0.6197
 5987SOL     OW29596   4.310   2.785   8.107  0.3012  0.1826  0.1254
 5987SOL    HW129597   4.318   2.728   8.183 -0.1884 -2.1459 -1.5696
 5987SOL    HW229598   4.260   2.863   8.132 -0.4395  0.0601 -0.9738
 5988SOL     OW29599   1.434   0.532  17.143 -0.2812 -0.5006 -0.5577
 5988SOL    HW129600   1.401   0.442  17.142  2.3943 -1.4757 -0.0372
 5988SOL    HW229601   1.370   0.564  17.206 -1.3699 -0.9442 -1.4310
 5989SOL     OW29602   2.104   1.092   7.413  0.3663  0.5789 -0.0902
 5989SOL    HW129603   2.197   1.096   7.391  0.5569 -2.0471  0.2563
 5989SOL    HW229604   2.074   1.173   7.372 -0.2724 -0.0019 -0.7649
 5990SOL     OW29605   1.538   1.556   1.859  1.1308  0.2028  0.3672
 5990SOL    HW129606   1.556   1.647   1.883  0.0236  0.1062  1.5787
 5990SOL    HW229607   1.561   1.566   1.767 -4.7000  0.7698 -1.0451
 5991SOL     OW29608   2.203   0.959   5.693  0.2334  1.1961  0.5545
 5991SOL    HW129609   2.186   0.982   5.785  0.2360 -0.1272  0.8878
 5991SOL    HW229610   2.196   1.042   5.646 -0.5737 -0.1532 -1.6591
 5992SOL     OW29611   2.599   3.236  15.889  0.3779 -0.0357 -0.0214
 5992SOL    HW129612   2.509   3.215  15.911  0.0027  0.4963 -1.0247
 5992SOL    HW229613   2.632   3.278  15.968  1.5941  1.5238 -1.3557
 5993SOL     OW29614   2.450   2.469  17.256 -0.1593  0.2227  0.4291
 5993SOL    HW129615   2.451   2.420  17.174  1.4392  2.2293 -0.7533
 5993SOL    HW229616   2.505   2.542  17.229  0.7765  0.4142  2.8161
 5994SOL     OW29617   0.282   2.708   7.780 -0.3220 -0.8145  0.3153
 5994SOL    HW129618   0.197   2.702   7.823 -0.2006 -0.3891  0.6022
 5994SOL    HW229619   0.352   2.679   7.838 -0.5908 -0.8942  0.6004
 5995SOL     OW29620   0.295   0.282   4.611 -0.4231  0.4348  0.6682
 5995SOL    HW129621   0.350   0.360   4.624  1.2766 -0.6383 -0.1229
 5995SOL    HW229622   0.332   0.246   4.530 -2.4696  1.7958 -0.8754
 5996SOL     OW29623   2.538   2.262   7.863  0.3502  0.1031  0.3042
 5996SOL    HW129624   2.493   2.304   7.935 -2.6882  0.4510 -1.8108
 5996SOL    HW229625   2.624   2.290   7.895  1.1366 -0.1678 -1.5320
 5997SOL     OW29626   2.481   0.024  12.913  0.0561  0.8662  0.4855
 5997SOL    HW129627   2.484   4.667  12.913  1.5432  0.9024  0.3155
 5997SOL    HW229628   2.399   0.041  12.867  0.2603 -0.0389 -0.2137
 5998SOL     OW29629   1.886   1.794   5.990  0.4851 -0.3143 -0.2261
 5998SOL    HW129630   1.816   1.849   6.028 -0.5691 -1.7342 -0.0887
 5998SOL    HW229631   1.963   1.839   6.024  0.3883 -0.1952 -0.1640
 5999SOL     OW29632   3.429   1.776   3.261 -0.3534 -0.2675 -0.3441
 5999SOL    HW129633   3.351   1.728   3.289 -0.6129  1.3411  1.6786
 5999SOL    HW229634   3.495   1.741   3.321  0.0821  2.9364  1.0427
 6000SOL     OW29635   0.950   2.662   6.722 -0.0940  0.1037 -0.2566
 6000SOL    HW129636   0.886   2.726   6.691  1.5202  2.5877  1.4816
 6000SOL    HW229637   1.019   2.681   6.659  1.9947  0.9589  2.2909
 6001SOL     OW29638   0.283   1.201   7.924 -0.9249 -0.0143 -0.6004
 6001SOL    HW129639   0.378   1.196   7.936 -1.0420  0.3437  0.5567
 6001SOL    HW229640   0.261   1.159   8.008 -0.7330  0.1967 -0.4452
 6002SOL     OW29641   0.119   1.120   9.026 -0.1822  0.2572 -0.6067
 6002SOL    HW129642   0.147   1.211   9.033  0.5177  0.0654 -0.8976
 6002SOL    HW229643   0.169   1.089   8.951 -0.0887 -0.3438 -0.3003
 6003SOL     OW29644   2.248   0.907   2.278  0.0862  0.0656 -0.4098
 6003SOL    HW129645   2.157   0.881   2.292  0.7157 -0.6828  2.3270
 6003SOL    HW229646   2.269   0.956   2.357  0.2744 -0.0582 -0.3836
 6004SOL     OW29647   3.242   1.729  13.916 -0.4056  0.3486  0.1295
 6004SOL    HW129648   3.312   1.690  13.864  0.5190 -0.7961  2.2281
 6004SOL    HW229649   3.223   1.805  13.861  0.1213  0.7678  0.5243
 6005SOL     OW29650   0.544   3.940  16.617 -0.5287 -0.3431 -0.3155
 6005SOL    HW129651   0.531   4.004  16.547 -2.3191  0.5643  0.8523
 6005SOL    HW229652   0.455   3.905  16.624 -1.0112  0.5874 -1.7390
 6006SOL     OW29653   0.295   4.738   7.339  0.0069  0.8686  0.3999
 6006SOL    HW129654   0.228   0.002   7.407  0.3048  4.4841  0.5816
 6006SOL    HW229655   0.226   4.718   7.276  0.4580 -0.5283  0.3341
 6007SOL     OW29656   2.744   4.113   7.570  0.0438  0.2219 -0.1729
 6007SOL    HW129657   2.805   4.169   7.522  1.3642 -0.5504  0.5898
 6007SOL    HW229658   2.796   4.082   7.644 -0.8394  0.2498  0.4609
 6008SOL     OW29659   4.119   2.626  13.463 -0.2024 -0.2415  0.0324
 6008SOL    HW129660   4.187   2.608  13.528 -0.9266  0.3837  0.9738
 6008SOL    HW229661   4.144   2.717  13.449 -3.0101  0.2093 -2.0758
 6009SOL     OW29662   2.690   0.259   8.668 -0.0461 -0.0532  0.3761
 6009SOL    HW129663   2.684   0.175   8.713  0.1688 -0.4553 -0.3497
 6009SOL    HW229664   2.706   0.311   8.747  4.4689  0.3671 -0.7654
 6010SOL     OW29665   1.815   2.879   2.088 -0.1549  0.3852 -0.0158
 6010SOL    HW129666   1.863   2.901   2.168  0.5773  0.1645 -0.3956
 6010SOL    HW229667   1.894   2.860   2.036  0.9718  1.5634  1.2535
 6011SOL     OW29668   4.439   0.974  12.771  0.0852 -0.1646 -0.2144
 6011SOL    HW129669   4.532   0.960  12.791 -0.0659 -0.4610  0.2691
 6011SOL    HW229670   4.399   0.912  12.832 -3.7977  1.1981 -1.4319
 6012SOL     OW29671   3.210   3.751  16.109  0.1247  0.6032 -0.2502
 6012SOL    HW129672   3.146   3.688  16.074 -0.5407  0.2914  1.5205
 6012SOL    HW229673   3.181   3.838  16.082  2.1580  0.4543 -2.9269
 6013SOL     OW29674   1.731   4.397   4.492 -0.8876 -0.1685  0.4665
 6013SOL    HW129675   1.703   4.488   4.479 -1.1451 -0.1538  1.1018
 6013SOL    HW229676   1.769   4.401   4.580 -1.8204  1.8947  0.7936
 6014SOL     OW29677   1.878   3.153   5.561 -0.2819 -0.4206  0.0179
 6014SOL    HW129678   1.821   3.111   5.626 -0.1035 -1.3431 -0.4347
 6014SOL    HW229679   1.958   3.109   5.586  0.1463 -0.4979 -1.4967
 6015SOL     OW29680   4.051   2.165  17.534 -0.6938 -0.0415 -0.2892
 6015SOL    HW129681   3.957   2.152  17.521 -0.7911 -0.0999  0.4982
 6015SOL    HW229682   4.066   2.208  17.618  1.1139 -0.1403 -0.5556
 6016SOL     OW29683   2.277   1.316   5.320 -0.1399  0.2778 -0.6166
 6016SOL    HW129684   2.246   1.282   5.237  1.4896 -2.1644 -0.2144
 6016SOL    HW229685   2.368   1.334   5.295 -0.0831 -0.2408 -0.7814
 6017SOL     OW29686   4.375   1.742   6.468 -0.1854  0.6993  0.3240
 6017SOL    HW129687   4.399   1.743   6.561  1.2172  1.1724 -0.0484
 6017SOL    HW229688   4.286   1.705   6.467  0.1551 -0.1550  1.7741
 6018SOL     OW29689   1.150   0.777  10.717 -0.1235 -0.4737 -0.5504
 6018SOL    HW129690   1.123   0.686  10.731 -2.1258  0.5545  2.2251
 6018SOL    HW229691   1.071   0.812  10.758 -0.5702 -1.3391 -0.6775
 6019SOL     OW29692   3.228   3.088  16.967 -0.6839 -0.6213 -0.0105
 6019SOL    HW129693   3.292   3.053  16.905 -1.3193 -1.9910  0.1108
 6019SOL    HW229694   3.217   3.176  16.931  0.2793 -0.7346 -0.5765
 6020SOL     OW29695   4.596   1.187   1.490 -0.2022 -0.5877  0.2095
 6020SOL    HW129696   4.679   1.211   1.531  0.5797 -0.4651 -1.4070
 6020SOL    HW229697   4.577   1.248   1.419  0.2767  0.7253  1.2097
 6021SOL     OW29698   0.835   0.518   7.164  0.2658  0.0690  0.6394
 6021SOL    HW129699   0.745   0.531   7.193  0.4518 -2.9585  2.6567
 6021SOL    HW229700   0.849   0.428   7.195 -0.6692  0.8107  3.2009
 6022SOL     OW29701   4.158   2.092   3.689 -0.3437 -0.3158  0.3625
 6022SOL    HW129702   4.144   2.065   3.598 -0.3146 -0.4087  0.3860
 6022SOL    HW229703   4.248   2.123   3.702  0.4693 -1.5747 -2.3832
 6023SOL     OW29704   1.855   2.982   9.072  0.1414 -0.1188 -0.0844
 6023SOL    HW129705   1.917   2.951   9.138 -0.8526 -1.9121 -0.0156
 6023SOL    HW229706   1.803   3.042   9.126 -1.5215 -0.7920 -0.9497
 6024SOL     OW29707   3.163   3.063   1.506 -0.2156  0.6147 -0.2108
 6024SOL    HW129708   3.076   3.023   1.505 -1.0944  2.4748  1.2047
 6024SOL    HW229709   3.146   3.146   1.551  1.4370 -0.3756  2.2368
 6025SOL     OW29710   3.513   0.582   0.285  0.0322 -0.1694 -0.6313
 6025SOL    HW129711   3.581   0.648   0.300  0.2604 -0.5769  0.1337
 6025SOL    HW229712   3.435   0.633   0.305 -0.2922 -0.3930 -1.3383
 6026SOL     OW29713   0.912   1.283   0.427 -0.0443  0.3545  0.4377
 6026SOL    HW129714   0.867   1.350   0.479 -0.8256  1.0211 -1.0848
 6026SOL    HW229715   0.869   1.312   0.346  3.6584 -0.6624 -1.8545
 6027SOL     OW29716   2.740   0.629   4.449 -0.5436  0.7119  0.0472
 6027SOL    HW129717   2.822   0.582   4.436 -0.9023  0.0611  0.1271
 6027SOL    HW229718   2.764   0.681   4.525  1.6662 -0.5124  0.1900
 6028SOL     OW29719   0.511   2.034  15.014  0.1820 -0.1062  0.0523
 6028SOL    HW129720   0.430   1.986  15.030  0.4353 -1.1950 -1.9231
 6028SOL    HW229721   0.500   2.119  15.055  0.0574 -0.8760  1.6154
 6029SOL     OW29722   2.918   4.209   8.347  0.3506 -0.2580 -0.5129
 6029SOL    HW129723   2.843   4.151   8.357  0.8691 -1.1281 -1.7289
 6029SOL    HW229724   2.875   4.293   8.328 -2.9605 -1.8077  0.1251
 6030SOL     OW29725   4.354   1.560  15.732  0.1454 -0.6541 -0.1342
 6030SOL    HW129726   4.426   1.579  15.672  0.1180 -0.1001  0.0067
 6030SOL    HW229727   4.400   1.506  15.798 -2.3963 -1.6365  0.8509
 6031SOL     OW29728   3.333   1.465  12.455 -0.1000  0.3226  0.0173
 6031SOL    HW129729   3.413   1.510  12.483  0.0714 -0.3536  0.6110
 6031SOL    HW229730   3.352   1.399  12.388 -4.0651  0.6895 -1.4121
 6032SOL     OW29731   1.870   0.951   2.816 -0.2517  0.3000  0.8078
 6032SOL    HW129732   1.936   0.983   2.878 -0.3622  1.0970  0.5125
 6032SOL    HW229733   1.821   0.884   2.864 -1.4204  1.2932  1.0064
 6033SOL     OW29734   4.554   3.457   2.665  0.0169  0.5134  0.0137
 6033SOL    HW129735   4.465   3.452   2.698  0.3348  0.4046  0.8423
 6033SOL    HW229736   4.549   3.392   2.595 -1.5750 -0.9734  1.5163
 6034SOL     OW29737   3.647   1.341  16.395 -0.2828  0.1718 -0.4399
 6034SOL    HW129738   3.620   1.424  16.436  1.7066  1.0105 -0.8457
 6034SOL    HW229739   3.647   1.285  16.473  2.0114 -0.1629 -0.6956
 6035SOL     OW29740   3.582   0.735  17.481  0.5057  0.5964 -0.0134
 6035SOL    HW129741   3.582   0.781  17.564  0.9061  0.6478 -0.0444
 6035SOL    HW229742   3.538   0.801  17.427  2.8001  1.2124 -1.1199
 6036SOL     OW29743   4.553   1.901   2.020  0.7467 -0.2611 -0.3416
 6036SOL    HW129744   4.544   1.814   2.059 -1.4914  0.3224  0.4668
 6036SOL    HW229745   4.462   1.908   1.991 -0.1274 -0.0691  2.4385
 6037SOL     OW29746   1.955   4.354  13.003 -0.2623  0.1769  0.4186
 6037SOL    HW129747   1.884   4.295  12.978  0.0329  0.2065 -0.4991
 6037SOL    HW229748   1.920   4.443  12.993 -0.4816  0.1220  0.7103
 6038SOL     OW29749   3.627   2.466   0.275  0.0630 -0.2486 -0.4556
 6038SOL    HW129750   3.584   2.550   0.295 -1.0372 -0.5674 -1.5255
 6038SOL    HW229751   3.708   2.489   0.321 -0.6282  0.0247  0.6527
 6039SOL     OW29752   2.385   4.478  16.049 -0.3839 -0.2201  0.2010
 6039SOL    HW129753   2.374   4.564  16.008  1.0211  0.3396  1.0152
 6039SOL    HW229754   2.303   4.434  16.025  0.7785 -2.3434  0.1803
 6040SOL     OW29755   3.683   1.742   4.020 -0.6217  0.0443 -0.0527
 6040SOL    HW129756   3.675   1.650   4.046 -0.4778 -0.5446 -2.1307
 6040SOL    HW229757   3.756   1.725   3.960  1.5113  1.1632  2.1782
 6041SOL     OW29758   0.218   1.027   8.130 -0.6237  0.5267 -0.2866
 6041SOL    HW129759   0.148   0.975   8.090  0.4936 -0.7208 -0.6101
 6041SOL    HW229760   0.187   1.021   8.220  0.7444  1.0654  0.2227
 6042SOL     OW29761   3.153   3.326  10.865 -0.1173 -0.1254 -0.1719
 6042SOL    HW129762   3.112   3.374  10.937  0.5327  1.4899 -0.8740
 6042SOL    HW229763   3.244   3.323  10.894 -0.1068 -1.1566 -0.3105
 6043SOL     OW29764   0.450   2.864  16.398 -0.3135  0.1446  0.4596
 6043SOL    HW129765   0.431   2.855  16.305  1.7225  0.6524  0.0065
 6043SOL    HW229766   0.475   2.774  16.419 -2.1036 -0.3763  0.3477
 6044SOL     OW29767   0.245   2.242   2.615  0.1578  0.0188 -0.1850
 6044SOL    HW129768   0.204   2.183   2.552 -0.4698  0.5889 -0.3169
 6044SOL    HW229769   0.180   2.311   2.628 -1.6682 -1.2562 -2.5552
 6045SOL     OW29770   3.658   1.185  16.627  0.0307  0.3749 -0.7821
 6045SOL    HW129771   3.639   1.231  16.709 -1.2492  0.7329 -1.2689
 6045SOL    HW229772   3.619   1.102  16.655  1.2198  0.1974  0.3054
 6046SOL     OW29773   2.790   3.578   5.659  0.1350 -0.2905 -0.1165
 6046SOL    HW129774   2.716   3.584   5.598  0.2844  0.1914 -0.2431
 6046SOL    HW229775   2.851   3.609   5.592  1.2767  0.5981  1.3467
 6047SOL     OW29776   1.299   2.356   6.687 -0.0686  0.2054 -0.3675
 6047SOL    HW129777   1.303   2.277   6.740  1.7664  0.0748 -0.7062
 6047SOL    HW229778   1.282   2.317   6.601  0.6012  1.2798 -0.9856
 6048SOL     OW29779   3.593   4.729  15.317 -0.1380 -0.2774  0.6508
 6048SOL    HW129780   3.582   0.025  15.406 -1.4830 -1.7892  1.0451
 6048SOL    HW229781   3.511   0.018  15.277  0.3819 -1.6170 -1.3153
 6049SOL     OW29782   0.075   3.988   8.889  0.1381  0.2131 -0.0452
 6049SOL    HW129783   0.127   3.934   8.830 -0.1947 -1.7847  1.4665
 6049SOL    HW229784   0.022   3.918   8.929  0.2158  0.5880  0.7171
 6050SOL     OW29785   3.253   0.928   6.842 -0.8431  0.2901 -0.7871
 6050SOL    HW129786   3.222   0.900   6.756 -0.5775  1.3546 -1.2225
 6050SOL    HW229787   3.186   0.882   6.893  0.6273 -0.4282  0.5153
 6051SOL     OW29788   0.990   4.113  14.578 -0.0751  0.1152 -0.1037
 6051SOL    HW129789   0.903   4.152  14.566  1.1759  2.3573 -1.8637
 6051SOL    HW229790   0.998   4.044  14.512  1.2627 -1.6462  1.8987
 6052SOL     OW29791   3.666   1.940   9.367  0.1515  0.1626 -0.0007
 6052SOL    HW129792   3.617   2.012   9.405 -0.0195  0.5398 -0.9443
 6052SOL    HW229793   3.712   1.997   9.306  2.3140  0.0546  1.5073
 6053SOL     OW29794   4.067   3.994  12.074  0.1281 -0.4637  0.5418
 6053SOL    HW129795   3.986   3.944  12.086 -0.5537  0.6771  0.6744
 6053SOL    HW229796   4.046   4.072  12.125  1.5581  0.9591 -1.0741
 6054SOL     OW29797   2.003   4.246   9.331 -0.0969  0.2938 -0.3053
 6054SOL    HW129798   1.929   4.241   9.270 -0.2046 -0.2624 -0.1271
 6054SOL    HW229799   1.962   4.288   9.406  1.5091  0.1356  0.6492
 6055SOL     OW29800   2.540   2.788   6.095  0.7658 -0.2932  0.2813
 6055SOL    HW129801   2.610   2.725   6.114  2.9800  1.7152 -1.1514
 6055SOL    HW229802   2.581   2.854   6.040  1.0037 -0.1045  0.6776
 6056SOL     OW29803   0.748   3.154  12.024  0.5887 -0.5922 -0.7344
 6056SOL    HW129804   0.835   3.192  12.015 -0.0664  0.8727 -0.8544
 6056SOL    HW229805   0.745   3.109  11.940 -1.5320  0.4681 -1.2163
 6057SOL     OW29806   2.442   1.296  13.869 -0.2698  0.0419 -0.1810
 6057SOL    HW129807   2.469   1.357  13.800 -1.7599 -0.5187 -1.2738
 6057SOL    HW229808   2.354   1.274  13.837  0.4095 -0.8632 -1.4198
 6058SOL     OW29809   2.607   2.242   5.597 -0.3671  0.3636  0.9641
 6058SOL    HW129810   2.606   2.318   5.540 -1.0953 -0.6283 -0.3395
 6058SOL    HW229811   2.602   2.176   5.528  0.0952  2.3197 -0.9260
 6059SOL     OW29812   1.053   1.102   8.763 -0.7689 -0.1037 -0.5442
 6059SOL    HW129813   1.112   1.037   8.726 -1.3271  0.3708 -2.2668
 6059SOL    HW229814   1.011   1.137   8.684  1.0777  2.1309 -0.5514
 6060SOL     OW29815   0.512   0.969   5.519 -0.4243 -0.4753 -0.2545
 6060SOL    HW129816   0.504   0.933   5.607 -1.8196 -1.1384 -0.6500
 6060SOL    HW229817   0.500   0.889   5.467 -3.2387 -0.7929  0.8824
 6061SOL     OW29818   3.385   1.044   8.069 -0.0305 -0.5770  0.4888
 6061SOL    HW129819   3.361   0.952   8.064 -1.8896  0.0509 -2.0031
 6061SOL    HW229820   3.467   1.037   8.118 -0.2173  1.0990  1.0341
 6062SOL     OW29821   0.167   1.392  13.657 -0.2933  0.2576 -0.3346
 6062SOL    HW129822   0.211   1.341  13.589 -0.4977 -0.1493 -0.1639
 6062SOL    HW229823   0.156   1.324  13.724  1.8499  1.1399  0.9348
 6063SOL     OW29824   3.895   3.153   6.880 -0.6043  0.1536  0.5969
 6063SOL    HW129825   3.856   3.070   6.852  0.0957  0.5150 -1.4031
 6063SOL    HW229826   3.962   3.125   6.942 -1.9157  1.8782  2.8235
 6064SOL     OW29827   2.001   2.926   7.732  0.0816  0.0480 -0.4777
 6064SOL    HW129828   1.967   3.015   7.731  0.0058  0.0050 -2.4486
 6064SOL    HW229829   2.096   2.932   7.738 -0.1416  1.6227  1.6001
 6065SOL     OW29830   3.200   3.693   6.619  0.5367  0.5207  0.0798
 6065SOL    HW129831   3.204   3.635   6.695 -1.2073 -1.9261 -1.7178
 6065SOL    HW229832   3.146   3.645   6.557  0.0523  0.4465  0.5621
 6066SOL     OW29833   0.883   1.595   0.109 -0.0941  0.7900 -0.4632
 6066SOL    HW129834   0.824   1.615   0.036 -0.0687  2.8875  0.0787
 6066SOL    HW229835   0.972   1.604   0.076  0.5932  1.9141  1.7078
 6067SOL     OW29836   2.230   0.657  11.307 -0.5406  0.4176 -0.6701
 6067SOL    HW129837   2.280   0.716  11.251  0.1544 -1.3477 -1.9260
 6067SOL    HW229838   2.215   0.586  11.244 -3.2677 -1.9883  2.6515
 6068SOL     OW29839   4.729   2.874  13.866  0.6720  0.4057  0.3238
 6068SOL    HW129840   4.664   2.856  13.933 -2.7360  1.2870 -2.7213
 6068SOL    HW229841   0.036   2.790  13.867 -0.0708  0.0350  1.6097
 6069SOL     OW29842   0.736   3.038   5.216 -0.1184  0.5119 -0.6521
 6069SOL    HW129843   0.676   2.990   5.159  0.4965 -0.8795 -0.1388
 6069SOL    HW229844   0.794   2.967   5.245 -1.0332  0.1747  0.3347
 6070SOL     OW29845   0.486   0.489   3.998 -0.0961 -0.4337  0.1759
 6070SOL    HW129846   0.527   0.575   3.996 -0.5226 -0.2266  0.1625
 6070SOL    HW229847   0.449   0.481   3.910  2.2997 -1.3395 -0.7260
 6071SOL     OW29848   3.448   3.873   4.308 -0.0326 -0.0637 -0.2364
 6071SOL    HW129849   3.541   3.895   4.309  0.3761 -1.8095 -0.2027
 6071SOL    HW229850   3.412   3.949   4.353  1.1413  0.5204 -0.2860
 6072SOL     OW29851   0.916   2.700   1.609 -0.3961  0.4037  0.2864
 6072SOL    HW129852   0.897   2.617   1.653  0.8732  0.5022  1.0080
 6072SOL    HW229853   0.996   2.715   1.658 -0.1810 -3.3305  1.0952
 6073SOL     OW29854   4.220   1.762   8.519  0.4160 -0.2242 -0.0633
 6073SOL    HW129855   4.282   1.748   8.591 -0.0971  0.4022  0.4883
 6073SOL    HW229856   4.276   1.824   8.472 -2.4437  0.8304 -2.0341
 6074SOL     OW29857   0.095   2.375  16.175 -0.2265  0.2282  0.6483
 6074SOL    HW129858   0.127   2.351  16.262  0.9931 -0.0145  0.1319
 6074SOL    HW229859   0.025   2.317  16.146 -1.2205  1.8967 -0.3425
 6075SOL     OW29860   2.703   1.136   8.945  0.0663 -0.1179 -0.2637
 6075SOL    HW129861   2.772   1.079   8.912 -0.0006 -2.1551  3.1120
 6075SOL    HW229862   2.693   1.095   9.030  0.8879 -1.0542 -0.6249
 6076SOL     OW29863   3.164   4.583   3.858  0.2680  0.2437 -0.2873
 6076SOL    HW129864   3.121   4.664   3.886  0.3820  0.4721 -0.7719
 6076SOL    HW229865   3.173   4.540   3.943  1.8374  0.4257 -0.3747
 6077SOL     OW29866   0.627   0.442   6.899  1.3116  0.0495 -0.3767
 6077SOL    HW129867   0.653   0.513   6.840  0.5569 -0.0315 -0.8048
 6077SOL    HW229868   0.692   0.432   6.969 -0.0401 -0.7314  0.7656
 6078SOL     OW29869   4.529   0.012  11.239  0.8101 -0.0050 -0.5969
 6078SOL    HW129870   4.484   4.672  11.206 -0.3228  1.5610 -2.8391
 6078SOL    HW229871   4.609   4.716  11.278  2.2009  2.3434 -1.4112
 6079SOL     OW29872   3.221   4.482   0.645 -0.1164 -0.3030 -0.0743
 6079SOL    HW129873   3.177   4.397   0.654 -2.3123  0.9965  1.3567
 6079SOL    HW229874   3.244   4.510   0.733 -1.2716  0.6273 -0.0693
 6080SOL     OW29875   1.447   2.718   1.127 -0.0580 -0.3332 -0.1875
 6080SOL    HW129876   1.532   2.740   1.089 -1.0515  3.4078 -0.2149
 6080SOL    HW229877   1.383   2.746   1.062 -1.1163 -0.6522  0.7332
 6081SOL     OW29878   3.312   1.475  13.168 -0.2193 -0.4726  0.4273
 6081SOL    HW129879   3.387   1.452  13.113 -0.9293  0.4907 -0.9243
 6081SOL    HW229880   3.356   1.532  13.232 -0.4595  0.2013 -0.0197
 6082SOL     OW29881   1.767   3.856   4.619 -0.4851 -0.2711  0.2893
 6082SOL    HW129882   1.804   3.849   4.707 -1.4510  2.7146  0.9565
 6082SOL    HW229883   1.727   3.770   4.608  1.6739 -1.5194  2.2501
 6083SOL     OW29884   3.598   4.201  10.893  0.0236  0.4785  0.3140
 6083SOL    HW129885   3.660   4.273  10.890 -1.4459  1.7733  1.7028
 6083SOL    HW229886   3.594   4.174  10.985 -0.7587  0.3168  0.2364
 6084SOL     OW29887   2.624   0.786  10.458 -0.5101 -0.3932 -0.1209
 6084SOL    HW129888   2.678   0.747  10.390  0.1187 -0.4188  0.3940
 6084SOL    HW229889   2.534   0.773  10.428  0.4700 -3.0625 -1.8144
 6085SOL     OW29890   3.949   0.251   0.963  0.6817 -0.3319 -0.3602
 6085SOL    HW129891   4.033   0.296   0.973  0.7935 -0.8754  1.1336
 6085SOL    HW229892   3.910   0.285   0.882 -0.4321 -2.1284 -0.5708
 6086SOL     OW29893   2.693   1.327   3.207  0.2077 -0.0698  0.2672
 6086SOL    HW129894   2.742   1.314   3.126 -0.7288  0.6634 -0.4083
 6086SOL    HW229895   2.627   1.257   3.200  2.2740 -1.8748 -1.1105
 6087SOL     OW29896   1.215   2.773   8.090 -0.3346  0.1786  0.6773
 6087SOL    HW129897   1.283   2.732   8.144 -0.2221 -0.6549 -0.0862
 6087SOL    HW229898   1.272   2.830   8.039 -1.0889 -1.0991 -1.5927
 6088SOL     OW29899   0.954   1.874  17.252  0.2231  0.1167 -0.6382
 6088SOL    HW129900   0.989   1.799  17.300  1.0813  2.0045  1.6939
 6088SOL    HW229901   0.998   1.873  17.168  0.8576 -2.1800 -0.2827
 6089SOL     OW29902   2.667   4.643   8.816  0.0750  0.2010 -0.0374
 6089SOL    HW129903   2.678   4.548   8.824 -2.4671 -0.0374  0.7400
 6089SOL    HW229904   2.707   4.656   8.730  0.7394  0.1937  0.2714
 6090SOL     OW29905   0.390   2.653  16.692  0.9589 -0.0159  0.0037
 6090SOL    HW129906   0.331   2.725  16.718  1.3610 -0.1830  1.4068
 6090SOL    HW229907   0.424   2.639  16.781  1.6660 -1.4516 -0.5076
 6091SOL     OW29908   4.067   0.512  10.300 -0.2219 -0.1342 -0.2609
 6091SOL    HW129909   4.137   0.507  10.365  0.3005  2.4164 -0.6109
 6091SOL    HW229910   4.059   0.605  10.276 -1.2050 -0.2112 -0.2365
 6092SOL     OW29911   2.374   0.971   3.815  0.2380  0.1052  0.0053
 6092SOL    HW129912   2.364   0.887   3.858  0.2931  0.7028  1.1872
 6092SOL    HW229913   2.414   1.014   3.890  0.1398 -1.3812  0.9027
 6093SOL     OW29914   3.148   2.097  15.625  0.5132 -0.4462 -0.3105
 6093SOL    HW129915   3.165   2.025  15.686 -1.1113 -0.4319  0.1636
 6093SOL    HW229916   3.158   2.174  15.681  0.7441 -0.1203 -0.7970
 6094SOL     OW29917   3.910   4.635   4.696  0.6914 -0.0300  0.6345
 6094SOL    HW129918   3.923   4.729   4.709 -1.6538  0.1023  2.0057
 6094SOL    HW229919   3.896   4.637   4.601  1.5559 -0.1672  0.5060
 6095SOL     OW29920   1.813   4.008   6.148 -0.2797  0.2885 -0.2812
 6095SOL    HW129921   1.754   3.958   6.091 -2.4537  2.0094  0.4560
 6095SOL    HW229922   1.860   3.933   6.184 -0.5465  0.3478  0.1933
 6096SOL     OW29923   0.198   3.287   9.256 -0.3368  0.3351 -0.3163
 6096SOL    HW129924   0.268   3.351   9.265 -1.0492  1.5404 -3.2304
 6096SOL    HW229925   0.127   3.341   9.292 -0.5337 -1.0255  1.3312
 6097SOL     OW29926   0.955   3.372   9.348  0.3002 -0.2127  0.3407
 6097SOL    HW129927   0.883   3.326   9.305 -1.0998 -0.5493  3.0565
 6097SOL    HW229928   0.916   3.398   9.431 -1.0808  0.8203 -0.6447
 6098SOL     OW29929   4.493   3.619  12.055 -0.1942 -0.6439  0.0105
 6098SOL    HW129930   4.410   3.667  12.052  1.7780  2.8188  0.9981
 6098SOL    HW229931   4.550   3.696  12.064  0.7546 -1.3932  0.3600
 6099SOL     OW29932   2.992   1.917   2.754 -0.2156  0.3035  0.4919
 6099SOL    HW129933   2.928   1.862   2.799  1.8994 -0.3981  2.6611
 6099SOL    HW229934   3.056   1.912   2.826  0.0220  1.4535  0.3659
 6100SOL     OW29935   1.864   0.373  12.988 -0.2519 -0.5658 -0.3212
 6100SOL    HW129936   1.918   0.425  12.929  2.2038 -1.2195  1.3351
 6100SOL    HW229937   1.792   0.434  13.009 -0.8650 -1.3610 -0.1120
 6101SOL     OW29938   2.739   1.618   7.991 -0.1776 -0.4860  0.5083
 6101SOL    HW129939   2.670   1.585   8.049 -2.0772  2.1737 -0.2824
 6101SOL    HW229940   2.800   1.544   8.000 -0.7140 -1.1823 -1.7358
 6102SOL     OW29941   3.433   0.054   6.576  0.6179  0.0543  0.5234
 6102SOL    HW129942   3.424   4.698   6.590  1.5167 -0.1985 -0.6219
 6102SOL    HW229943   3.403   0.081   6.663 -0.0479  0.6380  0.1103
 6103SOL     OW29944   2.660   3.179   5.782  0.1253  0.2400 -0.7372
 6103SOL    HW129945   2.655   3.225   5.698  0.8021 -0.7377 -1.3093
 6103SOL    HW229946   2.754   3.177   5.794  0.2666 -0.2653 -1.9240
 6104SOL     OW29947   1.798   4.280   8.916  0.1074  0.3643  0.6332
 6104SOL    HW129948   1.890   4.289   8.942 -0.0603  1.2915  0.9239
 6104SOL    HW229949   1.809   4.248   8.826  0.3080 -0.2047  0.8576
 6105SOL     OW29950   0.726   1.421   0.569  0.6648  0.3323  0.0656
 6105SOL    HW129951   0.746   1.498   0.516  0.6982  1.6597  2.0194
 6105SOL    HW229952   0.668   1.466   0.631  0.1957 -3.0113  2.0973
 6106SOL     OW29953   3.046   4.170  12.410  0.1847 -0.2922 -0.0571
 6106SOL    HW129954   3.102   4.109  12.362  1.6326  0.2321  0.9647
 6106SOL    HW229955   3.002   4.112  12.473 -0.3524 -2.5238 -2.4949
 6107SOL     OW29956   3.857   0.987  17.573 -0.0185 -0.1157 -0.1298
 6107SOL    HW129957   3.779   1.004  17.521 -0.0648  2.0030  0.6524
 6107SOL    HW229958   3.917   0.961  17.503  0.6173  0.4487  0.2022
 6108SOL     OW29959   3.119   0.876  12.848  0.2013 -0.1121 -0.4447
 6108SOL    HW129960   3.024   0.868  12.854  0.3252 -1.1456  0.2973
 6108SOL    HW229961   3.120   0.948  12.786 -1.1887  1.9604  1.9283
 6109SOL     OW29962   4.586   2.840   4.812  0.6779 -0.0234  0.7072
 6109SOL    HW129963   4.615   2.767   4.756  0.7794 -0.2999  1.1236
 6109SOL    HW229964   4.669   2.884   4.831  0.3469  0.5520  0.8121
 6110SOL     OW29965   0.599   1.426   8.396  0.3131  0.4311 -0.0253
 6110SOL    HW129966   0.634   1.388   8.476  3.0293  0.0448 -1.4101
 6110SOL    HW229967   0.505   1.414   8.414  0.3813 -0.8945 -0.5484
 6111SOL     OW29968   2.618   4.531  11.664 -0.4268  0.1003 -0.5192
 6111SOL    HW129969   2.614   4.563  11.574  3.5972  1.5197 -0.1713
 6111SOL    HW229970   2.713   4.519  11.671 -0.4133  0.2644 -0.4289
 6112SOL     OW29971   4.728   3.497   3.300 -0.0154  0.0417  0.1657
 6112SOL    HW129972   0.026   3.442   3.369  0.7532 -0.4531 -0.6213
 6112SOL    HW229973   0.070   3.545   3.281 -0.6030  1.4597  1.2968
 6113SOL     OW29974   1.883   2.029  13.095 -0.1252 -0.0071 -0.3935
 6113SOL    HW129975   1.812   1.968  13.076  0.3665 -0.5253 -0.5631
 6113SOL    HW229976   1.858   2.117  13.067 -0.2653  0.3101  0.7113
 6114SOL     OW29977   2.300   0.891   3.047 -0.3550  0.1182  0.1282
 6114SOL    HW129978   2.348   0.902   3.129  0.2354 -0.9974 -0.0659
 6114SOL    HW229979   2.372   0.849   2.999 -1.2817 -2.1138  0.6774
 6115SOL     OW29980   0.978   3.586   4.754  0.0813 -0.1385 -0.3865
 6115SOL    HW129981   0.891   3.613   4.725  0.0137 -0.0416 -0.0857
 6115SOL    HW229982   0.978   3.490   4.752  1.1833 -0.1511  0.5534
 6116SOL     OW29983   3.091   0.032  17.387  0.0525 -0.1513  0.2994
 6116SOL    HW129984   3.105   0.031  17.482  1.2092  1.7159  0.1542
 6116SOL    HW229985   3.001   0.001  17.380  1.5664 -4.4301  0.0933
 6117SOL     OW29986   3.343   3.704   2.481  0.1629  0.1752 -0.2878
 6117SOL    HW129987   3.382   3.787   2.509  0.0763 -0.2997  1.2830
 6117SOL    HW229988   3.389   3.645   2.541 -1.9498 -1.7152 -0.5584
 6118SOL     OW29989   3.298   1.242  12.234 -0.1090  0.1557  0.1858
 6118SOL    HW129990   3.391   1.229  12.214 -0.8657 -1.9900 -1.9323
 6118SOL    HW229991   3.270   1.240  12.143 -1.4933  1.0530  0.6029
 6119SOL     OW29992   1.741   3.022   2.711  0.3275 -0.2661  0.7820
 6119SOL    HW129993   1.836   3.014   2.710  0.6037  3.1450  0.1110
 6119SOL    HW229994   1.717   2.939   2.753 -0.9253  0.5359  1.6430
 6120SOL     OW29995   0.187   0.889   6.614  0.0177  0.0506  0.0631
 6120SOL    HW129996   0.120   0.956   6.601 -0.6750 -0.0705  2.9546
 6120SOL    HW229997   0.271   0.909   6.572  1.0126 -0.5126  1.7926
 6121SOL     OW29998   2.011   2.941   5.264 -0.0799 -0.3012 -0.4080
 6121SOL    HW129999   1.920   2.927   5.290  0.5948  2.2443  3.3254
 6121SOL    HW230000   2.038   2.849   5.263  0.1632 -0.2371  0.0792
 6122SOL     OW30001   1.616   2.450   5.381  0.2733  0.0934  0.4610
 6122SOL    HW130002   1.539   2.494   5.345  0.2670  0.8898  1.4435
 6122SOL    HW230003   1.648   2.406   5.302 -3.8907 -0.5570 -0.8244
 6123SOL     OW30004   2.839   0.677   5.459  0.3901  0.1509 -0.0113
 6123SOL    HW130005   2.767   0.733   5.429  0.1682 -1.3606 -2.3360
 6123SOL    HW230006   2.912   0.739   5.464 -1.1330  1.7135  2.5712
 6124SOL     OW30007   3.320   2.481   9.291 -0.2665 -0.0098  0.0274
 6124SOL    HW130008   3.279   2.504   9.374 -0.4383 -0.7733  0.1550
 6124SOL    HW230009   3.267   2.405   9.265  1.3663 -0.4899 -1.9676
 6125SOL     OW30010   3.499   4.676   5.881  0.5114  0.4501  0.1318
 6125SOL    HW130011   3.577   4.637   5.920  1.5241  0.2617 -2.0530
 6125SOL    HW230012   3.428   4.647   5.939 -0.6042 -0.2715 -1.5752
 6126SOL     OW30013   1.309   4.395   6.837  0.1484  0.1196  0.1877
 6126SOL    HW130014   1.257   4.317   6.817  0.1956  0.3554 -0.8152
 6126SOL    HW230015   1.390   4.398   6.787  0.0109  1.0746  0.0172
 6127SOL     OW30016   4.310   3.415  15.180  0.0063 -0.0733  0.5678
 6127SOL    HW130017   4.289   3.324  15.160  0.5721 -0.7342  3.0300
 6127SOL    HW230018   4.404   3.408  15.164 -0.1675 -0.0915 -0.4215
 6128SOL     OW30019   0.173   3.915  17.122 -0.4450  0.3153  0.0941
 6128SOL    HW130020   0.100   3.853  17.118 -0.6735  0.3877  3.0281
 6128SOL    HW230021   0.237   3.845  17.132 -0.2410  0.5082  0.1201
 6129SOL     OW30022   0.702   2.408   4.688 -0.1047  0.2999  0.3517
 6129SOL    HW130023   0.608   2.426   4.690 -0.4263 -0.9944 -2.5922
 6129SOL    HW230024   0.731   2.423   4.778  0.2681 -0.4087  0.3461
 6130SOL     OW30025   4.728   0.017   3.937  0.2326  0.5050 -0.1874
 6130SOL    HW130026   4.682   0.081   3.883 -0.6430  1.1391  1.3517
 6130SOL    HW230027   4.710   0.058   4.021 -3.0502 -3.1783  0.8910
 6131SOL     OW30028   3.737   1.958  10.428  0.1738 -0.0286 -0.0350
 6131SOL    HW130029   3.648   1.938  10.458 -0.0459 -0.8392 -1.2456
 6131SOL    HW230030   3.723   1.946  10.334  0.9832 -2.0693  0.1083
 6132SOL     OW30031   0.192   2.692   1.641  0.3974  0.4674  0.0972
 6132SOL    HW130032   0.257   2.626   1.666  0.2082 -0.7577 -2.6169
 6132SOL    HW230033   0.111   2.644   1.627 -0.1372  0.1946  4.0119
 6133SOL     OW30034   3.456   4.620   9.314 -0.1605 -0.0742 -0.5502
 6133SOL    HW130035   3.365   4.652   9.311  0.0811  0.6164 -0.5536
 6133SOL    HW230036   3.457   4.549   9.250  2.8855  0.0378 -0.6120
 6134SOL     OW30037   3.975   1.445  13.201 -0.4049 -0.7569 -0.1504
 6134SOL    HW130038   4.006   1.528  13.238 -1.0651  0.0748 -1.4805
 6134SOL    HW230039   3.893   1.481  13.169 -1.0913 -2.1872 -0.0085
 6135SOL     OW30040   1.348   0.542   6.955 -0.6246 -0.1957 -0.7541
 6135SOL    HW130041   1.382   0.624   6.920 -0.3143  1.3539  3.1455
 6135SOL    HW230042   1.263   0.568   6.990 -0.3103 -0.2336  0.0380
 6136SOL     OW30043   3.542   1.769   2.796  0.3683 -0.0893 -0.0248
 6136SOL    HW130044   3.574   1.741   2.882  0.9915 -0.8906 -0.5198
 6136SOL    HW230045   3.569   1.697   2.738  0.1667  0.7067 -1.0972
 6137SOL     OW30046   3.608   1.201   2.830 -0.4877  0.2717 -0.1490
 6137SOL    HW130047   3.629   1.120   2.875 -0.4085  0.5183  0.2612
 6137SOL    HW230048   3.513   1.200   2.839 -0.5871 -0.7071 -1.2983
 6138SOL     OW30049   3.761   1.122   8.585 -0.0347  0.7272 -0.0293
 6138SOL    HW130050   3.786   1.086   8.670 -2.5107  1.2103  0.9021
 6138SOL    HW230051   3.712   1.053   8.541 -0.4662  0.2836  1.1475
 6139SOL     OW30052   4.616   0.261  16.956 -0.3235  0.2463  0.1957
 6139SOL    HW130053   4.591   0.230  16.868  1.4116 -0.4880 -0.0291
 6139SOL    HW230054   4.583   0.351  16.964  1.2812  0.9725 -1.3492
 6140SOL     OW30055   1.740   4.297  13.650 -0.1758  0.5470  0.1683
 6140SOL    HW130056   1.773   4.222  13.700 -1.0340 -0.0829 -0.2008
 6140SOL    HW230057   1.826   4.319  13.614 -0.2706 -0.3467 -0.6277
 6141SOL     OW30058   4.380   1.258  16.574  0.5642  0.0798 -0.1393
 6141SOL    HW130059   4.326   1.244  16.651  0.0085 -0.3512 -0.6096
 6141SOL    HW230060   4.465   1.233  16.610 -1.2853 -0.8651  3.5576
 6142SOL     OW30061   3.735   1.184   7.606 -0.4259  0.1449  0.0750
 6142SOL    HW130062   3.722   1.245   7.679 -0.2274  0.6334 -0.3044
 6142SOL    HW230063   3.830   1.186   7.603 -0.3790 -1.1696  0.4701
 6143SOL     OW30064   3.974   3.480  14.760 -0.4632 -0.4594  0.4197
 6143SOL    HW130065   3.930   3.507  14.679 -1.7563 -0.0399  1.2728
 6143SOL    HW230066   4.067   3.479  14.734 -0.3889 -1.0173  0.7005
 6144SOL     OW30067   1.777   1.399   5.915 -0.0057  0.0888  0.2009
 6144SOL    HW130068   1.857   1.450   5.926  0.0349  0.3599 -1.3941
 6144SOL    HW230069   1.734   1.441   5.841  2.5994  0.4941 -1.0646
 6145SOL     OW30070   2.057   2.130  11.771  0.4988 -0.0159 -0.4643
 6145SOL    HW130071   2.004   2.190  11.719 -2.2423 -3.6053 -1.6932
 6145SOL    HW230072   2.141   2.152  11.731  0.7647  3.1813  1.8206
 6146SOL     OW30073   4.392   1.953   4.918  0.0638  0.1732  0.2898
 6146SOL    HW130074   4.381   2.043   4.887 -0.4167  0.8335  2.3566
 6146SOL    HW230075   4.428   1.912   4.840 -2.5835 -0.6592 -0.4768
 6147SOL     OW30076   4.660   2.584  17.048 -0.2992  0.1109 -0.6979
 6147SOL    HW130077   4.625   2.561  17.134 -1.8660 -1.2669 -1.6882
 6147SOL    HW230078   4.577   2.594  17.002  0.0931  1.2404 -1.1590
 6148SOL     OW30079   3.105   3.780  14.858  0.5384 -0.1884  0.3556
 6148SOL    HW130080   3.167   3.787  14.785  1.4302  1.4765  1.2885
 6148SOL    HW230081   3.104   3.869  14.892 -0.9093  0.0715 -0.3917
 6149SOL     OW30082   2.743   3.637  11.891 -0.1950 -0.0827 -0.3581
 6149SOL    HW130083   2.665   3.608  11.844  0.9088 -2.4251 -0.7139
 6149SOL    HW230084   2.755   3.721  11.845  0.5289 -0.5823 -1.0882
 6150SOL     OW30085   3.153   0.068   1.565  0.1353  0.0921 -0.1912
 6150SOL    HW130086   3.204   0.014   1.505 -1.2123  0.0414 -1.3104
 6150SOL    HW230087   3.084   0.100   1.507 -0.0133 -1.1470 -0.7025
 6151SOL     OW30088   1.336   1.142   2.457  0.0288  0.7621 -0.3738
 6151SOL    HW130089   1.398   1.130   2.385  1.2835  2.2040  0.4698
 6151SOL    HW230090   1.391   1.124   2.534 -1.7796  0.0088  0.7246
 6152SOL     OW30091   1.298   3.902   3.359  0.2663  0.1037  0.0930
 6152SOL    HW130092   1.230   3.841   3.390 -0.4097  0.9883  0.3348
 6152SOL    HW230093   1.371   3.882   3.417 -0.3076  0.3847  0.9145
 6153SOL     OW30094   0.282   0.807  16.729 -0.3667  0.1592 -0.5154
 6153SOL    HW130095   0.286   0.769  16.641 -0.3104 -1.5741  0.2486
 6153SOL    HW230096   0.297   0.900  16.710  2.1139 -0.6591 -2.6723
 6154SOL     OW30097   0.886   0.039   2.017 -0.1667 -0.9903 -0.3411
 6154SOL    HW130098   0.903   0.117   1.965  2.1285 -2.2480 -1.4547
 6154SOL    HW230099   0.832   4.728   1.955 -1.7533  1.4085 -0.8665
 6155SOL     OW30100   0.655   1.714   3.803 -0.0681 -0.0814 -0.1350
 6155SOL    HW130101   0.698   1.730   3.887  1.3633 -2.2978 -0.4563
 6155SOL    HW230102   0.702   1.772   3.743 -1.5627  1.3197  0.0635
 6156SOL     OW30103   1.621   1.802   6.095  0.5793  0.0033 -0.1690
 6156SOL    HW130104   1.619   1.716   6.137 -0.7667 -0.7334 -1.7688
 6156SOL    HW230105   1.616   1.782   6.002 -0.4164  0.0141 -0.1177
 6157SOL     OW30106   1.771   4.174  15.515 -0.5247 -0.3486  0.2969
 6157SOL    HW130107   1.802   4.234  15.583  2.6901 -1.3448 -0.3054
 6157SOL    HW230108   1.732   4.235  15.451 -1.1259  0.6058  1.5731
 6158SOL     OW30109   0.325   2.071  16.301 -0.3628 -0.0539  0.3643
 6158SOL    HW130110   0.353   1.980  16.307  0.0944  0.0247 -0.6193
 6158SOL    HW230111   0.411   2.111  16.294 -0.5463  0.4891  1.2514
 6159SOL     OW30112   0.500   1.452   6.541  0.3215  0.2659  0.2379
 6159SOL    HW130113   0.526   1.542   6.523  1.2022  0.2423  1.4307
 6159SOL    HW230114   0.408   1.475   6.558  0.0529  0.1465 -1.0262
 6160SOL     OW30115   4.245   4.456   5.117 -0.3692 -0.3354 -0.1988
 6160SOL    HW130116   4.171   4.516   5.113  0.2087  0.5507  2.2104
 6160SOL    HW230117   4.223   4.413   5.200 -0.8765  0.2302 -0.0380
 6161SOL     OW30118   4.288   0.987   8.294 -0.4511  0.7551  0.3767
 6161SOL    HW130119   4.358   0.947   8.242 -1.3216 -1.2399  0.7500
 6161SOL    HW230120   4.323   0.997   8.383  0.0284 -0.1517  0.2989
 6162SOL     OW30121   3.088   2.978   3.336  0.0623  0.3833 -0.0668
 6162SOL    HW130122   3.061   2.933   3.256 -0.0657 -0.2102  0.3067
 6162SOL    HW230123   3.059   2.928   3.413  0.5044  0.9310  0.4585
 6163SOL     OW30124   4.351   4.309   5.605 -0.2063  0.5083  0.4164
 6163SOL    HW130125   4.413   4.345   5.541  1.5877 -1.5687  0.9518
 6163SOL    HW230126   4.354   4.218   5.575  1.5677  0.7163 -0.0659
 6164SOL     OW30127   1.609   1.845   7.357 -0.3930  0.3396 -0.3464
 6164SOL    HW130128   1.538   1.871   7.298 -0.1986 -1.5523 -1.4422
 6164SOL    HW230129   1.613   1.919   7.418  0.9522 -0.0838  0.0873
 6165SOL     OW30130   3.928   4.411   3.826  0.2104 -0.1342 -0.0542
 6165SOL    HW130131   3.929   4.333   3.772 -1.0806 -0.0732 -0.1688
 6165SOL    HW230132   4.011   4.450   3.801  1.2660 -2.6070 -0.3528
 6166SOL     OW30133   2.681   3.084   6.980 -0.6979 -0.3472  0.0694
 6166SOL    HW130134   2.774   3.080   6.961 -0.8434  2.9970 -1.4149
 6166SOL    HW230135   2.690   3.119   7.069 -3.5232 -1.2539  0.7219
 6167SOL     OW30136   1.895   1.481   8.419  0.6481 -0.2232 -0.1739
 6167SOL    HW130137   1.824   1.535   8.454 -0.5000 -1.7592 -0.1116
 6167SOL    HW230138   1.852   1.395   8.413 -0.0222  0.1590 -0.9739
 6168SOL     OW30139   4.399   0.733   9.512 -0.2107 -0.0165  0.0028
 6168SOL    HW130140   4.440   0.755   9.429 -1.4836 -0.0797 -0.6312
 6168SOL    HW230141   4.465   0.679   9.557 -0.3898 -0.2038  0.0409
 6169SOL     OW30142   3.980   0.071   8.340 -0.0144  0.3339  0.1034
 6169SOL    HW130143   3.956   0.085   8.249  2.7748 -3.4353 -1.1812
 6169SOL    HW230144   3.934   4.727   8.357  0.2810  0.2120  0.3076
 6170SOL     OW30145   0.531   2.084  17.321  0.2758 -0.4838  0.3038
 6170SOL    HW130146   0.502   2.037  17.399 -0.5215  0.6808  0.6998
 6170SOL    HW230147   0.449   2.108  17.277 -1.0953 -2.9294  1.4902
 6171SOL     OW30148   0.888   3.894   5.890  0.6708  0.1744  0.1689
 6171SOL    HW130149   0.931   3.892   5.976  2.2052  4.1753 -0.4849
 6171SOL    HW230150   0.795   3.873   5.900 -0.0527  2.9090 -0.6119
 6172SOL     OW30151   3.685   3.531   6.498  0.1741  0.0061 -0.0911
 6172SOL    HW130152   3.727   3.578   6.570  1.3544  1.7337 -1.9070
 6172SOL    HW230153   3.765   3.483   6.477  0.4800  0.1202  0.8587
 6173SOL     OW30154   4.737   4.042   3.510  0.7454 -0.1379 -0.3056
 6173SOL    HW130155   4.678   4.027   3.436  0.0228 -0.2238  0.2903
 6173SOL    HW230156   4.708   3.966   3.561  0.6155  0.9540  1.2312
 6174SOL     OW30157   0.643   3.767   7.437  0.7211  0.1250  0.6459
 6174SOL    HW130158   0.647   3.689   7.492 -1.0644  1.2362  2.3712
 6174SOL    HW230159   0.583   3.820   7.491  0.2518  1.6648 -1.3751
 6175SOL     OW30160   2.684   4.576   2.945 -0.2481 -0.1376 -0.3373
 6175SOL    HW130161   2.744   4.620   3.005  0.3280  0.7190 -1.5598
 6175SOL    HW230162   2.744   4.522   2.895 -0.9375 -3.0013  1.9585
 6176SOL     OW30163   0.676   1.000  10.108 -0.7500  0.0214 -0.4353
 6176SOL    HW130164   0.593   0.961  10.082 -1.6272  0.2373  2.0462
 6176SOL    HW230165   0.720   0.920  10.139 -0.9380 -0.9367 -2.6404
 6177SOL     OW30166   4.386   0.035   2.551  0.0011 -0.2642  0.6507
 6177SOL    HW130167   4.407   0.073   2.466  0.0904 -0.0931  0.7491
 6177SOL    HW230168   4.376   0.119   2.597 -0.1406 -1.1644  2.2609
 6178SOL     OW30169   4.463   0.522   2.051 -0.5578  0.4132  0.5490
 6178SOL    HW130170   4.556   0.507   2.035 -0.9497  0.7216 -1.9871
 6178SOL    HW230171   4.457   0.485   2.139  1.1611  2.1351  1.3568
 6179SOL     OW30172   3.458   3.135   0.673  0.1149  0.0097 -0.1586
 6179SOL    HW130173   3.385   3.073   0.682 -1.6691  2.1268  0.0380
 6179SOL    HW230174   3.478   3.126   0.580 -0.8697 -3.0715 -0.0597
 6180SOL     OW30175   0.752   3.572   5.361 -1.0824  0.7457 -1.2040
 6180SOL    HW130176   0.765   3.478   5.346  2.3517  0.9730  0.2439
 6180SOL    HW230177   0.837   3.604   5.329  0.0574  0.4023  1.4829
 6181SOL     OW30178   2.744   2.156   2.191 -0.0958  0.0056 -0.5159
 6181SOL    HW130179   2.755   2.112   2.275 -2.4548 -0.8846 -0.6935
 6181SOL    HW230180   2.684   2.096   2.147 -0.5517  0.5524 -0.6417
 6182SOL     OW30181   1.647   2.796   1.473 -0.0337 -0.3951 -0.6953
 6182SOL    HW130182   1.675   2.706   1.454 -1.0833 -0.8792  0.0513
 6182SOL    HW230183   1.570   2.801   1.416 -0.6881 -2.9112 -0.0404
 6183SOL     OW30184   0.977   2.236   2.624  0.0584 -0.0675  0.1898
 6183SOL    HW130185   1.006   2.228   2.715 -0.8862  0.3148  0.5241
 6183SOL    HW230186   0.883   2.218   2.632 -0.3328  1.6879 -0.3322
 6184SOL     OW30187   4.235   1.526   2.962  0.3110 -0.0927 -0.0346
 6184SOL    HW130188   4.145   1.544   2.936  0.0091  1.4355  2.0232
 6184SOL    HW230189   4.212   1.517   3.055  0.8778  0.9704  0.2103
 6185SOL     OW30190   1.733   4.297   5.946 -0.2377  0.3247  0.3966
 6185SOL    HW130191   1.756   4.371   5.890 -0.9547 -0.8667 -1.4673
 6185SOL    HW230192   1.814   4.246   5.952  0.6419  1.9208  2.1713
 6186SOL     OW30193   0.262   4.326  13.896 -0.2234  0.1753  0.2365
 6186SOL    HW130194   0.169   4.323  13.922  0.2227 -0.5275  1.7540
 6186SOL    HW230195   0.263   4.262  13.825  0.2616  1.7847 -1.2090
 6187SOL     OW30196   1.890   0.762   3.996 -0.5355 -0.0362  0.1756
 6187SOL    HW130197   1.889   0.679   4.044  0.7891 -0.6171 -0.8024
 6187SOL    HW230198   1.957   0.751   3.929  0.0837  0.6697  0.6822
 6188SOL     OW30199   3.601   4.367   9.374  0.2524  0.1077  0.0727
 6188SOL    HW130200   3.617   4.461   9.366 -0.1080  0.3094  1.7683
 6188SOL    HW230201   3.539   4.371   9.447  1.0537  2.3479  0.6560
 6189SOL     OW30202   0.099   0.116   4.177  0.0005  0.5212 -0.4495
 6189SOL    HW130203   0.070   0.206   4.193  0.7834 -0.0132  4.0989
 6189SOL    HW230204   0.186   0.130   4.141  0.5680 -1.1851  0.2646
 6190SOL     OW30205   2.803   0.059  14.400  0.4684  0.0996  0.7313
 6190SOL    HW130206   2.858   0.006  14.342  0.6979 -1.0480  2.0046
 6190SOL    HW230207   2.721   0.011  14.389 -0.3490  1.5076  0.6033
 6191SOL     OW30208   1.114   3.808  10.329 -0.5288 -0.1963  0.2448
 6191SOL    HW130209   1.162   3.850  10.258 -0.6931  0.9363  0.8113
 6191SOL    HW230210   1.167   3.835  10.404 -1.2928 -1.6196  1.2923
 6192SOL     OW30211   0.572   1.422   9.264 -0.6340  0.0885 -0.0872
 6192SOL    HW130212   0.634   1.428   9.191 -0.0819 -2.9979  0.1418
 6192SOL    HW230213   0.499   1.368   9.236 -1.2725  1.6057 -1.3813
 6193SOL     OW30214   0.094   3.719  13.851  0.0660  0.2657 -0.2701
 6193SOL    HW130215   0.005   3.702  13.821  0.3418 -1.3314 -0.1833
 6193SOL    HW230216   0.147   3.722  13.771 -0.2347  1.5866 -0.4224
 6194SOL     OW30217   1.569   3.194   5.602  0.9050 -0.7831 -0.3861
 6194SOL    HW130218   1.615   3.132   5.658 -0.4491 -1.4061  0.0324
 6194SOL    HW230219   1.489   3.189   5.655 -0.0285 -0.6813 -1.7766
 6195SOL     OW30220   3.591   0.143   1.827  0.0564 -0.2540  0.6561
 6195SOL    HW130221   3.636   0.227   1.835 -3.3329  1.3761  2.4243
 6195SOL    HW230222   3.513   0.155   1.774 -0.6737 -4.0054  0.8774
 6196SOL     OW30223   0.680   4.034  11.433 -0.4947 -0.3749 -0.4430
 6196SOL    HW130224   0.673   4.042  11.338 -1.7072  0.6319 -0.2670
 6196SOL    HW230225   0.589   4.034  11.461 -0.9577 -1.1892 -1.9523
 6197SOL     OW30226   0.985   4.194   4.418 -0.4108  0.3010 -0.0719
 6197SOL    HW130227   0.992   4.228   4.507  0.4110 -0.1845  0.0533
 6197SOL    HW230228   0.975   4.099   4.427 -1.9262  0.4609 -0.0960
 6198SOL     OW30229   4.473   1.400  10.457  0.0403 -0.1348 -0.3015
 6198SOL    HW130230   4.401   1.424  10.516 -0.5848 -1.8850 -0.3365
 6198SOL    HW230231   4.544   1.377  10.517 -0.3796  2.5782  1.2331
 6199SOL     OW30232   0.017   2.226   7.264  0.2242 -0.4627 -0.3027
 6199SOL    HW130233   0.083   2.184   7.319  0.0712 -2.5852 -1.7206
 6199SOL    HW230234   4.685   2.162   7.281 -0.4895  0.3534 -0.1876
 6200SOL     OW30235   4.554   1.875   3.209 -0.3555  0.1874  0.1058
 6200SOL    HW130236   4.512   1.851   3.126  2.2760 -1.0781 -0.8835
 6200SOL    HW230237   4.506   1.956   3.226  1.5025  0.8352  2.2024
 6201SOL     OW30238   0.536   4.409   2.461  0.0315 -0.5866  0.8648
 6201SOL    HW130239   0.494   4.326   2.438 -3.5608  1.7503 -0.8728
 6201SOL    HW230240   0.627   4.382   2.450 -0.0673  0.1050 -1.5472
 6202SOL     OW30241   0.397   0.152   5.951  0.0439  0.4425 -0.1019
 6202SOL    HW130242   0.329   0.202   5.995 -1.3863 -1.1299 -0.4994
 6202SOL    HW230243   0.391   0.064   5.988  2.2619  0.5064  0.4387
 6203SOL     OW30244   0.082   2.695   4.053  0.2197 -0.5916  0.5441
 6203SOL    HW130245   0.079   2.780   4.096 -0.0596 -0.1021 -0.4577
 6203SOL    HW230246   0.140   2.646   4.113 -1.7749 -2.5352  0.8775
 6204SOL     OW30247   4.032   2.037   9.410 -0.2781 -0.2735 -0.7218
 6204SOL    HW130248   3.965   2.069   9.470  1.2112 -1.0749  1.3887
 6204SOL    HW230249   4.027   1.945   9.436 -1.6178 -0.3823 -1.3744
 6205SOL     OW30250   0.991   4.095   7.130  0.1643  0.0218  0.1721
 6205SOL    HW130251   1.055   4.085   7.199  0.3146  0.1842  0.0570
 6205SOL    HW230252   0.944   4.013   7.120 -0.0863 -0.0275  1.8467
 6206SOL     OW30253   1.199   1.985   2.837  0.1677  0.2470  0.1933
 6206SOL    HW130254   1.247   1.924   2.781 -1.9506 -1.3297  0.0995
 6206SOL    HW230255   1.270   2.002   2.898 -0.2858 -0.8074  1.0141
 6207SOL     OW30256   4.463   3.123   1.776 -0.4444  0.4092 -0.8563
 6207SOL    HW130257   4.472   3.187   1.846  2.3983 -1.9850  0.9768
 6207SOL    HW230258   4.505   3.174   1.708  2.1512  1.6552  1.6934
 6208SOL     OW30259   0.198   2.812   8.295  0.1936  0.6348 -0.1667
 6208SOL    HW130260   0.282   2.769   8.312 -0.9681 -1.2510  0.8189
 6208SOL    HW230261   0.143   2.740   8.325  2.3694 -0.5246  1.0851
 6209SOL     OW30262   1.302   0.296  17.172  0.2806 -0.6601  0.5844
 6209SOL    HW130263   1.297   0.203  17.191  2.5989 -0.5606  1.6891
 6209SOL    HW230264   1.212   0.301  17.141  1.3980  1.4036 -2.3594
 6210SOL     OW30265   2.156   2.969  17.694 -0.2029 -0.3593 -0.0442
 6210SOL    HW130266   2.183   3.056  17.725  2.1644 -2.2439  3.1522
 6210SOL    HW230267   2.206   2.914   0.002  0.8072  0.1403 -0.4230
 6211SOL     OW30268   1.800   4.199   3.220 -0.9375  0.0543  0.0628
 6211SOL    HW130269   1.808   4.122   3.163  1.0725 -0.5407  1.1806
 6211SOL    HW230270   1.834   4.179   3.307  0.0451  0.4410 -0.2331
 6212SOL     OW30271   4.456   4.568   1.370 -0.4534 -0.1665  0.0645
 6212SOL    HW130272   4.374   4.532   1.336  0.6054 -2.4276 -0.0636
 6212SOL    HW230273   4.437   4.618   1.450 -1.0920  0.8718 -0.7400
 6213SOL     OW30274   0.120   1.532   0.222  0.0864  0.1493  0.1121
 6213SOL    HW130275   0.116   1.536   0.127 -0.0512  1.0802  0.1565
 6213SOL    HW230276   0.183   1.462   0.239 -0.2090 -0.1917 -0.1933
 6214SOL     OW30277   1.640   3.089   3.903 -0.5063 -0.2500 -0.1067
 6214SOL    HW130278   1.611   3.002   3.927  0.9341 -0.8713 -0.6041
 6214SOL    HW230279   1.645   3.140   3.984  2.1991 -0.2061 -0.2857
 6215SOL     OW30280   3.092   4.160   4.607  0.1338 -0.5396  0.0968
 6215SOL    HW130281   3.172   4.113   4.633  1.7476  2.1929  0.0378
 6215SOL    HW230282   3.029   4.093   4.634 -1.1031  0.6146  0.0499
 6216SOL     OW30283   3.135   2.091   9.125 -0.4038 -0.0396  0.4523
 6216SOL    HW130284   3.086   2.074   9.045 -0.0794 -2.1429  0.7172
 6216SOL    HW230285   3.220   2.054   9.102 -1.1516 -0.9971 -0.7261
 6217SOL     OW30286   4.222   4.445   9.767 -0.3968 -0.4035  0.1916
 6217SOL    HW130287   4.151   4.501   9.798  1.3468  1.6335  0.5051
 6217SOL    HW230288   4.209   4.438   9.673 -1.1366  2.7218  0.0563
 6218SOL     OW30289   0.269   3.080  16.534  0.5999  0.6280 -0.6164
 6218SOL    HW130290   0.307   3.104  16.449 -1.1323 -0.0339 -1.5667
 6218SOL    HW230291   0.277   2.986  16.522  1.8478  0.5395  0.8830
 6219SOL     OW30292   0.258   0.582  15.989 -0.7789  0.5179 -0.0132
 6219SOL    HW130293   0.196   0.651  16.012 -0.7560 -0.0491  1.7387
 6219SOL    HW230294   0.223   0.502  16.027 -1.2552  0.0342 -1.4848
 6220SOL     OW30295   1.060   4.129   0.101 -0.3041 -0.3377 -0.0473
 6220SOL    HW130296   1.033   4.117   0.010 -1.3598  0.2073  0.1972
 6220SOL    HW230297   1.000   4.194   0.137  0.4305  1.0957 -1.4272
 6221SOL     OW30298   3.765   1.527  16.794  0.4148 -0.3052 -0.4969
 6221SOL    HW130299   3.682   1.487  16.820  0.4933 -0.7530 -0.9254
 6221SOL    HW230300   3.827   1.481  16.850 -0.3987  0.1737  0.8100
 6222SOL     OW30301   3.831   4.129   5.393 -0.1739  0.1508 -0.2001
 6222SOL    HW130302   3.845   4.163   5.305 -1.3807  1.0776 -0.0319
 6222SOL    HW230303   3.744   4.163   5.413 -0.8467 -0.0113 -2.8241
 6223SOL     OW30304   4.146   2.774   1.968 -0.6026  0.1559 -0.0949
 6223SOL    HW130305   4.175   2.857   1.930 -0.8913  0.3452  0.0975
 6223SOL    HW230306   4.050   2.779   1.958 -0.4045  0.7916 -1.7354
 6224SOL     OW30307   3.088   0.399   0.815  0.4422  0.3263 -0.0748
 6224SOL    HW130308   3.085   0.318   0.763 -0.5570  0.2042  0.1892
 6224SOL    HW230309   3.178   0.395   0.848  1.4592 -2.0437 -3.0717
 6225SOL     OW30310   0.969   3.741   3.420 -0.3954  0.0413 -0.2413
 6225SOL    HW130311   1.039   3.706   3.475  1.3816  0.5392 -2.1778
 6225SOL    HW230312   0.903   3.769   3.483  0.1627 -2.7004  1.5651
 6226SOL     OW30313   0.827   2.401  14.550  0.6823  0.0904  0.2529
 6226SOL    HW130314   0.787   2.475  14.596  1.8635  0.1807  1.1000
 6226SOL    HW230315   0.881   2.356  14.614 -1.1249 -1.8315  0.4201
 6227SOL     OW30316   1.628   1.869  13.034  0.1945 -0.3160  0.1849
 6227SOL    HW130317   1.571   1.795  13.055  0.4237 -0.0722  1.6575
 6227SOL    HW230318   1.568   1.934  12.997 -0.2523 -1.5116 -1.1987
 6228SOL     OW30319   1.756   1.812   7.585  0.2788 -0.1775 -0.3760
 6228SOL    HW130320   1.799   1.726   7.581 -1.7039 -1.2053  0.3011
 6228SOL    HW230321   1.718   1.815   7.497 -0.7226  0.3773  0.0745
 6229SOL     OW30322   0.678   2.087  15.990  0.8999  0.1711 -0.0278
 6229SOL    HW130323   0.690   2.117  15.900 -0.0874 -0.7620 -0.4772
 6229SOL    HW230324   0.748   2.024  16.000  0.4451  0.2848  3.7315
 6230SOL     OW30325   2.603   2.661  16.070 -0.3487 -0.5670 -0.5391
 6230SOL    HW130326   2.519   2.688  16.033  0.2112  2.2956  0.3022
 6230SOL    HW230327   2.650   2.648  15.987  1.1557 -1.8823  0.5307
 6231SOL     OW30328   0.629   2.106   7.501  0.9251 -0.1246 -0.0441
 6231SOL    HW130329   0.672   2.183   7.538  1.0196 -0.0760 -0.2533
 6231SOL    HW230330   0.680   2.102   7.420  2.7536  0.7256  1.0707
 6232SOL     OW30331   4.520   1.270   5.541 -0.3707 -0.0702  0.4065
 6232SOL    HW130332   4.450   1.304   5.485 -1.9681  0.4579  2.7066
 6232SOL    HW230333   4.533   1.345   5.600  0.8717 -0.1702  0.2480
 6233SOL     OW30334   3.190   2.722  16.063 -0.1505 -0.2228  0.2183
 6233SOL    HW130335   3.156   2.689  15.980 -0.8496  1.8057 -0.2957
 6233SOL    HW230336   3.282   2.705  16.043 -0.8865 -0.5393 -2.9113
 6234SOL     OW30337   2.851   1.226  14.209 -0.4217 -0.2040  0.7509
 6234SOL    HW130338   2.860   1.295  14.275  1.0431 -1.6009  2.0214
 6234SOL    HW230339   2.769   1.260  14.173  0.8660  0.9724 -1.0777
 6235SOL     OW30340   0.896   1.734   7.671  0.8693 -0.0584 -0.0985
 6235SOL    HW130341   0.957   1.669   7.636  1.4161  0.0868  0.5811
 6235SOL    HW230342   0.821   1.709   7.618  0.8000 -1.1041  0.4832
 6236SOL     OW30343   4.151   4.298  12.280 -0.3218 -0.1228  0.0616
 6236SOL    HW130344   4.188   4.337  12.359 -0.1648 -0.6665  0.2578
 6236SOL    HW230345   4.061   4.288  12.312 -0.4174 -0.1090 -0.1982
 6237SOL     OW30346   1.028   3.776  17.720 -0.2150  0.1933 -0.6689
 6237SOL    HW130347   0.984   3.714  17.660 -1.3970 -1.7233  2.1778
 6237SOL    HW230348   0.998   3.747   0.055  0.5160 -1.0053 -0.8239
 6238SOL     OW30349   2.060   2.721  13.113 -0.1397  0.0509 -0.0115
 6238SOL    HW130350   2.114   2.699  13.189  0.9657 -1.9025 -1.3588
 6238SOL    HW230351   1.986   2.769  13.152  0.3013  1.3855 -0.8264
 6239SOL     OW30352   1.225   2.477  10.212  0.7795  0.0376 -0.1917
 6239SOL    HW130353   1.313   2.501  10.185  0.6889  1.6328  0.9669
 6239SOL    HW230354   1.204   2.416  10.141 -3.0411 -0.2961  1.2038
 6240SOL     OW30355   1.006   0.498  15.668  0.1992 -0.3285  0.6307
 6240SOL    HW130356   1.069   0.557  15.626 -1.9050  0.9116 -0.7449
 6240SOL    HW230357   0.993   0.426  15.606  4.9690 -0.9744  0.3533
 6241SOL     OW30358   3.182   0.955   8.290 -0.0677 -0.1357  0.3309
 6241SOL    HW130359   3.196   0.866   8.258  0.5300  0.2285 -0.4174
 6241SOL    HW230360   3.261   0.986   8.334  0.4448 -0.7437 -0.1442
 6242SOL     OW30361   4.421   2.833   3.193  0.3393  0.4516 -0.3295
 6242SOL    HW130362   4.447   2.826   3.284 -1.7049 -0.9114  0.1477
 6242SOL    HW230363   4.334   2.873   3.203 -0.1956 -0.7324 -0.3179
 6243SOL     OW30364   2.677   0.293   5.165 -0.1822  0.3626 -0.1499
 6243SOL    HW130365   2.743   0.225   5.175 -1.7820 -0.9128  1.6544
 6243SOL    HW230366   2.603   0.247   5.203 -0.5693  1.8372  0.9063
 6244SOL     OW30367   3.352   4.615   7.286 -0.1589  0.4285  0.2775
 6244SOL    HW130368   3.346   4.520   7.278 -1.6903  0.3387  2.3343
 6244SOL    HW230369   3.442   4.633   7.258 -0.8775  0.2504 -2.1268
 6245SOL     OW30370   4.551   2.610   6.037 -0.2645 -0.4356  0.1415
 6245SOL    HW130371   4.599   2.681   5.994 -0.6687 -0.1929  0.0922
 6245SOL    HW230372   4.607   2.536   6.012  0.1420  0.3880 -1.3958
 6246SOL     OW30373   1.415   3.101  14.569  0.0429 -0.1064 -0.4114
 6246SOL    HW130374   1.361   3.068  14.498 -1.0334  1.5911 -0.3923
 6246SOL    HW230375   1.417   3.024  14.625  1.4113  1.0436  1.1545
 6247SOL     OW30376   2.495   3.746   8.026 -0.1661 -0.0887 -0.3190
 6247SOL    HW130377   2.412   3.783   7.997  0.0689  0.4543 -0.3051
 6247SOL    HW230378   2.466   3.679   8.087  0.2649 -1.0997 -1.2266
 6248SOL     OW30379   4.555   4.450   4.850  0.3879 -0.6051 -0.4135
 6248SOL    HW130380   4.610   4.441   4.928 -1.7245 -2.3167  0.8553
 6248SOL    HW230381   4.616   4.495   4.790  0.6497  1.7785  1.6322
 6249SOL     OW30382   4.025   3.670   9.363 -0.0283 -0.8049 -0.0681
 6249SOL    HW130383   4.056   3.606   9.299  2.2371  0.2582 -0.0277
 6249SOL    HW230384   3.932   3.685   9.344  0.1769 -0.5800 -0.8958
 6250SOL     OW30385   3.932   2.642  10.473  0.4711  0.2120  0.2382
 6250SOL    HW130386   3.998   2.704  10.442  1.1465  0.6621  2.5581
 6250SOL    HW230387   3.879   2.637  10.394  1.9183 -0.0386 -0.7242
 6251SOL     OW30388   1.488   3.366   2.915 -0.3712 -0.0001 -0.2835
 6251SOL    HW130389   1.431   3.398   2.845 -0.9107  1.5570  0.8807
 6251SOL    HW230390   1.422   3.365   2.984  0.5738 -2.7716  0.5545
 6252SOL     OW30391   0.931   4.072   2.090 -0.4972  0.0563  0.1993
 6252SOL    HW130392   0.910   4.164   2.101 -0.1920 -0.1338  2.2812
 6252SOL    HW230393   1.006   4.062   2.148 -0.0356 -0.2585 -0.4461
 6253SOL     OW30394   4.687   4.167  15.326  0.1829  0.5153  0.3664
 6253SOL    HW130395   4.729   4.094  15.281  0.1563 -0.0341  1.2184
 6253SOL    HW230396   4.702   4.241  15.267 -1.5909 -0.4183 -1.2383
 6254SOL     OW30397   3.598   1.074   9.570  0.5170 -0.1021 -0.2234
 6254SOL    HW130398   3.687   1.088   9.601 -0.1376  0.6263  1.3259
 6254SOL    HW230399   3.606   1.113   9.483  1.5953  1.5228  0.5952
 6255SOL     OW30400   2.541   2.614   6.803 -0.4725 -0.2450 -0.0141
 6255SOL    HW130401   2.558   2.707   6.789  2.1900 -1.0298 -1.9364
 6255SOL    HW230402   2.461   2.605   6.855 -0.2334  3.0113  0.8628
 6256SOL     OW30403   3.213   3.869  16.374 -0.5744  0.0995  0.4865
 6256SOL    HW130404   3.192   3.816  16.298  1.3596  2.0751 -1.4267
 6256SOL    HW230405   3.168   3.815  16.439 -3.0227 -2.1059 -3.1019
 6257SOL     OW30406   2.668   0.340   6.492 -0.8802 -0.3009  0.6062
 6257SOL    HW130407   2.617   0.376   6.419  3.7549  3.0575 -0.9406
 6257SOL    HW230408   2.671   0.247   6.469  2.1578  0.3455 -1.4969
 6258SOL     OW30409   3.789   4.735   2.557  0.1918 -0.3458 -0.2612
 6258SOL    HW130410   3.857   0.062   2.576 -1.0080  0.9781 -0.5246
 6258SOL    HW230411   3.733   0.049   2.500 -0.2500 -0.2760  0.2391
 6259SOL     OW30412   1.244   3.646   6.175 -0.2766  1.1280 -0.3482
 6259SOL    HW130413   1.175   3.711   6.186 -2.1786 -1.1227  0.8864
 6259SOL    HW230414   1.295   3.661   6.255  1.3714 -0.1178 -1.1679
 6260SOL     OW30415   2.193   0.211   5.207 -0.1154  0.1149 -0.4027
 6260SOL    HW130416   2.114   0.245   5.164 -1.7940 -1.5242  1.3765
 6260SOL    HW230417   2.208   0.269   5.281 -1.9775  2.6338 -1.9837
 6261SOL     OW30418   3.436   3.015  12.229 -0.3282  0.7903  0.5284
 6261SOL    HW130419   3.503   2.998  12.295 -1.9562 -1.4681  1.5942
 6261SOL    HW230420   3.487   3.017  12.147  0.0293  1.0028  0.7568
 6262SOL     OW30421   3.188   2.738   1.810  0.5417  0.7654  0.0701
 6262SOL    HW130422   3.105   2.783   1.793  0.3353 -0.6910 -2.7661
 6262SOL    HW230423   3.244   2.813   1.830  0.2228  1.1758 -0.5522
 6263SOL     OW30424   2.969   0.727  16.031 -0.8302 -1.1529  0.3383
 6263SOL    HW130425   2.938   0.816  16.013 -1.2002 -1.0278  1.5977
 6263SOL    HW230426   3.064   0.733  16.025 -0.5717 -3.4403  2.3896
 6264SOL     OW30427   1.064   4.066  17.293 -0.0911  0.7640 -0.2306
 6264SOL    HW130428   1.081   4.157  17.270 -0.1733  0.9783  0.5689
 6264SOL    HW230429   1.134   4.054  17.358  1.3153 -2.3255 -2.2734
 6265SOL     OW30430   4.474   4.262   1.890 -0.8434 -0.0555  0.0220
 6265SOL    HW130431   4.562   4.283   1.858 -0.3646 -0.0759  1.3163
 6265SOL    HW230432   4.421   4.234   1.816 -0.4434  0.5854 -0.5114
 6266SOL     OW30433   2.256   0.548   7.372 -0.1169  0.2991  0.6848
 6266SOL    HW130434   2.296   0.466   7.400 -0.0473  0.5224  1.2313
 6266SOL    HW230435   2.321   0.617   7.388  2.0563 -1.3519 -0.8854
 6267SOL     OW30436   4.404   1.028   5.857 -0.0557  0.7440 -0.2540
 6267SOL    HW130437   4.367   1.002   5.773  0.7928 -0.8551 -0.1237
 6267SOL    HW230438   4.381   0.954   5.913  0.5763  1.0723  0.4408
 6268SOL     OW30439   1.996   0.666   4.988  0.3434 -0.2241 -0.0797
 6268SOL    HW130440   2.055   0.642   5.060 -1.2943 -2.6232  0.4794
 6268SOL    HW230441   1.984   0.758   5.009  0.9154  0.2363 -1.8421
 6269SOL     OW30442   2.529   2.684   3.032 -0.1443  0.5619  0.4619
 6269SOL    HW130443   2.470   2.753   3.062 -1.3909 -0.5030  0.4828
 6269SOL    HW230444   2.468   2.636   2.976 -0.9519 -0.0370  1.8437
 6270SOL     OW30445   0.611   0.765   7.848  0.0728 -0.2056  0.3404
 6270SOL    HW130446   0.559   0.802   7.776 -1.0579 -1.0047  0.7466
 6270SOL    HW230447   0.564   0.797   7.925  0.5947  0.5278  0.3506
 6271SOL     OW30448   1.259   2.270   7.374  0.2267  0.3486 -0.3010
 6271SOL    HW130449   1.266   2.296   7.282  1.7012  1.9672  0.2747
 6271SOL    HW230450   1.343   2.224   7.375 -0.2565 -0.5340 -0.7717
 6272SOL     OW30451   2.951   0.993  14.600  0.6116  0.1379  0.3420
 6272SOL    HW130452   3.007   1.071  14.594 -1.2345  1.6431  2.5988
 6272SOL    HW230453   2.866   1.017  14.563  0.5937  0.5870  0.6680
 6273SOL     OW30454   0.839   3.233   0.601 -0.0297 -0.4099 -0.1563
 6273SOL    HW130455   0.934   3.247   0.599 -0.3830  1.8908 -0.2611
 6273SOL    HW230456   0.827   3.218   0.695  1.2671 -0.6482 -0.0262
 6274SOL     OW30457   3.671   1.221   5.891  0.3663  0.5050  0.0460
 6274SOL    HW130458   3.722   1.166   5.951  0.7488  1.8445  0.9652
 6274SOL    HW230459   3.737   1.237   5.824 -1.1153  0.6755 -1.3727
 6275SOL     OW30460   3.524   1.628   5.459  0.2399 -0.0789  0.0792
 6275SOL    HW130461   3.504   1.690   5.530 -0.1998  0.3320 -0.3991
 6275SOL    HW230462   3.442   1.580   5.447 -0.3056  1.2253 -1.2891
 6276SOL     OW30463   2.237   1.230   6.041  0.3319  0.1682  0.0686
 6276SOL    HW130464   2.171   1.257   5.977 -0.6166 -0.3185  0.8340
 6276SOL    HW230465   2.258   1.143   6.009 -1.7449  0.3312 -1.8090
 6277SOL     OW30466   4.540   2.173   3.017  0.4271  0.2410  0.0159
 6277SOL    HW130467   4.635   2.165   3.027  0.5309  1.9914  0.4443
 6277SOL    HW230468   4.539   2.251   2.961  2.9061 -0.3913 -0.8920
 6278SOL     OW30469   2.676   3.747  14.567 -0.1135 -0.4473  0.3963
 6278SOL    HW130470   2.744   3.809  14.594 -0.1337 -0.2906  0.0854
 6278SOL    HW230471   2.677   3.747  14.472 -0.6805  2.0512  0.3842
 6279SOL     OW30472   4.101   2.959   7.884  0.2766  0.6684 -0.5767
 6279SOL    HW130473   4.044   2.886   7.908  1.0020  0.3287  0.1062
 6279SOL    HW230474   4.146   2.969   7.968 -3.0780 -0.9275  1.4263
 6280SOL     OW30475   3.909   0.213   6.450  0.1838  0.5494 -0.4005
 6280SOL    HW130476   3.814   0.209   6.455  0.4038 -1.1092  2.6248
 6280SOL    HW230477   3.933   0.158   6.524 -3.6321  0.6758  0.9365
 6281SOL     OW30478   2.479   4.016   3.123  0.4392  0.4227  0.9380
 6281SOL    HW130479   2.533   4.075   3.070 -1.4126  0.2711 -1.1399
 6281SOL    HW230480   2.396   4.056   3.098 -0.1853 -2.2322 -1.3160
 6282SOL     OW30481   4.101   3.463   9.226  0.1316 -0.1926 -0.0839
 6282SOL    HW130482   4.149   3.384   9.251 -1.1895 -1.5324 -1.8006
 6282SOL    HW230483   4.071   3.451   9.136 -0.6233  1.3286 -0.0326
 6283SOL     OW30484   3.187   1.432   4.441 -0.3575 -0.0092  0.3591
 6283SOL    HW130485   3.265   1.481   4.465  0.9191 -2.9511  2.1613
 6283SOL    HW230486   3.196   1.424   4.346  2.0467 -1.7350  0.7315
 6284SOL     OW30487   3.363   2.719   2.115  0.3012 -0.9647  0.5459
 6284SOL    HW130488   3.453   2.751   2.105  0.7011 -1.0395  3.9208
 6284SOL    HW230489   3.372   2.625   2.099  1.0845 -0.5147 -1.7310
 6285SOL     OW30490   1.429   3.202   7.796  0.3542 -0.4323  0.0394
 6285SOL    HW130491   1.515   3.237   7.769 -1.3241  1.7459 -2.5254
 6285SOL    HW230492   1.431   3.227   7.888 -0.1926  0.3199 -0.1569
 6286SOL     OW30493   3.203   1.001   4.905 -0.4005 -0.4290  0.5211
 6286SOL    HW130494   3.158   0.949   4.838  0.6398 -0.2286 -0.3400
 6286SOL    HW230495   3.240   0.943   4.972 -1.1772 -1.7828 -0.2202
 6287SOL     OW30496   2.240   0.981  12.248 -0.2368  0.4555 -0.2704
 6287SOL    HW130497   2.171   0.950  12.190 -0.3133  1.7907 -0.8997
 6287SOL    HW230498   2.309   0.921  12.217  0.0128  1.2929 -1.3515
 6288SOL     OW30499   4.153   3.607   2.765  0.5628  0.2150 -0.0436
 6288SOL    HW130500   4.203   3.533   2.800 -0.5476 -0.4369  0.1818
 6288SOL    HW230501   4.232   3.659   2.753  0.1466  0.5271 -1.3560
 6289SOL     OW30502   2.735   2.186   4.442 -0.6475  0.0827 -0.6645
 6289SOL    HW130503   2.805   2.217   4.499 -0.4102  0.2504 -1.0508
 6289SOL    HW230504   2.664   2.227   4.492  0.3192  0.3114  0.4954
 6290SOL     OW30505   4.657   4.429   3.997  0.6302 -0.1667 -0.0357
 6290SOL    HW130506   4.699   4.452   3.914  0.1667  0.2802 -0.1476
 6290SOL    HW230507   4.721   4.461   4.061 -0.1456  1.6948 -0.1732
 6291SOL     OW30508   4.223   2.854  14.961 -0.9254  0.4547 -0.2504
 6291SOL    HW130509   4.181   2.782  15.008  2.7787 -1.6193 -0.1705
 6291SOL    HW230510   4.143   2.902  14.940 -0.8769  0.8988  0.5887
 6292SOL     OW30511   3.672   2.331   7.812 -0.3408  0.3827  0.3708
 6292SOL    HW130512   3.592   2.278   7.812  0.9448 -1.5488  1.0513
 6292SOL    HW230513   3.715   2.293   7.889 -1.1470 -0.5630  0.3538
 6293SOL     OW30514   4.330   4.014  11.036 -0.3316 -0.2707 -0.3523
 6293SOL    HW130515   4.239   4.006  11.064 -1.2782  0.1497 -3.3004
 6293SOL    HW230516   4.328   3.971  10.950  1.1620 -0.3257 -0.3670
 6294SOL     OW30517   3.946   1.941   0.589 -0.0024  0.4618 -0.3712
 6294SOL    HW130518   4.039   1.962   0.576  0.2714 -1.2320 -1.1998
 6294SOL    HW230519   3.932   1.965   0.680  0.7882 -0.1726 -0.0824
 6295SOL     OW30520   0.750   3.415   6.981  0.3120 -0.2141 -0.0262
 6295SOL    HW130521   0.713   3.483   6.925 -1.7520 -3.3466 -2.5011
 6295SOL    HW230522   0.711   3.341   6.935  0.4209 -0.8653  0.9163
 6296SOL     OW30523   0.781   1.229  14.690 -0.1396 -0.3571  0.4401
 6296SOL    HW130524   0.810   1.235  14.599 -1.5327 -2.5194 -0.1329
 6296SOL    HW230525   0.851   1.275  14.737 -1.2831  3.8211 -1.9321
 6297SOL     OW30526   2.605   0.949   3.469 -0.2443 -0.1634  1.0674
 6297SOL    HW130527   2.625   0.939   3.376  0.7942  0.1977  1.2507
 6297SOL    HW230528   2.685   0.916   3.509 -0.3317 -1.8972 -0.1807
 6298SOL     OW30529   4.201   2.414   5.594 -0.0053  0.6392  0.7927
 6298SOL    HW130530   4.167   2.497   5.627 -1.0537  0.8421 -0.7822
 6298SOL    HW230531   4.294   2.424   5.616 -0.7657  1.7988  3.4802
 6299SOL     OW30532   0.422   0.587   4.585  0.0822  0.0797  0.6123
 6299SOL    HW130533   0.328   0.598   4.569  0.1737  0.1701  0.1424
 6299SOL    HW230534   0.433   0.571   4.679 -1.1501  0.9106  0.8982
 6300SOL     OW30535   4.248   0.102   6.905 -0.1162  0.2056  0.1625
 6300SOL    HW130536   4.310   0.093   6.977  0.8695  0.1227 -0.6843
 6300SOL    HW230537   4.260   0.188   6.864 -0.2450  0.1379 -0.0171
 6301SOL     OW30538   4.611   3.292   5.148  0.0886  0.1899 -0.1517
 6301SOL    HW130539   4.627   3.360   5.083  1.8547 -0.1140 -0.0431
 6301SOL    HW230540   4.562   3.233   5.092 -1.1827  0.4086  0.7257
 6302SOL     OW30541   4.030   1.699  12.112 -0.2061  0.5294 -0.3963
 6302SOL    HW130542   3.959   1.672  12.170  1.9517 -1.3954  1.3549
 6302SOL    HW230543   4.102   1.654  12.157 -0.5107  0.4566  0.0192
 6303SOL     OW30544   3.247   2.315   8.262  0.1875 -0.3676 -0.0535
 6303SOL    HW130545   3.154   2.298   8.277 -0.3488  3.3579  0.7915
 6303SOL    HW230546   3.271   2.226   8.237 -0.0481 -0.5282  0.2971
 6304SOL     OW30547   0.651   0.726   1.515  0.3711 -0.0519  0.3232
 6304SOL    HW130548   0.574   0.712   1.458 -0.1554 -0.0850  1.0421
 6304SOL    HW230549   0.671   0.633   1.524  1.0655  0.2319  1.6334
 6305SOL     OW30550   1.132   4.725  14.046  0.2137 -0.1896  0.3137
 6305SOL    HW130551   1.105   0.073  14.078  0.0737  0.1963 -0.8312
 6305SOL    HW230552   1.047   4.690  14.020  0.9791 -2.3697  0.8025
 6306SOL     OW30553   0.663   4.175   2.284 -0.1099 -0.5379  0.1143
 6306SOL    HW130554   0.568   4.188   2.288  0.2351  2.2646 -1.2539
 6306SOL    HW230555   0.661   4.087   2.246 -0.2785  0.5453 -2.3355
 6307SOL     OW30556   3.603   0.928   2.674  0.5267 -0.0053  0.1070
 6307SOL    HW130557   3.635   1.018   2.670 -0.5657  0.2668 -2.1384
 6307SOL    HW230558   3.686   0.887   2.700 -0.8703 -2.5896  0.4428
 6308SOL     OW30559   3.688   3.080   7.539 -0.3303 -0.0981 -0.2546
 6308SOL    HW130560   3.620   3.073   7.607 -0.0887 -0.5739 -0.0611
 6308SOL    HW230561   3.644   3.147   7.487  0.9405  1.9638  1.3449
 6309SOL     OW30562   3.449   4.061   6.822  0.2661  0.3146  0.5681
 6309SOL    HW130563   3.380   3.996   6.837  0.9640 -1.0294 -2.0154
 6309SOL    HW230564   3.531   4.012   6.820  0.4573  0.6645 -0.2816
 6310SOL     OW30565   4.681   0.825  12.861 -0.1982 -0.5057 -0.0406
 6310SOL    HW130566   0.026   0.792  12.893 -1.8106 -2.8618  1.7715
 6310SOL    HW230567   4.635   0.742  12.846 -2.8200  1.3545 -2.2869
 6311SOL     OW30568   0.739   2.880  17.571 -0.0999 -0.5282  0.2575
 6311SOL    HW130569   0.782   2.813  17.519 -0.2082 -0.8517  0.5839
 6311SOL    HW230570   0.703   2.831  17.645  2.6032 -0.3849  1.6608
 6312SOL     OW30571   4.291   2.721   0.796  0.2935  0.2212 -0.7448
 6312SOL    HW130572   4.215   2.777   0.814 -0.6188 -1.4342  0.6262
 6312SOL    HW230573   4.344   2.770   0.733 -1.0156  1.9389 -0.5199
 6313SOL     OW30574   0.968   4.052   3.946  0.0952 -0.4692 -0.0867
 6313SOL    HW130575   1.000   3.963   3.953  1.7855  0.2287  0.9974
 6313SOL    HW230576   0.927   4.059   4.032  1.4731 -1.6729  0.6470
 6314SOL     OW30577   4.125   1.252  13.362 -0.0444 -0.2124 -0.0989
 6314SOL    HW130578   4.054   1.214  13.414  2.5110 -3.1176  1.2252
 6314SOL    HW230579   4.079   1.325  13.321  0.6155  1.6565  2.5045
 6315SOL     OW30580   2.772   4.641  15.250  0.2132  0.6298 -0.4263
 6315SOL    HW130581   2.676   4.641  15.244  0.2020 -1.1950 -0.3954
 6315SOL    HW230582   2.788   4.572  15.315 -1.0945  0.2122 -0.5396
 6316SOL     OW30583   4.215   3.981   2.416 -0.3795  0.4304  0.0924
 6316SOL    HW130584   4.207   4.067   2.375 -2.6333  0.0324 -0.3077
 6316SOL    HW230585   4.246   3.934   2.338 -0.0261  0.8941 -0.0453
 6317SOL     OW30586   4.260   3.981   7.401  0.4786  0.0251 -0.2752
 6317SOL    HW130587   4.274   4.040   7.326  3.1484  0.8273  0.8547
 6317SOL    HW230588   4.350   3.954   7.421  0.0307 -2.2609 -1.4003
 6318SOL     OW30589   0.228   4.675   1.652 -0.3697 -0.4126 -0.1293
 6318SOL    HW130590   0.198   4.699   1.739  0.9759 -2.2475  0.8269
 6318SOL    HW230591   0.205   4.582   1.648  1.5240 -0.9505  1.7394
 6319SOL     OW30592   4.426   0.317  15.690 -0.1765  0.0080  0.2728
 6319SOL    HW130593   4.502   0.258  15.680 -1.6914 -2.1772  1.5706
 6319SOL    HW230594   4.359   0.250  15.705  0.0775  0.2812  2.6363
 6320SOL     OW30595   3.400   4.526   6.374  0.3335 -0.0383  0.3428
 6320SOL    HW130596   3.373   4.476   6.297  0.5567 -1.4308  1.1731
 6320SOL    HW230597   3.388   4.617   6.344  0.2620  0.2893  1.3571
 6321SOL     OW30598   3.515   4.364  13.432 -0.4374  0.1608  0.3179
 6321SOL    HW130599   3.494   4.279  13.394 -0.7390 -0.2223  1.3702
 6321SOL    HW230600   3.467   4.426  13.376 -0.8082 -0.3754  0.0418
 6322SOL     OW30601   0.183   4.677   6.664 -0.1905  0.1721  0.6735
 6322SOL    HW130602   0.264   4.717   6.632 -1.4401  0.5188 -2.0608
 6322SOL    HW230603   0.147   4.648   6.580 -0.9596  1.5470  0.5271
 6323SOL     OW30604   3.918   3.689   4.291  0.5213 -0.1139  0.3515
 6323SOL    HW130605   3.840   3.684   4.346 -1.1850  0.8103 -1.9721
 6323SOL    HW230606   3.958   3.603   4.302 -2.0912 -0.8928  3.7839
 6324SOL     OW30607   1.112   3.781   7.534 -0.6378  0.8722  0.1926
 6324SOL    HW130608   1.110   3.695   7.491 -1.1787  0.6174  0.7203
 6324SOL    HW230609   1.022   3.815   7.532 -0.1866  1.9856 -0.6853
 6325SOL     OW30610   4.326   2.877   4.930  0.5874  0.0443 -0.0767
 6325SOL    HW130611   4.418   2.849   4.925  0.1942 -0.7018 -2.8857
 6325SOL    HW230612   4.313   2.915   4.843 -3.2765 -1.5200 -0.1729
 6326SOL     OW30613   1.696   3.093   4.358 -0.3266 -0.0268 -0.2403
 6326SOL    HW130614   1.723   3.001   4.349  1.6502  0.5960 -0.4700
 6326SOL    HW230615   1.613   3.081   4.405 -2.2014 -1.7135 -3.9839
 6327SOL     OW30616   3.511   3.215  10.789  0.4353  0.0622 -0.0875
 6327SOL    HW130617   3.460   3.142  10.822  1.5896 -1.1303 -0.9308
 6327SOL    HW230618   3.465   3.289  10.828 -0.2577 -0.8519  0.8105
 6328SOL     OW30619   1.738   1.892  16.567 -0.1382  0.1367  0.1540
 6328SOL    HW130620   1.726   1.983  16.596 -1.1373  0.2286 -0.5495
 6328SOL    HW230621   1.793   1.891  16.489 -0.1707 -1.9614  0.1558
 6329SOL     OW30622   3.891   1.702  13.803  0.4727 -0.2948  0.3667
 6329SOL    HW130623   3.810   1.653  13.821 -0.5901  1.4278  0.2221
 6329SOL    HW230624   3.935   1.704  13.888 -0.5761  0.5483  0.8949
 6330SOL     OW30625   3.988   0.319   9.238  0.2994  0.0288 -0.7197
 6330SOL    HW130626   4.055   0.330   9.170 -0.8181 -1.0104 -2.0007
 6330SOL    HW230627   4.029   0.369   9.309 -2.0504  1.2978 -0.2582
 6331SOL     OW30628   1.548   2.426   9.293 -0.2550 -0.0621  0.0965
 6331SOL    HW130629   1.480   2.397   9.232 -0.7966  0.6026  0.3824
 6331SOL    HW230630   1.493   2.471   9.357 -0.8540 -2.3385  1.1728
 6332SOL     OW30631   2.683   1.116   2.531 -0.2910  0.5461  0.3005
 6332SOL    HW130632   2.646   1.036   2.570 -1.0474  0.9878  0.4789
 6332SOL    HW230633   2.753   1.080   2.477 -0.6225 -0.0453  0.2642
 6333SOL     OW30634   2.289   1.378   2.715  0.3666  0.1397 -0.5319
 6333SOL    HW130635   2.330   1.295   2.736  1.6476  0.5051 -1.6140
 6333SOL    HW230636   2.254   1.410   2.798  2.8245 -0.1585  0.5817
 6334SOL     OW30637   0.827   0.336   4.240 -0.2052  0.0572 -0.4689
 6334SOL    HW130638   0.746   0.355   4.287 -0.1850 -2.3358  0.5363
 6334SOL    HW230639   0.818   0.383   4.157 -0.2146  2.2354  0.7866
 6335SOL     OW30640   4.247   1.546   4.206  0.5410  0.1737  0.0470
 6335SOL    HW130641   4.199   1.629   4.200 -2.0322 -1.5350 -2.6228
 6335SOL    HW230642   4.272   1.549   4.298  1.6135 -0.3521 -0.2270
 6336SOL     OW30643   2.483   3.408   3.056 -0.4787  0.4048 -0.9268
 6336SOL    HW130644   2.523   3.323   3.038 -1.5336 -0.7725  2.3405
 6336SOL    HW230645   2.489   3.417   3.151  0.1621  2.7753 -1.1902
 6337SOL     OW30646   0.063   1.374   2.814 -0.8750  0.1662 -0.1784
 6337SOL    HW130647   0.020   1.290   2.832  2.0333 -1.1763  0.5617
 6337SOL    HW230648   0.083   1.390   2.906 -2.0026 -1.4425  0.3567
 6338SOL     OW30649   2.383   2.339   7.063  0.5419 -0.4334  0.3047
 6338SOL    HW130650   2.349   2.251   7.049  0.9172 -0.8994  2.3266
 6338SOL    HW230651   2.427   2.353   6.980 -1.0065  1.0904 -0.2584
 6339SOL     OW30652   3.128   3.594   8.161  0.1642  0.0603  0.1947
 6339SOL    HW130653   3.084   3.622   8.081 -2.3986  0.0727  1.6125
 6339SOL    HW230654   3.219   3.597   8.131 -0.5464  1.2405 -1.8122
 6340SOL     OW30655   2.624   2.193  14.387  0.0750 -0.0953  0.1901
 6340SOL    HW130656   2.611   2.286  14.404 -0.5864  0.1791 -1.9236
 6340SOL    HW230657   2.681   2.189  14.310 -0.9211  0.1460 -0.5476
 6341SOL     OW30658   3.088   4.703   7.250 -0.2813 -0.2438  0.0536
 6341SOL    HW130659   3.124   0.004   7.170  0.0130  1.6147  1.1058
 6341SOL    HW230660   3.166   4.658   7.281 -1.2245 -0.8163  1.5914
 6342SOL     OW30661   4.538   4.027   2.006 -0.1654  0.0092  0.1419
 6342SOL    HW130662   4.519   4.119   1.990 -1.1521 -0.1132  0.5758
 6342SOL    HW230663   4.620   4.026   2.055  0.1383 -0.0312 -0.3615
 6343SOL     OW30664   3.825   0.151   3.053  0.1316  0.3262 -0.1090
 6343SOL    HW130665   3.757   0.191   2.998 -1.6384 -1.2618  0.9360
 6343SOL    HW230666   3.849   0.081   2.992 -1.0068 -0.3499  0.2162
 6344SOL     OW30667   1.188   0.051  12.214 -0.3571 -0.3330 -0.3419
 6344SOL    HW130668   1.129   0.111  12.259 -1.0305 -0.9018 -0.4715
 6344SOL    HW230669   1.262   0.070  12.272 -1.3783  0.1791  0.7826
 6345SOL     OW30670   2.776   0.405  15.797  0.2104 -0.0452 -0.1150
 6345SOL    HW130671   2.812   0.447  15.875 -0.1976 -0.9757  0.5771
 6345SOL    HW230672   2.779   0.482  15.740 -2.7875  1.5107  1.8043
 6346SOL     OW30673   3.568   0.762   4.073 -0.1328  0.5016 -0.2813
 6346SOL    HW130674   3.592   0.843   4.029  0.1301 -1.0307 -3.0026
 6346SOL    HW230675   3.606   0.693   4.017 -0.2739  0.0152  0.2201
 6347SOL     OW30676   0.494   3.271  15.969 -0.3951  0.4678  0.3379
 6347SOL    HW130677   0.584   3.298  15.952 -0.8337  2.3909  1.1984
 6347SOL    HW230678   0.503   3.180  15.999 -0.3828  0.2734 -0.2423
 6348SOL     OW30679   3.044   2.375   6.317  0.2193 -0.0227  0.2426
 6348SOL    HW130680   2.957   2.340   6.339  0.5427  0.0703  1.6281
 6348SOL    HW230681   3.092   2.344   6.393 -1.9450  1.6407  2.2865
 6349SOL     OW30682   1.699   1.538   6.218 -0.1731  0.1917  0.8800
 6349SOL    HW130683   1.685   1.528   6.312 -0.3706 -0.3327  0.7971
 6349SOL    HW230684   1.794   1.528   6.213 -0.3104 -0.7355 -0.0991
 6350SOL     OW30685   1.086   1.906  13.139  0.3875  0.4151 -0.0439
 6350SOL    HW130686   1.160   1.893  13.198  0.7918 -0.6338 -0.7781
 6350SOL    HW230687   1.028   1.837  13.171  0.1734  0.5559 -0.1259
 6351SOL     OW30688   3.302   1.441  10.853  0.2833 -0.1274 -0.2694
 6351SOL    HW130689   3.245   1.513  10.827 -1.9515 -1.6712  0.3613
 6351SOL    HW230690   3.346   1.475  10.931 -0.3901  0.7487 -0.2690
 6352SOL     OW30691   3.450   0.239   2.100 -0.2760  0.0484  0.5191
 6352SOL    HW130692   3.495   0.313   2.141 -0.6783  1.3623 -1.4275
 6352SOL    HW230693   3.402   0.268   2.023  0.8159  0.1750 -0.1118
 6353SOL     OW30694   3.406   0.203   7.235 -0.0086 -0.5701  0.2227
 6353SOL    HW130695   3.337   0.211   7.302  0.9774  1.1498  1.0366
 6353SOL    HW230696   3.344   0.195   7.162  0.4977 -0.5271 -0.2070
 6354SOL     OW30697   2.774   1.803   2.862 -0.5335 -0.3037 -0.1446
 6354SOL    HW130698   2.699   1.744   2.869 -0.8457  0.1566  0.2964
 6354SOL    HW230699   2.771   1.833   2.952  1.3227  1.2057 -0.5843
 6355SOL     OW30700   0.673   0.458   1.538  0.3368 -0.6511 -0.0601
 6355SOL    HW130701   0.694   0.439   1.447  1.6927 -0.4801  0.2163
 6355SOL    HW230702   0.583   0.427   1.546 -0.6600  1.6073 -2.4837
 6356SOL     OW30703   1.096   4.449   8.477  0.0305  0.2498  0.0886
 6356SOL    HW130704   1.004   4.473   8.464 -0.3997 -1.0069  0.7996
 6356SOL    HW230705   1.128   4.452   8.387 -1.6409  1.3393 -0.4704
 6357SOL     OW30706   3.373   1.329   8.155  0.1535 -0.7825  0.2835
 6357SOL    HW130707   3.378   1.241   8.118 -0.5081 -1.4719  1.8267
 6357SOL    HW230708   3.468   1.334   8.169  0.1578 -1.6435  0.5981
 6358SOL     OW30709   1.943   0.831   8.134  0.3538  0.4784  0.3727
 6358SOL    HW130710   1.982   0.749   8.102 -0.2555 -0.5894  2.4339
 6358SOL    HW230711   1.905   0.854   8.049 -1.5629  0.1987  1.1522
 6359SOL     OW30712   2.162   0.115  17.748  0.2325 -0.2860 -0.6061
 6359SOL    HW130713   2.153   0.022   0.016 -1.7009  0.4697  2.1278
 6359SOL    HW230714   2.203   0.111  17.661  0.3137  0.4175 -0.5997
 6360SOL     OW30715   2.500   0.516   4.476 -0.1792 -0.2657  0.1226
 6360SOL    HW130716   2.450   0.588   4.514 -1.8025  0.0911 -2.7173
 6360SOL    HW230717   2.587   0.551   4.460  0.3479 -1.3101  0.6925
 6361SOL     OW30718   0.438   2.612  17.637 -0.6536 -0.3954  0.5642
 6361SOL    HW130719   0.519   2.647  17.673 -1.0666  1.1947 -0.0473
 6361SOL    HW230720   0.471   2.534  17.592 -0.9753  0.5435 -1.3236
 6362SOL     OW30721   2.329   2.014   9.196 -0.0673  0.0225 -0.7406
 6362SOL    HW130722   2.272   1.956   9.246 -0.9032 -0.3565 -2.1222
 6362SOL    HW230723   2.289   1.999   9.110 -0.6711  0.7411 -0.5786
 6363SOL     OW30724   2.360   3.791   4.641 -0.0107  0.2283 -0.1018
 6363SOL    HW130725   2.306   3.721   4.678  3.0888 -0.2631  3.5120
 6363SOL    HW230726   2.427   3.735   4.601 -0.3779 -1.2527  1.3607
 6364SOL     OW30727   3.501   4.178  10.636 -0.5825 -0.6867 -0.4711
 6364SOL    HW130728   3.526   4.173  10.728  1.2770  0.4455 -0.9237
 6364SOL    HW230729   3.514   4.088  10.604  0.2367 -0.1387 -1.6686
 6365SOL     OW30730   2.326   2.003   3.725 -0.1720 -0.8656 -0.2047
 6365SOL    HW130731   2.267   1.989   3.799 -2.4483  1.4084 -1.5907
 6365SOL    HW230732   2.273   2.038   3.654  0.4565  1.3899  0.4069
 6366SOL     OW30733   4.084   0.149   6.245 -0.2745  0.2352 -0.2812
 6366SOL    HW130734   4.170   0.114   6.268 -0.4481 -0.2869 -0.4117
 6366SOL    HW230735   4.046   0.181   6.327 -1.0621 -0.9867 -0.1638
 6367SOL     OW30736   3.443   3.795   7.104  0.2260 -0.3863  0.3935
 6367SOL    HW130737   3.505   3.781   7.033 -1.1718 -0.0884 -0.8844
 6367SOL    HW230738   3.408   3.710   7.131 -0.2725 -0.0190  0.9171
 6368SOL     OW30739   0.058   4.301  11.266 -0.0396  0.3990 -0.2310
 6368SOL    HW130740   0.022   4.368  11.208  0.7130  1.3256  0.3610
 6368SOL    HW230741   4.731   4.231  11.265 -1.4382  1.6940  0.2028
 6369SOL     OW30742   2.568   3.172   5.307  0.3375 -0.5125  0.2517
 6369SOL    HW130743   2.477   3.154   5.281  0.7969  1.5289 -2.7886
 6369SOL    HW230744   2.616   3.089   5.310 -1.3644 -1.5564 -0.7756
 6370SOL     OW30745   2.990   2.555   6.125 -0.3806  0.5853  0.2473
 6370SOL    HW130746   2.920   2.606   6.165 -0.8726  0.1377 -0.0570
 6370SOL    HW230747   3.014   2.500   6.199  0.1154 -2.8339 -2.4527
 6371SOL     OW30748   4.318   0.317   2.373  0.1787  0.4630  0.6109
 6371SOL    HW130749   4.391   0.353   2.324 -0.0906 -1.4966 -1.2105
 6371SOL    HW230750   4.338   0.298   2.465  0.4518 -2.4337 -0.0553
 6372SOL     OW30751   1.412   3.674   8.998  0.5791 -0.3220  0.3236
 6372SOL    HW130752   1.505   3.669   8.976  0.5709  2.6766 -0.3881
 6372SOL    HW230753   1.423   3.649   9.090 -1.8196 -2.7904 -0.0720
 6373SOL     OW30754   2.229   3.006   2.857  0.1405  0.3768 -0.3685
 6373SOL    HW130755   2.265   2.952   2.927  0.4077  0.2293 -0.6191
 6373SOL    HW230756   2.242   3.096   2.888 -0.8646 -0.2729  1.9580
 6374SOL     OW30757   3.295   0.256  17.528  0.1516 -0.0574 -0.1244
 6374SOL    HW130758   3.348   0.191  17.482 -0.2048  1.0123 -2.0607
 6374SOL    HW230759   3.353   0.331  17.515  0.1996 -0.3306 -1.4413
 6375SOL     OW30760   3.258   4.259   6.537  0.1321  0.2383 -0.1174
 6375SOL    HW130761   3.186   4.299   6.487 -1.2362  0.1673  1.8100
 6375SOL    HW230762   3.213   4.206   6.603 -0.3439  0.5164 -0.2216
 6376SOL     OW30763   4.008   3.186  15.111  0.5313 -0.9970  0.0141
 6376SOL    HW130764   4.086   3.183  15.166  0.0829 -0.9292  0.6451
 6376SOL    HW230765   4.015   3.103  15.063  1.3432  0.5591 -2.5599
 6377SOL     OW30766   1.594   0.092   8.654  0.3063 -0.0652  0.3898
 6377SOL    HW130767   1.498   0.098   8.654  0.4161  1.7696  0.9829
 6377SOL    HW230768   1.601   0.066   8.746  2.5205 -1.3405 -0.1614
 6378SOL     OW30769   4.563   0.581  12.823 -0.3741  0.1091 -0.0596
 6378SOL    HW130770   4.647   0.566  12.868 -0.4440 -1.1437 -0.3762
 6378SOL    HW230771   4.503   0.595  12.896 -0.3617  1.9810 -0.3966
 6379SOL     OW30772   1.934   3.516   1.666 -0.5588  0.2460 -0.2815
 6379SOL    HW130773   1.997   3.446   1.647  0.4761  0.5726  1.9358
 6379SOL    HW230774   1.979   3.598   1.649  1.3601 -0.6060  0.6846
 6380SOL     OW30775   2.290   1.132   9.565 -0.6188  0.4503  0.5521
 6380SOL    HW130776   2.261   1.222   9.550 -0.1771  0.3366 -0.9508
 6380SOL    HW230777   2.289   1.126   9.661 -0.7983 -1.1809  0.4406
 6381SOL     OW30778   2.400   2.125   3.339  0.7358 -0.8171 -0.5970
 6381SOL    HW130779   2.368   2.139   3.250 -0.0868  0.9911 -0.0031
 6381SOL    HW230780   2.373   2.035   3.356  0.2804 -0.1464  2.2061
 6382SOL     OW30781   1.705   2.341   9.693  0.7043 -0.2418 -0.8281
 6382SOL    HW130782   1.788   2.298   9.674  0.1290 -1.0885 -1.4333
 6382SOL    HW230783   1.713   2.433   9.671 -0.3087  0.1131  0.2982
 6383SOL     OW30784   3.042   2.878  13.162  0.0233  0.3276  0.0333
 6383SOL    HW130785   2.959   2.898  13.119 -1.8691 -0.7758  3.1951
 6383SOL    HW230786   3.115   2.894  13.101  0.1939 -0.4322  0.0388
 6384SOL     OW30787   2.421   3.049   0.656  0.0440  0.3296  0.5723
 6384SOL    HW130788   2.455   2.996   0.728  2.9563 -0.2983 -1.2617
 6384SOL    HW230789   2.347   3.084   0.705 -0.2880  0.8910 -0.3191
 6385SOL     OW30790   0.640   2.761   0.057 -0.1346 -0.3511  0.3808
 6385SOL    HW130791   0.682   2.681   0.089  0.7232 -0.4672 -1.0332
 6385SOL    HW230792   0.621   2.824   0.127  1.1100 -1.7605  1.9652
 6386SOL     OW30793   3.810   2.074   5.782 -0.3788 -0.1701  0.2141
 6386SOL    HW130794   3.758   2.050   5.859 -0.3825  1.7320  0.7967
 6386SOL    HW230795   3.870   2.141   5.815 -1.3521  0.4567  0.7281
 6387SOL     OW30796   2.625   0.946  14.850 -0.1307 -0.2973 -1.0722
 6387SOL    HW130797   2.589   0.995  14.924 -0.6607  0.6640 -1.9644
 6387SOL    HW230798   2.703   0.897  14.876 -0.1007  0.5662  0.4787
 6388SOL     OW30799   0.158   4.473   2.691 -0.4765 -0.0756  0.2807
 6388SOL    HW130800   0.123   4.556   2.659 -1.0049 -0.1070  0.7793
 6388SOL    HW230801   0.077   4.423   2.690 -0.2343 -0.4612  0.1949
 6389SOL     OW30802   1.078   2.294   4.114 -0.5350  0.1722  0.6865
 6389SOL    HW130803   1.113   2.278   4.202  4.1016  0.7817 -1.0525
 6389SOL    HW230804   1.158   2.286   4.063 -0.0276  2.4652  1.1244
 6390SOL     OW30805   4.414   1.028  14.246  0.2606 -0.0395  0.2038
 6390SOL    HW130806   4.404   1.089  14.173 -1.3983  0.2633  0.6860
 6390SOL    HW230807   4.325   1.019  14.279 -0.1779 -2.2944 -1.6071
 6391SOL     OW30808   1.675   0.108   6.874  0.1817 -0.3373  0.0500
 6391SOL    HW130809   1.580   0.124   6.871  0.7294  2.5536 -2.2264
 6391SOL    HW230810   1.701   0.037   6.815 -0.7788 -0.9917  0.4174
 6392SOL     OW30811   3.817   3.387   6.953 -0.0718  0.0805 -0.1467
 6392SOL    HW130812   3.855   3.299   6.948 -3.1648 -1.3076  0.6391
 6392SOL    HW230813   3.897   3.440   6.957  1.1521 -1.6369 -1.5311
 6393SOL     OW30814   0.146   2.241  16.404  0.0446  0.0856  0.2798
 6393SOL    HW130815   0.220   2.186  16.380 -0.9656 -0.7200 -0.9362
 6393SOL    HW230816   0.108   2.188  16.474  0.6468  1.7670  1.8821
 6394SOL     OW30817   3.840   1.563   5.608 -0.2992  0.3130  0.2273
 6394SOL    HW130818   3.820   1.619   5.684 -3.2660 -1.2876  0.6423
 6394SOL    HW230819   3.832   1.633   5.543 -1.5186  1.6319  1.7995
 6395SOL     OW30820   1.128   3.126   1.273  0.0105 -0.5466 -0.3171
 6395SOL    HW130821   1.050   3.093   1.317  0.3061  0.6796  1.1273
 6395SOL    HW230822   1.088   3.138   1.186  1.9995 -0.4224 -1.2166
 6396SOL     OW30823   1.502   0.662  14.674  0.4945  0.3889 -0.4501
 6396SOL    HW130824   1.418   0.707  14.688 -0.6359 -0.7419 -3.6508
 6396SOL    HW230825   1.527   0.701  14.590 -0.4457  1.1042 -0.4021
 6397SOL     OW30826   1.517   4.430   8.739 -0.4210  0.0785 -0.1844
 6397SOL    HW130827   1.465   4.510   8.735  0.5715  0.7277 -0.1245
 6397SOL    HW230828   1.479   4.395   8.819  1.1959 -0.6553  0.2517
 6398SOL     OW30829   1.558   3.399   7.456  0.0086 -0.1890  0.0522
 6398SOL    HW130830   1.626   3.459   7.426 -0.5974 -0.0079 -0.9732
 6398SOL    HW230831   1.532   3.355   7.374  1.3986 -0.9636  0.0311
 6399SOL     OW30832   0.356   3.177   1.382 -0.4969 -0.1548  0.2540
 6399SOL    HW130833   0.344   3.082   1.379 -1.4979 -0.0218  0.2206
 6399SOL    HW230834   0.266   3.197   1.406  0.6306  2.4955  2.3169
 6400SOL     OW30835   1.724   2.330   8.220 -0.0696  0.0355  0.0155
 6400SOL    HW130836   1.702   2.309   8.311 -0.9168  0.7097 -0.0319
 6400SOL    HW230837   1.776   2.252   8.204  2.0146  1.1964  1.1292
 6401SOL     OW30838   1.521   4.267   5.376 -0.6142  0.2108 -0.7566
 6401SOL    HW130839   1.433   4.266   5.412 -1.0319  2.5505 -1.7253
 6401SOL    HW230840   1.531   4.172   5.373 -0.9747  0.1029  1.6869
 6402SOL     OW30841   3.367   0.989   4.557  0.1067 -0.0558  0.0106
 6402SOL    HW130842   3.312   0.923   4.600  1.5148 -0.7693  0.7232
 6402SOL    HW230843   3.316   1.065   4.586  0.7656  0.2444  0.3836
 6403SOL     OW30844   3.856   1.120   8.168  0.3556 -0.4592 -0.4442
 6403SOL    HW130845   3.908   1.158   8.239 -0.6869  2.2772 -1.1473
 6403SOL    HW230846   3.921   1.059   8.133  2.2621 -0.1145  2.4765
 6404SOL     OW30847   0.760   4.732  11.463 -0.0065  0.5746 -0.0231
 6404SOL    HW130848   0.764   4.640  11.437  0.3748  0.3760  0.7336
 6404SOL    HW230849   0.775   4.729  11.558  0.1031 -0.4887 -0.0800
 6405SOL     OW30850   3.800   3.874  12.117  0.0489  0.0519  0.0780
 6405SOL    HW130851   3.747   3.904  12.191  1.2870 -1.4185  1.5458
 6405SOL    HW230852   3.819   3.785  12.146 -1.0287  0.1807  1.1815
 6406SOL     OW30853   4.001   4.247   5.635 -0.1082  0.1984  0.3753
 6406SOL    HW130854   3.964   4.325   5.675 -1.3264  0.4772 -1.2787
 6406SOL    HW230855   4.030   4.273   5.547 -0.1761  1.5779  0.7688
 6407SOL     OW30856   3.297   2.969   2.207 -0.5906 -0.4336  0.7397
 6407SOL    HW130857   3.241   2.989   2.133  1.4731  2.1237 -0.1176
 6407SOL    HW230858   3.344   2.893   2.171 -2.1069 -1.2609  0.5091
 6408SOL     OW30859   0.624   2.470   3.306  0.6397 -0.1919 -0.3747
 6408SOL    HW130860   0.688   2.464   3.377  0.0730 -0.0209  0.1518
 6408SOL    HW230861   0.564   2.538   3.336 -1.3513 -1.1055 -2.3020
 6409SOL     OW30862   4.070   3.804  14.653  0.2387 -0.4699 -0.1169
 6409SOL    HW130863   4.029   3.755  14.581  0.9204 -0.2744 -0.6346
 6409SOL    HW230864   4.068   3.891  14.614  2.0720  0.1575  1.1408
 6410SOL     OW30865   0.268   1.048   2.799  0.3580 -0.3986  0.2311
 6410SOL    HW130866   0.218   1.039   2.718 -1.0688 -1.3768  1.2090
 6410SOL    HW230867   0.198   1.032   2.863  1.0252  1.0247  1.3237
 6411SOL     OW30868   1.681   1.050   9.496 -0.3715  0.2180 -0.4424
 6411SOL    HW130869   1.742   1.022   9.563 -1.0644 -2.7340 -1.0622
 6411SOL    HW230870   1.705   0.991   9.424 -1.1677 -0.9875  0.2872
 6412SOL     OW30871   2.145   0.321   5.497 -0.3341  0.2820 -0.2293
 6412SOL    HW130872   2.053   0.335   5.519 -0.4576 -0.8956  0.0214
 6412SOL    HW230873   2.182   0.399   5.539  1.9395 -0.7627 -0.2958
 6413SOL     OW30874   0.058   2.835   1.235 -0.1058  0.0695  0.5496
 6413SOL    HW130875   0.088   2.748   1.209  0.1197  0.1775  0.4465
 6413SOL    HW230876   0.128   2.874   1.289  0.9573  1.0782 -1.5789
 6414SOL     OW30877   2.349   3.178   4.660 -0.6179 -0.2064 -0.5473
 6414SOL    HW130878   2.292   3.124   4.714  1.7401 -0.0458  2.1370
 6414SOL    HW230879   2.320   3.264   4.689  3.5081  2.0195 -2.9694
 6415SOL     OW30880   4.410   0.553   9.146 -0.2852 -0.3403  0.1366
 6415SOL    HW130881   4.476   0.486   9.164 -1.1719 -1.0154  0.8984
 6415SOL    HW230882   4.344   0.493   9.111 -0.3703 -1.4780  2.2152
 6416SOL     OW30883   3.827   1.872   9.019 -0.1729  0.1079  0.0519
 6416SOL    HW130884   3.816   1.941   9.085 -1.8758 -0.1064 -0.0043
 6416SOL    HW230885   3.898   1.824   9.061  1.1744 -0.3732 -2.7877
 6417SOL     OW30886   0.917   4.660   4.607 -0.1936 -0.1628 -0.2776
 6417SOL    HW130887   0.854   4.656   4.535 -0.0694 -1.4117 -0.3165
 6417SOL    HW230888   0.897   0.014   4.621 -1.6442 -0.4527 -0.3462
 6418SOL     OW30889   4.134   1.272   9.032 -0.4129  0.3408 -0.3951
 6418SOL    HW130890   4.056   1.308   9.076  0.1170 -0.9523  1.5992
 6418SOL    HW230891   4.122   1.178   9.039 -3.5753  0.5888 -2.4745
 6419SOL     OW30892   3.699   3.083   5.019  0.9366  0.7074 -0.5518
 6419SOL    HW130893   3.754   3.161   5.022  3.1726 -0.8386 -2.2229
 6419SOL    HW230894   3.613   3.121   5.040  1.7760  2.1781  0.1799
 6420SOL     OW30895   2.364   0.212   8.122 -0.8493 -0.0753 -0.0370
 6420SOL    HW130896   2.383   0.145   8.057  0.0019  1.4563 -1.3695
 6420SOL    HW230897   2.378   0.167   8.205 -1.0640  0.4649  0.2925
 6421SOL     OW30898   1.519   2.769   2.545  0.3339  0.3076  0.2635
 6421SOL    HW130899   1.551   2.764   2.635 -1.4165  1.6382  0.9677
 6421SOL    HW230900   1.472   2.686   2.539  1.9026 -0.5080 -0.7201
 6422SOL     OW30901   4.719   3.691   7.802 -0.2318  0.3758  0.4916
 6422SOL    HW130902   4.646   3.688   7.865 -0.5426 -0.1765  0.0967
 6422SOL    HW230903   0.030   3.611   7.819  0.3144  0.7428  0.6470
 6423SOL     OW30904   2.525   0.229   4.066 -0.2637  0.2565  0.5665
 6423SOL    HW130905   2.498   0.228   3.974  1.3985  0.2515  0.0710
 6423SOL    HW230906   2.517   0.138   4.094  0.9332 -0.1970 -0.5415
 6424SOL     OW30907   2.725   3.175  10.370 -0.2506 -0.0314  0.0119
 6424SOL    HW130908   2.645   3.225  10.355 -0.6154 -0.4332  0.5778
 6424SOL    HW230909   2.716   3.162  10.465 -2.1038 -0.6684 -0.2436
 6425SOL     OW30910   4.637   0.013   0.444 -0.0197  0.2327 -0.0993
 6425SOL    HW130911   4.566   4.689   0.429 -1.3261  1.6761  0.0040
 6425SOL    HW230912   4.675   4.727   0.528 -0.8415  0.1018  0.2310
 6426SOL     OW30913   0.574   1.998   7.114 -0.4667 -0.0459  0.0158
 6426SOL    HW130914   0.607   1.935   7.178 -2.0605 -1.8361 -0.9323
 6426SOL    HW230915   0.503   2.035   7.165 -0.2310  0.8870 -0.3406
 6427SOL     OW30916   1.494   2.150   7.389 -0.1118  0.5357  0.5587
 6427SOL    HW130917   1.467   2.063   7.362  0.9626 -0.0693  1.4240
 6427SOL    HW230918   1.552   2.185   7.321 -0.6071 -1.4804 -0.8924
 6428SOL     OW30919   1.771   3.041   6.010  0.4417  0.1279 -0.8626
 6428SOL    HW130920   1.820   3.095   6.072  2.0952 -0.3855 -1.7305
 6428SOL    HW230921   1.700   2.999   6.059  2.6234 -2.0590  0.4169
 6429SOL     OW30922   3.612   3.729   1.534  0.1121  0.5723  0.0015
 6429SOL    HW130923   3.563   3.796   1.582 -0.1676  2.2797 -2.6918
 6429SOL    HW230924   3.559   3.736   1.455 -1.1261  1.0722  0.8569
 6430SOL     OW30925   0.059   2.728   9.372  0.4395  0.1442  0.1902
 6430SOL    HW130926   0.112   2.673   9.315  2.3650  0.5370  1.5755
 6430SOL    HW230927   0.088   2.677   9.448  2.1267 -1.0820 -1.3034
 6431SOL     OW30928   2.978   0.856   0.555 -0.5614 -0.3602 -0.3274
 6431SOL    HW130929   2.990   0.764   0.577  0.4056 -0.1892 -0.1365
 6431SOL    HW230930   2.887   0.881   0.570 -0.3225  0.4964 -0.2700
 6432SOL     OW30931   3.389   1.347   4.213 -0.4526 -0.0870  0.0455
 6432SOL    HW130932   3.347   1.273   4.169 -2.7554  0.7602  0.7864
 6432SOL    HW230933   3.381   1.415   4.146  0.1061  0.6443  0.7294
 6433SOL     OW30934   4.050   1.070   1.284  0.2818  0.1349  0.2784
 6433SOL    HW130935   4.117   1.119   1.333 -0.6700  1.3918  0.3134
 6433SOL    HW230936   3.998   1.136   1.240 -0.5065 -1.9988 -2.0033
 6434SOL     OW30937   3.110   3.259   2.810 -0.7244  0.1087 -0.0143
 6434SOL    HW130938   3.180   3.226   2.866 -0.3129  1.3296  0.1942
 6434SOL    HW230939   3.039   3.275   2.871  0.8329 -0.8351  2.0518
 6435SOL     OW30940   2.299   2.204   3.081  0.6540 -0.1252 -0.2635
 6435SOL    HW130941   2.245   2.178   3.007  3.0027  0.3815 -2.1500
 6435SOL    HW230942   2.384   2.220   3.040 -0.2914  1.0054 -1.7870
 6436SOL     OW30943   0.882   3.404   6.042  0.1974 -0.0330  0.0642
 6436SOL    HW130944   0.797   3.369   6.067 -0.2339  2.7145  2.4462
 6436SOL    HW230945   0.864   3.454   5.962  2.8756 -0.7378 -0.9935
 6437SOL     OW30946   0.846   1.321   5.644  0.6815 -0.2816  0.2209
 6437SOL    HW130947   0.839   1.228   5.667 -1.8213 -0.2033 -0.2546
 6437SOL    HW230948   0.795   1.358   5.716  1.8906  1.1603  0.3318
 6438SOL     OW30949   3.573   2.708   2.687 -0.3914 -0.1715  0.0036
 6438SOL    HW130950   3.526   2.716   2.770  0.6842 -2.6067  0.8562
 6438SOL    HW230951   3.553   2.616   2.669 -2.1185 -0.0492  1.2746
 6439SOL     OW30952   0.308   0.356  12.363 -0.4255  0.2223  0.3869
 6439SOL    HW130953   0.397   0.390  12.376 -0.4509  1.2141 -1.9239
 6439SOL    HW230954   0.289   0.349  12.269  1.9570  1.1179 -0.1632
 6440SOL     OW30955   0.407   2.441   6.034 -0.2979 -0.8954 -0.6970
 6440SOL    HW130956   0.329   2.496   6.040  0.3941 -0.0802  0.9590
 6440SOL    HW230957   0.400   2.390   5.953 -0.2544 -2.6106  0.3735
 6441SOL     OW30958   2.191   1.922   8.968 -0.5590  0.1170  0.0135
 6441SOL    HW130959   2.130   1.848   8.960  1.2048 -1.4508  1.0995
 6441SOL    HW230960   2.274   1.889   8.933 -1.2630  0.7416 -2.2104
 6442SOL     OW30961   4.053   1.514   2.386 -0.3688 -0.2215  0.2890
 6442SOL    HW130962   3.999   1.531   2.463  0.6052  0.4197  0.8255
 6442SOL    HW230963   4.023   1.425   2.368 -2.9313  0.4631  1.1439
 6443SOL     OW30964   2.592   0.324   7.258  0.0384  0.5111 -0.3265
 6443SOL    HW130965   2.499   0.340   7.248  0.1109  1.9157  1.2788
 6443SOL    HW230966   2.633   0.396   7.210 -0.4824  0.1445 -1.3115
 6444SOL     OW30967   0.998   2.079  11.437  0.5282 -0.2437  0.0429
 6444SOL    HW130968   1.002   2.160  11.387 -0.4614 -0.0488  0.2862
 6444SOL    HW230969   0.989   2.015  11.367 -0.4291 -2.6962  2.3867
 6445SOL     OW30970   3.163   2.071   7.309 -0.1471  0.1916 -0.3810
 6445SOL    HW130971   3.238   2.129   7.322 -0.7832  0.8030  0.5333
 6445SOL    HW230972   3.149   2.028   7.393  1.1127  0.3265 -0.1138
 6446SOL     OW30973   0.268   3.317   5.584  0.1507 -0.6464  0.0648
 6446SOL    HW130974   0.354   3.298   5.546  0.2427 -1.0901  0.5049
 6446SOL    HW230975   0.221   3.235   5.573  1.4450 -1.1603 -1.6497
 6447SOL     OW30976   3.212   4.043   6.100  0.1250 -0.0765 -0.4923
 6447SOL    HW130977   3.172   4.030   6.014  0.3790 -1.2441 -0.4352
 6447SOL    HW230978   3.269   4.118   6.082  1.4479 -0.8113  0.5655
 6448SOL     OW30979   3.881   1.060   1.610  0.4398  0.0826  0.3923
 6448SOL    HW130980   3.837   1.085   1.529 -0.4839 -1.6459  0.3674
 6448SOL    HW230981   3.921   0.976   1.588  0.2933  0.0043  0.4247
 6449SOL     OW30982   0.155   2.540  12.572 -0.4177  0.2575 -0.4966
 6449SOL    HW130983   0.250   2.540  12.580 -0.3616 -0.1667 -1.1142
 6449SOL    HW230984   0.113   2.525  12.657 -0.8458 -1.0648 -0.9381
 6450SOL     OW30985   1.491   3.317   1.439 -0.2757 -0.2478  0.1429
 6450SOL    HW130986   1.502   3.247   1.375 -0.0833  0.7509 -0.9196
 6450SOL    HW230987   1.401   3.342   1.420 -0.1702  0.0072 -0.0276
 6451SOL     OW30988   3.600   1.430   4.590 -0.4007 -0.3653 -0.4051
 6451SOL    HW130989   3.663   1.370   4.628 -0.1463  0.1194 -0.0613
 6451SOL    HW230990   3.535   1.367   4.560  0.8796 -1.0402 -1.7591
 6452SOL     OW30991   0.264   2.465   2.821  0.2846 -0.1336  0.3286
 6452SOL    HW130992   0.290   2.542   2.872  0.7838 -0.2265  0.2115
 6452SOL    HW230993   0.175   2.458   2.857  1.2040 -2.5139  2.1181
 6453SOL     OW30994   1.470   1.653   2.218  0.1971  0.7059 -0.0713
 6453SOL    HW130995   1.539   1.626   2.278 -1.2423  0.2588  1.3764
 6453SOL    HW230996   1.392   1.630   2.269  1.1524  0.1808  1.1522
 6454SOL     OW30997   1.005   4.294  10.948 -0.3275 -0.4260 -0.1266
 6454SOL    HW130998   1.098   4.272  10.940 -0.1884  0.1166  0.0492
 6454SOL    HW230999   0.968   4.214  10.987 -0.2940  0.7386  2.2819
 6455SOL     OW31000   3.528   4.272   6.631 -0.1756 -0.0724  0.1754
 6455SOL    HW131001   3.520   4.221   6.711 -0.7420 -0.6585 -0.2584
 6455SOL    HW231002   3.448   4.255   6.581  0.4147 -1.7679 -0.1778
 6456SOL     OW31003   2.840   3.546   4.751 -0.2613 -0.4701  0.8039
 6456SOL    HW131004   2.799   3.631   4.766  1.5527  0.3446  1.1831
 6456SOL    HW231005   2.765   3.492   4.729  0.2524 -0.0660 -1.8646
 6457SOL     OW31006   0.170   0.095   0.901 -0.4682  0.2768 -0.2517
 6457SOL    HW131007   0.203   0.007   0.918 -2.0080 -0.1109  0.7188
 6457SOL    HW231008   0.078   0.070   0.901  0.0289 -1.6070 -1.0287
 6458SOL     OW31009   0.611   0.738  15.470  0.0049 -0.3506  0.3064
 6458SOL    HW131010   0.650   0.758  15.385  0.0755 -1.5739  0.0515
 6458SOL    HW231011   0.663   0.770  15.544  0.1011  0.3858 -0.0754
 6459SOL     OW31012   1.025   1.960  10.090 -0.2048 -0.2038 -0.0841
 6459SOL    HW131013   0.977   1.923  10.164  0.3647  0.2674  0.5234
 6459SOL    HW231014   1.099   2.011  10.125  0.1402 -1.2750  0.7315
 6460SOL     OW31015   3.648   3.697  15.005 -0.4948 -0.5066  0.1542
 6460SOL    HW131016   3.636   3.788  15.032  1.2660 -0.2104 -0.1095
 6460SOL    HW231017   3.579   3.660  14.950  1.1814 -1.8868 -0.9944
 6461SOL     OW31018   1.537   4.270   6.658 -0.0330 -0.5247 -0.0792
 6461SOL    HW131019   1.606   4.208   6.635  2.6548  2.1488  0.7588
 6461SOL    HW231020   1.561   4.351   6.614  0.4013  0.0385  1.2095
 6462SOL     OW31021   3.199   4.593   8.038 -0.8763  0.1275 -0.1935
 6462SOL    HW131022   3.165   4.531   7.972  2.2677 -1.1668 -0.5909
 6462SOL    HW231023   3.226   4.669   7.986  1.2336 -0.0118  0.7213
 6463SOL     OW31024   1.886   3.152   6.227 -0.3439 -0.4324 -0.0977
 6463SOL    HW131025   1.868   3.246   6.222 -2.7096 -0.9644 -1.6286
 6463SOL    HW231026   1.934   3.150   6.310 -1.1440 -1.5439  0.3317
 6464SOL     OW31027   2.455   3.227   6.048  0.2157 -0.3352 -0.0413
 6464SOL    HW131028   2.522   3.168   6.014  0.4931  1.0832 -1.9410
 6464SOL    HW231029   2.382   3.171   6.075 -1.2979  2.0106  0.7232
 6465SOL     OW31030   2.334   3.508  16.247  0.8568 -0.4040 -0.1594
 6465SOL    HW131031   2.254   3.559  16.260  1.0778 -0.3179  0.8324
 6465SOL    HW231032   2.357   3.481  16.335 -2.5501 -0.9873  0.5603
 6466SOL     OW31033   3.960   1.603   1.134 -0.8074 -0.3215  0.3606
 6466SOL    HW131034   4.005   1.654   1.067 -1.3696 -0.3006 -0.0026
 6466SOL    HW231035   3.940   1.677   1.190 -0.2396  0.4708 -0.4942
 6467SOL     OW31036   1.085   1.726  12.067  0.2517  0.3633  0.1258
 6467SOL    HW131037   1.104   1.736  11.974  0.2445 -1.1430 -0.0335
 6467SOL    HW231038   1.171   1.691  12.090  0.9014 -1.0295 -4.4965
 6468SOL     OW31039   0.522   1.819   8.255  0.1478 -0.2890  0.0377
 6468SOL    HW131040   0.451   1.773   8.299 -0.7456  0.9428 -0.1177
 6468SOL    HW231041   0.583   1.747   8.238 -0.6492 -0.4190 -2.1694
 6469SOL     OW31042   4.372   1.418   3.343 -0.1474 -0.1360  0.3452
 6469SOL    HW131043   4.434   1.458   3.284 -0.5200 -0.6769 -0.4167
 6469SOL    HW231044   4.288   1.420   3.296  0.2731  1.0496 -0.3547
 6470SOL     OW31045   4.582   4.720   0.936 -0.0218 -0.6741  0.9323
 6470SOL    HW131046   4.582   4.625   0.932  0.7436 -0.6561  0.4300
 6470SOL    HW231047   4.491   0.007   0.946  0.3225  1.3643 -1.1638
 6471SOL     OW31048   2.230   2.412  17.439  0.2380 -0.5910  0.2572
 6471SOL    HW131049   2.163   2.446  17.380 -3.5841 -1.7152  3.9566
 6471SOL    HW231050   2.297   2.461  17.391  3.0456 -6.5218 -1.8302
 6472SOL     OW31051   2.137   2.144   2.877 -0.3202 -0.1832  0.1342
 6472SOL    HW131052   2.146   2.102   2.792  0.2224  1.0356 -0.4052
 6472SOL    HW231053   2.108   2.231   2.850  0.1269  0.2802  1.1207
 6473SOL     OW31054   0.595   1.274   6.048  0.1897  0.1291 -0.1872
 6473SOL    HW131055   0.635   1.222   6.118  0.2465 -1.0708 -1.1212
 6473SOL    HW231056   0.519   1.309   6.095 -0.0609  1.1256 -1.3456
 6474SOL     OW31057   1.119   1.971   9.493 -0.0460  0.2472  0.3797
 6474SOL    HW131058   1.090   1.884   9.466 -0.0003  0.7268 -1.1871
 6474SOL    HW231059   1.146   2.014   9.412 -1.8833  0.7727  0.0287
 6475SOL     OW31060   1.566   3.424   3.867  0.4942 -0.2307 -0.0614
 6475SOL    HW131061   1.636   3.375   3.824 -0.1282 -0.2467 -1.0588
 6475SOL    HW231062   1.550   3.488   3.797  0.1054  0.3594  0.5613
 6476SOL     OW31063   1.325   0.193  12.429  0.1970  0.1671  0.0983
 6476SOL    HW131064   1.361   0.278  12.404 -0.7268 -0.1547 -2.3701
 6476SOL    HW231065   1.399   0.158  12.479 -0.7510 -2.9401 -0.6898
 6477SOL     OW31066   0.464   0.769   5.735  0.0250  0.3958  0.4323
 6477SOL    HW131067   0.405   0.713   5.685  0.1727  1.4160 -0.8961
 6477SOL    HW231068   0.533   0.716   5.774 -0.1468  0.0033  0.2013
 6478SOL     OW31069   0.455   3.546  11.703  0.4991  0.5858 -0.0073
 6478SOL    HW131070   0.388   3.579  11.763 -0.6046 -0.5929 -0.5829
 6478SOL    HW231071   0.507   3.494  11.763 -1.2382  1.0832  1.9364
 6479SOL     OW31072   4.532   3.610   2.325 -0.3260 -0.3181  0.2041
 6479SOL    HW131073   4.439   3.596   2.343  0.0010 -3.1282 -0.3205
 6479SOL    HW231074   4.568   3.634   2.411  0.0987 -0.8084  0.1602
 6480SOL     OW31075   0.232   0.472   2.767 -0.6242 -0.5152  0.1136
 6480SOL    HW131076   0.239   0.467   2.672  1.0127 -0.0741  0.2089
 6480SOL    HW231077   0.312   0.426   2.791 -0.1629  1.3386  2.1514
 6481SOL     OW31078   4.210   0.056  10.241 -0.1433 -0.4014 -0.1721
 6481SOL    HW131079   4.282   0.090  10.189  0.3290  0.0682  0.7811
 6481SOL    HW231080   4.151   0.131  10.234  1.0106  0.5735  0.5105
 6482SOL     OW31081   2.562   3.385   4.468  0.0282 -0.1722  0.4495
 6482SOL    HW131082   2.598   3.474   4.471  1.8716 -0.8197 -2.3985
 6482SOL    HW231083   2.630   3.331   4.428  1.1890  0.2462  1.8493
 6483SOL     OW31084   0.894   1.074   8.243 -0.4011  0.3731  0.0238
 6483SOL    HW131085   0.806   1.065   8.207 -0.6819  1.5625  0.3913
 6483SOL    HW231086   0.896   1.163   8.279 -4.0124  0.3542  0.3382
 6484SOL     OW31087   3.432   4.010   7.985  0.2199 -0.4686 -0.2350
 6484SOL    HW131088   3.356   4.007   8.043  1.8238 -1.3606  1.8035
 6484SOL    HW231089   3.506   4.005   8.045 -0.6681 -4.2641  0.5328
 6485SOL     OW31090   2.763   1.931   4.332 -0.0688  0.6067 -0.0371
 6485SOL    HW131091   2.792   1.967   4.248 -1.0152  2.8926  0.6265
 6485SOL    HW231092   2.728   2.009   4.374 -3.5157 -0.0754 -1.6774
 6486SOL     OW31093   1.502   2.426   6.180 -0.2644  0.2587  0.0489
 6486SOL    HW131094   1.453   2.468   6.250  1.5246 -1.7196  2.5093
 6486SOL    HW231095   1.444   2.367   6.132 -0.2156 -0.5411  0.9702
 6487SOL     OW31096   4.688   3.791   3.610 -0.4308 -0.1309  0.0219
 6487SOL    HW131097   4.635   3.805   3.688  0.2646  2.2417  0.0886
 6487SOL    HW231098   4.649   3.710   3.580 -1.7686  0.1746  0.9476
 6488SOL     OW31099   0.761   0.909   6.392  0.8900  0.5190 -0.2281
 6488SOL    HW131100   0.817   0.865   6.456 -0.5643 -2.2640 -0.9008
 6488SOL    HW231101   0.755   0.830   6.339 -2.4695  0.7552 -0.1520
 6489SOL     OW31102   1.777   2.097   6.102  0.2525 -0.3813 -0.8149
 6489SOL    HW131103   1.819   2.178   6.075  1.0151 -0.5177 -0.0426
 6489SOL    HW231104   1.855   2.042   6.112  0.4484 -0.1221 -0.9225
 6490SOL     OW31105   3.133   0.447   3.679 -0.2636  0.1041 -0.1463
 6490SOL    HW131106   3.156   0.420   3.768  2.4321 -0.4408 -1.0065
 6490SOL    HW231107   3.167   0.537   3.685  0.5330 -0.1457 -1.0152
 6491SOL     OW31108   1.087   3.757   2.039 -0.1664 -0.2077 -0.8679
 6491SOL    HW131109   1.152   3.689   2.023 -1.1544 -1.1465 -0.8739
 6491SOL    HW231110   1.149   3.819   2.078  1.8347 -1.1019 -2.6212
 6492SOL     OW31111   0.213   4.663   5.148 -0.3765  0.3908 -0.6265
 6492SOL    HW131112   0.254   4.590   5.102  1.2359  0.3815  0.8407
 6492SOL    HW231113   0.281   4.730   5.156 -1.0322  0.7189  2.0599
 6493SOL     OW31114   0.280   1.982   2.749  0.0698  0.8110  0.0785
 6493SOL    HW131115   0.306   2.060   2.700  2.0128  2.3810  3.6345
 6493SOL    HW231116   0.187   1.982   2.728  0.1583  1.4468 -0.3402
 6494SOL     OW31117   0.733   1.084   2.442 -0.1816 -0.7426 -0.0847
 6494SOL    HW131118   0.765   1.035   2.367 -0.4393 -1.7733  0.4669
 6494SOL    HW231119   0.660   1.030   2.475  1.9733 -1.8820  2.8331
 6495SOL     OW31120   3.181   0.914  14.320 -0.3767 -0.5486 -0.7460
 6495SOL    HW131121   3.152   0.841  14.375  0.8037  0.7047  1.5438
 6495SOL    HW231122   3.095   0.955  14.308 -1.0699 -1.8839 -0.4170
 6496SOL     OW31123   1.717   1.370   4.768  0.6032  0.2065 -0.4842
 6496SOL    HW131124   1.698   1.386   4.675 -0.0460  0.4743 -0.3066
 6496SOL    HW231125   1.628   1.351   4.799  0.8868  0.3900  0.4334
 6497SOL     OW31126   3.770   3.492   6.169  0.4656 -0.3358 -0.3181
 6497SOL    HW131127   3.783   3.580   6.204  1.0766 -0.7560  0.5008
 6497SOL    HW231128   3.787   3.425   6.235  1.6321  0.3867  0.1063
 6498SOL     OW31129   4.068   3.181   2.687 -0.5134  0.4107 -0.6034
 6498SOL    HW131130   4.012   3.242   2.735 -0.5057  0.1393 -0.2414
 6498SOL    HW231131   4.028   3.099   2.716 -1.5538  0.7483 -1.0887
 6499SOL     OW31132   2.592   4.581  17.181 -0.2968  0.1977 -0.8099
 6499SOL    HW131133   2.528   4.567  17.112  0.1984 -1.5764 -0.9050
 6499SOL    HW231134   2.659   4.515  17.161 -1.2871 -0.9171 -0.4492
 6500SOL     OW31135   2.117   3.561   4.958  0.3369 -0.1770 -0.0255
 6500SOL    HW131136   2.022   3.562   4.946 -0.1115  1.2625  3.8594
 6500SOL    HW231137   2.121   3.655   4.974 -1.2295 -0.4184  1.8132
 6501SOL     OW31138   3.345   2.058   8.253 -0.1146  0.5209  0.2999
 6501SOL    HW131139   3.433   2.055   8.289  0.1806  1.6591 -0.3240
 6501SOL    HW231140   3.317   1.968   8.269 -2.6278  0.8418 -2.2475
 6502SOL     OW31141   4.237   4.175  13.034 -0.1569  0.0297 -0.4231
 6502SOL    HW131142   4.285   4.236  13.090 -2.6361  0.6999  0.9878
 6502SOL    HW231143   4.277   4.091  13.056  1.7206  1.4191  1.4795
 6503SOL     OW31144   3.366   0.906   9.255  0.5026  0.2777 -0.1886
 6503SOL    HW131145   3.311   0.855   9.195 -0.2715  1.5788 -0.5730
 6503SOL    HW231146   3.303   0.919   9.325  1.6759 -1.2053  1.1317
 6504SOL     OW31147   1.604   0.153  11.215 -0.0880  0.1857 -0.1702
 6504SOL    HW131148   1.697   0.133  11.226  0.0763  0.1706 -1.5963
 6504SOL    HW231149   1.607   0.223  11.149  1.1657 -0.4832 -0.8114
 6505SOL     OW31150   1.857   2.209   9.143 -0.3114  0.3689 -0.0429
 6505SOL    HW131151   1.871   2.212   9.048 -0.4987  2.0780 -0.0169
 6505SOL    HW231152   1.926   2.266   9.176  1.3675 -1.0580 -1.0698
 6506SOL     OW31153   2.718   2.730   0.980 -0.2089  0.7916 -0.2333
 6506SOL    HW131154   2.697   2.656   1.036  1.4467  0.4467 -0.0770
 6506SOL    HW231155   2.793   2.692   0.934 -0.1648  0.4899  0.0886
 6507SOL     OW31156   4.395   4.627   5.626 -0.4709  0.7227 -0.3123
 6507SOL    HW131157   4.488   4.645   5.613 -0.9114  1.6543 -2.2344
 6507SOL    HW231158   4.390   4.551   5.567 -3.4455  1.3446 -0.8847
 6508SOL     OW31159   2.559   3.435   8.943 -0.1836 -0.1793 -0.0970
 6508SOL    HW131160   2.487   3.382   8.909  0.7711 -1.7102  0.2509
 6508SOL    HW231161   2.619   3.369   8.978 -0.6224  0.0367  1.0610
 6509SOL     OW31162   2.735   0.827   2.876 -0.2586  0.0093  0.2804
 6509SOL    HW131163   2.733   0.813   2.782  2.0420 -0.1913  0.2692
 6509SOL    HW231164   2.676   0.901   2.887 -0.6386 -0.2464 -0.0646
 6510SOL     OW31165   1.525   2.070   4.518  0.5676  0.1876 -0.2571
 6510SOL    HW131166   1.593   2.093   4.454 -0.0525 -1.0272 -1.3621
 6510SOL    HW231167   1.549   1.978   4.527 -0.7088 -0.2615 -1.4746
 6511SOL     OW31168   2.808   3.471   7.140  0.2804  0.0540 -0.2339
 6511SOL    HW131169   2.861   3.540   7.179 -0.8132  1.2168 -0.7869
 6511SOL    HW231170   2.729   3.519   7.112 -2.4389 -2.8468  2.5327
 6512SOL     OW31171   1.159   3.451  14.543  0.5233 -0.0534  0.5325
 6512SOL    HW131172   1.197   3.411  14.622 -1.0568 -0.7668  0.9161
 6512SOL    HW231173   1.220   3.415  14.478 -1.5111 -0.6661 -1.0214
 6513SOL     OW31174   1.720   3.097  16.968  0.3723 -0.0032  0.0126
 6513SOL    HW131175   1.653   3.105  17.036  1.8700 -1.5169  1.7033
 6513SOL    HW231176   1.681   3.150  16.900  1.1306  0.0407 -0.3848
 6514SOL     OW31177   2.067   3.457   7.998 -0.6062  0.3634 -0.2399
 6514SOL    HW131178   2.158   3.434   7.976 -0.4915 -1.0665  1.7232
 6514SOL    HW231179   2.051   3.372   8.037 -1.9933  1.2692  1.1402
 6515SOL     OW31180   0.590   2.137   1.194  0.2228 -0.9185 -0.1952
 6515SOL    HW131181   0.523   2.078   1.159 -0.0693 -1.2326  0.8907
 6515SOL    HW231182   0.644   2.079   1.248  0.0146 -0.4986  0.4571
 6516SOL     OW31183   1.029   4.676   8.933 -0.2747  0.6017 -0.2515
 6516SOL    HW131184   1.034   4.603   8.871 -0.8220  1.0841 -0.8604
 6516SOL    HW231185   1.100   4.655   8.994 -0.0785  2.6714  0.2263
 6517SOL     OW31186   2.285   2.890   3.090 -0.2359  0.1909 -0.1933
 6517SOL    HW131187   2.263   2.813   3.142 -1.5180  0.2736 -0.6125
 6517SOL    HW231188   2.218   2.949   3.125  0.9215  1.4732 -0.1413
 6518SOL     OW31189   3.073   2.229   4.379  0.2059  0.0145 -0.0969
 6518SOL    HW131190   3.051   2.318   4.407 -5.0040 -1.4402  0.4375
 6518SOL    HW231191   3.125   2.195   4.452 -0.7256  1.6475  1.3327
 6519SOL     OW31192   1.047   3.831   6.212 -0.0224 -0.4193 -0.1718
 6519SOL    HW131193   0.968   3.789   6.178 -1.5496  2.2287  0.1126
 6519SOL    HW231194   1.035   3.807   6.304 -0.9578 -0.1524 -0.2331
 6520SOL     OW31195   3.128   4.276   1.892  0.1585  0.2653  0.2529
 6520SOL    HW131196   3.194   4.220   1.931  0.4144 -0.7016 -1.5542
 6520SOL    HW231197   3.147   4.361   1.933  1.4755  0.5009 -0.8408
 6521SOL     OW31198   2.784   3.003  13.356  0.1339  0.3949  0.6102
 6521SOL    HW131199   2.765   3.063  13.428 -0.8783  1.2061 -0.3331
 6521SOL    HW231200   2.733   3.044  13.286  1.9660 -0.1858 -1.0753
 6522SOL     OW31201   3.663   1.529   4.209 -0.1403 -0.3819 -0.0138
 6522SOL    HW131202   3.743   1.558   4.252 -0.4658 -0.7590  0.8547
 6522SOL    HW231203   3.598   1.587   4.249  0.9909  0.8105  0.0976
 6523SOL     OW31204   1.792   0.634   5.503 -0.1177 -0.6437  0.1195
 6523SOL    HW131205   1.826   0.631   5.414  1.3069  1.4460  0.5888
 6523SOL    HW231206   1.858   0.695   5.538  0.4501 -2.2908  1.9132
 6524SOL     OW31207   3.427   1.183   9.158 -0.5631 -0.4615 -0.0946
 6524SOL    HW131208   3.356   1.246   9.168  1.2059  1.5712 -0.2714
 6524SOL    HW231209   3.368   1.116   9.123 -3.6644  2.1824  0.0669
 6525SOL     OW31210   1.299   4.460   4.383  0.0280  0.2826 -0.2143
 6525SOL    HW131211   1.232   4.424   4.325  0.7535 -2.3228  0.5288
 6525SOL    HW231212   1.374   4.432   4.331  1.0897 -0.4373  1.6836
 6526SOL     OW31213   3.496   2.274  14.332 -0.7237  0.1432  0.5137
 6526SOL    HW131214   3.491   2.344  14.397 -0.7918  2.5997 -2.1214
 6526SOL    HW231215   3.464   2.319  14.254  1.0273 -0.7660 -0.7542
 6527SOL     OW31216   3.851   0.246   1.284  0.4844  0.5680 -0.1419
 6527SOL    HW131217   3.828   0.282   1.199 -3.3783  0.6027  0.9566
 6527SOL    HW231218   3.891   0.317   1.335 -1.0489  0.9300  0.5293
 6528SOL     OW31219   1.242   0.248   5.637  0.4918  0.0947  0.1300
 6528SOL    HW131220   1.238   0.329   5.585 -1.0818  0.1605  0.3558
 6528SOL    HW231221   1.309   0.273   5.700 -2.9913  2.4693  2.8547
 6529SOL     OW31222   2.491   4.192   7.444  0.2772 -0.1133  0.2813
 6529SOL    HW131223   2.484   4.195   7.349  0.8111  1.8385  0.2891
 6529SOL    HW231224   2.586   4.180   7.446  0.4194  1.1051  0.9737
 6530SOL     OW31225   3.286   4.659   2.134  0.4486  0.0929 -0.0733
 6530SOL    HW131226   3.318   4.683   2.221  1.6700  1.3317 -0.8722
 6530SOL    HW231227   3.361   4.696   2.088 -0.4611  1.6081 -0.3194
 6531SOL     OW31228   1.473   3.130  11.277 -0.2735 -0.0488 -0.3111
 6531SOL    HW131229   1.472   3.062  11.210 -2.4506 -0.3233  0.0149
 6531SOL    HW231230   1.384   3.162  11.291 -0.0324  0.5629 -0.1701
 6532SOL     OW31231   4.383   2.808   9.978  0.5207 -0.3306  0.6433
 6532SOL    HW131232   4.382   2.895  10.018  0.0379  0.3218 -0.8104
 6532SOL    HW231233   4.293   2.788   9.951 -0.0617  3.1627  0.0451
 6533SOL     OW31234   0.750   2.194  15.742  0.7715  0.1489  0.2690
 6533SOL    HW131235   0.792   2.259  15.798 -3.2442  2.6851  0.3231
 6533SOL    HW231236   0.775   2.229  15.657  0.1710 -0.4703 -0.1703
 6534SOL     OW31237   0.169   2.580   9.563  0.1820  0.0340  0.2173
 6534SOL    HW131238   0.131   2.526   9.633 -0.0718 -1.7789 -1.3326
 6534SOL    HW231239   0.259   2.581   9.594  0.6068  1.5831 -1.1339
 6535SOL     OW31240   3.768   3.654  16.127  0.1834 -0.4456 -0.8918
 6535SOL    HW131241   3.722   3.716  16.184  1.3733  0.7697 -1.2412
 6535SOL    HW231242   3.698   3.622  16.070 -1.6784 -0.3671  1.3257
 6536SOL     OW31243   4.127   2.510   5.256 -0.0337  0.5588  0.5852
 6536SOL    HW131244   4.201   2.555   5.297  0.2244  0.7134 -0.0421
 6536SOL    HW231245   4.111   2.579   5.191  1.1559  1.7541  1.5470
 6537SOL     OW31246   0.551   4.357   6.314 -0.6068  0.3986  0.5045
 6537SOL    HW131247   0.605   4.419   6.265  1.5056 -0.6900  1.4826
 6537SOL    HW231248   0.558   4.283   6.254  2.2701 -1.3314  2.9722
 6538SOL     OW31249   0.898   3.052   3.758  0.1164  0.3746 -0.8331
 6538SOL    HW131250   0.843   2.990   3.709 -0.9519  0.0429  0.8055
 6538SOL    HW231251   0.985   3.041   3.719  0.1475 -1.3198 -0.2868
 6539SOL     OW31252   3.524   3.614   4.287  0.5172 -0.1123  0.1828
 6539SOL    HW131253   3.493   3.704   4.287  2.0761  0.4289 -0.4534
 6539SOL    HW231254   3.588   3.609   4.358  4.1437  0.4453 -3.0048
 6540SOL     OW31255   2.004   4.607  10.314  0.3026 -0.5967  1.0339
 6540SOL    HW131256   1.934   4.672  10.304  1.3721  0.3752 -0.0805
 6540SOL    HW231257   2.068   4.649  10.257  1.2173  1.0201  3.2541
 6541SOL     OW31258   4.288   3.389  11.716 -0.2746  0.0830 -0.1059
 6541SOL    HW131259   4.268   3.317  11.656 -0.1663  0.1303 -0.1992
 6541SOL    HW231260   4.283   3.463  11.656 -1.1329  0.5303  0.5297
 6542SOL     OW31261   3.323   0.531  12.293 -0.1705  0.2061 -0.2634
 6542SOL    HW131262   3.300   0.543  12.201 -0.7806  1.1488  0.0089
 6542SOL    HW231263   3.248   0.573  12.335 -1.2188 -1.4822 -0.4538
 6543SOL     OW31264   3.414   1.038   3.203 -0.1037  0.3192  0.2487
 6543SOL    HW131265   3.379   1.127   3.214 -0.3603  0.1810  0.5450
 6543SOL    HW231266   3.455   1.029   3.289 -2.1251 -1.5381  1.0042
 6544SOL     OW31267   4.057   1.658   3.603 -0.2422 -0.3041  0.0086
 6544SOL    HW131268   4.128   1.598   3.626  0.3331  0.4108  0.1048
 6544SOL    HW231269   4.087   1.694   3.519 -0.1863  2.2097  1.0897
 6545SOL     OW31270   3.880   4.686  15.015  0.0554 -0.2405  0.0603
 6545SOL    HW131271   3.867   4.616  15.079 -0.3900 -2.2439 -2.2029
 6545SOL    HW231272   3.821   0.017  15.045  0.2566 -0.0004 -0.0982
 6546SOL     OW31273   0.998   3.309  14.222  0.5102 -0.2359 -0.0903
 6546SOL    HW131274   0.986   3.216  14.202 -1.6182 -0.4010  2.0010
 6546SOL    HW231275   1.033   3.327  14.135 -0.9095 -0.7318 -0.7554
 6547SOL     OW31276   3.685   0.620   5.928 -0.4846 -0.0323  0.2795
 6547SOL    HW131277   3.704   0.655   6.015  1.0167 -1.2190  0.4341
 6547SOL    HW231278   3.590   0.626   5.919 -0.3679  0.3603 -0.6597
 6548SOL     OW31279   0.367   1.013   2.498 -0.0867  0.1080 -0.3348
 6548SOL    HW131280   0.298   1.052   2.551 -1.0334 -1.6257 -0.2847
 6548SOL    HW231281   0.412   0.968   2.570 -0.5716 -0.7540 -0.5681
 6549SOL     OW31282   1.483   3.636  14.829 -0.7297 -0.1839  0.2585
 6549SOL    HW131283   1.416   3.653  14.763 -0.4326  1.9842  0.5126
 6549SOL    HW231284   1.528   3.567  14.781 -0.8023  1.2458 -1.8698
 6550SOL     OW31285   1.624   2.671   2.064 -0.8052  0.5345 -0.3604
 6550SOL    HW131286   1.543   2.706   2.026  0.3006 -0.4572 -3.6757
 6550SOL    HW231287   1.684   2.745   2.053 -0.3620  0.8186  4.1055
 6551SOL     OW31288   3.940   2.427   3.600 -0.5291 -0.0821  0.4731
 6551SOL    HW131289   3.961   2.517   3.577 -0.7427 -0.2183 -0.2784
 6551SOL    HW231290   3.974   2.414   3.689  2.9027  1.2139 -0.6314
 6552SOL     OW31291   0.011   0.265   4.574 -0.1756  0.0124  0.0428
 6552SOL    HW131292   0.040   0.293   4.487  2.4259 -3.3500 -0.1528
 6552SOL    HW231293   0.093   0.274   4.623  0.6996  1.4704 -1.6552
 6553SOL     OW31294   0.502   3.870   8.776  0.3179  0.1994 -0.3727
 6553SOL    HW131295   0.516   3.798   8.838  1.0697 -0.2545 -1.0690
 6553SOL    HW231296   0.572   3.929   8.804  2.0511 -1.9406 -0.2231
 6554SOL     OW31297   1.562   0.332  14.332  0.3787  0.0417  0.1682
 6554SOL    HW131298   1.640   0.335  14.276  3.1270 -0.6810  3.9231
 6554SOL    HW231299   1.601   0.359  14.415  1.0313  2.1245 -0.8246
 6555SOL     OW31300   1.159   4.692   3.095 -0.3475 -0.0005  0.0065
 6555SOL    HW131301   1.089   0.016   3.116  1.1636  1.7259 -0.0379
 6555SOL    HW231302   1.238   0.007   3.106  0.4064 -1.1491  0.1407
 6556SOL     OW31303   1.343   1.797   1.885  0.5234  0.0075 -0.1361
 6556SOL    HW131304   1.375   1.830   1.969  1.9762  1.2833 -1.1556
 6556SOL    HW231305   1.288   1.724   1.910 -2.1769  2.4068  0.9774
 6557SOL     OW31306   4.626   3.729  10.326  0.1486 -0.1978 -0.2436
 6557SOL    HW131307   4.615   3.763  10.415  3.8588 -1.3883  0.6515
 6557SOL    HW231308   4.696   3.786  10.296 -0.2880  1.2773  1.5187
 6558SOL     OW31309   2.753   2.011   0.592  0.2420  0.1664 -0.4801
 6558SOL    HW131310   2.658   2.022   0.587  0.1676  0.2537  1.1315
 6558SOL    HW231311   2.783   2.095   0.627  0.3077  0.4156 -1.1357
 6559SOL     OW31312   4.419   2.537  11.053  0.4034  0.4205  0.4461
 6559SOL    HW131313   4.346   2.580  11.008  1.8161  0.1108 -2.1020
 6559SOL    HW231314   4.486   2.525  10.986 -0.5079 -0.8406 -0.2440
 6560SOL     OW31315   2.802   2.643   3.638 -0.2640  0.3618 -0.2546
 6560SOL    HW131316   2.722   2.685   3.669 -0.5515  0.0670 -0.6022
 6560SOL    HW231317   2.779   2.553   3.616  2.5900 -1.0529  2.5065
 6561SOL     OW31318   0.342   3.614   7.713  0.1450 -0.1805  0.7816
 6561SOL    HW131319   0.401   3.546   7.682 -0.3309 -1.0707  1.8287
 6561SOL    HW231320   0.262   3.564   7.731  0.1443 -0.2332  0.6275
 6562SOL     OW31321   1.685   0.417   3.919 -0.1074  0.0627 -0.1049
 6562SOL    HW131322   1.727   0.438   4.002  1.0091 -0.1224 -0.6263
 6562SOL    HW231323   1.595   0.432   3.949 -0.3058  0.2590 -0.7911
 6563SOL     OW31324   1.017   1.501   7.412  0.3622  0.4257  0.2153
 6563SOL    HW131325   1.056   1.481   7.498 -1.4557  0.3804  1.0334
 6563SOL    HW231326   1.076   1.571   7.386  2.1903 -2.3888 -3.2105
 6564SOL     OW31327   2.714   3.913   4.937  0.3942  0.5724  0.0791
 6564SOL    HW131328   2.669   3.847   4.989  2.8410  1.3866  3.2010
 6564SOL    HW231329   2.667   3.996   4.945 -1.8427 -0.6684 -0.4096
 6565SOL     OW31330   4.170   4.156   8.757  0.1068 -0.3412 -0.3014
 6565SOL    HW131331   4.250   4.159   8.704 -0.5484  0.4411 -1.2701
 6565SOL    HW231332   4.202   4.223   8.816  0.0003  0.2122 -0.8679
 6566SOL     OW31333   0.422   1.374   5.523  0.5237 -0.3281 -0.0741
 6566SOL    HW131334   0.358   1.444   5.527  2.1943  1.0894  1.7179
 6566SOL    HW231335   0.361   1.301   5.513  0.9300 -0.7245  0.3556
 6567SOL     OW31336   1.988   1.149   4.976 -0.1939  0.2053  0.1119
 6567SOL    HW131337   1.915   1.180   5.030 -0.3416 -2.2415  1.3180
 6567SOL    HW231338   2.061   1.174   5.033 -1.7928 -1.0579  2.7062
 6568SOL     OW31339   0.175   1.015  17.045  0.2679  0.1661  0.2617
 6568SOL    HW131340   0.191   1.109  17.049 -3.0815  0.7137  0.6361
 6568SOL    HW231341   0.266   0.987  17.047  0.3814  0.8204  3.4091
 6569SOL     OW31342   2.558   3.627  12.325  0.2371 -0.5740  0.1337
 6569SOL    HW131343   2.632   3.668  12.369  1.4838 -0.4559 -2.1248
 6569SOL    HW231344   2.475   3.670  12.348  0.8714  0.9034 -0.3799
 6570SOL     OW31345   3.149   3.663  17.596 -0.4171  0.0664  0.6112
 6570SOL    HW131346   3.148   3.572  17.566 -0.2335  0.1574  0.3352
 6570SOL    HW231347   3.167   3.648  17.689  0.6628 -1.1991  0.2108
 6571SOL     OW31348   2.156   2.077  14.038  0.2341  0.7861 -0.7552
 6571SOL    HW131349   2.161   2.080  14.133 -1.5688 -3.7936 -0.4983
 6571SOL    HW231350   2.237   2.029  14.022 -0.8818 -1.4508  0.3157
 6572SOL     OW31351   2.385   3.570   8.220 -0.6528 -0.6662 -0.5829
 6572SOL    HW131352   2.324   3.534   8.285  0.5519  1.8480  1.9795
 6572SOL    HW231353   2.366   3.515   8.144 -1.5385 -1.1999  0.0274
 6573SOL     OW31354   1.545   3.680   7.897 -0.5673 -0.3122 -0.1858
 6573SOL    HW131355   1.510   3.732   7.825 -1.4156 -0.3432  0.2041
 6573SOL    HW231356   1.463   3.633   7.917 -0.5841  0.5335  1.7345
 6574SOL     OW31357   1.155   3.097   2.293  0.2046 -0.4317 -0.0420
 6574SOL    HW131358   1.134   3.149   2.215 -0.6126 -1.3626 -0.4391
 6574SOL    HW231359   1.242   3.124   2.323  1.0618  0.0895 -2.9198
 6575SOL     OW31360   0.423   2.933   2.524  0.8548  0.0767 -0.1923
 6575SOL    HW131361   0.410   2.870   2.595  0.2031 -0.5327 -0.8526
 6575SOL    HW231362   0.509   2.970   2.545 -0.0742  2.3425 -0.3850
 6576SOL     OW31363   2.774   2.190   4.173  0.1378 -0.4601  0.1547
 6576SOL    HW131364   2.698   2.137   4.147 -0.7915  1.8064 -1.7363
 6576SOL    HW231365   2.747   2.205   4.264  2.8298  1.1276  0.6651
 6577SOL     OW31366   0.425   1.500   5.809  0.5796  0.3703 -0.4137
 6577SOL    HW131367   0.451   1.590   5.787  1.6308 -0.4428 -2.4959
 6577SOL    HW231368   0.331   1.519   5.802  0.4140 -0.0599  0.6429
 6578SOL     OW31369   1.071   2.073   8.778  0.7557 -0.2931 -0.1390
 6578SOL    HW131370   0.988   2.074   8.730  2.3711 -1.7186 -2.9781
 6578SOL    HW231371   1.039   2.085   8.867  3.0506  0.9342  0.5287
 6579SOL     OW31372   2.907   2.527   8.819  0.1579  0.6998  0.0846
 6579SOL    HW131373   2.963   2.507   8.894 -0.8497  1.5179  1.0555
 6579SOL    HW231374   2.868   2.444   8.790 -0.0869  1.0756 -0.6680
 6580SOL     OW31375   2.305   0.767   7.664 -0.0177  0.2933 -0.0163
 6580SOL    HW131376   2.210   0.759   7.651  0.0853 -0.1670 -0.4806
 6580SOL    HW231377   2.340   0.782   7.577  1.2805 -2.0636  0.0929
 6581SOL     OW31378   1.598   4.350   2.698  0.1381 -0.5376 -0.3524
 6581SOL    HW131379   1.682   4.319   2.665  0.1309 -1.1993  0.2438
 6581SOL    HW231380   1.567   4.405   2.626  0.9524  2.8564  1.9012
 6582SOL     OW31381   4.206   0.634   2.001 -0.2300 -0.9563 -0.3475
 6582SOL    HW131382   4.243   0.709   1.956  0.6519 -0.5137  1.0938
 6582SOL    HW231383   4.281   0.574   2.005 -0.6222 -1.3371  1.5074
 6583SOL     OW31384   0.184   0.704   5.287  0.2111 -0.0861 -0.0723
 6583SOL    HW131385   0.197   0.781   5.343 -0.8527 -0.5519  0.8201
 6583SOL    HW231386   0.096   0.678   5.314  0.3320  2.1207  2.4997
 6584SOL     OW31387   0.654   2.006   4.432 -0.1409 -0.0448 -0.4135
 6584SOL    HW131388   0.731   2.033   4.482  1.5149 -0.8651 -2.4737
 6584SOL    HW231389   0.641   1.931   4.490 -1.0736 -0.2632 -0.9068
 6585SOL     OW31390   1.197   3.617  15.577  0.3630  0.2217  0.5608
 6585SOL    HW131391   1.139   3.548  15.610 -1.2209  1.1131 -0.3514
 6585SOL    HW231392   1.192   3.692  15.636  0.4027  0.5412  0.1555
 6586SOL     OW31393   1.057   0.538  15.347 -0.2934  0.1802 -0.6415
 6586SOL    HW131394   0.984   0.531  15.286 -0.5432 -3.2877  0.0976
 6586SOL    HW231395   1.133   0.547  15.289  0.1591  0.2884 -0.0316
 6587SOL     OW31396   2.906   2.154   6.502 -0.0911  0.2338  0.1502
 6587SOL    HW131397   2.982   2.203   6.532 -1.4760  1.6002  1.4447
 6587SOL    HW231398   2.934   2.072   6.543 -3.1329 -0.0247  1.7163
 6588SOL     OW31399   0.505   3.449   3.407  0.3112  0.0281  0.2395
 6588SOL    HW131400   0.530   3.380   3.468 -1.9981 -2.0035 -1.1327
 6588SOL    HW231401   0.528   3.407   3.324 -0.1892 -3.0590  1.6546
 6589SOL     OW31402   1.833   4.665   6.718 -0.3926 -0.3216 -0.2873
 6589SOL    HW131403   1.873   4.663   6.631 -0.0300 -0.3486 -0.1184
 6589SOL    HW231404   1.866   4.586   6.760  1.6671 -0.1808 -1.6714
 6590SOL     OW31405   2.807   3.763   3.951 -0.4519  0.3951  0.7185
 6590SOL    HW131406   2.869   3.814   3.899 -1.4380  1.2516  0.3894
 6590SOL    HW231407   2.728   3.751   3.898 -0.2099 -0.9087  0.6499
 6591SOL     OW31408   3.013   2.933  12.540  0.0523 -0.1390 -0.0500
 6591SOL    HW131409   3.052   2.924  12.453  1.5479  2.0579  0.3759
 6591SOL    HW231410   2.922   2.909  12.523 -0.6113  0.9737  1.8779
 6592SOL     OW31411   0.196   3.235   2.597 -0.2090  0.1265  0.1624
 6592SOL    HW131412   0.291   3.237   2.590 -0.3118  2.0946 -0.6160
 6592SOL    HW231413   0.172   3.165   2.536 -2.0729  1.9656 -1.2477
 6593SOL     OW31414   1.947   3.296   2.139 -0.4855  0.4411 -0.6608
 6593SOL    HW131415   2.018   3.271   2.080 -1.8704  0.4018 -2.3113
 6593SOL    HW231416   1.971   3.384   2.168  2.0307 -0.2072 -0.7549
 6594SOL     OW31417   1.908   0.475   8.405 -0.5429 -0.0606  0.2334
 6594SOL    HW131418   1.825   0.438   8.435 -1.6814  1.9721 -0.4506
 6594SOL    HW231419   1.905   0.427   8.322  0.5225 -1.0373  0.7449
 6595SOL     OW31420   2.193   4.401   2.282  0.9900  0.4403  1.0007
 6595SOL    HW131421   2.231   4.315   2.304 -2.3524 -1.3035 -0.0829
 6595SOL    HW231422   2.275   4.434   2.245  0.3823  1.2438  0.3716
 6596SOL     OW31423   4.469   3.030   5.578 -0.3687 -0.2821 -0.7995
 6596SOL    HW131424   4.540   3.082   5.540  0.0393 -0.7657 -0.6960
 6596SOL    HW231425   4.391   3.062   5.532  0.4143  2.2166 -0.3510
 6597SOL     OW31426   1.116   2.433   1.593  0.5315 -0.4215 -0.1138
 6597SOL    HW131427   1.082   2.432   1.683 -0.4883 -0.4880 -0.5080
 6597SOL    HW231428   1.042   2.415   1.536 -0.5411  0.9819  0.8343
 6598SOL     OW31429   3.957   2.625   9.058 -0.1235 -0.2713  0.3631
 6598SOL    HW131430   3.921   2.705   9.097 -1.3090 -1.3275  1.3984
 6598SOL    HW231431   3.926   2.552   9.111 -0.8036  0.1239  0.5104
 6599SOL     OW31432   3.938   1.299   7.140  0.8516 -0.4789  0.2267
 6599SOL    HW131433   3.924   1.237   7.211  0.5009 -0.3851  0.2412
 6599SOL    HW231434   3.956   1.377   7.192  0.8086  0.4746 -1.1763
 6600SOL     OW31435   1.147   0.740   3.081 -0.2063  0.0363 -0.5666
 6600SOL    HW131436   1.154   0.644   3.077 -2.7678 -0.1312 -0.9811
 6600SOL    HW231437   1.185   0.772   2.999  1.3676 -0.0836  0.1001
 6601SOL     OW31438   3.637   4.425   5.997 -0.2274  0.0386  0.0873
 6601SOL    HW131439   3.691   4.346   6.000 -0.3339 -0.0752 -0.8680
 6601SOL    HW231440   3.705   4.493   5.999 -1.0099  0.9394 -2.6630
 6602SOL     OW31441   0.977   4.537   5.588 -0.6560 -0.9447  0.0548
 6602SOL    HW131442   1.034   4.611   5.606 -0.8816 -0.7701  0.0594
 6602SOL    HW231443   0.915   4.588   5.536  0.0505  0.9054  1.0533
 6603SOL     OW31444   3.269   3.375   5.904 -0.7075 -0.3704  0.3636
 6603SOL    HW131445   3.218   3.433   5.847 -1.6822 -2.6594 -1.1152
 6603SOL    HW231446   3.226   3.390   5.988 -1.2784  2.1047 -0.3848
 6604SOL     OW31447   1.079   1.208  11.078 -0.1493 -0.0694 -0.3975
 6604SOL    HW131448   1.173   1.211  11.094 -0.2024  0.1859 -0.1342
 6604SOL    HW231449   1.076   1.266  11.002  2.2466  1.2901  0.5568
 6605SOL     OW31450   1.697   3.389   1.984  0.4426 -0.3602  0.1433
 6605SOL    HW131451   1.743   3.305   1.986  0.2301 -0.4684  0.6234
 6605SOL    HW231452   1.615   3.361   1.944 -1.8139  3.1850  2.2449
 6606SOL     OW31453   4.624   2.232  15.994  0.5517 -0.4436 -0.3961
 6606SOL    HW131454   4.617   2.285  15.915  2.2657  1.6930  0.8653
 6606SOL    HW231455   4.569   2.271  16.062 -0.5595 -0.8169 -1.0800
 6607SOL     OW31456   2.353   2.807   1.029 -0.5513  0.0379 -0.1399
 6607SOL    HW131457   2.263   2.829   1.055 -0.7177 -0.9005  0.0815
 6607SOL    HW231458   2.379   2.741   1.094  0.1834  1.2756  0.8221
 6608SOL     OW31459   4.512   3.658  13.835  0.1763 -0.7393  0.0555
 6608SOL    HW131460   4.544   3.608  13.910  1.0114 -0.4668 -0.1185
 6608SOL    HW231461   4.421   3.631  13.847 -0.3994  0.5391 -1.4209
 6609SOL     OW31462   4.089   2.796   8.636  0.3364 -0.0315  0.1230
 6609SOL    HW131463   4.030   2.735   8.679 -0.9461  1.7672  0.9397
 6609SOL    HW231464   4.132   2.840   8.710 -1.4553 -0.9467  1.6909
 6610SOL     OW31465   1.092   0.056   4.230  0.1157  0.4673  0.0625
 6610SOL    HW131466   1.122   0.087   4.145  0.3385 -0.4898 -0.2018
 6610SOL    HW231467   1.082   0.140   4.276 -2.7618  0.2506 -0.1144
 6611SOL     OW31468   3.361   1.377   1.536  0.0298  0.0191  0.8775
 6611SOL    HW131469   3.293   1.320   1.570 -0.2550 -1.1007 -1.5707
 6611SOL    HW231470   3.444   1.335   1.558  0.7405  1.5723  1.1739
 6612SOL     OW31471   1.621   3.554  12.777  0.1591  0.2597  0.0454
 6612SOL    HW131472   1.637   3.474  12.827 -1.2107  0.3199  0.5623
 6612SOL    HW231473   1.526   3.557  12.765  0.2612 -0.6798 -1.1063
 6613SOL     OW31474   2.119   2.539   3.600  0.3873  0.1920 -0.4618
 6613SOL    HW131475   2.084   2.450   3.599  0.9326 -0.0400  0.5452
 6613SOL    HW231476   2.126   2.557   3.694  2.3096 -1.4696 -0.2922
 6614SOL     OW31477   0.412   0.646  13.557 -0.3857 -0.4816 -0.1086
 6614SOL    HW131478   0.341   0.710  13.547 -0.7370 -0.5175  2.0014
 6614SOL    HW231479   0.370   0.587  13.620  2.5066 -1.5045  0.8417
 6615SOL     OW31480   3.697   1.540  13.138  0.0202  0.3443 -0.0313
 6615SOL    HW131481   3.646   1.577  13.210  1.4196 -0.5444  1.4257
 6615SOL    HW231482   3.639   1.467  13.116  2.9440 -1.9861 -0.0493
 6616SOL     OW31483   4.000   1.202  17.636  0.3178  0.6241  0.5062
 6616SOL    HW131484   3.946   1.127  17.662  0.4900 -0.4582 -2.2378
 6616SOL    HW231485   4.088   1.180  17.667  0.4893  0.9924  0.2677
 6617SOL     OW31486   3.155   2.836   8.838  0.2883 -0.1575 -0.4286
 6617SOL    HW131487   3.152   2.866   8.747  0.9397 -0.3557 -0.5143
 6617SOL    HW231488   3.231   2.779   8.842  1.4007  1.4360  1.0831
 6618SOL     OW31489   2.734   3.041   2.700 -1.1756  0.7747  0.1359
 6618SOL    HW131490   2.731   3.131   2.667 -0.8384  0.9876  0.6697
 6618SOL    HW231491   2.824   3.023   2.673 -1.6157 -1.4351  0.1566
 6619SOL     OW31492   0.983   1.910   6.978  0.0972  0.7966 -0.2509
 6619SOL    HW131493   0.917   1.876   6.917  0.6613 -1.8517  0.5963
 6619SOL    HW231494   1.065   1.883   6.936  0.6056 -0.4382  1.5074
 6620SOL     OW31495   1.494   4.450  17.450  0.4951  0.5227 -0.0818
 6620SOL    HW131496   1.493   4.535  17.404  0.7422  1.1190  1.0258
 6620SOL    HW231497   1.587   4.430  17.439  0.4567  0.9825 -1.2905
 6621SOL     OW31498   1.195   1.332   4.035  0.2722  0.2229  0.2312
 6621SOL    HW131499   1.263   1.349   4.100  0.2305  0.8942  0.0946
 6621SOL    HW231500   1.243   1.286   3.966  0.4039  3.5147 -1.8641
 6622SOL     OW31501   2.729   0.637  10.943 -0.0548 -0.1023 -0.4042
 6622SOL    HW131502   2.742   0.732  10.946  0.2883 -0.1035 -2.4112
 6622SOL    HW231503   2.693   0.623  11.031  0.4347 -0.3254 -0.2393
 6623SOL     OW31504   2.321   2.263   9.551  0.1869  0.1713 -0.1000
 6623SOL    HW131505   2.244   2.264   9.607  0.3310 -1.4913  0.1075
 6623SOL    HW231506   2.370   2.199   9.602 -0.4471 -0.3491 -0.1458
 6624SOL     OW31507   0.305   0.013   7.696 -0.0776 -0.7335 -0.1194
 6624SOL    HW131508   0.221   0.013   7.652 -0.1423 -0.1678  0.0118
 6624SOL    HW231509   0.351   0.073   7.637  0.7561 -1.1477  0.0967
 6625SOL     OW31510   1.229   0.604   8.919 -0.6891 -0.3798 -0.0040
 6625SOL    HW131511   1.304   0.632   8.866 -1.4271  0.7804 -0.4376
 6625SOL    HW231512   1.160   0.600   8.853 -0.8885  0.5656  0.1402
 6626SOL     OW31513   1.536   3.733   5.640 -0.2606 -0.2461 -0.2959
 6626SOL    HW131514   1.503   3.780   5.717  1.5747  1.9340 -0.8347
 6626SOL    HW231515   1.521   3.643   5.669  1.0492 -0.3655  0.0123
 6627SOL     OW31516   2.500   3.349   0.719 -0.1481 -1.0568  0.4864
 6627SOL    HW131517   2.486   3.287   0.790  1.9092 -2.6904 -0.5404
 6627SOL    HW231518   2.525   3.428   0.768 -2.0121 -0.1327 -0.0365
 6628SOL     OW31519   2.749   1.947   1.830 -0.1587 -0.2057 -0.2853
 6628SOL    HW131520   2.676   1.938   1.892 -0.8456  1.5677 -0.8109
 6628SOL    HW231521   2.718   1.892   1.758 -1.7631 -0.6299  0.7228
 6629SOL     OW31522   3.992   3.432   7.467  0.4438 -0.5507 -0.7110
 6629SOL    HW131523   4.025   3.450   7.379  1.1775 -0.7455 -0.4724
 6629SOL    HW231524   4.027   3.344   7.483 -2.1209 -1.4960 -0.2764
 6630SOL     OW31525   3.922   3.572   5.652  0.3516  0.1725  0.6744
 6630SOL    HW131526   3.910   3.590   5.559  3.3293  0.1527  0.3070
 6630SOL    HW231527   3.964   3.487   5.639  0.2117  0.0283  1.1480
 6631SOL     OW31528   1.116   1.519   1.701 -0.1055  0.0052  0.0816
 6631SOL    HW131529   1.193   1.523   1.645 -1.2891  1.7328 -1.4113
 6631SOL    HW231530   1.044   1.505   1.640  1.5823 -2.3447 -1.3624
 6632SOL     OW31531   4.627   1.133   1.955  0.0151  0.2181  0.4779
 6632SOL    HW131532   4.617   1.065   2.021  2.9385 -0.5324  0.1564
 6632SOL    HW231533   4.582   1.080   1.888 -0.4391  0.0062  0.9457
 6633SOL     OW31534   3.156   3.130   1.889  0.7859  0.1472 -0.0868
 6633SOL    HW131535   3.190   3.219   1.883  1.3874  0.1317  3.0779
 6633SOL    HW231536   3.235   3.077   1.882  2.8094  3.3481 -1.6905
 6634SOL     OW31537   2.485   1.709   2.139 -0.5290 -0.5603 -0.2522
 6634SOL    HW131538   2.400   1.679   2.173  0.0715  0.8597  2.5155
 6634SOL    HW231539   2.531   1.690   2.221 -0.6508 -1.4658 -0.3886
 6635SOL     OW31540   3.842   3.298   0.354 -0.1068 -0.1089  0.8162
 6635SOL    HW131541   3.873   3.224   0.407  0.9476 -0.7364 -0.6614
 6635SOL    HW231542   3.909   3.311   0.286  0.3832 -0.2257  1.2751
 6636SOL     OW31543   3.961   2.469   7.256  0.3623  0.2496  0.1207
 6636SOL    HW131544   4.038   2.485   7.201 -0.1095 -1.2053 -0.9835
 6636SOL    HW231545   3.996   2.414   7.326 -0.9970  1.0659  1.4396
 6637SOL     OW31546   1.466   4.257   5.741 -0.2351  0.2467 -0.5604
 6637SOL    HW131547   1.495   4.346   5.720  2.1125 -0.5647 -0.6461
 6637SOL    HW231548   1.422   4.237   5.658  1.9898 -0.1469 -1.6455
 6638SOL     OW31549   1.393   3.508   8.666 -0.2932 -0.0028 -0.3019
 6638SOL    HW131550   1.439   3.576   8.615  2.1820 -1.3981  0.0545
 6638SOL    HW231551   1.459   3.439   8.675  0.2653  0.5924  0.2270
 6639SOL     OW31552   1.730   1.308  13.611  0.1488 -0.0192  0.4742
 6639SOL    HW131553   1.721   1.221  13.570 -1.1446  0.2042  0.2789
 6639SOL    HW231554   1.722   1.290  13.705 -0.8912 -1.3035  0.1469
 6640SOL     OW31555   1.868   2.198   1.158  0.2944  0.7335 -0.1755
 6640SOL    HW131556   1.832   2.158   1.237 -0.1406  0.0494 -0.7122
 6640SOL    HW231557   1.848   2.124   1.100 -0.8615  0.2049  0.8977
 6641SOL     OW31558   3.506   3.331  15.478 -0.5457 -0.4092 -0.3564
 6641SOL    HW131559   3.494   3.342  15.383 -1.3818 -1.3247 -0.3543
 6641SOL    HW231560   3.420   3.310  15.516 -0.4839  1.9705  1.0927
 6642SOL     OW31561   3.412   4.233   2.733  0.3903 -0.0108  0.2332
 6642SOL    HW131562   3.444   4.166   2.793 -1.2710 -1.0779 -0.0825
 6642SOL    HW231563   3.496   4.266   2.702 -0.4158  2.5458  0.7424
 6643SOL     OW31564   0.836   4.151  12.963  0.2113  0.2450 -0.1954
 6643SOL    HW131565   0.912   4.180  12.913 -2.7469  2.0076 -3.6391
 6643SOL    HW231566   0.847   4.056  12.956 -1.1151  0.0544  0.4040
 6644SOL     OW31567   1.970   3.122   1.783 -0.1758  0.1083 -0.1410
 6644SOL    HW131568   2.004   3.163   1.862 -1.2851 -1.9031  1.3793
 6644SOL    HW231569   2.039   3.129   1.717  0.0013  3.0757  0.3886
 6645SOL     OW31570   0.988   0.773  12.853 -0.0001  0.0254  0.1275
 6645SOL    HW131571   0.899   0.749  12.827  0.3288  0.4420 -1.4059
 6645SOL    HW231572   0.995   0.726  12.936 -2.7447 -0.0146  0.3354
 6646SOL     OW31573   2.338   3.130   5.180 -0.8535  0.0399 -0.6498
 6646SOL    HW131574   2.284   3.206   5.156  0.4823  1.4441  0.7939
 6646SOL    HW231575   2.284   3.060   5.143 -1.8894 -0.5705  2.0084
 6647SOL     OW31576   4.422   3.007  15.067 -0.0226  0.6089 -0.3898
 6647SOL    HW131577   4.359   2.946  15.028  0.5426 -1.2043  1.5340
 6647SOL    HW231578   4.458   3.046  14.988 -0.0591 -0.4191 -0.9123
 6648SOL     OW31579   1.035   2.989   6.403 -0.2006 -0.0854  0.0804
 6648SOL    HW131580   1.052   3.045   6.327 -0.6332  0.8908  0.7011
 6648SOL    HW231581   1.116   2.985   6.454  0.5932 -1.5790 -1.3005
 6649SOL     OW31582   1.735   3.568   8.292 -0.0609  0.1077  0.4482
 6649SOL    HW131583   1.749   3.570   8.197 -2.2571 -1.0432  0.0869
 6649SOL    HW231584   1.642   3.543   8.287 -0.2377  0.3896  2.4329
 6650SOL     OW31585   1.909   4.098  12.877  0.0901  0.3567 -0.1925
 6650SOL    HW131586   1.942   4.088  12.788 -0.3960  2.4961 -0.6165
 6650SOL    HW231587   1.825   4.059  12.852 -0.6820  1.9883 -0.1586
 6651SOL     OW31588   2.151   4.343  12.816 -0.3567  0.2530 -0.3862
 6651SOL    HW131589   2.161   4.249  12.801 -0.1158  0.3853 -1.0142
 6651SOL    HW231590   2.079   4.348  12.880 -0.3535  0.4819 -0.4000
 6652SOL     OW31591   1.329   0.414   9.092 -0.1699  0.5855 -0.1840
 6652SOL    HW131592   1.346   0.476   9.162 -0.5827 -0.7876  1.1386
 6652SOL    HW231593   1.300   0.476   9.026 -0.1506 -0.7910 -1.4986
 6653SOL     OW31594   4.022   4.734   1.245 -0.4219 -0.1118 -0.4245
 6653SOL    HW131595   3.969   4.695   1.175  0.6235 -0.8211 -0.8245
 6653SOL    HW231596   3.977   0.080   1.251  0.8184  0.5458 -0.3337
 6654SOL     OW31597   1.923   0.979   4.780  0.3473  0.0062 -0.1393
 6654SOL    HW131598   1.999   0.979   4.722  0.2338 -0.2183 -0.2918
 6654SOL    HW231599   1.951   1.042   4.845  1.9305 -3.0314  2.0824
 6655SOL     OW31600   1.511   2.508   2.948 -0.2758 -0.5683 -0.1444
 6655SOL    HW131601   1.487   2.445   2.879  0.0290 -0.5974 -0.2243
 6655SOL    HW231602   1.577   2.458   2.996 -0.5145  0.6070  1.3788
 6656SOL     OW31603   1.598   1.264   2.330 -0.1210  0.2024  0.2336
 6656SOL    HW131604   1.632   1.332   2.388 -1.2632  1.5513 -0.6766
 6656SOL    HW231605   1.558   1.314   2.259  0.8556 -2.1463 -1.9620
 6657SOL     OW31606   3.896   2.626   8.308 -0.1206 -0.0809  0.0161
 6657SOL    HW131607   3.909   2.559   8.376  0.2543 -0.9434 -0.8972
 6657SOL    HW231608   3.807   2.656   8.323 -1.1416 -2.0372 -2.1066
 6658SOL     OW31609   1.009   1.873   1.835  0.4323  0.2096  0.0519
 6658SOL    HW131610   0.970   1.803   1.887  0.1680  0.3659  0.0679
 6658SOL    HW231611   1.035   1.930   1.907  0.0937 -1.0475  1.1758
 6659SOL     OW31612   2.226   2.237   6.756 -0.1342  0.2123 -0.3175
 6659SOL    HW131613   2.321   2.228   6.767 -0.2780  0.1913  0.9263
 6659SOL    HW231614   2.215   2.186   6.676 -0.3815 -1.1294  0.5805
 6660SOL     OW31615   4.095   0.959   3.268  0.1257 -0.3809  0.4619
 6660SOL    HW131616   4.085   0.951   3.363 -2.5599  2.7187  0.4099
 6660SOL    HW231617   4.184   0.994   3.272  0.3145 -1.1084  2.7017
 6661SOL     OW31618   4.394   1.534   4.765  0.1216  0.2167 -0.2638
 6661SOL    HW131619   4.334   1.559   4.835  0.5389 -0.2074  0.2467
 6661SOL    HW231620   4.380   1.442   4.742  0.9168 -0.4371  1.8689
 6662SOL     OW31621   4.102   0.755   5.591 -0.0610  0.0795 -0.1658
 6662SOL    HW131622   4.049   0.709   5.655  1.7260 -0.6992  0.7552
 6662SOL    HW231623   4.174   0.694   5.571  0.1368 -0.2100  1.4212
 6663SOL     OW31624   4.411   1.791   2.541 -0.9358 -0.1174  0.2192
 6663SOL    HW131625   4.322   1.778   2.574 -0.2673 -3.9229  0.4693
 6663SOL    HW231626   4.458   1.737   2.605  0.3718  0.5385 -0.1864
 6664SOL     OW31627   3.093   1.779   9.189 -0.0482  0.7326 -0.2001
 6664SOL    HW131628   3.079   1.873   9.202  0.5104  0.4363  2.5100
 6664SOL    HW231629   3.188   1.769   9.177 -1.0454 -2.8977 -5.0997
 6665SOL     OW31630   4.288   0.181   4.721  0.6481 -0.1693 -0.1936
 6665SOL    HW131631   4.257   0.109   4.776  1.3741 -0.3461 -0.0143
 6665SOL    HW231632   4.274   0.147   4.633  0.6476 -0.7454  0.0263
 6666SOL     OW31633   4.095   3.429   5.431 -0.4123  0.0460 -0.5307
 6666SOL    HW131634   4.159   3.478   5.484  0.7022 -2.9704  0.9038
 6666SOL    HW231635   4.071   3.506   5.380 -1.3356  1.1290  1.5227
 6667SOL     OW31636   0.233   0.017   9.169 -0.6827 -0.2600 -0.5145
 6667SOL    HW131637   0.241   4.708   9.086 -2.0038 -0.1172 -0.7189
 6667SOL    HW231638   0.294   4.717   9.232  0.1843 -0.2086 -1.3180
 6668SOL     OW31639   1.991   1.579  16.805 -0.2536  0.0721  0.2170
 6668SOL    HW131640   1.986   1.484  16.789  0.6746  0.2782 -1.2376
 6668SOL    HW231641   2.005   1.571  16.900 -2.2126  1.1621  0.5895
 6669SOL     OW31642   0.820   2.956   8.330 -0.1292  0.0376 -0.0012
 6669SOL    HW131643   0.850   2.868   8.307  1.8263  0.3498  1.3520
 6669SOL    HW231644   0.818   2.955   8.426  0.0020  1.0133  0.0152
 6670SOL     OW31645   0.721   2.981   2.822 -0.4414  0.2709  0.6718
 6670SOL    HW131646   0.815   2.982   2.803 -0.0172  0.9293  2.7720
 6670SOL    HW231647   0.690   2.984   2.732  0.1281  1.6064  0.5244
 6671SOL     OW31648   3.343   3.839   8.952  0.1408  0.6434 -0.3044
 6671SOL    HW131649   3.379   3.778   8.887  3.1842  0.6395  1.3676
 6671SOL    HW231650   3.275   3.790   8.998  0.8366  2.7192  2.9319
 6672SOL     OW31651   0.212   0.738   4.299 -0.1428  0.3656 -0.7171
 6672SOL    HW131652   0.137   0.753   4.356 -1.1756  1.4437 -2.3695
 6672SOL    HW231653   0.177   0.671   4.240 -0.7556 -0.2088  0.2877
 6673SOL     OW31654   3.938   0.168   4.692  0.0245  0.3174 -0.1194
 6673SOL    HW131655   3.891   0.247   4.720  1.0502  1.3762 -1.3801
 6673SOL    HW231656   3.927   0.180   4.598  3.7814  0.2769 -0.5887
 6674SOL     OW31657   3.832   4.279   1.253  0.1558  0.6106 -0.0636
 6674SOL    HW131658   3.922   4.251   1.234 -0.2259  0.2920 -1.3533
 6674SOL    HW231659   3.787   4.195   1.256  0.2963  0.5974  1.7911
 6675SOL     OW31660   1.015   3.483   7.135  0.5709  0.2158  0.0200
 6675SOL    HW131661   0.937   3.469   7.082  0.8214  0.8186 -0.4986
 6675SOL    HW231662   1.047   3.563   7.095 -0.9735  0.8563  0.0748
 6676SOL     OW31663   1.057   4.068  14.843  0.1825 -0.2428 -0.4637
 6676SOL    HW131664   1.028   4.078  14.753  2.2396  0.9484 -1.0077
 6676SOL    HW231665   1.085   4.159  14.858  0.9897 -0.9819  2.4626
 6677SOL     OW31666   3.107   4.140   1.618 -0.2066  0.1466 -0.0347
 6677SOL    HW131667   3.132   4.049   1.604  0.5401  0.2869  0.4116
 6677SOL    HW231668   3.124   4.171   1.707 -0.2581 -0.8581  0.3171
 6678SOL     OW31669   0.895   2.735   2.057  0.1347  0.4729 -0.3271
 6678SOL    HW131670   0.968   2.676   2.038 -0.5681 -0.6977  0.5147
 6678SOL    HW231671   0.818   2.680   2.075 -0.5451  1.9298  1.2337
 6679SOL     OW31672   2.903   4.217   5.288  0.3834 -0.1244 -0.1052
 6679SOL    HW131673   2.927   4.145   5.346 -0.2230 -0.7357 -0.6147
 6679SOL    HW231674   2.905   4.172   5.204 -1.9089 -0.0130 -0.2202
 6680SOL     OW31675   2.796   3.288   5.126  0.1162 -0.0709  0.4912
 6680SOL    HW131676   2.719   3.289   5.183  0.4956  1.4466  0.9901
 6680SOL    HW231677   2.752   3.233   5.063 -1.2059  2.3624 -0.7253
 6681SOL     OW31678   4.241   3.787   7.087  0.1641  0.0885  0.1178
 6681SOL    HW131679   4.182   3.762   7.015 -1.0223  1.4184  0.6217
 6681SOL    HW231680   4.269   3.705   7.128 -0.3191  0.1829  0.6319
 6682SOL     OW31681   1.656   3.204   3.447  0.4170  0.1233 -0.4039
 6682SOL    HW131682   1.595   3.277   3.437  0.0866 -0.1962 -0.7547
 6682SOL    HW231683   1.739   3.249   3.459  0.3579 -0.2424  1.3571
 6683SOL     OW31684   0.955   3.077   4.652 -0.0495  0.2757  0.2300
 6683SOL    HW131685   0.915   3.046   4.571  0.9056  1.5361 -0.7254
 6683SOL    HW231686   1.022   3.011   4.669  0.9921  0.4358 -3.1879
 6684SOL     OW31687   3.200   4.580  16.072  0.1093  0.1612  0.2699
 6684SOL    HW131688   3.253   4.651  16.109 -0.0751 -0.7183  2.2634
 6684SOL    HW231689   3.122   4.577  16.129  1.0728  0.1449  1.5965
 6685SOL     OW31690   2.208   3.718   6.352 -0.7595  0.3026 -0.2521
 6685SOL    HW131691   2.124   3.761   6.333 -0.5828  0.5390 -0.4993
 6685SOL    HW231692   2.267   3.793   6.346  0.0132 -0.2996 -0.2202
 6686SOL     OW31693   0.670   1.058   4.373 -0.0276 -0.0101  0.0170
 6686SOL    HW131694   0.614   0.981   4.362 -0.4675  0.5658 -1.7105
 6686SOL    HW231695   0.756   1.017   4.365  0.3976  0.8855  0.0469
 6687SOL     OW31696   2.439   2.086  12.248  0.1353 -0.0025 -0.3603
 6687SOL    HW131697   2.491   2.030  12.306  0.2368  2.0343  1.5431
 6687SOL    HW231698   2.398   2.134  12.320 -0.2741 -1.4283  0.3707
 6688SOL     OW31699   2.354   3.429   5.862  0.0717  0.3034  0.3168
 6688SOL    HW131700   2.275   3.376   5.868  1.3704 -1.4513  1.7111
 6688SOL    HW231701   2.423   3.364   5.847  1.1702  1.1960  1.4745
 6689SOL     OW31702   4.024   1.046   9.103  0.1885  0.0171  0.1621
 6689SOL    HW131703   4.044   0.957   9.132  0.6640 -0.3359 -1.2492
 6689SOL    HW231704   3.977   1.076   9.182  0.2858  2.1825 -0.5846
 6690SOL     OW31705   4.723   3.497   3.971  0.4259 -0.1878  0.0372
 6690SOL    HW131706   4.725   3.493   4.066  0.8857 -1.2660 -0.0240
 6690SOL    HW231707   0.062   3.457   3.932  0.2207  0.3857 -0.9684
 6691SOL     OW31708   3.146   1.577   7.646 -0.6487 -0.3337  0.0956
 6691SOL    HW131709   3.150   1.673   7.645  2.6377 -0.5028 -4.3729
 6691SOL    HW231710   3.056   1.565   7.677 -1.1493  0.8290 -0.9174
 6692SOL     OW31711   0.961   4.470  14.329 -0.3430 -0.3728 -0.2063
 6692SOL    HW131712   1.036   4.476  14.270  1.5459 -2.1848  1.9822
 6692SOL    HW231713   0.898   4.445  14.262  0.8638 -0.7543 -1.1785
 6693SOL     OW31714   4.411   1.680   9.913  0.6079  0.0172 -0.1518
 6693SOL    HW131715   4.432   1.594   9.950 -0.5425 -0.4645 -0.6413
 6693SOL    HW231716   4.317   1.685   9.927  0.7785 -1.7489  1.6969
 6694SOL     OW31717   4.069   4.165   6.236  0.0412  0.0957 -0.1750
 6694SOL    HW131718   4.026   4.097   6.287  0.7200 -0.0813  0.1693
 6694SOL    HW231719   4.124   4.103   6.186  3.8190  1.4119  2.3758
 6695SOL     OW31720   2.793   2.948  12.758  0.2968 -0.3382 -0.0256
 6695SOL    HW131721   2.710   2.966  12.712  0.6292  2.4072  0.4537
 6695SOL    HW231722   2.763   2.864  12.792 -2.8320  0.1536 -1.5152
 6696SOL     OW31723   3.357   2.879  12.748 -0.3282  0.1764  0.3692
 6696SOL    HW131724   3.273   2.841  12.773 -0.9453  2.7564  2.2507
 6696SOL    HW231725   3.408   2.798  12.746  0.3174  0.5864  0.2733
 6697SOL     OW31726   2.466   3.011   7.178 -0.1121  0.1450 -0.2485
 6697SOL    HW131727   2.375   3.029   7.155 -0.7053  0.6941  2.5004
 6697SOL    HW231728   2.504   2.984   7.094  2.1758  0.7507  0.5810
 6698SOL     OW31729   3.762   0.542   4.033 -0.0131 -0.1466 -0.2265
 6698SOL    HW131730   3.706   0.468   4.011  1.6526 -1.9052  1.5406
 6698SOL    HW231731   3.836   0.529   3.973 -0.6553  0.8173 -1.2307
 6699SOL     OW31732   4.637   1.839   3.459 -0.5040  0.0821  0.0977
 6699SOL    HW131733   4.691   1.761   3.455 -1.8516 -0.8916  0.7685
 6699SOL    HW231734   4.613   1.857   3.368  1.5142 -0.8188 -0.6083
 6700SOL     OW31735   2.805   0.607   5.721  0.0329 -0.7690  0.5167
 6700SOL    HW131736   2.711   0.622   5.727  0.2245  0.1327  1.1500
 6700SOL    HW231737   2.828   0.634   5.632 -2.1938 -1.9858 -0.4303
 6701SOL     OW31738   4.282   2.684  15.209 -0.1520  0.5663 -0.5897
 6701SOL    HW131739   4.274   2.771  15.249  2.1850  0.4242  0.1913
 6701SOL    HW231740   4.266   2.629  15.285 -1.2344  1.6846  0.0015
 6702SOL     OW31741   4.327   3.285   6.163  0.4095 -0.0295 -0.5445
 6702SOL    HW131742   4.251   3.234   6.190 -0.3182  0.9822 -0.6685
 6702SOL    HW231743   4.401   3.226   6.148 -0.8859 -2.0461  1.0836
 6703SOL     OW31744   3.734   2.352   7.154  0.6528 -0.0641  0.4403
 6703SOL    HW131745   3.694   2.324   7.236 -2.4753 -0.5047 -1.2337
 6703SOL    HW231746   3.818   2.385   7.187  0.0411  1.6955  0.2594
 6704SOL     OW31747   3.568   0.004   5.457  0.1445  0.3471  0.0211
 6704SOL    HW131748   3.483   4.717   5.492 -0.7029 -0.1461 -2.3753
 6704SOL    HW231749   3.619   4.672   5.495 -1.2875  0.1869  1.6377
 6705SOL     OW31750   1.832   0.345  13.557  0.3530 -0.4425  0.5394
 6705SOL    HW131751   1.739   0.332  13.536  0.1039  2.3343 -0.0235
 6705SOL    HW231752   1.862   0.349  13.466 -1.2084  0.1745  0.0466
 6706SOL     OW31753   2.681   1.294   8.433 -0.5555 -0.4346 -0.5527
 6706SOL    HW131754   2.671   1.240   8.355  0.3019  0.9953 -1.6575
 6706SOL    HW231755   2.620   1.242   8.484 -1.2756 -0.7384 -1.7189
 6707SOL     OW31756   2.861   0.894   5.942 -0.0161  0.4879  0.3277
 6707SOL    HW131757   2.847   0.810   5.898  1.1531  0.5173 -0.1141
 6707SOL    HW231758   2.775   0.934   5.930 -0.7312 -0.9682  0.5812
 6708SOL     OW31759   1.789   0.820   3.578 -0.1076  0.7494 -0.6308
 6708SOL    HW131760   1.791   0.734   3.621  4.0588  2.8014  3.3667
 6708SOL    HW231761   1.795   0.800   3.485  2.3718  0.5101 -0.4437
 6709SOL     OW31762   0.461   1.855  11.506  0.6644  0.2989 -0.4638
 6709SOL    HW131763   0.421   1.768  11.519  0.3852  0.5300  0.2365
 6709SOL    HW231764   0.554   1.845  11.527 -0.3281 -1.4736  3.1214
 6710SOL     OW31765   3.637   0.902   9.226 -0.0178  0.4059  0.2409
 6710SOL    HW131766   3.640   0.847   9.305 -1.4730 -0.6073 -0.4116
 6710SOL    HW231767   3.542   0.917   9.224  0.3353  2.7133  0.6269
 6711SOL     OW31768   1.770   1.770   9.641  0.1280  0.6673  0.2721
 6711SOL    HW131769   1.708   1.820   9.589 -0.1005 -0.8494 -0.8776
 6711SOL    HW231770   1.780   1.824   9.720  2.1379  1.3923 -0.4664
 6712SOL     OW31771   0.677   2.954   6.293 -0.5274  0.7037 -0.1593
 6712SOL    HW131772   0.633   2.876   6.260 -0.0945  0.9125 -1.2455
 6712SOL    HW231773   0.686   3.001   6.210 -0.5373 -0.4102 -0.7928
 6713SOL     OW31774   1.690   0.679  14.452  0.1868 -0.1078  0.1009
 6713SOL    HW131775   1.782   0.699  14.438  0.4115 -1.3745 -0.2446
 6713SOL    HW231776   1.666   0.645  14.366 -0.0245 -1.4062  0.6750
 6714SOL     OW31777   3.393   3.272   8.121  0.3179  0.4127 -0.3398
 6714SOL    HW131778   3.305   3.236   8.114 -0.7547  2.8382  0.7073
 6714SOL    HW231779   3.371   3.364   8.111  0.4521  0.7261  2.1818
 6715SOL     OW31780   0.146   4.511   7.746 -0.2818 -0.3436  0.3007
 6715SOL    HW131781   0.218   4.572   7.762 -0.3635  0.5245 -2.6651
 6715SOL    HW231782   0.194   4.429   7.735 -1.6254 -1.3408  1.8965
 6716SOL     OW31783   0.186   4.177  17.477 -0.8094 -0.2567  0.3342
 6716SOL    HW131784   0.229   4.121  17.413 -0.2006 -0.8492  1.2691
 6716SOL    HW231785   0.132   4.240  17.429 -1.4374 -1.3711 -0.4172
 6717SOL     OW31786   2.885   1.404   4.145  0.1942  0.2801 -0.1852
 6717SOL    HW131787   2.836   1.374   4.068  1.3632 -0.2549 -0.7048
 6717SOL    HW231788   2.824   1.385   4.216  2.7018 -0.1163  1.8609
 6718SOL     OW31789   3.959   1.874   1.205 -0.3257  0.4403  0.3123
 6718SOL    HW131790   3.876   1.887   1.160 -0.4433 -1.0921  0.0810
 6718SOL    HW231791   3.952   1.934   1.279  1.1761  2.6873 -1.3412
 6719SOL     OW31792   0.400   2.030   1.035  0.1123 -0.0927  0.2849
 6719SOL    HW131793   0.339   1.957   1.048  0.0600 -0.4252 -1.9162
 6719SOL    HW231794   0.351   2.107   1.064 -1.3532 -0.4623 -1.2642
 6720SOL     OW31795   1.513   2.965   3.513 -0.2617 -0.5349  0.3698
 6720SOL    HW131796   1.579   3.033   3.528  0.3498 -1.2783  1.0348
 6720SOL    HW231797   1.438   3.006   3.557 -0.3795  0.0588 -0.3819
 6721SOL     OW31798   4.207   4.357   6.968  0.0381 -0.7550  0.2372
 6721SOL    HW131799   4.168   4.332   6.884 -1.4252 -1.7442  1.2131
 6721SOL    HW231800   4.129   4.387   7.015  1.1020 -0.1535  1.6059
 6722SOL     OW31801   2.735   4.486   7.580  0.3698 -0.1889  0.0822
 6722SOL    HW131802   2.761   4.515   7.668  0.6952  1.6673 -0.6313
 6722SOL    HW231803   2.641   4.473   7.586  0.1105  0.7457 -2.1475
 6723SOL     OW31804   1.166   2.414   7.125 -0.1064  0.1660 -0.4170
 6723SOL    HW131805   1.144   2.407   7.032  0.0236  1.8307 -0.5760
 6723SOL    HW231806   1.094   2.472   7.151 -0.6854 -0.2296 -1.1229
 6724SOL     OW31807   4.491   2.629  15.050  0.3646  0.5221 -0.0764
 6724SOL    HW131808   4.512   2.558  15.111  1.3711 -1.2905 -2.4997
 6724SOL    HW231809   4.414   2.666  15.092  0.1260  0.0979 -0.1312
 6725SOL     OW31810   1.329   0.175  16.313  0.4348  0.7791  0.2021
 6725SOL    HW131811   1.342   0.261  16.353  1.3733  0.3036  0.9463
 6725SOL    HW231812   1.380   0.185  16.233 -0.3140 -1.8184 -0.6129
 6726SOL     OW31813   3.674   3.913   4.624 -0.0215  0.0324 -0.3360
 6726SOL    HW131814   3.695   3.950   4.710  0.8067 -1.1220 -0.0475
 6726SOL    HW231815   3.624   3.835   4.650 -0.8803  1.0175  0.9311
 6727SOL     OW31816   1.655   3.725  14.191 -0.5547  0.4197 -0.1169
 6727SOL    HW131817   1.620   3.638  14.211 -1.2204  0.1897 -2.3613
 6727SOL    HW231818   1.605   3.753  14.115  0.9675 -1.4584 -1.8220
 6728SOL     OW31819   4.141   3.371  14.409 -0.4540 -0.6652  0.1340
 6728SOL    HW131820   4.229   3.404  14.390 -0.6827 -0.9737 -1.4434
 6728SOL    HW231821   4.096   3.446  14.448  0.6574  0.6757 -1.1555
 6729SOL     OW31822   4.718   1.383   7.350  0.1263  0.0001 -0.0845
 6729SOL    HW131823   4.631   1.423   7.349 -0.1776 -0.7086 -1.7219
 6729SOL    HW231824   0.014   1.414   7.266  0.3530  0.3935  0.1510
 6730SOL     OW31825   1.919   4.594   6.435 -0.1553  0.0331  0.2018
 6730SOL    HW131826   1.861   4.523   6.463  0.2515 -0.9499 -1.4386
 6730SOL    HW231827   2.003   4.554   6.413 -0.4230  0.7103 -2.0159
 6731SOL     OW31828   0.662   0.418   4.829  0.2933  0.3611  0.1405
 6731SOL    HW131829   0.666   0.323   4.813  1.1640  0.1808  1.4502
 6731SOL    HW231830   0.726   0.430   4.899  0.4053 -0.8340  0.2432
 6732SOL     OW31831   2.883   2.671   1.520  0.4086  0.2997 -0.3115
 6732SOL    HW131832   2.949   2.612   1.556 -0.4820 -2.4995 -3.2785
 6732SOL    HW231833   2.888   2.757   1.562 -1.1323 -1.3789  3.3279
 6733SOL     OW31834   4.525   4.560   7.419 -0.6348 -0.3241 -0.0690
 6733SOL    HW131835   4.485   4.564   7.506  1.9692 -0.9188  1.1753
 6733SOL    HW231836   4.562   4.649   7.420 -0.3691 -0.4322 -0.1508
 6734SOL     OW31837   4.328   2.209   8.587 -0.3182 -0.2468  0.7474
 6734SOL    HW131838   4.314   2.146   8.658 -0.5926 -0.7678  0.2263
 6734SOL    HW231839   4.423   2.206   8.576 -0.4881 -1.8400 -0.1741
 6735SOL     OW31840   0.302   2.934   5.831 -0.1326  0.6652 -0.1366
 6735SOL    HW131841   0.237   2.880   5.785  0.3581  0.3421 -0.4509
 6735SOL    HW231842   0.381   2.883   5.812 -0.6563 -0.9167  1.8674
 6736SOL     OW31843   1.360   2.414  17.737  0.0348  0.3554  0.5552
 6736SOL    HW131844   1.405   2.440   0.067 -1.3034 -0.8804  1.6876
 6736SOL    HW231845   1.412   2.457  17.669 -2.9777  0.1324 -1.9241
 6737SOL     OW31846   1.779   1.115   8.165 -0.5052 -0.0143 -0.1595
 6737SOL    HW131847   1.753   1.184   8.103  3.1759  2.3652  0.9480
 6737SOL    HW231848   1.844   1.065   8.116 -1.1320  1.8616 -2.9295
 6738SOL     OW31849   3.157   1.212   6.800 -0.5140  0.5351 -0.0278
 6738SOL    HW131850   3.134   1.128   6.761 -0.9423  0.9227 -0.6055
 6738SOL    HW231851   3.205   1.177   6.875  0.5748 -0.7157 -1.3285
 6739SOL     OW31852   1.490   2.578  14.147 -0.0483 -0.4494 -0.1620
 6739SOL    HW131853   1.468   2.621  14.229 -0.6968 -1.5428  0.2478
 6739SOL    HW231854   1.529   2.494  14.172  3.2174  0.8366 -1.0871
 6740SOL     OW31855   1.425   1.449   0.972 -0.1606 -0.3203 -0.3912
 6740SOL    HW131856   1.462   1.367   1.005  3.2286  1.6125  0.6309
 6740SOL    HW231857   1.347   1.407   0.936  0.3767 -2.1483  0.5253
 6741SOL     OW31858   2.612   3.921   8.982 -0.0827 -0.4010 -0.0314
 6741SOL    HW131859   2.534   3.935   8.928  0.4238  0.8371 -0.4615
 6741SOL    HW231860   2.595   3.831   9.009 -0.9406  0.1917  1.3740
 6742SOL     OW31861   3.293   1.270   2.128  0.1692 -0.3880  0.0205
 6742SOL    HW131862   3.278   1.309   2.041 -2.7201 -0.4370  0.4841
 6742SOL    HW231863   3.200   1.273   2.149 -0.1484 -1.2730 -1.2397
 6743SOL     OW31864   2.592   2.999  12.132  0.2428 -0.3745 -0.1681
 6743SOL    HW131865   2.617   3.082  12.173 -2.1141  0.9783 -1.4132
 6743SOL    HW231866   2.541   3.025  12.055 -1.0172  1.1395  1.1749
 6744SOL     OW31867   2.724   0.906   3.822  0.1575 -0.2087  0.0360
 6744SOL    HW131868   2.660   0.852   3.775 -1.0364  1.0593  0.2065
 6744SOL    HW231869   2.691   0.915   3.912 -1.4570 -0.8210 -0.4811
 6745SOL     OW31870   3.766   1.466  12.828 -0.1512 -0.0868  0.4567
 6745SOL    HW131871   3.686   1.497  12.871 -0.7321 -0.6700 -0.2121
 6745SOL    HW231872   3.817   1.437  12.903 -1.0328 -0.7398  0.8017
 6746SOL     OW31873   2.835   2.146  12.651 -0.1102  0.2099 -0.4819
 6746SOL    HW131874   2.860   2.055  12.672 -4.4538 -0.7159  0.6561
 6746SOL    HW231875   2.911   2.186  12.609  1.0137 -0.7970  0.5430
 6747SOL     OW31876   3.592   3.937   8.558  0.2762 -0.3972  0.0690
 6747SOL    HW131877   3.583   3.845   8.531  0.0613 -0.3840  0.0983
 6747SOL    HW231878   3.507   3.965   8.592 -1.0199 -0.2879 -3.2784
 6748SOL     OW31879   2.794   2.330   3.921 -0.2165  0.3474 -0.1934
 6748SOL    HW131880   2.782   2.255   3.863 -1.8858  0.2662  0.2420
 6748SOL    HW231881   2.776   2.292   4.007  1.4325  1.2241  0.5315
 6749SOL     OW31882   1.722   4.718   3.219  0.9503  0.1456 -0.1171
 6749SOL    HW131883   1.684   4.634   3.196 -2.1596  2.2322 -2.5342
 6749SOL    HW231884   1.656   0.021   3.274 -0.2851 -1.4459 -0.4139
 6750SOL     OW31885   1.986   0.113   1.869 -0.9873 -0.2337  0.0126
 6750SOL    HW131886   1.988   0.146   1.959 -1.9515 -2.5189  0.8788
 6750SOL    HW231887   1.969   0.019   1.879  1.4959 -0.7847 -1.1541
 6751SOL     OW31888   3.536   0.844  10.864  0.8082  0.4440  0.2938
 6751SOL    HW131889   3.589   0.778  10.908  0.6210  0.4980  0.5993
 6751SOL    HW231890   3.554   0.823  10.772 -0.7344  0.3625 -0.0064
 6752SOL     OW31891   4.192   3.188   8.976  0.2681  0.2948 -0.1661
 6752SOL    HW131892   4.124   3.254   8.959  1.1836  2.1252  3.2623
 6752SOL    HW231893   4.229   3.217   9.059  0.5634 -0.0466 -0.1795
 6753SOL     OW31894   3.850   4.464   2.582  0.1046  0.1018 -0.2222
 6753SOL    HW131895   3.913   4.454   2.511 -0.6670 -2.5876 -0.5368
 6753SOL    HW231896   3.827   4.555   2.565 -3.1930 -1.1452 -2.4682
 6754SOL     OW31897   2.257   0.976   0.876 -0.5533  0.0876  0.2636
 6754SOL    HW131898   2.249   1.069   0.856  0.4175  0.1545  0.1977
 6754SOL    HW231899   2.339   0.983   0.926 -0.6251 -1.0622  0.5399
 6755SOL     OW31900   2.689   2.261   5.846 -0.6616  0.1211  0.6135
 6755SOL    HW131901   2.665   2.234   5.757 -3.4347 -1.8029  1.9464
 6755SOL    HW231902   2.764   2.205   5.865 -0.3630  0.4119  0.2886
 6756SOL     OW31903   1.662   4.038   6.417  0.1179  0.1215  0.0536
 6756SOL    HW131904   1.737   4.037   6.358  1.1008 -1.2737  1.2980
 6756SOL    HW231905   1.695   4.029   6.506  1.2529 -0.6908 -0.4478
 6757SOL     OW31906   4.663   2.843   6.664  0.0627  0.1174 -0.6416
 6757SOL    HW131907   4.708   2.924   6.692  0.5324 -0.1690 -0.5663
 6757SOL    HW231908   0.001   2.785   6.673 -0.3507 -0.3259  0.0027
 6758SOL     OW31909   1.282   3.448   2.754  0.1802 -0.0124 -0.5725
 6758SOL    HW131910   1.227   3.416   2.682 -0.1446  1.7789 -1.1087
 6758SOL    HW231911   1.360   3.487   2.715 -0.5451 -0.0774 -2.0946
 6759SOL     OW31912   3.309   1.670   7.227 -0.4806  0.9097 -0.4911
 6759SOL    HW131913   3.401   1.648   7.239  0.0289  3.1272 -0.3733
 6759SOL    HW231914   3.261   1.588   7.239  1.0047  0.0811 -0.3056
 6760SOL     OW31915   4.156   3.842   8.106 -0.6295 -0.7618  0.2539
 6760SOL    HW131916   4.172   3.797   8.189  0.7478  0.4202  0.6352
 6760SOL    HW231917   4.203   3.785   8.045 -1.0389 -2.7921  1.8309
 6761SOL     OW31918   3.860   0.582   9.407 -0.1864 -0.2782 -0.6562
 6761SOL    HW131919   3.820   0.619   9.487  1.6498  1.7545 -0.6581
 6761SOL    HW231920   3.792   0.601   9.342 -0.2913 -0.4133 -0.5853
 6762SOL     OW31921   3.448   1.059   1.058 -0.0596 -0.5037  0.7380
 6762SOL    HW131922   3.506   1.098   1.124  1.3888 -0.0303 -0.8144
 6762SOL    HW231923   3.451   1.117   0.982  2.4266 -0.5785  0.7609
 6763SOL     OW31924   1.325   1.897   7.498  0.2638 -0.6621  0.6349
 6763SOL    HW131925   1.349   1.830   7.562 -0.3658  0.2029  1.7776
 6763SOL    HW231926   1.337   1.980   7.543 -1.4857 -0.5247  0.8327
 6764SOL     OW31927   2.782   1.333   7.022  0.1327 -0.2324 -0.0319
 6764SOL    HW131928   2.790   1.245   7.060  0.1369 -0.7210 -1.1537
 6764SOL    HW231929   2.725   1.314   6.947 -0.5291 -1.4175  0.7778
 6765SOL     OW31930   2.849   0.140   3.416  0.1785 -0.3706  0.1711
 6765SOL    HW131931   2.847   0.226   3.460 -1.2781 -0.6026  0.5601
 6765SOL    HW231932   2.938   0.107   3.421  0.4296  0.5385  1.7204
 6766SOL     OW31933   2.077   3.247   6.402 -0.0732 -0.3635  0.0540
 6766SOL    HW131934   2.070   3.226   6.495 -0.0710 -1.2051 -0.1332
 6766SOL    HW231935   2.135   3.323   6.404  0.9400 -1.1858  1.9058
 6767SOL     OW31936   4.336   0.948   6.933 -0.1549 -0.2789 -0.1201
 6767SOL    HW131937   4.366   0.866   6.895 -2.2914  0.3796 -3.1513
 6767SOL    HW231938   4.250   0.923   6.966 -0.3332 -0.3063 -0.6069
 6768SOL     OW31939   4.320   4.050   3.136  0.0094  0.1076  0.1940
 6768SOL    HW131940   4.248   4.113   3.149 -1.6351 -1.6189 -0.5822
 6768SOL    HW231941   4.278   4.004   3.063  0.6965 -1.8589  1.0544
 6769SOL     OW31942   1.667   3.777  12.108  0.2663  0.1825  0.6078
 6769SOL    HW131943   1.726   3.703  12.094 -2.5538 -1.7397 -1.0526
 6769SOL    HW231944   1.692   3.794  12.199  0.7448 -2.6419  1.0045
 6770SOL     OW31945   2.043   3.595   0.393 -0.5766 -0.3725 -0.6731
 6770SOL    HW131946   1.954   3.623   0.370 -0.0368  0.7665 -1.3517
 6770SOL    HW231947   2.037   3.610   0.487  0.2920  0.2913 -0.7245
 6771SOL     OW31948   3.962   0.347   8.444 -0.6482  0.1162  0.6342
 6771SOL    HW131949   4.014   0.272   8.414 -0.9603  0.8053 -1.6092
 6771SOL    HW231950   3.919   0.369   8.361 -0.7622 -1.7955  0.1921
 6772SOL     OW31951   3.393   0.554  13.644 -0.4402  0.1413 -0.0550
 6772SOL    HW131952   3.312   0.578  13.599 -1.5730  1.2148  2.5326
 6772SOL    HW231953   3.367   0.569  13.735  2.5082  1.6567  0.5321
 6773SOL     OW31954   0.848   1.932  13.338  0.2484 -0.0028  0.0570
 6773SOL    HW131955   0.756   1.957  13.342 -0.0326 -1.3891  2.2541
 6773SOL    HW231956   0.883   1.998  13.279 -2.2500 -0.1919 -1.6383
 6774SOL     OW31957   0.030   4.299   2.259  0.0449  0.5400 -0.4966
 6774SOL    HW131958   0.044   4.208   2.232  2.6122  0.6152  0.5381
 6774SOL    HW231959   0.108   4.332   2.213 -1.1931  0.0920 -2.9149
 6775SOL     OW31960   3.018   1.246  12.222 -0.2276 -0.7067  0.2948
 6775SOL    HW131961   3.109   1.227  12.247 -0.1020 -0.3225  0.1363
 6775SOL    HW231962   3.034   1.330  12.180  0.3084 -0.9467  0.0170
 6776SOL     OW31963   1.867   2.965  16.790 -0.0735  0.4212 -0.8268
 6776SOL    HW131964   1.823   3.014  16.859  3.1014 -0.2894  1.7325
 6776SOL    HW231965   1.826   2.879  16.803  1.5190 -0.3329 -0.8158
 6777SOL     OW31966   1.930   4.005   2.755  0.0630 -0.3994  0.1212
 6777SOL    HW131967   1.919   3.929   2.698 -1.7802 -1.7050  2.2153
 6777SOL    HW231968   1.888   4.064   2.693  0.5778 -0.0352  0.1176
 6778SOL     OW31969   0.164   3.048   9.169  0.3250 -0.3568  0.0215
 6778SOL    HW131970   0.198   3.004   9.247  1.3409  1.2417  0.4824
 6778SOL    HW231971   0.157   3.136   9.207 -1.5185  0.2431 -1.7308
 6779SOL     OW31972   2.940   4.382   6.764  0.0895  0.6398  0.2054
 6779SOL    HW131973   2.971   4.442   6.696 -0.2283  0.9756  0.3593
 6779SOL    HW231974   2.849   4.410   6.767 -0.2897 -0.5765  0.0071
 6780SOL     OW31975   1.618   3.057   6.592 -0.0464  0.2905 -0.0521
 6780SOL    HW131976   1.536   3.085   6.632 -1.2267 -2.5018 -0.5207
 6780SOL    HW231977   1.651   2.988   6.650 -0.3579 -0.4984 -0.8151
 6781SOL     OW31978   1.853   3.935  10.097  0.2685  0.0355  0.1952
 6781SOL    HW131979   1.872   4.029  10.102  1.7963 -0.2430 -0.4012
 6781SOL    HW231980   1.906   3.895  10.166  0.5308  0.2983  0.1487
 6782SOL     OW31981   0.573   2.589   3.005  0.6473 -0.0997  0.7501
 6782SOL    HW131982   0.493   2.539   2.992  1.0248 -0.9769  1.8571
 6782SOL    HW231983   0.533   2.674   3.023 -0.8576 -0.6776  0.1209
 6783SOL     OW31984   0.784   4.537   6.674  0.4496  0.1233  0.1270
 6783SOL    HW131985   0.718   4.555   6.741  1.9555  0.4588  1.4976
 6783SOL    HW231986   0.850   4.506   6.735  0.2231  0.5027  0.5640
 6784SOL     OW31987   4.183   1.121  12.771 -0.1610  0.1574  0.0697
 6784SOL    HW131988   4.166   1.076  12.689 -0.9740 -1.5529  1.1674
 6784SOL    HW231989   4.268   1.083  12.794 -0.1698  0.5305  0.7336
 6785SOL     OW31990   3.937   2.150  10.528  0.5840 -0.2013  0.2315
 6785SOL    HW131991   3.884   2.225  10.501  2.1272 -0.1401 -2.6476
 6785SOL    HW231992   3.873   2.079  10.521  1.6651 -1.2105  0.6702
 6786SOL     OW31993   4.494   2.321  16.776 -0.1941  0.0866 -0.0348
 6786SOL    HW131994   4.458   2.240  16.740  1.0916 -0.5642  0.1629
 6786SOL    HW231995   4.443   2.379  16.720 -1.5155 -2.1956 -1.1790
 6787SOL     OW31996   1.124   2.324  10.008  0.0103  0.4272 -0.8881
 6787SOL    HW131997   1.052   2.274   9.969  0.0449 -0.5739  0.3152
 6787SOL    HW231998   1.197   2.277   9.969  1.0474  0.4368  1.0201
 6788SOL     OW31999   1.737   0.412   7.006  0.1420 -0.6373  0.3535
 6788SOL    HW132000   1.772   0.500   7.020 -0.6428 -0.1947 -0.4245
 6788SOL    HW232001   1.721   0.411   6.911  0.9881 -1.2789  0.2196
 6789SOL     OW32002   4.691   3.239   7.580 -0.3324  0.2572  0.3558
 6789SOL    HW132003   0.008   3.208   7.652  1.5941 -0.7904 -1.5791
 6789SOL    HW232004   4.617   3.178   7.580  1.1160 -1.5129  3.2853
 6790SOL     OW32005   2.550   3.060   5.000  1.1997  0.1375 -0.3537
 6790SOL    HW132006   2.492   2.993   4.964  0.1908  0.5811  0.4280
 6790SOL    HW232007   2.515   3.088   5.085  1.9302  1.2944 -0.4289
 6791SOL     OW32008   0.346   2.577  16.327 -0.1287 -0.1329  0.7742
 6791SOL    HW132009   0.331   2.511  16.395  2.3545 -0.8023  0.6900
 6791SOL    HW232010   0.267   2.630  16.331 -0.6760 -0.7811 -2.0580
 6792SOL     OW32011   1.380   4.568   8.454 -0.4206  0.0250 -0.1142
 6792SOL    HW132012   1.336   4.601   8.532 -1.1701 -1.1429 -0.0439
 6792SOL    HW232013   1.332   4.614   8.385 -2.7924  0.2691  1.7000
 6793SOL     OW32014   2.225   1.436   6.371  0.2914  0.3362 -0.2356
 6793SOL    HW132015   2.284   1.485   6.315  1.7208 -2.3141 -1.0062
 6793SOL    HW232016   2.257   1.459   6.459  2.4510  0.5075 -1.0938
 6794SOL     OW32017   1.660   4.268  12.185 -0.2425  0.2660  0.6129
 6794SOL    HW132018   1.746   4.266  12.143 -0.7987  1.2380 -0.5720
 6794SOL    HW232019   1.628   4.180  12.166 -0.0547  0.3727 -0.2150
 6795SOL     OW32020   3.251   2.035  12.932  0.0434 -0.1482 -0.1140
 6795SOL    HW132021   3.284   1.945  12.927 -1.3543 -0.7569  1.6298
 6795SOL    HW232022   3.311   2.083  12.990  0.6246 -0.1397 -0.7176
 6796SOL     OW32023   3.388   1.362  14.157  0.0602 -0.2596  0.6110
 6796SOL    HW132024   3.479   1.351  14.128 -0.4200  0.5801 -1.2126
 6796SOL    HW232025   3.396   1.319  14.242  0.6997  1.4324  1.4083
 6797SOL     OW32026   1.998   4.255   8.227 -0.2795 -0.1427 -0.3298
 6797SOL    HW132027   2.002   4.224   8.317 -1.4709  0.0398 -0.2129
 6797SOL    HW232028   2.016   4.348   8.235  1.2716 -0.5759  1.0379
 6798SOL     OW32029   2.406   4.692   7.579 -1.1467  0.0952 -0.1083
 6798SOL    HW132030   2.382   0.040   7.610 -0.1651  0.7088 -1.0503
 6798SOL    HW232031   2.491   4.703   7.537 -0.9185  0.7378  0.5286
 6799SOL     OW32032   4.712   4.522  11.094 -0.0714  0.5620  0.0996
 6799SOL    HW132033   4.617   4.531  11.098 -0.3258 -2.0419  0.2098
 6799SOL    HW232034   4.722   4.475  11.011  0.6563  1.3988 -0.2863
 6800SOL     OW32035   2.921   1.998   5.134  0.0158  0.6370 -0.1745
 6800SOL    HW132036   2.969   1.971   5.212 -2.2171 -2.5568  0.0818
 6800SOL    HW232037   2.894   2.088   5.153 -0.6232  0.2606  0.6963
 6801SOL     OW32038   2.307   0.428  11.090  0.3817 -0.6201 -0.5451
 6801SOL    HW132039   2.344   0.349  11.129  2.2938 -1.2816 -3.7682
 6801SOL    HW232040   2.353   0.453  11.010  3.6725 -0.9068  1.2616
 6802SOL     OW32041   3.775   3.150  14.398 -0.2620  0.4428  0.1892
 6802SOL    HW132042   3.841   3.087  14.370  0.3096  1.0942  0.0697
 6802SOL    HW232043   3.762   3.116  14.486  4.0844 -1.7875 -0.0494
 6803SOL     OW32044   1.525   2.477  17.494  0.2569  0.3411  0.7065
 6803SOL    HW132045   1.597   2.487  17.432  0.7077  1.5809  1.4364
 6803SOL    HW232046   1.550   2.393  17.532  0.3287  0.6007  1.2314
 6804SOL     OW32047   3.903   1.094   7.332  0.3348  1.0363 -0.4311
 6804SOL    HW132048   3.910   1.013   7.383 -0.1671  0.2370 -1.6459
 6804SOL    HW232049   3.815   1.081   7.299  0.0750  1.3688  0.1192
 6805SOL     OW32050   1.161   1.016   3.532 -0.3634 -0.0824 -0.5734
 6805SOL    HW132051   1.169   1.095   3.586 -3.0559 -1.4894  1.8958
 6805SOL    HW232052   1.184   0.952   3.598  0.5406  0.1123 -0.7078
 6806SOL     OW32053   2.697   0.948   4.081  0.3529 -0.2968 -0.6673
 6806SOL    HW132054   2.682   0.866   4.128 -1.5582  0.3093 -0.2160
 6806SOL    HW232055   2.766   0.983   4.138 -1.3831  1.0326  0.6129
 6807SOL     OW32056   1.391   0.642   3.645  0.3994 -0.1962 -0.1344
 6807SOL    HW132057   1.402   0.547   3.643 -1.7781 -0.4775  1.7050
 6807SOL    HW232058   1.452   0.681   3.583  0.2848 -0.6490 -0.5284
 6808SOL     OW32059   1.454   2.779   7.676  0.0005  0.5666  0.0518
 6808SOL    HW132060   1.371   2.782   7.629  0.8210  1.2466 -1.3270
 6808SOL    HW232061   1.473   2.872   7.686 -1.3008  0.9641 -1.1164
 6809SOL     OW32062   2.260   4.120   2.389 -0.5774  0.5762 -0.2271
 6809SOL    HW132063   2.265   4.088   2.479 -1.6352  0.6414 -0.1370
 6809SOL    HW232064   2.166   4.100   2.389 -0.3169 -0.6049 -0.4011
 6810SOL     OW32065   1.594   0.758   7.562  0.1445  0.3411 -0.3741
 6810SOL    HW132066   1.648   0.744   7.484 -0.9776 -0.1898 -1.0619
 6810SOL    HW232067   1.642   0.700   7.620 -0.2064  1.1797  0.7513
 6811SOL     OW32068   3.111   2.735  10.908  0.0980 -0.3730  0.4858
 6811SOL    HW132069   3.206   2.731  10.894  0.2870 -0.4348  1.7912
 6811SOL    HW232070   3.092   2.823  10.940  0.9447  0.1862 -0.5464
 6812SOL     OW32071   3.973   3.455   4.894  0.0436 -0.0078 -0.3627
 6812SOL    HW132072   4.046   3.424   4.840  0.7004  1.6899 -0.4761
 6812SOL    HW232073   4.026   3.524   4.935  0.7475 -1.9061  1.9108
 6813SOL     OW32074   3.426   1.005  15.969  0.4398 -0.4675  0.0259
 6813SOL    HW132075   3.486   0.948  15.922  1.2228 -2.0667  2.9502
 6813SOL    HW232076   3.457   1.094  15.953  0.7677 -0.3325  1.3588
 6814SOL     OW32077   0.265   4.706  15.076 -0.9687 -0.1411  0.1752
 6814SOL    HW132078   0.216   0.034  15.027 -0.8129  0.7908  1.2793
 6814SOL    HW232079   0.257   4.632  15.016 -2.8638  0.4611 -0.2969
 6815SOL     OW32080   4.172   3.335   2.978 -0.0095  0.6446  0.4447
 6815SOL    HW132081   4.148   3.254   3.021 -0.5731 -0.3591 -1.7725
 6815SOL    HW232082   4.087   3.350   2.937  0.3234  0.3558 -0.3674
 6816SOL     OW32083   0.083   0.703   2.484  0.4995  0.3332 -0.4159
 6816SOL    HW132084   0.067   0.627   2.540 -0.4401  1.1965  0.4854
 6816SOL    HW232085   0.082   0.777   2.544  1.3029 -0.1746  0.2378
 6817SOL     OW32086   3.421   1.469   3.048  0.2620 -0.4507 -0.1009
 6817SOL    HW132087   3.418   1.451   3.142 -0.3225  1.0222  0.1726
 6817SOL    HW232088   3.392   1.388   3.007 -1.8644 -0.0815  0.6688
 6818SOL     OW32089   3.826   0.710   0.733 -0.5218  0.3404  0.2685
 6818SOL    HW132090   3.865   0.680   0.815 -0.4221  0.6860  0.3511
 6818SOL    HW232091   3.904   0.733   0.681 -1.6029 -1.6420 -2.2115
 6819SOL     OW32092   1.541   2.332   4.053 -0.4568 -0.2857 -0.5113
 6819SOL    HW132093   1.534   2.370   3.966  1.4525  0.6020 -0.2624
 6819SOL    HW232094   1.568   2.408   4.104 -0.4827 -1.3649  1.1197
 6820SOL     OW32095   2.685   2.845   8.467  0.1058 -0.5303 -0.4842
 6820SOL    HW132096   2.773   2.808   8.483  1.2152  1.5219 -1.9330
 6820SOL    HW232097   2.698   2.934   8.435  1.7167 -0.6737 -0.2684
 6821SOL     OW32098   1.325   0.124   2.781 -0.4249  0.1368  0.9106
 6821SOL    HW132099   1.335   0.100   2.689  1.0176 -1.1444  1.4078
 6821SOL    HW232100   1.401   0.083   2.823  0.0892  0.0256 -0.1313
 6822SOL     OW32101   4.534   3.958  11.799 -0.2078  0.4064 -0.2257
 6822SOL    HW132102   4.498   3.904  11.729 -0.6430 -1.2588  1.2916
 6822SOL    HW232103   4.458   4.013  11.816 -0.6279 -0.4658  0.7011
 6823SOL     OW32104   4.061   1.736   6.467 -0.1611  0.1205 -0.3086
 6823SOL    HW132105   4.063   1.791   6.546 -0.8443  1.4536 -1.2179
 6823SOL    HW232106   4.003   1.665   6.495 -0.3799  0.6392  0.5474
 6824SOL     OW32107   3.270   0.074   9.272  0.2954 -0.0180  0.3820
 6824SOL    HW132108   3.341   0.122   9.228  3.4251 -2.5444  2.6606
 6824SOL    HW232109   3.209   0.147   9.282 -1.7347 -1.6703 -0.1594
 6825SOL     OW32110   3.676   1.165   8.877  0.2058 -0.2564 -0.2945
 6825SOL    HW132111   3.750   1.223   8.858 -1.3306  1.5999 -0.6137
 6825SOL    HW232112   3.624   1.218   8.936  1.9504  0.8975  0.2184
 6826SOL     OW32113   0.536   3.390  12.968  0.0824  0.1262 -0.2790
 6826SOL    HW132114   0.483   3.358  12.895 -0.9037 -0.7154  0.7857
 6826SOL    HW232115   0.552   3.307  13.014  1.1773  0.8677  0.6818
 6827SOL     OW32116   3.130   1.825   3.676 -1.3436  0.4613  0.4241
 6827SOL    HW132117   3.213   1.793   3.710 -0.6253  1.2314 -0.5834
 6827SOL    HW232118   3.091   1.858   3.757 -2.7537  0.5910 -0.3013
 6828SOL     OW32119   0.301   1.775   2.495 -0.3581 -0.1728 -0.3522
 6828SOL    HW132120   0.349   1.765   2.577  1.4380 -1.6028 -1.5840
 6828SOL    HW232121   0.250   1.854   2.511 -1.2907 -0.4418 -2.0384
 6829SOL     OW32122   1.556   1.330   3.886 -0.1988 -0.1733  0.0021
 6829SOL    HW132123   1.512   1.394   3.831 -1.7390  0.4213  1.8921
 6829SOL    HW232124   1.491   1.261   3.900 -0.4186 -0.1633 -0.9864
 6830SOL     OW32125   4.398   2.095   3.228  0.5259  0.0083  0.0491
 6830SOL    HW132126   4.429   2.135   3.147  4.0308  0.9992  1.8780
 6830SOL    HW232127   4.435   2.151   3.297  1.8811  0.4998 -1.0783
 6831SOL     OW32128   3.179   2.517   7.808 -0.8428 -0.5204 -0.3585
 6831SOL    HW132129   3.183   2.433   7.854  1.3110  0.6455  1.5520
 6831SOL    HW232130   3.230   2.495   7.730  0.0277 -3.4619  1.0728
 6832SOL     OW32131   3.437   3.403   4.443  0.0960  0.1886 -0.0048
 6832SOL    HW132132   3.452   3.477   4.384 -0.5021  1.5940  1.5916
 6832SOL    HW232133   3.343   3.418   4.438  0.0004 -0.6687 -0.7902
 6833SOL     OW32134   0.230   2.395   1.656 -0.0518  0.0370  0.4740
 6833SOL    HW132135   0.147   2.347   1.661 -1.2428  1.9621 -0.5456
 6833SOL    HW232136   0.290   2.321   1.656  2.2120  1.8686 -2.3078
 6834SOL     OW32137   1.570   3.123   9.545 -0.4592  1.2659  0.3577
 6834SOL    HW132138   1.532   3.038   9.567  1.9861  0.0400 -0.1899
 6834SOL    HW232139   1.579   3.173   9.626  1.2514 -2.1888  2.2807
 6835SOL     OW32140   1.762   3.596   8.004  0.2077  0.1893  0.5652
 6835SOL    HW132141   1.683   3.623   7.957  1.9749  1.5752 -1.6254
 6835SOL    HW232142   1.809   3.679   7.990  3.8958 -2.0890 -0.5501
 6836SOL     OW32143   4.140   4.177   2.639 -0.3176  0.3191  0.2889
 6836SOL    HW132144   4.133   4.201   2.547  0.8119 -0.4215  0.0154
 6836SOL    HW232145   4.177   4.090   2.621  1.3920  0.6547  2.1683
 6837SOL     OW32146   3.766   3.698   9.340 -0.6465 -0.1542 -0.3086
 6837SOL    HW132147   3.749   3.682   9.433  1.4188 -1.9518 -0.2653
 6837SOL    HW232148   3.727   3.782   9.315 -0.0719 -0.6378 -2.7962
 6838SOL     OW32149   1.027   2.139   5.161  0.2959  0.1540 -0.5127
 6838SOL    HW132150   1.080   2.137   5.241  0.1778  1.1990 -0.4050
 6838SOL    HW232151   1.078   2.078   5.107  0.0302  0.1728 -0.7842
 6839SOL     OW32152   0.418   1.081   6.645  0.2585 -0.1897 -0.0171
 6839SOL    HW132153   0.385   1.121   6.564  1.2034  0.8873  0.1208
 6839SOL    HW232154   0.367   1.132   6.708 -3.1413 -0.2409 -2.7761
 6840SOL     OW32155   3.676   0.444  13.908 -0.3035 -0.5655 -0.2703
 6840SOL    HW132156   3.700   0.522  13.858  2.7284 -0.8880  0.6853
 6840SOL    HW232157   3.665   0.375  13.843 -0.1715 -1.7272  0.9563
 6841SOL     OW32158   1.299   2.035   6.242  0.0538 -0.2851 -0.3873
 6841SOL    HW132159   1.277   1.943   6.260  0.3024 -0.2527  0.0574
 6841SOL    HW232160   1.240   2.055   6.169 -0.3890  0.5232  0.1840
 6842SOL     OW32161   3.475   2.708  10.519 -0.3516 -0.4036 -0.2631
 6842SOL    HW132162   3.403   2.768  10.501 -1.8000 -1.6972  1.1987
 6842SOL    HW232163   3.498   2.678  10.431 -2.2695  0.6833 -1.1289
 6843SOL     OW32164   3.966   3.670  14.930 -0.1861 -1.2635  0.2525
 6843SOL    HW132165   3.968   3.593  14.873 -0.7563 -1.5019  0.5562
 6843SOL    HW232166   3.905   3.628  14.992 -2.6789  0.9536 -0.6894
 6844SOL     OW32167   4.042   2.347  16.790  0.2787  0.5297 -0.8887
 6844SOL    HW132168   3.981   2.322  16.860  1.3238  0.0550 -0.1518
 6844SOL    HW232169   3.991   2.321  16.713 -1.0380  0.4597  0.0056
 6845SOL     OW32170   4.112   3.904   8.652  0.4068 -0.2883  0.2341
 6845SOL    HW132171   4.133   3.973   8.714 -1.1118  1.3610 -1.0762
 6845SOL    HW232172   4.026   3.931   8.620 -0.9581 -1.1993  3.1433
 6846SOL     OW32173   1.103   0.110   7.806 -0.5308  0.6989 -0.0987
 6846SOL    HW132174   1.009   0.097   7.817  0.0109 -1.9872  1.4727
 6846SOL    HW232175   1.119   0.173   7.736  2.5165 -0.6939 -0.6473
 6847SOL     OW32176   4.359   3.958   6.515  0.0102 -0.6099 -0.1461
 6847SOL    HW132177   4.345   3.883   6.456 -0.3663  2.2010 -3.6185
 6847SOL    HW232178   4.347   4.037   6.463 -0.4826 -0.4321  0.2351
 6848SOL     OW32179   1.626   3.125   2.961 -0.7338 -0.4744 -0.4383
 6848SOL    HW132180   1.583   3.205   2.932  1.2463  1.4355  1.9174
 6848SOL    HW232181   1.675   3.102   2.882 -3.1163  1.9665 -2.6402
 6849SOL     OW32182   4.166   0.455   3.735  0.0637  0.1495  0.0148
 6849SOL    HW132183   4.085   0.450   3.685 -0.9334  2.7997  1.3288
 6849SOL    HW232184   4.147   0.392   3.805  0.8329  2.5694  2.4412
 6850SOL     OW32185   1.940   0.361   2.311  0.3860 -0.1042 -0.1003
 6850SOL    HW132186   2.013   0.314   2.271 -1.5781 -1.4122 -2.1605
 6850SOL    HW232187   1.902   0.288   2.359 -1.0172  1.6594  1.4263
 6851SOL     OW32188   3.770   3.469   5.201 -0.0100 -1.4903 -0.3017
 6851SOL    HW132189   3.764   3.525   5.279  0.6425 -0.0887 -1.2663
 6851SOL    HW232190   3.718   3.523   5.141  0.3839 -0.0972  0.6093
 6852SOL     OW32191   1.045   1.772   0.671  0.1100 -0.2001 -0.6027
 6852SOL    HW132192   1.078   1.742   0.586  0.1026 -3.6179  0.6231
 6852SOL    HW232193   1.108   1.736   0.733  1.8314 -1.3447 -3.0155
 6853SOL     OW32194   3.828   1.444   2.922  0.2098 -0.2688 -0.0276
 6853SOL    HW132195   3.756   1.480   2.974  0.9593  0.6669  0.3437
 6853SOL    HW232196   3.871   1.529   2.910  0.2380  0.0156  1.9783
 6854SOL     OW32197   1.240   1.251   4.391 -0.1275  0.7305  0.9197
 6854SOL    HW132198   1.210   1.162   4.407  1.1859 -0.0676 -1.0439
 6854SOL    HW232199   1.176   1.307   4.347 -1.0610 -0.7372  0.4312
 6855SOL     OW32200   0.270   1.775   8.730  0.3376  0.5130 -0.0481
 6855SOL    HW132201   0.280   1.776   8.635 -0.0621  0.3167 -0.0937
 6855SOL    HW232202   0.201   1.708   8.732  0.0123  0.8710  0.6631
 6856SOL     OW32203   4.666   1.167   0.671  0.4568  0.4951  0.5378
 6856SOL    HW132204   4.675   1.126   0.585 -0.6578  0.1438  0.5908
 6856SOL    HW232205   4.700   1.256   0.659  0.7938  0.1527 -1.0244
 6857SOL     OW32206   4.108   0.147  12.758  0.1121  0.2225  0.2479
 6857SOL    HW132207   4.110   0.211  12.829  0.8498  1.0990 -0.5781
 6857SOL    HW232208   4.058   0.075  12.797 -0.6626  0.3938 -0.4416
 6858SOL     OW32209   0.784   1.342   2.380  0.0110  0.2125 -0.1716
 6858SOL    HW132210   0.749   1.256   2.401  1.5046 -0.5590 -0.7798
 6858SOL    HW232211   0.781   1.379   2.468  0.9329 -0.7418  0.2547
 6859SOL     OW32212   0.702   1.252   4.195 -1.0017 -0.4927  0.4227
 6859SOL    HW132213   0.693   1.193   4.270  2.1531  0.3784  1.5165
 6859SOL    HW232214   0.613   1.278   4.174 -0.6224  0.9635  0.6023
 6860SOL     OW32215   4.550   4.455   5.871  0.5515 -0.1212  0.2281
 6860SOL    HW132216   4.512   4.420   5.952 -1.9337 -0.5844 -1.1322
 6860SOL    HW232217   4.482   4.516   5.840  0.3878 -0.1281  0.5725
 6861SOL     OW32218   3.071   4.233  14.381  0.0354 -0.6118  0.3153
 6861SOL    HW132219   3.141   4.249  14.445 -0.1517  1.9055 -0.1254
 6861SOL    HW232220   3.125   4.207  14.306  1.5459  1.6925  0.5851
 6862SOL     OW32221   4.603   4.693   3.314  0.1645 -0.2650  0.4130
 6862SOL    HW132222   4.637   4.695   3.403 -1.1746 -1.5184  0.9516
 6862SOL    HW232223   4.636   0.036   3.276  0.5769 -0.2984  0.7024
 6863SOL     OW32224   2.775   1.345   7.736 -0.3598  0.0140  0.4620
 6863SOL    HW132225   2.688   1.310   7.719 -1.2584  1.2776  2.3831
 6863SOL    HW232226   2.792   1.411   7.668  1.0501  0.2237  1.0096
 6864SOL     OW32227   0.589   3.839   6.585 -0.8518  0.1874 -0.5242
 6864SOL    HW132228   0.540   3.867   6.508 -0.5420  0.8291 -0.4873
 6864SOL    HW232229   0.580   3.922   6.632  1.0770  0.1611 -0.1047
 6865SOL     OW32230   3.186   2.468   1.738  0.0878 -0.0563  0.2465
 6865SOL    HW132231   3.167   2.558   1.763 -0.4726 -0.4106  1.1113
 6865SOL    HW232232   3.262   2.480   1.681  0.0340 -1.2016 -0.0698
 6866SOL     OW32233   2.623   2.464   4.630 -0.7010  0.2340 -0.0547
 6866SOL    HW132234   2.613   2.459   4.535  0.9856  2.8195 -0.3775
 6866SOL    HW232235   2.544   2.419   4.659  0.9076 -1.6737  1.4106
 6867SOL     OW32236   4.318   4.637  15.186  0.5996  0.0474  0.1895
 6867SOL    HW132237   4.278   4.550  15.179 -1.8210  1.2295 -0.7237
 6867SOL    HW232238   4.277   4.685  15.114 -1.2792 -0.2749  1.0465
 6868SOL     OW32239   3.019   4.463   5.209 -0.0402 -0.0044  0.0034
 6868SOL    HW132240   2.961   4.468   5.133 -0.8318 -0.6017  0.5659
 6868SOL    HW232241   2.994   4.376   5.239 -0.3419  0.7713  2.0364
 6869SOL     OW32242   2.565   0.176   4.360  1.0962  0.4784 -0.3413
 6869SOL    HW132243   2.480   0.194   4.400  0.6917 -1.2779 -0.4155
 6869SOL    HW232244   2.544   0.136   4.276 -0.2969 -2.1581  1.2794
 6870SOL     OW32245   3.184   1.187   7.096 -0.1705 -0.5330  0.3290
 6870SOL    HW132246   3.226   1.102   7.110 -1.2519 -0.9397  1.1066
 6870SOL    HW232247   3.095   1.167   7.126 -0.0964  2.6868  2.5543
 6871SOL     OW32248   0.752   0.008   5.015  0.4303 -0.1379 -0.8260
 6871SOL    HW132249   0.774   0.048   4.931 -4.0162  0.6667 -1.5891
 6871SOL    HW232250   0.814   0.054   5.072 -1.2325  1.8548 -0.6140
 6872SOL     OW32251   3.534   1.545   0.145 -0.6553  0.3799 -0.0532
 6872SOL    HW132252   3.536   1.638   0.123 -0.7748  0.3271 -0.2832
 6872SOL    HW232253   3.553   1.544   0.239  1.6165  0.6933 -0.4972
 6873SOL     OW32254   3.972   2.320  16.183  0.3032 -0.3725  0.2170
 6873SOL    HW132255   3.960   2.253  16.116  0.7413 -0.5334  0.3001
 6873SOL    HW232256   3.884   2.345  16.213  2.2208  1.6838  4.1466
 6874SOL     OW32257   2.284   2.367  15.926  0.0478  0.1363  0.5585
 6874SOL    HW132258   2.327   2.321  15.854 -0.4463 -0.1827  0.4634
 6874SOL    HW232259   2.329   2.450  15.938  1.2633 -0.5514  0.7374
 6875SOL     OW32260   0.238   3.918  12.259 -0.4016 -0.1572 -0.0896
 6875SOL    HW132261   0.320   3.893  12.301  0.1313  0.7402 -0.5936
 6875SOL    HW232262   0.259   4.002  12.219  1.1455  0.4937  2.1065
 6876SOL     OW32263   2.342   3.434   4.834  0.2612  0.0083 -0.0066
 6876SOL    HW132264   2.282   3.490   4.883 -0.8813 -0.7398 -0.5532
 6876SOL    HW232265   2.309   3.450   4.746 -2.3430  0.0182  0.9598
 6877SOL     OW32266   2.207   0.345  17.088 -0.0180  0.4041  0.4304
 6877SOL    HW132267   2.302   0.330  17.087  0.1744  1.6260  0.5237
 6877SOL    HW232268   2.196   0.400  17.166 -0.0990 -0.8013  1.2672
 6878SOL     OW32269   1.512   4.087   4.336 -0.2999 -0.2805 -0.0450
 6878SOL    HW132270   1.441   4.066   4.275 -0.3392 -0.1033 -0.0611
 6878SOL    HW232271   1.517   4.005   4.385 -1.8593 -0.3362  0.0287
 6879SOL     OW32272   4.649   4.540  12.351  0.3590  0.9494  0.1293
 6879SOL    HW132273   4.591   4.582  12.415  2.3342  2.2327  1.0636
 6879SOL    HW232274   4.662   4.612  12.289 -3.1833  1.2516 -0.2567
 6880SOL     OW32275   4.525   2.593   5.385 -0.1807 -0.3241 -0.4665
 6880SOL    HW132276   4.531   2.569   5.293  1.7051  2.6776 -1.1345
 6880SOL    HW232277   4.469   2.671   5.373 -0.6657 -0.4536  0.9407
 6881SOL     OW32278   2.439   3.846  13.321 -0.5474  0.0079 -0.2785
 6881SOL    HW132279   2.378   3.919  13.316  0.2405  0.5876 -1.4444
 6881SOL    HW232280   2.519   3.898  13.313 -0.0003 -0.5840  1.3638
 6882SOL     OW32281   4.349   0.078   3.051 -0.9341 -0.1599 -0.4498
 6882SOL    HW132282   4.288   0.015   3.090 -0.1288  0.2303  1.4590
 6882SOL    HW232283   4.346   0.053   2.959 -0.7148  0.5977 -0.6673
 6883SOL     OW32284   3.020   2.915  16.088 -0.2747  0.7134  0.5748
 6883SOL    HW132285   3.071   2.834  16.085  0.7975  1.3497  1.1555
 6883SOL    HW232286   2.933   2.879  16.076  0.5021 -1.7219  2.1663
 6884SOL     OW32287   4.683   1.091   5.355  0.4324  0.0730  0.2205
 6884SOL    HW132288   4.637   1.156   5.408  0.4715  1.4218 -1.3837
 6884SOL    HW232289   0.026   1.072   5.402  1.6262  0.1871 -1.7519
 6885SOL     OW32290   4.035   1.336  14.357 -0.4279  0.3202  0.1524
 6885SOL    HW132291   4.076   1.416  14.324 -1.6129  1.5506  1.7015
 6885SOL    HW232292   4.022   1.376  14.443  0.9231 -0.7195  0.8348
 6886SOL     OW32293   2.085   3.610   9.029 -0.1004  0.0480  0.2956
 6886SOL    HW132294   2.000   3.651   9.014 -0.2444  0.5491  2.4777
 6886SOL    HW232295   2.100   3.593   8.936  1.0747 -0.1077  0.5036
 6887SOL     OW32296   3.851   2.271   3.935  1.0001 -0.3396 -0.2425
 6887SOL    HW132297   3.795   2.347   3.951 -0.2683 -1.3679  0.2306
 6887SOL    HW232298   3.938   2.307   3.916  1.3865  0.3548  2.7669
 6888SOL     OW32299   0.734   2.590   8.403 -0.0341  0.4067 -0.1601
 6888SOL    HW132300   0.763   2.523   8.341 -1.3100  0.9236 -1.3076
 6888SOL    HW232301   0.680   2.645   8.346  1.8395  0.7403 -1.6019
 6889SOL     OW32302   2.511   2.799   0.790 -0.3260  0.5683 -0.2120
 6889SOL    HW132303   2.598   2.827   0.818 -0.9037  0.7886  1.3937
 6889SOL    HW232304   2.473   2.772   0.874 -0.4554 -1.7041 -1.0078
 6890SOL     OW32305   3.098   2.515   9.004 -0.0312  0.5546  0.3708
 6890SOL    HW132306   3.184   2.520   8.962 -0.4467 -0.9956 -0.6751
 6890SOL    HW232307   3.106   2.582   9.071 -1.0806  1.4789 -0.4226
 6891SOL     OW32308   0.789   4.373  16.127 -0.1007 -0.1955  0.0556
 6891SOL    HW132309   0.702   4.370  16.086  1.0208  2.3259 -2.4835
 6891SOL    HW232310   0.814   4.463  16.107 -0.9012  0.0269  0.0225
 6892SOL     OW32311   3.643   3.653  10.905 -0.3903  0.8771 -0.3065
 6892SOL    HW132312   3.699   3.721  10.869 -0.8941  0.5527 -1.7254
 6892SOL    HW232313   3.575   3.711  10.938 -2.4246 -2.8076  1.9880
 6893SOL     OW32314   2.502   1.107   7.919 -0.4590 -0.0593  0.1181
 6893SOL    HW132315   2.453   1.026   7.936 -0.7545 -0.0369 -0.6276
 6893SOL    HW232316   2.591   1.073   7.905 -1.6802 -2.5753 -1.6610
 6894SOL     OW32317   4.164   1.055   4.095 -0.5185  0.1794 -0.2134
 6894SOL    HW132318   4.085   1.002   4.100  0.7936 -1.7388  0.2014
 6894SOL    HW232319   4.129   1.144   4.095  0.4391  0.5535  0.7709
 6895SOL     OW32320   0.350   1.787   5.507 -0.0529  0.8606 -0.2150
 6895SOL    HW132321   0.367   1.719   5.440  0.3663  1.4599 -0.7193
 6895SOL    HW232322   0.396   1.862   5.470  2.2399 -0.1581  0.5165
 6896SOL     OW32323   0.859   4.703   6.429 -0.4167  0.2802  0.1827
 6896SOL    HW132324   0.799   0.028   6.469  1.2360  0.6078  2.0980
 6896SOL    HW232325   0.883   4.655   6.508  2.2166  3.2489  1.1775
 6897SOL     OW32326   3.817   0.711   8.905  0.2354 -0.4363 -0.4146
 6897SOL    HW132327   3.779   0.799   8.901 -2.3188 -1.4616  1.6574
 6897SOL    HW232328   3.821   0.692   8.811  1.3917  3.1457 -1.0942
 6898SOL     OW32329   1.184   2.310   2.992  0.0303  0.4827  0.0075
 6898SOL    HW132330   1.140   2.391   2.967 -0.4341  0.0842 -0.4911
 6898SOL    HW232331   1.112   2.247   2.997 -0.2524  0.9725  1.9096
 6899SOL     OW32332   2.300   1.003   2.025  0.5497  0.1336  0.0661
 6899SOL    HW132333   2.288   0.978   2.116  2.0649 -2.5421 -0.4569
 6899SOL    HW232334   2.384   1.044   2.044  0.3433  1.1998 -1.2575
 6900SOL     OW32335   3.703   1.347   6.978 -0.4985 -0.2925  0.4038
 6900SOL    HW132336   3.692   1.426   7.030 -1.0887  0.7003 -1.2027
 6900SOL    HW232337   3.774   1.308   7.028 -1.5955 -1.8623  0.7520
 6901SOL     OW32338   2.373   2.404   8.041 -0.0597  0.0463 -0.0904
 6901SOL    HW132339   2.358   2.498   8.047  1.0657  0.0849  2.4217
 6901SOL    HW232340   2.284   2.372   8.029 -0.2443  0.7169 -0.5072
 6902SOL     OW32341   3.436   2.597   5.436 -0.1373  0.1030  0.1251
 6902SOL    HW132342   3.475   2.538   5.501 -1.0532 -2.5690 -1.7700
 6902SOL    HW232343   3.455   2.547   5.356  0.2353 -0.1557  0.3697
 6903SOL     OW32344   2.824   2.024   5.820 -0.1419  0.2573 -0.3469
 6903SOL    HW132345   2.767   2.006   5.894  0.1422  0.2029 -0.1390
 6903SOL    HW232346   2.794   1.968   5.749  1.3896  0.6994 -1.3639
 6904SOL     OW32347   0.201   0.582   1.086  0.1297 -0.0311  0.0557
 6904SOL    HW132348   0.161   0.495   1.076  0.4859 -0.0110 -1.6626
 6904SOL    HW232349   0.145   0.631   1.025 -3.9548 -1.4732  2.6323
 6905SOL     OW32350   4.640   1.823   7.507  0.1170  0.2474  0.9692
 6905SOL    HW132351   4.728   1.831   7.545  0.8281 -0.8028 -0.4595
 6905SOL    HW232352   4.659   1.827   7.413  1.6020  1.6849  1.3466
 6906SOL     OW32353   2.754   1.257   4.854  0.1190 -0.3670 -0.4869
 6906SOL    HW132354   2.738   1.288   4.765  0.3933 -0.1033 -0.4448
 6906SOL    HW232355   2.790   1.340   4.885 -0.8350 -0.6758  1.4594
 6907SOL     OW32356   0.090   4.063   8.079 -0.0736  0.3526  0.3687
 6907SOL    HW132357   0.058   3.973   8.076 -1.7085  0.9704 -0.3997
 6907SOL    HW232358   0.054   4.097   7.997  1.3038  0.3350 -0.2555
 6908SOL     OW32359   0.163   2.091   8.043 -0.1824  0.5578  1.1621
 6908SOL    HW132360   0.250   2.054   8.059  0.1216  0.1234 -1.4590
 6908SOL    HW232361   0.184   2.168   7.991  2.4250 -0.1359  1.1725
 6909SOL     OW32362   1.183   3.897   2.983  0.1815 -0.3218 -0.2154
 6909SOL    HW132363   1.203   3.989   2.965 -0.0436 -0.3214 -0.4540
 6909SOL    HW232364   1.109   3.905   3.042 -2.6085  0.0080 -3.7617
 6910SOL     OW32365   0.210   4.186   5.452 -0.5057  0.0186  0.1541
 6910SOL    HW132366   0.264   4.209   5.528 -0.9161  2.4118 -0.2653
 6910SOL    HW232367   0.117   4.204   5.471  0.0368  1.0416  1.9011
 6911SOL     OW32368   3.525   3.405  16.396  0.2771 -0.2768 -0.0168
 6911SOL    HW132369   3.442   3.443  16.424  0.1004  0.2062 -1.1868
 6911SOL    HW232370   3.520   3.312  16.415  0.3666 -0.3101 -0.1543
 6912SOL     OW32371   1.411   3.617   9.288 -0.7287 -0.3167  0.2378
 6912SOL    HW132372   1.448   3.574   9.365  1.1763 -0.9613 -1.0439
 6912SOL    HW232373   1.323   3.642   9.318 -0.8511  0.6760 -0.9099
 6913SOL     OW32374   0.196   0.504   4.102 -0.1455  0.1138 -0.1153
 6913SOL    HW132375   0.133   0.503   4.030  2.4538  1.7901 -2.4586
 6913SOL    HW232376   0.276   0.498   4.049 -0.7537 -0.2769 -0.9939
 6914SOL     OW32377   4.400   3.265   5.882  0.3736  0.8142 -0.0127
 6914SOL    HW132378   4.344   3.335   5.849 -1.6023 -0.8616 -0.2475
 6914SOL    HW232379   4.338   3.212   5.933  0.5947  0.1882 -0.3847
 6915SOL     OW32380   0.892   1.607   5.806 -0.3420  0.1536 -0.0258
 6915SOL    HW132381   0.910   1.577   5.894  0.2141  0.2439 -0.1124
 6915SOL    HW232382   0.804   1.577   5.783  0.4443 -1.7068 -0.5928
 6916SOL     OW32383   3.233   4.609  16.560 -0.5386  0.2771  0.1094
 6916SOL    HW132384   3.256   4.521  16.531 -0.8996 -0.2499  1.4278
 6916SOL    HW232385   3.186   4.636  16.481  0.6481 -0.1890 -0.7523
 6917SOL     OW32386   1.133   0.994   4.425  0.1754  0.1576  0.3366
 6917SOL    HW132387   1.082   0.953   4.494  2.1502 -0.1792  1.5812
 6917SOL    HW232388   1.217   0.949   4.434 -0.3811 -1.0499 -0.4361
 6918SOL     OW32389   1.071   0.276   5.274  0.5215  0.0310  0.2565
 6918SOL    HW132390   1.021   0.331   5.334 -0.8713 -0.6620 -0.2603
 6918SOL    HW232391   1.155   0.262   5.318  0.8121  0.7353 -0.0779
 6919SOL     OW32392   0.021   2.256   1.660 -0.0409 -0.0751 -0.3878
 6919SOL    HW132393   0.032   2.269   1.754 -1.5910 -2.6843  0.1605
 6919SOL    HW232394   0.043   2.166   1.639  0.7016 -0.3120  1.3974
 6920SOL     OW32395   0.340   3.241   8.197 -0.0938  0.0084 -0.5220
 6920SOL    HW132396   0.287   3.190   8.259  2.0666 -2.2202 -0.4771
 6920SOL    HW232397   0.412   3.260   8.258  0.3384 -0.7563 -0.8042
 6921SOL     OW32398   2.380   4.478   1.735  0.3201 -0.0424  0.5466
 6921SOL    HW132399   2.440   4.544   1.770  1.4890 -1.3912  1.1006
 6921SOL    HW232400   2.430   4.431   1.668  0.9961  2.1293 -0.4842
 6922SOL     OW32401   3.044   4.650  14.281  0.3097 -0.5413 -0.1080
 6922SOL    HW132402   2.992   4.569  14.284  1.7087 -1.5750 -3.7452
 6922SOL    HW232403   3.116   4.622  14.225  1.2375 -0.6528  1.1237
 6923SOL     OW32404   2.546   4.296   8.540 -0.7863 -0.7496 -0.4609
 6923SOL    HW132405   2.560   4.268   8.630 -1.6327 -0.1898 -0.1506
 6923SOL    HW232406   2.460   4.337   8.545 -0.2805  0.4633 -1.6453
 6924SOL     OW32407   3.416   2.020   3.132  0.1267 -0.2951  0.1125
 6924SOL    HW132408   3.510   2.029   3.147  0.1226 -1.2950  0.7628
 6924SOL    HW232409   3.402   1.933   3.170 -1.4389 -1.0123 -2.0971
 6925SOL     OW32410   0.050   2.991   2.456  0.5227  0.3443 -0.0674
 6925SOL    HW132411   0.126   2.936   2.437  0.3221  0.1021 -0.1776
 6925SOL    HW232412   4.727   2.964   2.387  2.2971  0.2302 -1.5891
 6926SOL     OW32413   0.996   2.512   2.507 -0.0320 -0.4197 -0.3456
 6926SOL    HW132414   0.979   2.441   2.569 -0.2581  0.8765  1.0920
 6926SOL    HW232415   0.915   2.511   2.457 -0.6787  0.2122  0.6661
 6927SOL     OW32416   1.098   1.139  12.362 -0.3415  0.2012  0.7901
 6927SOL    HW132417   1.157   1.177  12.427 -0.6652  3.5871 -0.8813
 6927SOL    HW232418   1.075   1.209  12.302  0.2523  0.5685  0.9941
 6928SOL     OW32419   1.117   0.829  16.346 -0.3316 -0.1499  0.3258
 6928SOL    HW132420   1.146   0.841  16.255 -2.1383 -0.5617 -0.3081
 6928SOL    HW232421   1.061   0.906  16.354  0.4965  0.7259 -2.0672
 6929SOL     OW32422   4.327   0.709   1.170  0.1317 -0.2246 -0.2676
 6929SOL    HW132423   4.279   0.774   1.118  0.9313  0.7122  0.1581
 6929SOL    HW232424   4.333   0.749   1.257 -0.5891  0.2747 -0.4422
 6930SOL     OW32425   2.682   1.902   2.589  0.4017 -0.2093  0.0491
 6930SOL    HW132426   2.710   1.881   2.678  0.9565  0.6191  0.0666
 6930SOL    HW232427   2.597   1.943   2.608 -0.0977 -0.8220 -0.8403
 6931SOL     OW32428   1.348   4.692  11.522  0.0007  0.6816  0.1426
 6931SOL    HW132429   1.315   4.617  11.572 -0.4160 -0.1370 -1.3596
 6931SOL    HW232430   1.399   0.008  11.582 -0.8825  1.7392 -0.0581
 6932SOL     OW32431   1.129   3.049   5.692 -0.6338  0.0555 -0.4032
 6932SOL    HW132432   1.124   3.059   5.597 -0.0235  0.9173 -0.3383
 6932SOL    HW232433   1.081   2.968   5.712  2.6032 -1.5986  0.7240
 6933SOL     OW32434   4.662   1.027   5.813 -0.1162 -0.2553 -0.1364
 6933SOL    HW132435   4.574   1.045   5.845 -0.1287 -0.0849 -0.2664
 6933SOL    HW232436   4.655   0.936   5.786  3.8477 -1.0194  1.4247
 6934SOL     OW32437   2.828   2.230   4.923 -0.1758 -0.2112 -0.0661
 6934SOL    HW132438   2.746   2.181   4.931 -0.1628  0.0084  1.3672
 6934SOL    HW232439   2.825   2.267   5.011  1.8538  1.6137 -0.7536
 6935SOL     OW32440   4.563   3.580   3.498 -0.1246 -0.6405  0.2798
 6935SOL    HW132441   4.619   3.590   3.421  0.8011 -1.7809  0.8104
 6935SOL    HW232442   4.485   3.576   3.443 -0.7274  0.3121  1.0682
 6936SOL     OW32443   4.552   3.264   2.488  0.0722  0.2288  0.6165
 6936SOL    HW132444   4.557   3.187   2.545  1.9969  2.3164  3.2143
 6936SOL    HW232445   4.477   3.237   2.434 -0.5161 -0.4149  1.7594
 6937SOL     OW32446   4.415   1.010   3.351  0.1297 -0.0951  0.3281
 6937SOL    HW132447   4.483   1.070   3.382  1.9052 -1.7333 -0.4067
 6937SOL    HW232448   4.352   1.009   3.423 -1.0719 -1.0742 -0.7413
 6938SOL     OW32449   2.403   3.255   6.910  0.1395  0.5312 -0.1702
 6938SOL    HW132450   2.490   3.219   6.926 -0.5507 -0.2016  1.8081
 6938SOL    HW232451   2.364   3.262   6.997 -1.4085 -2.3220 -0.6524
 6939SOL     OW32452   1.142   2.912  15.187 -0.3883 -0.3924  0.1766
 6939SOL    HW132453   1.219   2.881  15.235  0.7413  3.7500  1.0771
 6939SOL    HW232454   1.151   3.007  15.194 -2.7268 -0.0003 -2.0191
 6940SOL     OW32455   3.517   0.569   0.645 -0.5623  0.1773  0.3101
 6940SOL    HW132456   3.596   0.622   0.647 -0.0976 -0.5366  0.7219
 6940SOL    HW232457   3.527   0.517   0.565 -0.6261  0.9253 -0.1870
 6941SOL     OW32458   0.998   2.770  13.112  0.2585 -0.1111  0.3866
 6941SOL    HW132459   1.087   2.802  13.098 -0.3830  1.9467  1.0352
 6941SOL    HW232460   0.980   2.721  13.032  1.2482 -0.6512  0.4975
 6942SOL     OW32461   1.717   2.920   2.456 -0.9733 -0.3621 -0.0563
 6942SOL    HW132462   1.715   2.979   2.531  0.9979  1.2770 -1.3042
 6942SOL    HW232463   1.639   2.868   2.475 -1.9089  1.3008  0.6468
 6943SOL     OW32464   1.932   0.643  13.257  0.6947 -0.3475  0.1460
 6943SOL    HW132465   2.000   0.704  13.286  0.6096 -0.1282 -0.1130
 6943SOL    HW232466   1.869   0.668  13.325  0.1971 -0.5235 -0.2583
 6944SOL     OW32467   2.016   2.951  17.457  0.0412  0.1698  0.1407
 6944SOL    HW132468   2.102   2.942  17.416 -0.6458 -2.4007 -0.8076
 6944SOL    HW232469   2.045   2.965  17.547  0.5540 -1.2603  0.2082
 6945SOL     OW32470   3.277   3.367   1.861  0.4582  0.0151 -0.8198
 6945SOL    HW132471   3.276   3.457   1.894  0.7371 -0.1168 -0.4449
 6945SOL    HW232472   3.360   3.362   1.815 -0.0058 -0.6041 -1.5915
 6946SOL     OW32473   3.294   3.076   5.933  0.0915 -0.1653 -0.1524
 6946SOL    HW132474   3.244   3.037   5.861  2.7974 -1.0565 -1.5482
 6946SOL    HW232475   3.281   3.170   5.922  0.4644 -0.1274 -0.2454
 6947SOL     OW32476   4.514   2.522   3.647  0.2995  0.0642 -0.1177
 6947SOL    HW132477   4.597   2.533   3.602 -0.1644  1.5194 -0.6233
 6947SOL    HW232478   4.494   2.431   3.625  0.4529  0.2834 -1.1563
 6948SOL     OW32479   3.109   4.531   8.446  0.5060 -0.6442  0.7992
 6948SOL    HW132480   3.140   4.460   8.502  0.7266  0.2265  1.8005
 6948SOL    HW232481   3.058   4.581   8.510  2.0156  1.8823  0.0231
 6949SOL     OW32482   0.870   0.305   6.554  0.1253 -0.1054  0.0209
 6949SOL    HW132483   0.840   0.396   6.558  1.0445  0.2776 -2.2330
 6949SOL    HW232484   0.793   0.254   6.529 -0.2287 -0.0771  1.0184
 6950SOL     OW32485   1.361   0.133   3.127  0.0498 -0.2178 -0.0072
 6950SOL    HW132486   1.431   0.131   3.192 -0.6247  4.2036  0.8496
 6950SOL    HW232487   1.296   0.184   3.176  0.6785  1.4296 -0.9012
 6951SOL     OW32488   4.419   4.190  17.550  0.1109 -0.1845  0.0571
 6951SOL    HW132489   4.473   4.178  17.628  2.1297  1.6729 -1.0449
 6951SOL    HW232490   4.455   4.126  17.489 -0.3139  0.4187 -0.8307
 6952SOL     OW32491   3.625   0.130   4.563 -0.6017 -0.8246  0.7174
 6952SOL    HW132492   3.572   0.070   4.510 -1.4369  2.0172 -1.5983
 6952SOL    HW232493   3.552   0.161   4.617 -0.7266 -1.1711  0.7524
 6953SOL     OW32494   1.818   0.175   4.167 -0.3443  0.0542 -0.0841
 6953SOL    HW132495   1.869   0.238   4.116  2.0853 -0.0225  2.2460
 6953SOL    HW232496   1.816   0.215   4.254  0.0436 -0.1706  0.0310
 6954SOL     OW32497   4.688   1.140   2.862 -0.0088  0.1752  0.3369
 6954SOL    HW132498   4.725   1.105   2.942 -1.5060 -1.3156  0.3823
 6954SOL    HW232499   4.638   1.071   2.817 -1.1311  0.3672  1.2738
 6955SOL     OW32500   1.530   2.587  15.686 -0.2545 -0.1339 -0.3875
 6955SOL    HW132501   1.595   2.576  15.616 -0.1726  1.3939 -0.5506
 6955SOL    HW232502   1.527   2.683  15.685  0.8549 -0.1037 -2.3889
 6956SOL     OW32503   0.076   4.070   2.073  0.0804  0.5222  0.3014
 6956SOL    HW132504   0.118   4.096   1.991 -0.6264  1.8003  0.3432
 6956SOL    HW232505   0.121   3.987   2.088 -0.5213 -0.1890 -1.8694
 6957SOL     OW32506   0.119   3.080   5.995 -0.2229 -0.5786 -0.0471
 6957SOL    HW132507   0.057   3.129   5.941  1.2951  2.9010  1.3576
 6957SOL    HW232508   0.173   3.030   5.934 -2.7588 -3.0507 -0.2763
 6958SOL     OW32509   3.408   1.947   6.826  0.5605 -0.4001  0.2191
 6958SOL    HW132510   3.434   2.028   6.781 -0.3409 -0.5002 -0.4961
 6958SOL    HW232511   3.332   1.983   6.871  0.3990 -0.6682  0.1624
 6959SOL     OW32512   3.964   3.633   3.254 -0.1240 -0.6619 -0.0088
 6959SOL    HW132513   3.944   3.726   3.254  1.5122 -0.3215 -0.8828
 6959SOL    HW232514   4.045   3.636   3.203 -0.5866 -4.1433 -0.9995
 6960SOL     OW32515   1.351   1.211  11.583 -0.5097 -0.1002 -0.4042
 6960SOL    HW132516   1.427   1.171  11.540 -1.1671 -2.1178  0.3258
 6960SOL    HW232517   1.277   1.183  11.528 -1.3513  1.0011  0.1650
 6961SOL     OW32518   0.447   4.420   9.031  0.2671 -0.1678  0.0719
 6961SOL    HW132519   0.420   4.328   9.031  1.4369 -0.4890 -3.1185
 6961SOL    HW232520   0.388   4.465   9.092  0.2455  0.4409 -0.3984
 6962SOL     OW32521   1.621   1.522   6.480  0.5198 -0.4102  0.0725
 6962SOL    HW132522   1.655   1.494   6.565  0.2268  0.6758  0.5531
 6962SOL    HW232523   1.572   1.602   6.501  0.2939 -0.4490 -0.3062
 6963SOL     OW32524   2.906   3.376   6.652 -0.2210  0.3593  0.0542
 6963SOL    HW132525   2.950   3.447   6.605 -0.2954  1.1056  1.1335
 6963SOL    HW232526   2.866   3.327   6.580  0.0683 -1.9197  1.4542
 6964SOL     OW32527   1.400   3.205   6.132  0.7761  0.2738 -0.0871
 6964SOL    HW132528   1.413   3.146   6.058  0.4725  1.0973 -0.8038
 6964SOL    HW232529   1.469   3.180   6.193  1.5966  2.9810  0.0904
 6965SOL     OW32530   0.124   3.757   5.119  0.0214 -0.6714  0.5181
 6965SOL    HW132531   0.064   3.804   5.061  0.3320 -1.5808 -0.5420
 6965SOL    HW232532   0.109   3.804   5.201  1.1926  1.0139 -0.2274
 6966SOL     OW32533   4.482   0.524  16.409 -0.2989  0.5322 -0.1511
 6966SOL    HW132534   4.421   0.549  16.339 -0.3742  0.7613 -0.0029
 6966SOL    HW232535   4.561   0.568  16.376  0.4120 -2.1785 -2.1075
 6967SOL     OW32536   1.471   1.290  17.020  0.4418  0.2502 -0.2969
 6967SOL    HW132537   1.497   1.321  16.934 -0.7018  2.2468  0.0598
 6967SOL    HW232538   1.470   1.197  16.998 -1.3502 -0.1210  1.2759
 6968SOL     OW32539   3.049   0.851  15.111 -0.6596 -0.0168  0.0067
 6968SOL    HW132540   3.065   0.855  15.205 -0.0072  0.9137 -0.1377
 6968SOL    HW232541   3.052   0.758  15.089 -2.3956  0.3863 -1.8831
 6969SOL     OW32542   2.604   4.389   6.894  0.1923  0.0367  0.3448
 6969SOL    HW132543   2.554   4.414   6.971 -1.7713 -2.8880  0.0599
 6969SOL    HW232544   2.678   4.339   6.928  0.5514 -0.2002 -0.7736
 6970SOL     OW32545   2.519   0.219   9.023 -0.0434 -0.6637 -0.2694
 6970SOL    HW132546   2.583   0.149   9.038 -1.5777 -1.7005  1.4325
 6970SOL    HW232547   2.433   0.180   9.037  0.0432  0.4392  3.1050
 6971SOL     OW32548   3.152   0.176  14.397 -0.6685 -0.1564  0.1774
 6971SOL    HW132549   3.161   0.133  14.482 -1.4361  2.2137  1.4469
 6971SOL    HW232550   3.132   0.101  14.341  0.0935  1.6529 -2.5295
 6972SOL     OW32551   3.191   1.288   7.776  0.4161 -0.1510 -0.2262
 6972SOL    HW132552   3.210   1.330   7.860  0.5244  1.1495 -0.9025
 6972SOL    HW232553   3.205   1.370   7.729 -2.1612 -0.1558 -0.9726
 6973SOL     OW32554   4.107   2.730  14.638  0.3501  0.0079  0.1868
 6973SOL    HW132555   4.179   2.792  14.649  0.6858 -0.3879  0.2180
 6973SOL    HW232556   4.125   2.668  14.709 -3.0732  3.1385  3.7873
 6974SOL     OW32557   0.500   1.268   8.185 -0.2548 -0.2181  0.1825
 6974SOL    HW132558   0.439   1.250   8.257  0.4135  3.0680  1.5458
 6974SOL    HW232559   0.569   1.319   8.227 -0.9473 -0.2613  1.3901
 6975SOL     OW32560   3.676   4.348   2.045  0.2256 -0.5878 -0.3474
 6975SOL    HW132561   3.670   4.406   1.970 -1.3881 -2.7957 -1.9423
 6975SOL    HW232562   3.771   4.334   2.052  0.7422  2.8452 -0.6481
 6976SOL     OW32563   1.856   3.862   7.953 -0.0854 -0.1089 -0.3628
 6976SOL    HW132564   1.912   3.932   7.987  0.7955  0.0380 -2.1136
 6976SOL    HW232565   1.925   3.798   7.941 -0.3676 -0.5758  0.4989
 6977SOL     OW32566   2.370   2.574   4.905  0.6187  0.0770 -0.2781
 6977SOL    HW132567   2.458   2.552   4.937  0.8187  0.2154 -0.7386
 6977SOL    HW232568   2.331   2.487   4.894 -1.5785  1.2076 -1.3034
 6978SOL     OW32569   4.115   3.938   5.851  0.3839 -0.6383 -0.3998
 6978SOL    HW132570   4.067   3.964   5.773 -1.3726  0.0790  0.9290
 6978SOL    HW232571   4.057   3.868   5.883  0.8784 -0.8205  0.1095
 6979SOL     OW32572   0.442   2.769   2.764  0.0466  0.5280 -0.1907
 6979SOL    HW132573   0.475   2.786   2.852  0.1475  0.1354 -0.1553
 6979SOL    HW232574   0.514   2.724   2.719 -1.2228 -1.4703 -0.2350
 6980SOL     OW32575   4.019   2.691   8.036 -0.1159 -0.1046  0.0019
 6980SOL    HW132576   3.990   2.681   8.126  1.4342  0.8767  0.5980
 6980SOL    HW232577   4.113   2.699   8.045 -0.3913  0.6553  2.1498
 6981SOL     OW32578   3.016   0.622   4.789 -0.2897  0.2185  0.4276
 6981SOL    HW132579   2.969   0.592   4.866 -0.5399 -2.4758 -0.7509
 6981SOL    HW232580   3.061   0.538   4.775 -2.4030 -0.7914 -0.3771
 6982SOL     OW32581   2.570   2.902   6.789 -0.1125  0.0360 -0.4673
 6982SOL    HW132582   2.493   2.889   6.844  2.2666  0.1668  2.8703
 6982SOL    HW232583   2.608   2.976   6.836 -1.8612 -0.5565  1.8827
 6983SOL     OW32584   3.180   1.002   0.463  0.1039 -0.0346 -0.2212
 6983SOL    HW132585   3.109   0.942   0.484  1.2632 -0.4616  2.5165
 6983SOL    HW232586   3.136   1.068   0.409 -1.3796  0.1177  1.1807
 6984SOL     OW32587   0.283   0.412   7.387 -0.2239  0.4313  0.0147
 6984SOL    HW132588   0.331   0.355   7.448  3.4269  2.6380 -0.7470
 6984SOL    HW232589   0.292   0.499   7.425  1.4765  0.8053 -1.2245
 6985SOL     OW32590   2.599   1.555   8.208  0.0223 -0.5575  0.3617
 6985SOL    HW132591   2.547   1.538   8.286 -1.3846 -0.5969 -0.5933
 6985SOL    HW232592   2.615   1.648   8.222  0.8816 -0.5362 -0.8022
 6986SOL     OW32593   4.042   4.593  13.244 -0.4666  0.0399  0.0066
 6986SOL    HW132594   4.051   4.520  13.305  0.7731 -0.0314 -0.2708
 6986SOL    HW232595   3.949   4.607  13.261 -0.7492 -1.5075 -0.2802
 6987SOL     OW32596   1.520   1.173   5.689  0.1970  0.0905  0.4402
 6987SOL    HW132597   1.560   1.170   5.777  0.8747 -1.0798  0.0907
 6987SOL    HW232598   1.588   1.117   5.650 -1.3374 -0.6507 -1.1448
 6988SOL     OW32599   0.943   2.666   4.547  0.5412 -0.1349  0.2384
 6988SOL    HW132600   0.863   2.680   4.497 -0.7483  0.1091  2.3912
 6988SOL    HW232601   0.923   2.685   4.639 -0.5216  0.4212 -0.1096
 6989SOL     OW32602   0.735   3.259   4.142 -0.0145 -0.1832  0.0901
 6989SOL    HW132603   0.767   3.171   4.156 -0.0653  0.1278  2.2082
 6989SOL    HW232604   0.816   3.306   4.121  1.3177 -2.0634  1.0588
 6990SOL     OW32605   2.358   0.879   8.015 -0.1117 -0.0016 -0.2751
 6990SOL    HW132606   2.413   0.804   7.992 -0.4915  0.0291 -1.2908
 6990SOL    HW232607   2.277   0.850   7.974  0.1178  0.5471 -1.1218
 6991SOL     OW32608   3.278   2.541   0.055 -0.1986  0.4902  0.0651
 6991SOL    HW132609   3.288   2.457   0.009 -1.3182 -0.7391  2.0463
 6991SOL    HW232610   3.244   2.589  17.731 -2.0363 -1.8263 -0.5951
 6992SOL     OW32611   2.467   3.154   0.967 -0.2307  0.1839  0.5679
 6992SOL    HW132612   2.459   3.249   0.976  1.2721  0.4017 -0.3680
 6992SOL    HW232613   2.561   3.137   0.979 -0.4915 -1.6460 -0.0122
 6993SOL     OW32614   0.604   1.954  14.368 -0.2161 -0.1991 -0.4390
 6993SOL    HW132615   0.531   2.006  14.332  0.7770  1.0780 -0.6108
 6993SOL    HW232616   0.574   1.871  14.331 -0.7951  0.4517 -1.4629
 6994SOL     OW32617   3.463   2.144   7.782  0.0592  0.5727 -0.2688
 6994SOL    HW132618   3.477   2.068   7.839 -2.6887  0.6779  0.5445
 6994SOL    HW232619   3.423   2.099   7.707 -0.3744 -1.0621  0.9290
 6995SOL     OW32620   3.871   2.876   9.152  0.0974 -0.2455  0.5565
 6995SOL    HW132621   3.816   2.952   9.135 -1.4006 -1.2230  0.9739
 6995SOL    HW232622   3.941   2.908   9.209 -1.0839 -1.3891  2.6401
 6996SOL     OW32623   0.402   1.639   5.013  0.6632  0.2009  0.2762
 6996SOL    HW132624   0.422   1.604   4.927  0.1183 -2.4312  1.2059
 6996SOL    HW232625   0.380   1.557   5.058  0.2486  0.9484  1.4557
 6997SOL     OW32626   0.090   3.723  11.081  0.1531 -0.3223  0.2241
 6997SOL    HW132627   0.026   3.786  11.048  1.8142  1.1795 -0.1579
 6997SOL    HW232628   0.137   3.782  11.141 -1.9296  0.7277  0.8382
 6998SOL     OW32629   0.569   3.878  14.670  0.3609 -0.3391  0.9833
 6998SOL    HW132630   0.619   3.946  14.626  1.7591  0.0551  3.1766
 6998SOL    HW232631   0.533   3.838  14.591 -0.7135  0.4388  1.0723
 6999SOL     OW32632   2.270   4.081   4.070 -0.4905  0.4729  0.8411
 6999SOL    HW132633   2.196   4.023   4.050 -0.1546  1.0421 -1.9588
 6999SOL    HW232634   2.332   4.011   4.052 -0.9715  0.7308 -1.8098
 7000SOL     OW32635   0.117   0.089  12.043 -0.1890 -0.9377  0.2684
 7000SOL    HW132636   0.024   0.087  12.065  0.2290 -2.5501  1.8767
 7000SOL    HW232637   0.148   0.015  12.095  2.0910 -0.5964 -0.6040
 7001SOL     OW32638   1.246   2.532   6.387  0.0387  0.2313  0.1474
 7001SOL    HW132639   1.295   2.584   6.451 -0.3572  0.2462  0.4434
 7001SOL    HW232640   1.187   2.595   6.345  0.9254  0.0676 -1.3434
 7002SOL     OW32641   0.444   0.050   3.908  0.3621 -0.1460 -0.0173
 7002SOL    HW132642   0.364   0.004   3.936  0.6667 -0.2434  0.6994
 7002SOL    HW232643   0.446   0.018   3.818 -0.8310 -1.0189  0.2537
 7003SOL     OW32644   1.558   0.195  10.772 -0.1510  0.2657  0.4879
 7003SOL    HW132645   1.476   0.149  10.757  0.2487 -0.9172  1.8998
 7003SOL    HW232646   1.581   0.173  10.863 -0.0888  1.0777  0.6752
 7004SOL     OW32647   4.067   3.263   0.706  0.3166 -0.0789  0.0589
 7004SOL    HW132648   4.004   3.215   0.651 -0.3254  2.2863 -1.2512
 7004SOL    HW232649   4.086   3.189   0.763 -0.3525  0.6660  1.2384
 7005SOL     OW32650   3.010   4.271   6.126 -0.3227  0.0447  0.3703
 7005SOL    HW132651   2.977   4.215   6.056 -3.1708 -1.0726  2.6007
 7005SOL    HW232652   3.080   4.224   6.171  1.7371  3.2527  0.5088
 7006SOL     OW32653   2.189   2.338   4.837 -0.2374 -0.5095  0.0107
 7006SOL    HW132654   2.114   2.395   4.816  1.1207  1.1732 -0.3018
 7006SOL    HW232655   2.175   2.343   4.931  0.2425 -1.4188  0.1282
 7007SOL     OW32656   1.464   1.463   8.149  0.5359  0.1020 -0.0257
 7007SOL    HW132657   1.452   1.533   8.213  1.8982 -0.2737  0.6414
 7007SOL    HW232658   1.376   1.426   8.155  0.4572 -0.1457 -2.4028
 7008SOL     OW32659   0.501   1.917  14.644  0.0545  0.1380  0.1366
 7008SOL    HW132660   0.416   1.961  14.640 -0.5646 -0.9813  1.0858
 7008SOL    HW232661   0.525   1.910  14.551  0.7178 -0.2904  0.3395
 7009SOL     OW32662   3.669   2.876   4.842 -0.7081  0.1259 -0.1640
 7009SOL    HW132663   3.676   2.941   4.772  0.3929 -0.0168 -0.1808
 7009SOL    HW232664   3.666   2.937   4.915  0.6221  1.2520 -1.0564
 7010SOL     OW32665   1.504   3.444  10.998  0.0956  0.0822 -0.7793
 7010SOL    HW132666   1.464   3.531  10.999  0.5343  0.2814 -0.2475
 7010SOL    HW232667   1.509   3.426  11.092 -1.0678  0.4274 -0.6562
 7011SOL     OW32668   3.358   0.668   5.403 -0.5392  0.0030 -0.1217
 7011SOL    HW132669   3.284   0.727   5.416  0.9903  1.8475  0.2685
 7011SOL    HW232670   3.436   0.718   5.379 -0.9227  0.7323  0.1446
 7012SOL     OW32671   0.988   3.379   1.609 -0.1909 -0.0669 -0.3221
 7012SOL    HW132672   0.927   3.453   1.611  1.0858  0.9911 -0.8339
 7012SOL    HW232673   0.992   3.362   1.515  0.5280 -0.9839 -0.1205
 7013SOL     OW32674   0.861   2.129  13.786  1.1929 -0.2385  0.4536
 7013SOL    HW132675   0.956   2.118  13.795  1.3164 -0.2872 -0.9011
 7013SOL    HW232676   0.829   2.063  13.725 -1.6209  0.4770  1.1420
 7014SOL     OW32677   4.499   0.452  15.472 -0.4992  0.2058  0.2847
 7014SOL    HW132678   4.554   0.377  15.494 -0.4018  0.1313 -0.2122
 7014SOL    HW232679   4.439   0.440  15.546 -0.0729 -1.2472  0.4034
 7015SOL     OW32680   4.448   3.877   1.320  0.3561  0.8099 -0.1556
 7015SOL    HW132681   4.362   3.850   1.290  0.7064 -0.8786  0.3914
 7015SOL    HW232682   4.455   3.812   1.389 -0.5146 -1.2238 -1.9892
 7016SOL     OW32683   2.671   2.369   2.071 -0.2697  0.6094  0.0602
 7016SOL    HW132684   2.592   2.371   2.126 -0.0001 -0.0252  0.4816
 7016SOL    HW232685   2.718   2.312   2.132 -1.7570  0.8168  1.4103
 7017SOL     OW32686   0.929   1.191   3.570  0.0018 -0.1390 -0.8456
 7017SOL    HW132687   0.954   1.266   3.516  0.4254  0.6569  0.4457
 7017SOL    HW232688   0.993   1.120   3.560 -0.7395 -0.7720 -1.0114
 7018SOL     OW32689   1.380   2.701   5.902 -0.3411 -0.0426  0.2610
 7018SOL    HW132690   1.474   2.718   5.908 -0.3519  0.0623  0.1376
 7018SOL    HW232691   1.371   2.638   5.974 -2.6067  1.7108  1.5070
 7019SOL     OW32692   2.087   1.432   5.619  0.5414 -0.3817 -0.2533
 7019SOL    HW132693   2.161   1.492   5.610 -1.2011  1.5031 -2.0762
 7019SOL    HW232694   2.027   1.479   5.560  1.1783 -0.1375 -0.7018
 7020SOL     OW32695   2.117   3.019   5.673  0.2341 -0.0538  0.5206
 7020SOL    HW132696   2.099   2.926   5.661  0.2671 -0.0167  0.1909
 7020SOL    HW232697   2.212   3.017   5.672  0.2285 -0.6277  0.8558
 7021SOL     OW32698   1.936   2.487   9.461  0.1275 -0.2359 -0.0577
 7021SOL    HW132699   1.935   2.402   9.506  0.1478  0.7975  1.8864
 7021SOL    HW232700   1.993   2.457   9.390 -0.0100  0.8581 -0.6218
 7022SOL     OW32701   0.582   0.089   6.238 -0.0680 -0.0388  0.2492
 7022SOL    HW132702   0.650   0.156   6.249 -0.7375  0.6765  0.0082
 7022SOL    HW232703   0.634   0.008   6.241  3.7859  2.4034 -0.4393
 7023SOL     OW32704   0.603   1.366  16.227 -0.1843 -0.8820 -0.5346
 7023SOL    HW132705   0.553   1.284  16.228  1.5372 -1.9446  0.2595
 7023SOL    HW232706   0.568   1.407  16.148 -0.0407  1.2228  0.5050
 7024SOL     OW32707   3.065   3.877   7.752  0.1739 -0.5447  0.3024
 7024SOL    HW132708   2.996   3.852   7.690 -0.0176  1.4512 -0.3173
 7024SOL    HW232709   3.147   3.856   7.708 -0.7151 -3.3819 -0.0088
 7025SOL     OW32710   0.607   3.762  12.642  0.3049 -0.3556 -0.3603
 7025SOL    HW132711   0.551   3.739  12.569  1.7003  0.2660 -1.6381
 7025SOL    HW232712   0.544   3.777  12.712 -0.4098 -0.2662 -1.0264
 7026SOL     OW32713   1.551   0.932   4.244 -0.0000 -0.0574 -0.5833
 7026SOL    HW132714   1.603   1.002   4.204  1.4067 -0.7812 -0.0348
 7026SOL    HW232715   1.607   0.857   4.264  1.5213  0.8783 -1.3424
 7027SOL     OW32716   0.031   1.309   4.361  0.0570  0.7060  0.1287
 7027SOL    HW132717   0.081   1.364   4.422  0.6266  2.5747 -2.0277
 7027SOL    HW232718   4.683   1.347   4.376  0.3173  1.4903 -0.3937
 7028SOL     OW32719   1.522   3.632   6.726 -0.7779 -0.0035  0.1889
 7028SOL    HW132720   1.504   3.716   6.683  0.8231  1.2011  1.8875
 7028SOL    HW232721   1.554   3.645   6.815  1.0740  1.8184 -0.7296
 7029SOL     OW32722   4.014   4.364   8.472  0.1919  0.1527 -0.0369
 7029SOL    HW132723   4.088   4.370   8.412 -0.7044 -3.8124 -1.4965
 7029SOL    HW232724   3.969   4.287   8.438  0.3716  0.4436 -0.9229
 7030SOL     OW32725   2.466   2.099   4.573 -0.9215 -0.1620  0.0958
 7030SOL    HW132726   2.519   2.076   4.649 -1.0720 -2.4679 -0.5018
 7030SOL    HW232727   2.390   2.041   4.569 -0.1592 -1.1441 -0.2092
 7031SOL     OW32728   1.258   3.252   0.122  0.1682  0.0023 -0.1210
 7031SOL    HW132729   1.188   3.309   0.154  2.3996  2.1975  0.7732
 7031SOL    HW232730   1.215   3.204   0.051 -0.6059  0.4269  0.0646
 7032SOL     OW32731   2.175   2.576  15.088 -0.2099 -0.2290  0.0655
 7032SOL    HW132732   2.127   2.508  15.041  0.1808 -0.0182 -0.6331
 7032SOL    HW232733   2.261   2.537  15.097  0.2616  0.7117 -0.3706
 7033SOL     OW32734   3.777   0.389   4.775 -0.1838 -0.0574  0.0740
 7033SOL    HW132735   3.783   0.439   4.856 -0.5165 -0.2316  0.2048
 7033SOL    HW232736   3.728   0.444   4.715 -0.7712  0.1003  0.6952
 7034SOL     OW32737   2.519   3.733  10.183 -0.3404  0.4520 -0.2734
 7034SOL    HW132738   2.612   3.756  10.182  0.3978 -2.4823 -0.1764
 7034SOL    HW232739   2.526   3.639  10.202 -1.2552  0.3048 -0.6751
 7035SOL     OW32740   1.330   3.526   8.104 -0.3661  0.5017  0.6212
 7035SOL    HW132741   1.403   3.470   8.129  0.0103  0.8461  0.2794
 7035SOL    HW232742   1.267   3.464   8.067  0.3760  0.1640 -0.0677
 7036SOL     OW32743   3.342   1.629  16.550  0.3493  0.5626 -0.3552
 7036SOL    HW132744   3.329   1.539  16.518 -0.5996  0.8991 -0.9064
 7036SOL    HW232745   3.437   1.635  16.557  0.2961  2.0124 -0.9118
 7037SOL     OW32746   3.908   3.317   2.857 -0.5489  0.3912 -0.4151
 7037SOL    HW132747   3.844   3.278   2.798  0.6860 -1.7173 -0.3614
 7037SOL    HW232748   3.850   3.336   2.931 -2.4343 -1.0898 -1.5132
 7038SOL     OW32749   1.688   2.952   7.737 -0.0008  0.7007 -0.3551
 7038SOL    HW132750   1.772   2.997   7.750  1.3531 -1.6624 -0.8379
 7038SOL    HW232751   1.709   2.892   7.666  3.3852  0.8277  0.5156
 7039SOL     OW32752   2.091   2.727   3.220 -0.8609 -0.0330  0.5490
 7039SOL    HW132753   2.011   2.739   3.168  0.0056  0.3051 -0.7032
 7039SOL    HW232754   2.068   2.794   3.285 -0.1276  1.0818 -0.3394
 7040SOL     OW32755   3.084   4.092   9.011 -0.8748  0.6363 -0.0789
 7040SOL    HW132756   3.144   4.165   8.999  0.8942 -1.0830 -1.7186
 7040SOL    HW232757   3.062   4.070   8.920  1.0313  2.3670 -0.9671
 7041SOL     OW32758   3.410   2.401  10.892  0.2936 -0.7402 -0.5083
 7041SOL    HW132759   3.448   2.423  10.977  0.4126  1.1236 -1.0510
 7041SOL    HW232760   3.478   2.428  10.831 -0.8330  1.4622 -0.8111
 7042SOL     OW32761   0.030   4.563   4.693 -0.2338 -0.6090 -0.5307
 7042SOL    HW132762   0.088   4.493   4.663 -1.0939 -0.7009 -1.9839
 7042SOL    HW232763   0.027   4.615   4.613  1.0576 -0.8607 -0.7432
 7043SOL     OW32764   3.979   1.268  16.324 -0.0548  0.2207  0.1883
 7043SOL    HW132765   4.075   1.263  16.324  0.0671  2.8269 -1.1298
 7043SOL    HW232766   3.958   1.307  16.409 -1.0828  0.2605 -0.0875
 7044SOL     OW32767   4.012   0.899   9.503 -0.0658 -0.0170  0.2484
 7044SOL    HW132768   3.957   0.899   9.582 -0.9707 -0.5198 -0.3775
 7044SOL    HW232769   3.964   0.961   9.447 -2.1806 -0.8847  1.0828
 7045SOL     OW32770   4.134   4.084   6.855  0.6878 -0.1458 -0.4159
 7045SOL    HW132771   4.220   4.095   6.894  0.1304 -0.9833  1.0590
 7045SOL    HW232772   4.079   4.064   6.931 -1.3768  0.8675 -1.6427
 7046SOL     OW32773   1.500   2.994   8.574 -0.3164  0.2657  0.2764
 7046SOL    HW132774   1.568   2.937   8.611  0.3854 -0.1386 -1.6578
 7046SOL    HW232775   1.425   2.933   8.573 -0.6538  0.6912 -0.1018
 7047SOL     OW32776   3.039   1.576  10.924 -0.5664 -0.0285 -0.1139
 7047SOL    HW132777   2.981   1.645  10.959  0.9984  0.1753  2.1166
 7047SOL    HW232778   3.035   1.523  11.004 -1.7584  1.6067  0.9357
 7048SOL     OW32779   4.509   0.906  15.338  0.8995 -0.6912  0.4165
 7048SOL    HW132780   4.523   0.844  15.411 -0.1651 -0.3232  0.9367
 7048SOL    HW232781   4.462   0.853  15.273  0.9378 -2.2964  1.6778
 7049SOL     OW32782   1.546   2.852  15.719  0.0576  0.5226  0.5272
 7049SOL    HW132783   1.572   2.923  15.778  1.0022  0.5821  0.0428
 7049SOL    HW232784   1.510   2.910  15.651  2.8676  0.8838 -0.6617
 7050SOL     OW32785   0.660   2.747   5.292  0.6566 -0.6309 -0.0812
 7050SOL    HW132786   0.592   2.792   5.242 -0.2404 -2.0831 -0.1719
 7050SOL    HW232787   0.688   2.667   5.246 -3.3615 -2.0454 -0.0815
 7051SOL     OW32788   2.575   0.538   8.572 -0.1624  1.0841 -0.0959
 7051SOL    HW132789   2.626   0.592   8.633 -0.4122  0.3147  0.7856
 7051SOL    HW232790   2.487   0.559   8.603 -0.4266 -0.3959  0.1402
 7052SOL     OW32791   1.518   1.454   6.007  0.6429 -0.1786 -0.6369
 7052SOL    HW132792   1.571   1.448   5.927 -0.1010  0.8329 -1.2039
 7052SOL    HW232793   1.583   1.432   6.073  1.0667  1.7022 -0.4343
 7053SOL     OW32794   0.016   2.659   1.870 -0.1503  0.4901 -0.2586
 7053SOL    HW132795   4.678   2.606   1.894 -0.1133  1.0933  1.2246
 7053SOL    HW232796   4.734   2.739   1.918  1.1126 -0.0281  1.1561
 7054SOL     OW32797   4.304   1.968   8.097  0.2546  0.0210 -0.0773
 7054SOL    HW132798   4.293   1.968   8.192  2.3733 -1.4328  0.1695
 7054SOL    HW232799   4.317   2.060   8.077 -2.1660  0.0085 -1.7864
 7055SOL     OW32800   0.311   0.499   3.749  0.6268 -0.2448  0.3091
 7055SOL    HW132801   0.289   0.427   3.690  1.3465 -0.9050  0.8357
 7055SOL    HW232802   0.360   0.553   3.688 -0.3530  0.4347  0.1240
 7056SOL     OW32803   4.023   2.789   0.434 -0.0316  0.5230 -0.0204
 7056SOL    HW132804   3.939   2.803   0.390 -0.3871  0.2387  0.5678
 7056SOL    HW232805   4.066   2.717   0.386 -0.3813 -1.1662  2.2088
 7057SOL     OW32806   4.677   3.290   6.197 -0.1171 -0.3022 -0.8691
 7057SOL    HW132807   0.022   3.337   6.185  0.2276 -0.7139 -0.0799
 7057SOL    HW232808   4.699   3.243   6.277  0.3488  0.2272 -0.6894
 7058SOL     OW32809   1.144   3.571   2.989  0.0143 -0.0401 -0.3408
 7058SOL    HW132810   1.208   3.640   2.971 -1.7200  1.8866  0.8531
 7058SOL    HW232811   1.147   3.512   2.914  0.3844  3.2363 -2.9356
 7059SOL     OW32812   1.389   0.009   7.236 -0.3862  0.2060  0.1144
 7059SOL    HW132813   1.412   0.026   7.327  0.6171 -0.1454 -0.0763
 7059SOL    HW232814   1.357   0.098   7.224 -0.8067  0.0367 -0.0209
 7060SOL     OW32815   4.135   0.026   7.856 -0.2624  0.5570  0.2410
 7060SOL    HW132816   4.116   4.672   7.838 -1.4122  1.2498 -2.1040
 7060SOL    HW232817   4.230   0.025   7.850 -0.2203 -2.2331  1.0845
 7061SOL     OW32818   3.256   2.089  11.751  0.7045 -0.4442  0.7045
 7061SOL    HW132819   3.312   2.034  11.695 -0.7810 -0.5688 -0.6415
 7061SOL    HW232820   3.191   2.131  11.695 -0.3792 -0.3914  2.0029
 7062SOL     OW32821   1.858   4.601   1.906  0.0865 -0.0369  0.2506
 7062SOL    HW132822   1.820   4.666   1.965 -0.9073 -0.3924 -0.0034
 7062SOL    HW232823   1.950   4.597   1.934  0.2951 -1.4323 -0.6189
 7063SOL     OW32824   2.606   0.220  16.841 -0.5861  0.0369 -0.3556
 7063SOL    HW132825   2.545   0.264  16.782 -1.8049  0.1735  0.9954
 7063SOL    HW232826   2.626   0.139  16.795 -0.2760  0.4574 -0.9692
 7064SOL     OW32827   4.142   2.714   5.063  0.1828  0.3754  0.0665
 7064SOL    HW132828   4.219   2.763   5.035  0.6947 -0.0446  0.7228
 7064SOL    HW232829   4.076   2.781   5.048  1.5277  1.5614 -0.5518
 7065SOL     OW32830   2.098   0.654  16.707 -0.6454 -0.5482 -0.0234
 7065SOL    HW132831   2.088   0.602  16.628  1.9530 -0.9587 -0.0806
 7065SOL    HW232832   2.153   0.599  16.763 -0.1745  1.2938  1.3497
 7066SOL     OW32833   1.888   3.231   0.913  0.5275  0.0027  0.1422
 7066SOL    HW132834   1.817   3.228   0.848 -2.8838 -0.1151  3.8424
 7066SOL    HW232835   1.950   3.170   0.873  1.1961  0.3662  0.6349
 7067SOL     OW32836   2.048   0.675   6.093 -0.2778  0.0410  0.4193
 7067SOL    HW132837   2.083   0.745   6.148  0.9820  0.0845 -0.4516
 7067SOL    HW232838   2.024   0.618   6.166  2.5138 -1.1245  0.3931
 7068SOL     OW32839   3.765   3.165   0.721  0.1944  0.3068 -0.0966
 7068SOL    HW132840   3.669   3.164   0.727  0.2375 -1.2775  0.3740
 7068SOL    HW232841   3.800   3.161   0.810 -0.3387 -2.5519 -0.0162
 7069SOL     OW32842   4.593   1.997   6.089  0.0274 -0.0911  0.0094
 7069SOL    HW132843   4.521   1.970   6.145  0.1458 -1.0407 -0.3050
 7069SOL    HW232844   4.574   1.948   6.009 -5.1260  3.4517 -0.9445
 7070SOL     OW32845   3.292   3.170   2.986 -0.0242  0.0035  0.3906
 7070SOL    HW132846   3.373   3.216   2.964  0.7968 -1.4751  0.3600
 7070SOL    HW232847   3.328   3.096   3.035 -0.4419 -0.6799 -0.3365
 7071SOL     OW32848   4.049   4.045  11.369 -0.2203 -0.1999 -0.0278
 7071SOL    HW132849   3.976   4.099  11.400  0.5392 -0.0493  1.4741
 7071SOL    HW232850   4.113   4.043  11.440  0.5575 -1.2008 -0.7617
 7072SOL     OW32851   2.936   0.876   9.356  0.2235 -0.0836 -0.1998
 7072SOL    HW132852   2.961   0.945   9.294  0.0457 -1.5117 -1.8301
 7072SOL    HW232853   2.889   0.813   9.303  0.9149  0.7940 -1.8527
 7073SOL     OW32854   3.655   2.266   7.409  0.3153  0.2635 -0.2515
 7073SOL    HW132855   3.698   2.300   7.488  2.7363 -0.2835 -1.3143
 7073SOL    HW232856   3.642   2.174   7.431  1.7329  0.2575  0.5810
 7074SOL     OW32857   3.019   0.636  16.762 -0.0457  0.3540 -0.4799
 7074SOL    HW132858   2.946   0.696  16.774  0.1812  1.2506 -3.5260
 7074SOL    HW232859   2.984   0.560  16.808  1.1448  0.1796  0.1420
 7075SOL     OW32860   1.806   2.190  10.283  0.3223  0.4183  0.1100
 7075SOL    HW132861   1.817   2.099  10.254 -0.4314  0.0516  0.9878
 7075SOL    HW232862   1.710   2.198  10.286  0.3333  0.1932  0.9790
 7076SOL     OW32863   4.321   4.197  12.081 -0.0168 -0.6580  0.1623
 7076SOL    HW132864   4.349   4.276  12.126  1.3109 -1.0926  0.0848
 7076SOL    HW232865   4.240   4.179  12.130  0.6678  2.2470  2.3422
 7077SOL     OW32866   1.718   0.985   1.463 -0.3418  0.6763  0.0175
 7077SOL    HW132867   1.709   0.913   1.401  2.6568  2.0871 -2.0981
 7077SOL    HW232868   1.632   0.987   1.505 -0.6541 -1.5050 -0.5676
 7078SOL     OW32869   1.867   4.044   3.805 -0.2137 -0.0833 -0.5519
 7078SOL    HW132870   1.954   4.052   3.766  0.7160 -1.7057  1.1735
 7078SOL    HW232871   1.829   4.132   3.807 -0.8381 -0.3356 -1.3577
 7079SOL     OW32872   3.863   2.204   8.422 -0.0016 -0.2642  0.1271
 7079SOL    HW132873   3.871   2.299   8.415 -0.8091 -0.0800  1.8547
 7079SOL    HW232874   3.827   2.175   8.338 -1.3583 -2.9934  1.6480
 7080SOL     OW32875   2.873   1.716   6.263  0.1550 -0.1318  0.1482
 7080SOL    HW132876   2.930   1.654   6.308 -1.7280 -0.3396  2.2683
 7080SOL    HW232877   2.922   1.798   6.269  3.0404 -1.7092 -2.0705
 7081SOL     OW32878   0.820   4.108  15.222 -0.3684 -0.2975  0.0710
 7081SOL    HW132879   0.818   4.040  15.154  0.2776  0.3425 -0.5915
 7081SOL    HW232880   0.914   4.122  15.233 -0.9105  0.2635  3.9461
 7082SOL     OW32881   1.467   1.579  12.285  0.5454 -0.2108 -0.0686
 7082SOL    HW132882   1.487   1.498  12.332 -0.3584 -0.3217  0.1204
 7082SOL    HW232883   1.557   1.606  12.269  0.3354 -0.4018 -1.5318
 7083SOL     OW32884   4.460   3.955  11.481  0.0482 -0.2448 -0.1365
 7083SOL    HW132885   4.416   4.028  11.438  1.2198  1.2290  1.1580
 7083SOL    HW232886   4.537   3.936  11.428 -0.8577  0.2509 -1.6093
 7084SOL     OW32887   1.647   3.301   6.926  0.6064  0.0875 -0.4183
 7084SOL    HW132888   1.560   3.262   6.921  0.6706  0.3084 -3.4755
 7084SOL    HW232889   1.621   3.381   6.972  1.9310  0.3370 -0.0864
 7085SOL     OW32890   3.114   4.455   3.472 -0.0926  0.5137  0.2305
 7085SOL    HW132891   3.165   4.477   3.395  1.3217 -2.1745  0.3932
 7085SOL    HW232892   3.031   4.486   3.437 -0.8133 -0.8673  0.6918
 7086SOL     OW32893   1.903   1.187   3.934 -0.7356 -0.1615  0.0221
 7086SOL    HW132894   1.830   1.126   3.938 -0.3017 -0.6484  0.4179
 7086SOL    HW232895   1.960   1.144   3.871 -0.8806 -0.9004  0.3923
 7087SOL     OW32896   2.924   4.399   5.503 -0.1257 -0.2834 -0.8882
 7087SOL    HW132897   2.913   4.395   5.408 -0.9839  2.2310 -0.9107
 7087SOL    HW232898   3.008   4.443   5.517 -1.2660  1.9165 -0.8681
 7088SOL     OW32899   1.169   1.000   2.654  0.1222  0.1966 -0.1058
 7088SOL    HW132900   1.226   1.045   2.591  0.1251  1.4433  0.7756
 7088SOL    HW232901   1.080   1.029   2.635 -0.2725 -1.0644 -0.1905
 7089SOL     OW32902   0.665   0.089  12.782 -0.4618 -0.4952 -0.1754
 7089SOL    HW132903   0.648   4.733  12.781  0.1491 -0.5761 -2.4095
 7089SOL    HW232904   0.737   0.104  12.721 -1.6071  0.9974 -1.1678
 7090SOL     OW32905   2.012   4.573  12.661  0.0543  0.2533  0.0080
 7090SOL    HW132906   1.953   4.622  12.718  0.8387 -1.0729  1.9433
 7090SOL    HW232907   2.007   4.486  12.701 -1.7599  1.9107  3.3815
 7091SOL     OW32908   1.532   2.502   6.608  0.4591  0.1466  0.3242
 7091SOL    HW132909   1.480   2.581   6.621 -1.1420 -0.5720 -1.7657
 7091SOL    HW232910   1.477   2.436   6.649 -1.6602  1.1477 -0.9004
 7092SOL     OW32911   2.186   0.685  11.566 -0.1712  0.4109 -0.0710
 7092SOL    HW132912   2.205   0.663  11.475  2.6396  1.2770  0.3089
 7092SOL    HW232913   2.090   0.686  11.564 -0.1957  1.0150  1.2600
 7093SOL     OW32914   0.855   2.108  17.363 -0.1615 -0.2755 -0.4190
 7093SOL    HW132915   0.894   2.025  17.335 -0.4199 -0.3740 -0.4880
 7093SOL    HW232916   0.814   2.094  17.448 -1.0227 -0.5800 -0.8869
 7094SOL     OW32917   4.551   0.478  13.274  0.5339  0.1261  0.4819
 7094SOL    HW132918   4.487   0.482  13.203  0.4854  1.2087  0.5822
 7094SOL    HW232919   4.553   0.573  13.290  1.6902  0.1994 -0.0856
 7095SOL     OW32920   0.052   3.525   4.494  0.5193 -0.6809 -0.1290
 7095SOL    HW132921   0.119   3.471   4.451 -1.0747 -3.3317  0.7559
 7095SOL    HW232922   0.073   3.502   4.584 -1.3707 -0.1838  0.4378
 7096SOL     OW32923   2.132   0.412   8.688  0.2104 -0.6036 -0.0838
 7096SOL    HW132924   2.194   0.396   8.759 -1.2241  0.5405  1.4168
 7096SOL    HW232925   2.068   0.342   8.702  0.6633 -1.2926 -1.4108
 7097SOL     OW32926   1.582   0.327  11.707 -0.0915  0.0936 -0.9479
 7097SOL    HW132927   1.560   0.235  11.720  3.8062 -0.7126  0.0932
 7097SOL    HW232928   1.516   0.355  11.644  0.4885  1.0340 -1.1510
 7098SOL     OW32929   1.705   1.171   4.182 -0.2904  0.4313  0.5018
 7098SOL    HW132930   1.783   1.225   4.196  0.5292 -0.1151 -1.8717
 7098SOL    HW232931   1.734   1.105   4.119 -0.4005  0.5926  0.2826
 7099SOL     OW32932   1.911   0.584   4.668  0.3622  0.2478 -0.6303
 7099SOL    HW132933   1.952   0.663   4.633 -1.7972  1.0708 -1.2968
 7099SOL    HW232934   1.908   0.536   4.585  2.2571  1.6543 -1.5400
 7100SOL     OW32935   3.564   2.115   9.116 -0.3194 -0.4527  1.0345
 7100SOL    HW132936   3.506   2.088   9.046  1.0552  0.6074 -0.5164
 7100SOL    HW232937   3.555   2.208   9.093 -0.5885 -0.7252  0.0448
 7101SOL     OW32938   4.056   2.706   3.499  0.4237  0.7795  0.8296
 7101SOL    HW132939   4.132   2.683   3.552  2.3494  1.4506 -1.6454
 7101SOL    HW232940   4.076   2.799   3.515 -1.1466  1.5543 -1.7640
 7102SOL     OW32941   2.815   1.085  17.201 -0.8686  0.3008  0.3780
 7102SOL    HW132942   2.822   1.006  17.148 -1.7475 -0.5789  1.6037
 7102SOL    HW232943   2.799   1.058  17.291 -1.4034  1.9822  0.7904
 7103SOL     OW32944   2.510   3.145   4.134  0.0428  0.0614  0.3833
 7103SOL    HW132945   2.579   3.124   4.071  0.3026 -1.1285  1.0551
 7103SOL    HW232946   2.559   3.162   4.214  1.2338  1.3144 -0.6096
 7104SOL     OW32947   3.926   2.375   2.864  0.4317 -0.3343 -0.3761
 7104SOL    HW132948   3.996   2.314   2.841 -0.7659 -1.0248 -2.2171
 7104SOL    HW232949   3.974   2.448   2.902  0.5437 -1.4446  1.6094
 7105SOL     OW32950   0.959   2.087   0.399 -0.3648 -0.4671 -0.4534
 7105SOL    HW132951   0.921   2.012   0.444 -2.2914  0.4419 -0.5689
 7105SOL    HW232952   1.003   2.129   0.473  1.6956 -0.2235 -1.8062
 7106SOL     OW32953   4.683   4.461   4.420 -0.1360 -0.3004 -0.2556
 7106SOL    HW132954   4.633   4.533   4.460  0.5501 -1.5698  2.8925
 7106SOL    HW232955   4.653   4.382   4.466  0.0516 -0.2171  0.0060
 7107SOL     OW32956   0.181   0.385  16.169  0.3486 -0.4168  0.2549
 7107SOL    HW132957   0.187   0.416  16.259 -1.1713  1.7878 -0.4194
 7107SOL    HW232958   0.137   0.300  16.183 -2.0504  0.8352  0.3644
 7108SOL     OW32959   0.199   4.734   8.057 -0.4120  0.0928 -0.2643
 7108SOL    HW132960   0.122   0.001   8.001  0.2543  4.8496 -0.7335
 7108SOL    HW232961   0.253   0.062   8.014  1.4067  0.0558  1.9824
 7109SOL     OW32962   4.345   1.964   8.379  0.0254 -0.2536 -0.2844
 7109SOL    HW132963   4.280   2.035   8.388  0.2637  0.0403 -0.8760
 7109SOL    HW232964   4.427   1.998   8.415  0.6877 -0.8659 -1.2340
 7110SOL     OW32965   0.405   2.388  10.643 -0.2151 -0.2147 -0.3134
 7110SOL    HW132966   0.389   2.460  10.582 -0.6609  0.2351  0.3403
 7110SOL    HW232967   0.318   2.361  10.669 -0.1638  0.2415  0.3227
 7111SOL     OW32968   0.602   0.599   1.827 -0.7656 -0.0327  0.4056
 7111SOL    HW132969   0.632   0.546   1.753 -0.1590  4.2678 -2.4228
 7111SOL    HW232970   0.564   0.673   1.778  2.1424  2.9748  2.7173
 7112SOL     OW32971   0.411   2.178   5.024  0.5075 -0.2163 -0.6578
 7112SOL    HW132972   0.394   2.233   5.101  2.1813 -0.7390  0.0927
 7112SOL    HW232973   0.487   2.126   5.052  1.1242  0.7966 -0.4243
 7113SOL     OW32974   4.371   2.280  17.710  0.4103 -0.1829  0.2470
 7113SOL    HW132975   4.461   2.267  17.741  1.2009 -1.4261 -2.6467
 7113SOL    HW232976   4.357   2.194  17.671  2.0298  0.0511 -0.8262
 7114SOL     OW32977   2.415   4.422   3.201  0.5154 -0.5552  0.0723
 7114SOL    HW132978   2.320   4.434   3.197  0.5820  0.4622  1.3768
 7114SOL    HW232979   2.429   4.371   3.122  0.3308 -0.6153  0.0776
 7115SOL     OW32980   1.124   4.237   9.012  0.1813  0.1242  0.3205
 7115SOL    HW132981   1.045   4.290   9.018  0.5791  0.8478 -0.8477
 7115SOL    HW232982   1.106   4.150   9.047  1.2188  0.3269  1.3632
 7116SOL     OW32983   3.845   1.215  13.020  0.1269 -0.8578 -0.0075
 7116SOL    HW132984   3.924   1.261  13.046 -0.4939  0.0475  0.2580
 7116SOL    HW232985   3.879   1.141  12.970  2.9575 -1.6656  3.1240
 7117SOL     OW32986   3.153   1.419  17.601  0.6060 -0.3171  0.0009
 7117SOL    HW132987   3.177   1.334  17.565 -1.2771 -0.2061 -1.5572
 7117SOL    HW232988   3.118   1.463  17.523  1.7325 -0.1829 -0.4247
 7118SOL     OW32989   0.947   0.842   6.592  0.7136  0.5237 -0.3328
 7118SOL    HW132990   0.967   0.782   6.664  0.7496  1.0885  0.1271
 7118SOL    HW232991   0.927   0.926   6.633 -0.0903  0.5759 -0.8247
 7119SOL     OW32992   3.595   1.099  13.013  0.4269  0.7630  0.7711
 7119SOL    HW132993   3.685   1.131  13.023  1.1725 -1.3687  0.8841
 7119SOL    HW232994   3.589   1.034  13.083 -1.8888  0.0598 -0.0876
 7120SOL     OW32995   4.300   4.081   3.846  0.6183  0.4307  0.5497
 7120SOL    HW132996   4.250   4.135   3.785  0.6224 -0.5268 -0.3134
 7120SOL    HW232997   4.382   4.129   3.857  0.6086  0.5256  0.1964
 7121SOL     OW32998   4.608   3.002   9.169 -0.3353 -0.4479 -0.0287
 7121SOL    HW132999   4.573   2.921   9.132  0.7162 -1.0626  0.3229
 7121SOL    HW233000   4.703   2.998   9.155 -0.4161  1.5459 -1.1353
 7122SOL     OW33001   4.370   4.176   8.388  0.6144  0.3501  0.1452
 7122SOL    HW133002   4.345   4.268   8.385  0.1075  0.2530  1.1673
 7122SOL    HW233003   4.438   4.172   8.321  0.9287  0.0657  0.4808
 7123SOL     OW33004   2.201   3.021   8.792  0.0416 -0.4491  0.6251
 7123SOL    HW133005   2.125   3.075   8.816 -1.1658 -1.3340 -1.1796
 7123SOL    HW233006   2.266   3.076   8.834 -0.7392  1.5059 -0.7465
 7124SOL     OW33007   0.264   2.535   1.391  0.0213  0.0586 -0.4131
 7124SOL    HW133008   0.190   2.573   1.344  0.5374  1.3267 -0.2103
 7124SOL    HW233009   0.222   2.500   1.470  2.7569 -0.6793  0.7035
 7125SOL     OW33010   4.299   0.034   0.986  0.0065 -0.2273 -0.1694
 7125SOL    HW133011   4.252   0.000   0.910  0.4589  0.1790 -0.6279
 7125SOL    HW233012   4.247   0.114   0.988  1.5590  0.8031 -1.4404
 7126SOL     OW33013   2.227   1.313   7.643 -0.3166 -0.0516 -0.4125
 7126SOL    HW133014   2.145   1.267   7.663 -1.2006  2.0119  0.7530
 7126SOL    HW233015   2.186   1.399   7.652  0.0400  0.0282  0.5212
 7127SOL     OW33016   4.651   4.226   0.852 -0.0323 -0.0170  0.7419
 7127SOL    HW133017   4.623   4.153   0.796 -1.0113 -1.1079  2.6454
 7127SOL    HW233018   4.585   4.208   0.919  0.9907 -3.3061  0.8875
 7128SOL     OW33019   0.113   1.228   7.699  0.0260 -0.6838  0.3063
 7128SOL    HW133020   0.184   1.245   7.761  0.7239  0.4410 -0.8096
 7128SOL    HW233021   0.157   1.182   7.627 -0.3256 -0.3746 -0.1066
 7129SOL     OW33022   0.386   2.913  17.575  0.3068  0.1959  0.1154
 7129SOL    HW133023   0.403   2.818  17.572  1.2979  0.4232 -1.1726
 7129SOL    HW233024   0.300   2.911  17.617 -0.4749  2.5780 -1.3931
 7130SOL     OW33025   3.338   3.762   2.201 -0.0335 -0.4030  0.5293
 7130SOL    HW133026   3.317   3.705   2.126 -1.7987  1.1157 -0.1155
 7130SOL    HW233027   3.336   3.707   2.279 -2.1979 -0.2698  0.5727
 7131SOL     OW33028   3.589   1.587  12.492  0.0039 -0.2861  0.3632
 7131SOL    HW133029   3.667   1.546  12.528  0.0516 -1.2904 -0.8987
 7131SOL    HW233030   3.625   1.673  12.515 -0.9062 -0.2852  1.7623
 7132SOL     OW33031   1.384   0.268   9.623  0.1805  0.1392  0.7263
 7132SOL    HW133032   1.431   0.288   9.542 -0.1800 -0.7173  0.3030
 7132SOL    HW233033   1.348   0.179   9.616  0.0296  0.5142 -3.0643
 7133SOL     OW33034   1.346   0.845   7.155  0.0566 -0.0538 -0.0141
 7133SOL    HW133035   1.316   0.933   7.177  0.7938  0.8082 -2.4092
 7133SOL    HW233036   1.312   0.791   7.226  1.8429 -2.2547 -0.8454
 7134SOL     OW33037   2.204   4.225  15.976  0.0334  0.4990  0.0302
 7134SOL    HW133038   2.116   4.258  15.953 -1.1089 -2.2477  0.5162
 7134SOL    HW233039   2.254   4.278  15.914 -1.8872  1.0668 -1.0589
 7135SOL     OW33040   1.470   1.874   8.549 -0.2908  0.0894 -0.1556
 7135SOL    HW133041   1.423   1.862   8.631  1.5691 -0.9534  0.7605
 7135SOL    HW233042   1.536   1.937   8.580 -0.6092  0.8358 -0.9893
 7136SOL     OW33043   1.581   0.677   6.427  0.1354  0.3309  0.8150
 7136SOL    HW133044   1.595   0.693   6.333 -3.8574 -3.1617 -0.3641
 7136SOL    HW233045   1.644   0.735   6.469 -2.1505  3.3149  0.1665
 7137SOL     OW33046   0.194   4.557   6.923  0.1050  0.1313  0.1167
 7137SOL    HW133047   0.175   4.587   6.834  0.6755 -0.0899 -0.0774
 7137SOL    HW233048   0.121   4.496   6.912  0.0156  0.3177 -0.3152
 7138SOL     OW33049   2.702   4.112   5.806  0.2178  0.5680  0.2964
 7138SOL    HW133050   2.669   4.024   5.789  1.1557  0.6809 -2.1847
 7138SOL    HW233051   2.659   4.160   5.735 -1.0142 -1.2599 -0.1763
 7139SOL     OW33052   4.628   3.953  10.509 -0.0011  0.1243  0.2160
 7139SOL    HW133053   4.677   3.988  10.434 -0.0765  1.0674  0.6077
 7139SOL    HW233054   4.538   3.959  10.476  0.9663 -1.1590 -2.6449
 7140SOL     OW33055   3.016   2.162   2.140  0.2423 -0.1115  0.3176
 7140SOL    HW133056   3.007   2.251   2.173 -1.6975  0.5147 -1.8991
 7140SOL    HW233057   2.935   2.132   2.179  0.5348 -0.3981  0.7023
 7141SOL     OW33058   3.906   1.311   2.288 -0.2703  0.3553 -0.0710
 7141SOL    HW133059   3.831   1.260   2.317 -0.9249  1.0120 -0.6036
 7141SOL    HW233060   3.955   1.234   2.259  0.5529  0.7432  0.2777
 7142SOL     OW33061   0.504   3.193   9.987 -0.0194  0.5218  0.2605
 7142SOL    HW133062   0.484   3.100   9.990 -0.9290  0.7691  1.5248
 7142SOL    HW233063   0.481   3.221  10.075 -0.0599  2.2146 -0.2806
 7143SOL     OW33064   3.470   4.572   2.869 -0.3071  0.0859  0.1436
 7143SOL    HW133065   3.485   4.665   2.886  1.7683 -0.0125 -1.0514
 7143SOL    HW233066   3.494   4.571   2.776  0.7376  0.6634  0.3979
 7144SOL     OW33067   1.886   1.246   7.599  0.6992 -0.1746  0.6751
 7144SOL    HW133068   1.902   1.152   7.610  2.5533 -0.1330 -1.7191
 7144SOL    HW233069   1.898   1.282   7.687  0.9388 -0.1179  0.6166
 7145SOL     OW33070   3.275   0.652   3.049 -0.0280 -0.1070  0.4754
 7145SOL    HW133071   3.230   0.637   2.966  0.8711  2.2157 -0.4319
 7145SOL    HW233072   3.338   0.721   3.029  0.8780 -1.4274 -1.2906
 7146SOL     OW33073   3.803   4.650  12.087  0.3806  0.1228  0.0643
 7146SOL    HW133074   3.841   4.674  12.003 -0.2014  0.8648  0.0106
 7146SOL    HW233075   3.876   4.671  12.145  2.0957  2.0168 -2.7400
 7147SOL     OW33076   2.113   1.473   7.005  0.0109 -0.0310  0.2774
 7147SOL    HW133077   2.105   1.568   7.005 -0.0732 -0.0312 -0.7202
 7147SOL    HW233078   2.201   1.464   6.967  0.1730  2.3965  0.0710
 7148SOL     OW33079   4.402   3.463  16.658  0.0717  0.2734 -0.7868
 7148SOL    HW133080   4.323   3.416  16.632 -1.1663  1.0388  1.6004
 7148SOL    HW233081   4.388   3.536  16.598 -1.5278  0.8795  0.3524
 7149SOL     OW33082   2.902   1.145  16.750  0.5634  0.0651  0.0222
 7149SOL    HW133083   2.826   1.165  16.694  0.6919 -2.6376 -1.1071
 7149SOL    HW233084   2.917   1.225  16.799 -1.6056 -0.0693  0.9326
 7150SOL     OW33085   1.555   4.613   6.555  0.7089 -0.0762  0.0992
 7150SOL    HW133086   1.636   4.571   6.583 -0.1360 -0.8346  1.3898
 7150SOL    HW233087   1.573   4.705   6.575 -0.7932  0.6116 -1.7099
 7151SOL     OW33088   0.321   4.234  17.685  0.4633  0.1959  0.1033
 7151SOL    HW133089   0.400   4.240  17.632 -1.4054 -2.1920 -2.9551
 7151SOL    HW233090   0.262   4.201  17.618 -0.2124  0.7797  0.4195
 7152SOL     OW33091   2.793   0.213   1.157  0.5216  0.5242 -0.4056
 7152SOL    HW133092   2.800   0.169   1.072  1.9149  1.7207 -0.8926
 7152SOL    HW233093   2.699   0.228   1.169  0.3445  0.6968 -1.9509
 7153SOL     OW33094   0.898   1.295  12.183  0.3415 -0.3053 -0.0836
 7153SOL    HW133095   0.942   1.380  12.187  2.2994 -1.3812  0.9993
 7153SOL    HW233096   0.809   1.324  12.164  1.1076  3.3642  1.7612
 7154SOL     OW33097   3.020   4.578   2.205 -0.7891 -0.0921  0.1517
 7154SOL    HW133098   3.102   4.614   2.172 -0.3722  0.1668  1.4704
 7154SOL    HW233099   3.051   4.557   2.293 -0.5504  1.3185  0.4041
 7155SOL     OW33100   2.118   3.309   8.912 -0.1714  0.5610 -0.7386
 7155SOL    HW133101   2.141   3.291   9.003  1.1411 -0.3918 -1.2519
 7155SOL    HW233102   2.146   3.400   8.901  0.9835  0.2655 -0.1706
 7156SOL     OW33103   3.503   4.590  15.843  0.3760 -0.3783  0.1804
 7156SOL    HW133104   3.452   4.660  15.883 -0.1783 -1.1905  0.8984
 7156SOL    HW233105   3.595   4.609  15.865  0.1781  0.1332  0.5600
 7157SOL     OW33106   3.593   2.889  15.593  0.1242 -1.0328 -0.0652
 7157SOL    HW133107   3.511   2.845  15.573 -0.4812 -0.5944  1.4411
 7157SOL    HW233108   3.562   2.963  15.645 -0.0945 -0.8316 -0.4901
 7158SOL     OW33109   2.110   2.858   7.338  0.6451 -0.1275 -0.1565
 7158SOL    HW133110   2.051   2.820   7.403 -0.9136 -1.2499 -2.2439
 7158SOL    HW233111   2.133   2.947   7.367 -1.1495  0.6579 -1.1014
 7159SOL     OW33112   2.497   4.516   4.358  0.1510 -0.1801  0.2659
 7159SOL    HW133113   2.466   4.447   4.299 -2.6120  0.4226  1.0194
 7159SOL    HW233114   2.463   4.491   4.444 -0.0359  0.9630  0.5266
 7160SOL     OW33115   1.133   3.355   2.528 -0.2558 -0.1038 -0.0490
 7160SOL    HW133116   1.172   3.283   2.478 -0.3290  0.7917 -1.3743
 7160SOL    HW233117   1.129   3.426   2.465 -2.9630 -0.3668 -0.1393
 7161SOL     OW33118   0.076   1.801   7.016  0.0994 -0.3400 -0.4453
 7161SOL    HW133119   0.037   1.805   6.929 -0.1376 -0.6654 -0.3526
 7161SOL    HW233120   0.172   1.805   7.012  0.0924  1.3698  1.0052
 7162SOL     OW33121   3.589   0.436   2.227  0.4947  0.1518 -0.4474
 7162SOL    HW133122   3.588   0.491   2.148  0.9639  0.0805 -0.4993
 7162SOL    HW233123   3.536   0.486   2.289 -0.8237 -0.6797 -0.9106
 7163SOL     OW33124   2.420   4.651  10.356  0.6869  0.6474  0.0705
 7163SOL    HW133125   2.513   4.627  10.358 -0.0118 -1.5749  5.7403
 7163SOL    HW233126   2.386   4.612  10.436  2.9577 -1.1475  0.1792
 7164SOL     OW33127   1.509   3.029  15.917  0.1603  0.0157  0.4209
 7164SOL    HW133128   1.477   2.986  15.996 -2.1118 -0.4249 -0.7446
 7164SOL    HW233129   1.522   3.115  15.956 -0.6444  0.6359 -0.6882
 7165SOL     OW33130   3.431   2.172  17.320 -0.1967 -0.4595 -0.0464
 7165SOL    HW133131   3.438   2.267  17.331 -0.5037 -0.2255 -1.9011
 7165SOL    HW233132   3.336   2.163  17.333 -0.2363 -0.7586 -0.5477
 7166SOL     OW33133   3.722   2.424   6.876 -0.0697 -0.2676  0.2765
 7166SOL    HW133134   3.814   2.401   6.860 -0.5140 -2.0486  0.2371
 7166SOL    HW233135   3.718   2.386   6.964  1.9264  0.3572  0.6593
 7167SOL     OW33136   2.132   0.474   6.951  0.0867  0.0673 -0.5542
 7167SOL    HW133137   2.167   0.505   6.868 -0.6937  0.1415 -0.8574
 7167SOL    HW233138   2.043   0.508   6.939 -0.5080 -1.5276 -0.6950
 7168SOL     OW33139   1.803   1.073  13.306  0.7787 -0.2789 -0.2705
 7168SOL    HW133140   1.719   1.113  13.284  0.0569 -0.4735  2.0593
 7168SOL    HW233141   1.814   1.035  13.219 -0.7318  1.2127 -1.1080
 7169SOL     OW33142   0.000   0.848   2.238 -0.1559 -0.4203 -0.4376
 7169SOL    HW133143   0.025   0.800   2.317 -1.6294 -1.4790 -0.6341
 7169SOL    HW233144   0.007   0.942   2.255 -0.5914 -0.5582  0.4828
 7170SOL     OW33145   1.205   2.416   4.777  0.3425 -0.4483 -0.5936
 7170SOL    HW133146   1.125   2.366   4.794 -1.3864  2.3371 -0.4456
 7170SOL    HW233147   1.244   2.379   4.698  0.2935 -1.0079 -0.3608
 7171SOL     OW33148   1.098   3.049   3.202  0.0379  0.1111 -0.5096
 7171SOL    HW133149   1.018   3.021   3.157  0.7617 -0.7544 -1.2514
 7171SOL    HW233150   1.057   3.113   3.260 -1.4271 -0.0815 -1.3272
 7172SOL     OW33151   3.747   4.651   9.160 -0.5188  0.2097  0.2468
 7172SOL    HW133152   3.731   4.557   9.156  2.1092 -0.2900  1.5660
 7172SOL    HW233153   3.817   4.665   9.223 -0.2472 -1.5787  0.3319
 7173SOL     OW33154   4.678   3.961   4.564 -0.2291  0.0238  0.0442
 7173SOL    HW133155   4.657   3.897   4.631 -0.1063  1.5451  1.5459
 7173SOL    HW233156   4.630   3.926   4.490 -0.0074 -0.7719  0.2736
 7174SOL     OW33157   2.520   4.613   1.932  0.0877  0.0547  0.0883
 7174SOL    HW133158   2.540   4.698   1.972 -0.6471  1.0782 -1.6669
 7174SOL    HW233159   2.608   4.586   1.906 -2.1387 -4.3604 -2.8447
 7175SOL     OW33160   2.696   0.770   9.274  0.0753 -0.1322  0.1292
 7175SOL    HW133161   2.600   0.769   9.268  0.1966 -3.1319 -1.3469
 7175SOL    HW233162   2.703   0.694   9.331  1.0877 -0.5862 -0.5940
 7176SOL     OW33163   4.613   2.920   2.268 -0.0603  0.9424 -0.7280
 7176SOL    HW133164   4.518   2.927   2.272 -0.2044 -0.5401 -1.7232
 7176SOL    HW233165   4.633   2.987   2.202 -1.8264  1.2237 -0.9719
 7177SOL     OW33166   2.196   0.570  13.046  0.2689 -0.2715 -0.6083
 7177SOL    HW133167   2.230   0.658  13.028  0.2216 -0.0375  0.4437
 7177SOL    HW233168   2.205   0.570  13.141 -1.9652 -1.4328 -0.4013
 7178SOL     OW33169   1.225   2.495   3.263 -0.1854 -0.3696  0.2586
 7178SOL    HW133170   1.272   2.549   3.199 -2.4636  2.0024  0.5943
 7178SOL    HW233171   1.186   2.424   3.211 -1.7441 -0.2242  1.2087
 7179SOL     OW33172   0.337   3.411  12.509 -0.3677 -0.1116 -0.2291
 7179SOL    HW133173   0.370   3.347  12.446 -1.6862 -1.6630  0.6453
 7179SOL    HW233174   0.354   3.493  12.461  0.9927  0.4331  1.2009
 7180SOL     OW33175   3.173   4.705   9.613 -0.3136  0.2284 -0.3608
 7180SOL    HW133176   3.185   4.611   9.596  0.9706  0.5641 -1.2749
 7180SOL    HW233177   3.223   0.013   9.546 -0.3726 -0.1503 -0.6652
 7181SOL     OW33178   0.955   4.575   2.175 -0.3430  0.4566 -0.6149
 7181SOL    HW133179   0.922   4.636   2.109 -0.5179 -0.1611 -1.0907
 7181SOL    HW233180   0.958   4.633   2.251  0.9875  0.2281 -0.4923
 7182SOL     OW33181   3.671   3.449  10.370  0.2206  0.1188 -0.2046
 7182SOL    HW133182   3.594   3.443  10.426  0.2155 -0.7440 -0.3065
 7182SOL    HW233183   3.649   3.385  10.302 -0.7520 -1.0462  1.2098
 7183SOL     OW33184   3.436   3.709   3.085 -0.3444 -0.1306  0.4979
 7183SOL    HW133185   3.449   3.713   3.179 -0.3533 -0.9447  0.5296
 7183SOL    HW233186   3.403   3.797   3.064 -1.1531 -0.4992  0.2078
 7184SOL     OW33187   3.886   3.846   8.091 -0.1341  0.3694 -0.1763
 7184SOL    HW133188   3.981   3.856   8.085 -0.3392  1.3879 -1.7459
 7184SOL    HW233189   3.859   3.909   8.157  0.6393 -2.1760  2.5967
 7185SOL     OW33190   0.846   3.184   3.357  0.4700 -0.3562 -0.4154
 7185SOL    HW133191   0.863   3.269   3.316 -2.1515  0.1450 -0.4870
 7185SOL    HW233192   0.922   3.187   3.415 -1.4776 -2.2782  2.2207
 7186SOL     OW33193   0.764   0.924   6.052 -0.5929 -0.2103  0.2489
 7186SOL    HW133194   0.672   0.940   6.030  0.0213  1.9295 -0.8320
 7186SOL    HW233195   0.787   1.002   6.102 -0.8677  0.3931 -0.5570
 7187SOL     OW33196   4.405   2.401   3.311 -0.4129  0.4786 -0.6061
 7187SOL    HW133197   4.319   2.376   3.344 -0.2540  0.4313 -0.2277
 7187SOL    HW233198   4.452   2.375   3.390 -0.3777  0.0322 -0.7758
 7188SOL     OW33199   3.167   0.924   2.857  0.2995 -0.2203 -0.1122
 7188SOL    HW133200   3.237   0.900   2.917  0.6034 -1.1997 -0.8546
 7188SOL    HW233201   3.195   0.994   2.797  0.7917  0.5409  1.0142
 7189SOL     OW33202   0.312   4.079   6.434 -0.3506  0.0795 -0.8731
 7189SOL    HW133203   0.292   4.172   6.417  0.2482 -0.1630 -2.9885
 7189SOL    HW233204   0.232   4.056   6.481 -1.9711  3.1843 -2.0702
 7190SOL     OW33205   1.164   4.029   7.681  0.1741 -0.2835 -0.6305
 7190SOL    HW133206   1.175   3.938   7.654 -0.1458 -0.3184 -0.6378
 7190SOL    HW233207   1.083   4.019   7.731 -0.4029 -0.3771 -1.5886
 7191SOL     OW33208   3.016   1.079   5.152  0.3464 -0.8297 -0.0029
 7191SOL    HW133209   3.098   1.073   5.102  0.0810  0.1870 -0.5565
 7191SOL    HW233210   2.947   1.055   5.090 -0.5044  1.6471 -0.0052
 7192SOL     OW33211   4.705   2.381   9.404  0.0448 -0.5316 -0.1818
 7192SOL    HW133212   4.675   2.378   9.495 -1.8358  1.4105 -0.7175
 7192SOL    HW233213   0.057   2.350   9.400 -0.1144 -1.1712  1.0880
 7193SOL     OW33214   2.254   2.249   8.461 -0.1048 -0.1897  0.4009
 7193SOL    HW133215   2.212   2.299   8.531 -2.9672  0.9471 -2.1185
 7193SOL    HW233216   2.187   2.185   8.438  0.0877  0.3300 -1.6024
 7194SOL     OW33217   2.681   3.792   3.546  0.3775  0.3423 -0.6651
 7194SOL    HW133218   2.671   3.887   3.538  2.0027  0.6096  0.5596
 7194SOL    HW233219   2.615   3.763   3.483  0.7230  1.9857 -1.7662
 7195SOL     OW33220   3.103   3.295   8.078 -0.6328  0.7078 -0.1699
 7195SOL    HW133221   3.117   3.388   8.097  2.6261 -0.1998  1.8447
 7195SOL    HW233222   3.058   3.308   7.995  2.2871 -2.9977 -2.3078
 7196SOL     OW33223   3.507   4.706  16.752  0.3331  0.4337 -0.0239
 7196SOL    HW133224   3.458   0.049  16.761  1.5080  1.1889 -0.4504
 7196SOL    HW233225   3.589   4.727  16.708  1.3041 -1.9519  0.6409
 7197SOL     OW33226   3.769   2.142   2.830 -0.1975  0.1811 -0.0109
 7197SOL    HW133227   3.771   2.069   2.893  0.7908  0.9817  0.8819
 7197SOL    HW233228   3.802   2.215   2.883 -0.1967 -0.6209  1.0984
 7198SOL     OW33229   2.333   3.550   3.728 -0.1841 -0.9208 -0.0422
 7198SOL    HW133230   2.328   3.539   3.633  1.3304  0.3909 -0.2764
 7198SOL    HW233231   2.416   3.504   3.740 -0.6405 -1.5273  0.7351
 7199SOL     OW33232   4.639   3.991  10.956 -0.1230  0.0253  0.1782
 7199SOL    HW133233   4.668   4.059  10.895  0.6249  0.3811  0.9389
 7199SOL    HW233234   4.621   3.916  10.899  2.4077 -0.1371 -0.4330
 7200SOL     OW33235   1.076   0.313   4.321  0.3405  0.5697  0.1286
 7200SOL    HW133236   0.992   0.330   4.279  1.0753 -1.4685 -2.1484
 7200SOL    HW233237   1.074   0.372   4.397 -1.7270  1.2392 -0.4575
 7201SOL     OW33238   4.480   0.324   7.654  0.1893  0.0758 -0.0050
 7201SOL    HW133239   4.436   0.359   7.577 -1.5576 -2.3910 -0.1367
 7201SOL    HW233240   4.574   0.323   7.638  0.8064  1.4921  3.5111
 7202SOL     OW33241   2.392   2.631   2.662  0.2985 -0.2057 -0.1117
 7202SOL    HW133242   2.462   2.571   2.686 -1.0045 -1.6448  0.0630
 7202SOL    HW233243   2.434   2.718   2.668 -0.4403  0.2706 -2.0866
 7203SOL     OW33244   1.682   0.348   8.494  0.0289 -0.2667 -0.1135
 7203SOL    HW133245   1.622   0.298   8.439 -0.7413  1.7845 -1.1691
 7203SOL    HW233246   1.706   0.283   8.560 -0.3246 -0.0870  0.1899
 7204SOL     OW33247   0.426   1.508  10.181  0.1333  0.0531 -0.2563
 7204SOL    HW133248   0.488   1.508  10.108  1.1337  0.3235  0.5848
 7204SOL    HW233249   0.440   1.426  10.229 -2.8070 -0.5256 -0.4116
 7205SOL     OW33250   0.777   4.690   4.358  0.1167 -0.0432  0.2721
 7205SOL    HW133251   0.833   4.726   4.289  0.0712 -0.3924  0.0543
 7205SOL    HW233252   0.703   4.650   4.313  0.1932  0.0814  0.0331
 7206SOL     OW33253   0.160   3.840   1.329 -0.3976  0.0377 -0.4965
 7206SOL    HW133254   0.138   3.879   1.244 -0.4608  2.0566  0.4420
 7206SOL    HW233255   0.095   3.770   1.337 -0.9459  0.8042  1.6902
 7207SOL     OW33256   3.771   2.298  11.514  0.3957 -0.1106 -0.1113
 7207SOL    HW133257   3.707   2.255  11.572 -0.0966  1.1255  0.2560
 7207SOL    HW233258   3.850   2.303  11.567  1.2606 -1.4909 -1.2557
 7208SOL     OW33259   2.146   4.091   7.031  0.6404  0.3470  0.6419
 7208SOL    HW133260   2.083   4.121   7.097 -0.6728 -2.0304  0.4928
 7208SOL    HW233261   2.170   4.171   6.986 -0.9186 -0.4974 -1.7004
 7209SOL     OW33262   3.299   2.935   7.540  0.1664 -0.4615 -0.1073
 7209SOL    HW133263   3.279   2.845   7.514  1.1879 -1.1205  1.4248
 7209SOL    HW233264   3.376   2.916   7.593  1.0760 -0.4060 -1.4162
 7210SOL     OW33265   2.007   3.064   2.704 -0.2352 -0.7018 -0.0720
 7210SOL    HW133266   2.039   3.076   2.614 -1.2276  2.1046 -0.0711
 7210SOL    HW233267   2.082   3.028   2.750  1.0813  1.7468 -0.3154
 7211SOL     OW33268   4.718   0.307   1.741 -0.0250  0.3599  0.3971
 7211SOL    HW133269   4.735   0.213   1.749  0.5335  0.6218  2.4058
 7211SOL    HW233270   4.662   0.322   1.665 -0.4633 -0.3099  0.5828
 7212SOL     OW33271   1.722   1.872   6.972 -0.1060 -0.1121 -0.0898
 7212SOL    HW133272   1.758   1.835   6.892  0.2769 -0.0335  0.0479
 7212SOL    HW233273   1.637   1.828   6.982 -0.3333  0.4137  0.2766
 7213SOL     OW33274   2.015   2.333   2.208  0.0253 -0.0122  0.1705
 7213SOL    HW133275   1.968   2.402   2.162 -1.0142 -0.3500  0.7225
 7213SOL    HW233276   2.078   2.311   2.139  1.5576  2.8369  0.6732
 7214SOL     OW33277   2.677   2.570   1.855  0.0181  0.3054 -0.3113
 7214SOL    HW133278   2.764   2.532   1.847  0.9041  2.0796  1.0698
 7214SOL    HW233279   2.626   2.512   1.911  0.5912 -0.0995 -0.2117
 7215SOL     OW33280   2.426   3.495  12.589 -0.0971 -0.1277 -0.4480
 7215SOL    HW133281   2.509   3.542  12.593  0.0971 -0.5947  1.2594
 7215SOL    HW233282   2.461   3.406  12.599 -0.6883 -0.2150  0.9299
 7216SOL     OW33283   2.615   3.772   0.084  0.0428  0.3527  0.4417
 7216SOL    HW133284   2.590   3.865   0.082  0.0069  0.3659  1.6525
 7216SOL    HW233285   2.671   3.772   0.161  0.9618 -0.8963 -0.2296
 7217SOL     OW33286   4.344   4.379  14.244 -0.3618  0.5891  0.7091
 7217SOL    HW133287   4.383   4.446  14.188 -1.1056  0.2090 -0.2621
 7217SOL    HW233288   4.412   4.366  14.310  0.7919  1.1723 -0.3641
 7218SOL     OW33289   1.806   4.440   5.320 -0.4974  0.1653 -0.2811
 7218SOL    HW133290   1.888   4.391   5.320 -0.1107  0.7634  3.1657
 7218SOL    HW233291   1.749   4.371   5.354 -1.2424  1.4815  1.1712
 7219SOL     OW33292   3.224   1.807   9.449  0.2715 -0.2298 -0.0549
 7219SOL    HW133293   3.251   1.869   9.381 -0.1853 -1.8193 -1.7004
 7219SOL    HW233294   3.134   1.833   9.467  0.4087  2.2313 -2.8066
 7220SOL     OW33295   1.800   0.901   3.123 -0.3148 -0.0113  0.0253
 7220SOL    HW133296   1.729   0.951   3.163  0.6413 -0.7273  2.5856
 7220SOL    HW233297   1.860   0.929   3.191 -0.5089  3.8027 -1.4191
 7221SOL     OW33298   2.789   4.731   8.593 -0.1180 -0.3043 -0.4678
 7221SOL    HW133299   2.756   4.730   8.504 -1.4327  2.9675 -0.0168
 7221SOL    HW233300   2.857   0.057   8.575 -1.4262  2.0125  2.7949
 7222SOL     OW33301   0.444   1.450   4.791 -0.2413  0.0241  0.4540
 7222SOL    HW133302   0.424   1.361   4.762 -0.6213  0.5142 -0.7661
 7222SOL    HW233303   0.524   1.474   4.745 -0.4725  0.9801  0.5414
 7223SOL     OW33304   3.163   3.162   5.478  0.3229 -0.5230 -0.3301
 7223SOL    HW133305   3.142   3.125   5.392 -1.4567 -0.9710  0.2947
 7223SOL    HW233306   3.109   3.241   5.472  1.5925  0.4004  0.5024
 7224SOL     OW33307   1.074   4.010   9.191 -0.0819  1.0031  0.2329
 7224SOL    HW133308   0.981   4.016   9.169  0.3563  1.1678 -1.5928
 7224SOL    HW233309   1.067   4.057   9.274  0.8313 -0.0856  0.9189
 7225SOL     OW33310   3.477   2.929   8.154  0.5551 -0.3143 -0.1531
 7225SOL    HW133311   3.390   2.962   8.133  0.2776  0.6250  2.4455
 7225SOL    HW233312   3.474   2.840   8.119  0.8394  0.0344 -1.0546
 7226SOL     OW33313   1.770   1.108   2.619 -0.1864  0.2439  0.1302
 7226SOL    HW133314   1.807   1.056   2.690 -0.1137  0.8196  0.5189
 7226SOL    HW233315   1.843   1.170   2.611 -0.3497  0.4701  0.4115
 7227SOL     OW33316   2.501   2.719   5.636  0.0061  0.2191  0.4619
 7227SOL    HW133317   2.543   2.667   5.567  0.0237  0.7144  0.0977
 7227SOL    HW233318   2.522   2.807   5.606  0.8080 -0.8955 -2.3122
 7228SOL     OW33319   0.700   0.670  16.500 -0.3522 -0.1489  0.0795
 7228SOL    HW133320   0.708   0.729  16.425  0.2967 -0.6004 -0.2084
 7228SOL    HW233321   0.694   0.732  16.573 -0.4290 -1.4048  1.1494
 7229SOL     OW33322   1.231   0.499   7.304  0.2062  0.1518 -0.4371
 7229SOL    HW133323   1.204   0.408   7.290  0.0850 -0.4125  3.4229
 7229SOL    HW233324   1.167   0.538   7.245  0.2814  0.2921 -0.4263
 7230SOL     OW33325   1.880   3.117   8.431  0.4288  0.0760  0.5284
 7230SOL    HW133326   1.819   3.068   8.376 -0.7625  0.7292  1.2705
 7230SOL    HW233327   1.826   3.189   8.464  0.9387  1.0553 -0.7746
 7231SOL     OW33328   0.028   2.622  13.083 -0.5624 -0.5544 -0.6613
 7231SOL    HW133329   4.687   2.581  13.048 -1.0574 -0.3816  0.2370
 7231SOL    HW233330   4.731   2.658  13.165  0.2599 -1.0394 -0.0965
 7232SOL     OW33331   1.047   4.336  16.258 -0.0324  0.2727  0.2142
 7232SOL    HW133332   0.953   4.345  16.241 -0.0607  2.1115  1.3243
 7232SOL    HW233333   1.048   4.291  16.342 -2.6507 -0.1865  0.0218
 7233SOL     OW33334   2.008   0.268   7.096 -0.0888  0.0762  0.7401
 7233SOL    HW133335   2.060   0.339   7.058 -1.4371  1.2444  1.0521
 7233SOL    HW233336   1.949   0.247   7.023 -0.7371  1.2550  0.9230
 7234SOL     OW33337   4.179   0.940   1.071  0.4307 -0.5252 -0.7172
 7234SOL    HW133338   4.110   0.917   1.009  0.0467 -2.0305  0.2670
 7234SOL    HW233339   4.124   0.986   1.134  0.7658  0.8981 -1.4686
 7235SOL     OW33340   2.096   2.247   4.326  0.0851  0.2317  0.2002
 7235SOL    HW133341   2.011   2.259   4.368 -1.0817 -3.1900 -1.2029
 7235SOL    HW233342   2.123   2.335   4.300 -1.1274 -0.2658 -2.7026
 7236SOL     OW33343   2.319   3.097  14.094  0.0049  0.2467  0.1932
 7236SOL    HW133344   2.378   3.148  14.038 -1.4839  0.7143 -0.9359
 7236SOL    HW233345   2.381   3.062  14.158 -1.6661 -0.3718  1.4724
 7237SOL     OW33346   4.404   1.494   6.171  0.6331 -0.0028  0.1629
 7237SOL    HW133347   4.375   1.460   6.086  0.7213 -1.7415  0.8238
 7237SOL    HW233348   4.347   1.571   6.180 -1.8956 -1.8003 -0.4823
 7238SOL     OW33349   1.048   2.467   3.854 -0.0269 -0.4690 -0.5031
 7238SOL    HW133350   1.125   2.497   3.902 -0.5199  0.6364 -0.4183
 7238SOL    HW233351   1.006   2.410   3.919 -0.2903  0.8698  0.4927
 7239SOL     OW33352   3.478   0.738   8.872 -0.3452 -0.1210 -0.3748
 7239SOL    HW133353   3.460   0.797   8.798 -2.0168  1.4692  1.3048
 7239SOL    HW233354   3.554   0.786   8.906 -0.5132 -0.6794  0.7692
 7240SOL     OW33355   0.882   3.142   2.386  0.3204 -0.4624  0.3485
 7240SOL    HW133356   0.849   3.063   2.344 -0.5106 -0.2180  0.5454
 7240SOL    HW233357   0.974   3.115   2.381 -0.0464 -1.8823  1.2519
 7241SOL     OW33358   0.423   3.814   9.572 -0.0835 -0.3157 -0.0733
 7241SOL    HW133359   0.332   3.797   9.596 -0.2852  2.2130  0.9518
 7241SOL    HW233360   0.471   3.758   9.632 -1.4452 -3.1201 -1.6183
 7242SOL     OW33361   0.325   3.990  14.265  0.3192  0.3512  0.0822
 7242SOL    HW133362   0.371   4.073  14.254 -0.4804  0.9639  1.3987
 7242SOL    HW233363   0.297   3.978  14.174 -1.4798 -0.7320  0.7679
 7243SOL     OW33364   2.835   2.010   2.407 -0.2734 -0.0211 -0.5533
 7243SOL    HW133365   2.776   1.973   2.472 -0.0015  0.2727 -0.1386
 7243SOL    HW233366   2.875   2.076   2.463 -1.9750 -0.4835  1.1865
 7244SOL     OW33367   3.529   1.477   9.256 -0.6820  0.4370 -0.3360
 7244SOL    HW133368   3.473   1.507   9.328 -0.8614  0.0354 -0.3069
 7244SOL    HW233369   3.585   1.554   9.270  1.4618 -1.3062  0.6559
 7245SOL     OW33370   1.746   0.393   1.192  0.0153  0.6554 -0.0971
 7245SOL    HW133371   1.668   0.355   1.233 -1.6010  2.6911 -1.2675
 7245SOL    HW233372   1.811   0.387   1.262  1.5088  2.2977 -1.3735
 7246SOL     OW33373   2.420   1.581  17.011  0.2885 -0.2897 -0.0698
 7246SOL    HW133374   2.379   1.597  16.927 -1.7523 -0.4865  0.8836
 7246SOL    HW233375   2.513   1.592  16.991  0.6461  0.5554  1.9551
 7247SOL     OW33376   0.255   1.116   5.165  0.3185  0.3929 -0.2313
 7247SOL    HW133377   0.239   1.138   5.256 -0.5483 -1.3973  0.0436
 7247SOL    HW233378   0.315   1.041   5.164 -0.3159 -0.0978 -1.3426
 7248SOL     OW33379   0.985   2.864   7.644  0.6099 -0.0914 -0.2570
 7248SOL    HW133380   0.899   2.871   7.602 -0.3082 -0.3607  1.5696
 7248SOL    HW233381   0.974   2.856   7.739 -1.6359 -3.8611 -0.8554
 7249SOL     OW33382   1.847   1.679  13.071  0.1859  1.0149 -0.4921
 7249SOL    HW133383   1.793   1.744  13.025  0.1659  3.1067  2.4746
 7249SOL    HW233384   1.880   1.730  13.145 -0.5696  0.8051 -0.0143
 7250SOL     OW33385   0.666   1.558  12.619  0.6727 -0.5697  0.0272
 7250SOL    HW133386   0.754   1.594  12.626  0.2094  0.5892 -0.1291
 7250SOL    HW233387   0.653   1.594  12.531  0.6110  0.9079  0.6476
 7251SOL     OW33388   1.044   4.345   4.661 -0.2932  0.4621 -0.1696
 7251SOL    HW133389   0.975   4.373   4.721  0.2565  1.5470 -0.0439
 7251SOL    HW233390   1.125   4.357   4.710 -0.0439  1.3885 -0.7954
 7252SOL     OW33391   3.801   3.213   7.177  0.3770  0.3810  0.0165
 7252SOL    HW133392   3.835   3.127   7.152 -1.5623  0.3056 -2.4298
 7252SOL    HW233393   3.789   3.250   7.089 -0.7588  1.6688  0.6989
 7253SOL     OW33394   1.029   4.417  13.061  0.4568 -0.7876  0.3111
 7253SOL    HW133395   1.113   4.402  13.018  1.4723 -0.1700  2.0806
 7253SOL    HW233396   1.037   4.364  13.140 -0.5455 -0.7910  0.4192
 7254SOL     OW33397   1.132   1.755   9.925  0.0490  0.7167  0.0857
 7254SOL    HW133398   1.117   1.824   9.990 -0.3936 -0.7462  1.5531
 7254SOL    HW233399   1.209   1.707   9.955 -0.3932  0.0807  0.2222
 7255SOL     OW33400   0.735   2.021  12.150 -0.0725 -0.1011 -0.1046
 7255SOL    HW133401   0.654   1.978  12.123  0.6385 -0.7547 -1.2021
 7255SOL    HW233402   0.712   2.061  12.234 -0.9620 -0.7921 -0.0261
 7256SOL     OW33403   2.966   0.350   2.501  0.0202 -0.0565  0.4651
 7256SOL    HW133404   2.958   0.318   2.412  0.2930 -0.2288  0.5027
 7256SOL    HW233405   3.005   0.438   2.499 -0.6551  0.1904 -1.6813
 7257SOL     OW33406   4.052   3.921  10.852  0.1646 -0.2780 -0.2247
 7257SOL    HW133407   4.067   3.945  10.944  1.9785 -0.3412 -0.5072
 7257SOL    HW233408   4.099   3.839  10.838 -1.0311 -1.5220  3.0609
 7258SOL     OW33409   1.515   3.997   5.448  0.9355 -0.1087  0.5717
 7258SOL    HW133410   1.438   3.986   5.504  0.3024 -1.2716 -0.5439
 7258SOL    HW233411   1.489   3.972   5.360  0.8149 -1.6702  1.0600
 7259SOL     OW33412   3.292   3.972   5.509 -0.0929  0.0211  0.2016
 7259SOL    HW133413   3.249   4.037   5.564 -1.3517  0.8157 -1.7447
 7259SOL    HW233414   3.292   3.900   5.573 -1.7592  0.9346  1.2273
 7260SOL     OW33415   2.302   2.723   3.479 -0.0678  0.1263 -0.4813
 7260SOL    HW133416   2.218   2.764   3.462 -1.3388 -1.6150  1.6904
 7260SOL    HW233417   2.270   2.643   3.520 -0.8587  1.4743  1.5082
 7261SOL     OW33418   2.869   0.609   6.910 -0.4017  0.5989  0.0615
 7261SOL    HW133419   2.780   0.608   6.874  0.2106 -1.3968 -1.4377
 7261SOL    HW233420   2.913   0.597   6.825  0.5807  0.9384  0.5222
 7262SOL     OW33421   4.734   4.383   5.088 -0.3569 -0.0225  0.4865
 7262SOL    HW133422   0.008   4.295   5.125  0.2267  0.2697  0.9765
 7262SOL    HW233423   0.084   4.405   5.057 -0.2982  1.9939  2.1701
 7263SOL     OW33424   2.063   1.984   9.588 -1.0301  0.6833  0.0665
 7263SOL    HW133425   2.152   1.950   9.596 -2.7084 -3.9670 -0.8998
 7263SOL    HW233426   2.015   1.958   9.666  0.8540  0.5882  1.1960
 7264SOL     OW33427   1.702   1.367  14.736  0.4642  0.8605  0.3436
 7264SOL    HW133428   1.710   1.458  14.708 -0.0287  0.6267 -0.5721
 7264SOL    HW233429   1.792   1.353  14.764  0.4505  1.1147  0.5041
 7265SOL     OW33430   3.667   0.894   7.195 -0.1464 -0.1498 -0.1646
 7265SOL    HW133431   3.682   0.899   7.289  0.8321  1.7271 -0.4240
 7265SOL    HW233432   3.586   0.843   7.201 -1.4591  2.2585  2.5382
 7266SOL     OW33433   0.114   2.813   5.694  0.0237  0.1834  0.0109
 7266SOL    HW133434   0.037   2.807   5.638  0.7373 -3.4622 -0.6079
 7266SOL    HW233435   0.164   2.747   5.645  1.4455  0.8008  0.6223
 7267SOL     OW33436   0.743   3.398   0.424  0.5450 -0.1009  1.2740
 7267SOL    HW133437   0.807   3.465   0.448  1.0579 -0.1934  0.1408
 7267SOL    HW233438   0.775   3.329   0.484  0.2962  0.4161  2.0061
 7268SOL     OW33439   4.569   2.190   0.141 -0.2677 -0.8085 -0.6567
 7268SOL    HW133440   4.654   2.235   0.141 -1.4654  1.3900 -0.8676
 7268SOL    HW233441   4.591   2.096   0.144  1.2707 -0.4247  0.1853
 7269SOL     OW33442   0.349   3.201   3.036  0.1307 -0.3803  0.3832
 7269SOL    HW133443   0.288   3.166   2.970  0.2739 -0.1513  0.1288
 7269SOL    HW233444   0.432   3.202   2.988 -0.2704  0.4630 -0.2976
 7270SOL     OW33445   3.041   4.371   4.393  0.2708  0.0134  0.0434
 7270SOL    HW133446   3.083   4.298   4.439 -1.4751  0.7889  2.8358
 7270SOL    HW233447   2.955   4.330   4.387 -0.0192  0.2823  2.3362
 7271SOL     OW33448   2.327   3.415   7.962  0.0507  0.2894  0.6153
 7271SOL    HW133449   2.319   3.423   7.867 -0.9328 -0.0182  0.6659
 7271SOL    HW233450   2.388   3.343   7.977 -1.2168 -0.6981  1.1063
 7272SOL     OW33451   0.622   3.457   6.117  0.0306  0.7231 -0.8355
 7272SOL    HW133452   0.650   3.496   6.200  0.5807 -0.1168 -0.6276
 7272SOL    HW233453   0.551   3.401   6.146  0.0873  2.0580  1.8687
 7273SOL     OW33454   3.413   0.469   4.782 -0.4501 -0.0319 -0.0536
 7273SOL    HW133455   3.442   0.444   4.870 -1.5627 -1.0927  0.0066
 7273SOL    HW233456   3.327   0.428   4.775  0.8759 -3.0707  1.2130
 7274SOL     OW33457   0.171   2.966  12.181 -0.9968  0.4139 -0.1549
 7274SOL    HW133458   0.261   2.975  12.210 -1.5160 -2.3329  2.2611
 7274SOL    HW233459   0.141   3.055  12.162 -1.3415  0.1965 -0.6473
 7275SOL     OW33460   0.932   1.155  11.289  0.3189 -0.3445  0.1700
 7275SOL    HW133461   0.979   1.166  11.206  0.3746 -0.5936  0.1670
 7275SOL    HW233462   0.987   1.195  11.356 -0.1958  1.9779 -0.8004
 7276SOL     OW33463   1.245   1.108   7.743  0.0322  0.0323  0.2485
 7276SOL    HW133464   1.295   1.029   7.722  0.0375  0.3333 -0.8341
 7276SOL    HW233465   1.313   1.173   7.728 -0.2957  0.3270  0.0391
 7277SOL     OW33466   1.812   2.708   4.064 -0.5974  0.7421 -0.3931
 7277SOL    HW133467   1.806   2.779   4.000  2.2019  1.3497  0.0332
 7277SOL    HW233468   1.859   2.643   4.013 -0.1537  1.5710 -1.0227
 7278SOL     OW33469   2.986   3.572  12.040  0.3418 -0.0665 -0.1664
 7278SOL    HW133470   2.930   3.506  12.082  0.1274  0.1963 -0.0404
 7278SOL    HW233471   2.925   3.624  11.988 -1.1109 -2.2682 -0.6991
 7279SOL     OW33472   0.758   0.543   6.447 -0.1090 -0.0934 -0.0452
 7279SOL    HW133473   0.745   0.581   6.360 -1.0817 -2.3773 -0.8958
 7279SOL    HW233474   0.674   0.561   6.489 -0.2365 -0.7805 -0.0179
 7280SOL     OW33475   1.846   2.869   3.862  0.3813 -0.6310  0.0523
 7280SOL    HW133476   1.925   2.902   3.819  1.6777  1.4256  3.9917
 7280SOL    HW233477   1.789   2.945   3.850  0.4433 -0.8561 -1.7727
 7281SOL     OW33478   1.762   2.955   1.117  0.2164  0.2767  0.0268
 7281SOL    HW133479   1.681   2.977   1.070  0.6394 -0.0388 -0.8559
 7281SOL    HW233480   1.774   2.860   1.108  0.3329  0.3021 -0.0876
 7282SOL     OW33481   4.396   1.708   6.746 -0.0347  0.4579 -0.8627
 7282SOL    HW133482   4.347   1.637   6.786  1.9642  0.0490  0.8600
 7282SOL    HW233483   4.336   1.779   6.769  2.1260  1.7297  0.7511
 7283SOL     OW33484   0.482   1.829   7.765 -0.8465  0.1419  0.2005
 7283SOL    HW133485   0.427   1.756   7.794  0.6914  0.2429  3.3374
 7283SOL    HW233486   0.477   1.880   7.846  1.8401  0.9062 -0.1116
 7284SOL     OW33487   4.419   0.363   8.711 -0.1304  0.8309  0.3357
 7284SOL    HW133488   4.447   0.333   8.624 -2.0123  0.3178 -0.1172
 7284SOL    HW233489   4.324   0.357   8.696 -0.1265  0.0873  0.6003
 7285SOL     OW33490   4.224   2.998   1.830 -0.1285 -0.1476  0.5430
 7285SOL    HW133491   4.218   2.974   1.737 -0.1960  3.3414 -0.3510
 7285SOL    HW233492   4.310   3.039   1.836 -0.7375  0.9510  1.6672
 7286SOL     OW33493   0.718   3.149   6.476  0.3590  0.1637  0.0171
 7286SOL    HW133494   0.773   3.211   6.428 -0.8421  2.3338  1.4848
 7286SOL    HW233495   0.707   3.090   6.401 -1.7246  1.3967 -0.6396
 7287SOL     OW33496   1.417   3.726   8.272 -0.1757  0.0710 -0.3371
 7287SOL    HW133497   1.367   3.663   8.220  0.1676  0.9014 -1.6697
 7287SOL    HW233498   1.423   3.801   8.213  3.0968 -0.0760 -0.1401
 7288SOL     OW33499   3.283   2.046  15.001  0.0814 -0.0862 -0.1984
 7288SOL    HW133500   3.281   1.963  14.954 -0.9177  0.4067 -1.0440
 7288SOL    HW233501   3.190   2.064  14.987 -0.1048  0.3041  1.5122
 7289SOL     OW33502   0.057   3.848  16.094 -0.2832 -0.6626 -0.2754
 7289SOL    HW133503   0.133   3.837  16.151 -0.1084 -2.3535 -0.8276
 7289SOL    HW233504   4.725   3.891  16.143  0.7353  0.4822  0.1800
 7290SOL     OW33505   3.271   2.759   5.319 -0.2186 -0.1782  0.7989
 7290SOL    HW133506   3.310   2.838   5.283 -2.6441  0.2466 -0.8800
 7290SOL    HW233507   3.346   2.720   5.364  1.0756 -0.4805 -1.6334
 7291SOL     OW33508   4.737   3.792   5.559  0.0149 -0.0824  0.8027
 7291SOL    HW133509   0.032   3.859   5.618  1.2770 -0.9010  1.0307
 7291SOL    HW233510   0.066   3.725   5.566 -1.3191 -1.4480  0.7681
 7292SOL     OW33511   3.839   1.434  13.578  0.0726  0.1550 -0.0644
 7292SOL    HW133512   3.838   1.525  13.548 -1.2131 -0.6702 -2.5137
 7292SOL    HW233513   3.745   1.425  13.596  0.3808 -1.2708  0.8357
 7293SOL     OW33514   1.683   0.129   4.609 -0.1246  0.1911  0.6549
 7293SOL    HW133515   1.594   0.137   4.644 -0.4521  1.0387 -0.3807
 7293SOL    HW233516   1.679   0.043   4.569  1.7840  0.6646 -0.5367
 7294SOL     OW33517   0.329   0.585   5.967 -0.5367  0.1935  0.0464
 7294SOL    HW133518   0.309   0.525   5.895  0.9077 -0.6558  0.3584
 7294SOL    HW233519   0.420   0.609   5.955 -0.6053  0.3196 -0.2393
 7295SOL     OW33520   2.343   3.497  17.553  0.1193  0.1231 -0.2928
 7295SOL    HW133521   2.412   3.453  17.603  0.6193 -1.0410 -1.9992
 7295SOL    HW233522   2.314   3.557  17.622  0.7983 -0.8588  0.8529
 7296SOL     OW33523   0.239   2.825   2.349  0.2044 -0.2557 -0.5375
 7296SOL    HW133524   0.302   2.874   2.402 -1.9782  1.0285  0.8883
 7296SOL    HW233525   0.284   2.843   2.266  1.0634 -0.4670 -0.1186
 7297SOL     OW33526   0.409   3.837   0.983 -0.4342 -0.3747 -0.0336
 7297SOL    HW133527   0.458   3.877   1.055 -0.1298  0.9316 -0.9501
 7297SOL    HW233528   0.470   3.809   0.914  0.6055 -1.7822  1.4860
 7298SOL     OW33529   3.473   4.331   7.957  0.2425 -0.4693  0.0250
 7298SOL    HW133530   3.425   4.275   8.019 -0.9900 -0.4481 -0.9150
 7298SOL    HW233531   3.563   4.325   7.990  0.4086 -0.5736 -0.4542
 7299SOL     OW33532   3.780   1.770   5.790  0.8094  0.3418  0.2600
 7299SOL    HW133533   3.797   1.857   5.828 -0.8278  0.7671  0.0261
 7299SOL    HW233534   3.686   1.763   5.776  0.9067 -1.0400  0.2977
 7300SOL     OW33535   1.439   0.441   2.771  0.3473 -0.3912 -0.9081
 7300SOL    HW133536   1.408   0.371   2.715  0.2874  0.4895 -1.9755
 7300SOL    HW233537   1.417   0.522   2.725  1.6407 -0.0230 -0.9014
 7301SOL     OW33538   2.548   0.506  13.038 -0.8731 -0.2649  0.0199
 7301SOL    HW133539   2.502   0.427  13.068  0.8632 -0.1498  2.8853
 7301SOL    HW233540   2.551   0.495  12.943 -0.8817 -0.3316  0.0268
 7302SOL     OW33541   0.928   4.556   6.010  0.3230 -0.2974  0.0407
 7302SOL    HW133542   1.021   4.543   6.032  0.2256 -0.7887  0.1703
 7302SOL    HW233543   0.908   4.478   5.957  1.7126  0.3877 -1.4884
 7303SOL     OW33544   3.705   4.480   6.332 -0.1092  0.1854  0.0809
 7303SOL    HW133545   3.730   4.572   6.330 -0.7905  0.3336 -1.6322
 7303SOL    HW233546   3.610   4.491   6.336 -0.2456 -0.4667 -1.2873
 7304SOL     OW33547   3.976   2.068   7.359  0.2360 -0.3761 -0.0024
 7304SOL    HW133548   4.032   2.037   7.430 -1.5865  1.6165  2.3413
 7304SOL    HW233549   3.984   2.161   7.380  1.0397 -0.8114  1.6220
 7305SOL     OW33550   0.197   2.995   6.976 -0.0048 -0.2096 -0.3088
 7305SOL    HW133551   0.249   2.992   7.057  0.0935  1.4911 -0.3061
 7305SOL    HW233552   0.251   2.938   6.921  1.2433 -0.1051  0.7979
 7306SOL     OW33553   0.984   3.941   4.522 -0.0535  0.2737  0.2060
 7306SOL    HW133554   0.952   3.852   4.504 -1.1966  1.2475 -2.5095
 7306SOL    HW233555   0.914   3.990   4.567  0.7845  1.0040  0.7063
 7307SOL     OW33556   1.717   2.088   9.975  0.1934 -0.3650 -0.1337
 7307SOL    HW133557   1.640   2.072   9.921  0.9392 -0.2074 -1.2335
 7307SOL    HW233558   1.692   2.034  10.050 -0.7529  0.3554  0.0693
 7308SOL     OW33559   0.702   1.322   6.407  0.0200  0.0504 -1.1941
 7308SOL    HW133560   0.624   1.345   6.457  1.8341 -0.2901  1.8018
 7308SOL    HW233561   0.756   1.401   6.415 -1.8152  1.2900 -1.2010
 7309SOL     OW33562   4.600   3.125  14.870 -0.2435 -0.0419  0.0813
 7309SOL    HW133563   4.588   3.097  14.779  4.2097  2.3254 -1.2555
 7309SOL    HW233564   4.694   3.139  14.881 -0.6323  1.6516  1.1815
 7310SOL     OW33565   2.077   3.684  12.523 -0.7050 -0.4895  0.1204
 7310SOL    HW133566   2.084   3.590  12.505  0.3635 -0.5773  0.9592
 7310SOL    HW233567   1.997   3.701  12.573  0.2376  3.3676  0.3323
 7311SOL     OW33568   0.997   2.783   5.409  0.8035 -0.2633 -0.5764
 7311SOL    HW133569   1.042   2.865   5.429  1.0308 -0.4203 -0.4481
 7311SOL    HW233570   1.025   2.763   5.319  2.1210  1.0245 -0.4625
 7312SOL     OW33571   2.357   0.117   8.405  0.1306 -0.3011 -0.3196
 7312SOL    HW133572   2.265   0.140   8.393  0.3383  1.3962  1.3491
 7312SOL    HW233573   2.389   0.183   8.467  1.0241 -0.2215 -0.8679
 7313SOL     OW33574   0.407   3.639   5.664 -0.2315  0.8057  0.2395
 7313SOL    HW133575   0.337   3.593   5.618  2.2140 -2.3585 -0.3837
 7313SOL    HW233576   0.433   3.571   5.726 -0.9020  0.3181 -0.0150
 7314SOL     OW33577   0.781   1.919   0.198  0.0651  0.1873  0.1684
 7314SOL    HW133578   0.872   1.928   0.169 -0.1286  0.2763 -0.4055
 7314SOL    HW233579   0.738   1.891   0.118  0.1624 -2.6704  1.1291
 7315SOL     OW33580   2.446   0.284   9.277  0.3067  0.0806  0.0280
 7315SOL    HW133581   2.452   0.213   9.341  2.3742  0.2023 -0.0440
 7315SOL    HW233582   2.517   0.282   9.213  0.5512  0.2217  0.2976
 7316SOL     OW33583   4.365   0.933  15.902 -0.2090  0.6119 -0.1622
 7316SOL    HW133584   4.407   0.970  15.824 -0.5263  0.2076 -0.5246
 7316SOL    HW233585   4.394   0.845  15.877  0.3963  0.8361 -0.2573
 7317SOL     OW33586   4.414   4.617   6.642 -0.2438 -0.5656 -0.9412
 7317SOL    HW133587   4.370   4.638   6.724  2.9724  0.7439  0.4859
 7317SOL    HW233588   4.343   4.580   6.590 -3.2207  0.9998  2.0066
 7318SOL     OW33589   1.655   3.007  10.204 -0.7119 -0.9371 -0.3769
 7318SOL    HW133590   1.568   2.971  10.187 -1.6302 -0.0607  2.4560
 7318SOL    HW233591   1.669   3.047  10.118  0.0848 -0.2149  0.0805
 7319SOL     OW33592   2.576   0.920   5.688 -0.0160 -0.0781  0.2504
 7319SOL    HW133593   2.584   0.986   5.619 -1.8320 -0.1951 -0.0949
 7319SOL    HW233594   2.603   0.965   5.768 -2.4082  1.6113  0.1271
 7320SOL     OW33595   3.640   1.991   5.179 -0.8517 -0.2024  0.3588
 7320SOL    HW133596   3.572   1.932   5.147 -1.2277 -0.1004  0.9914
 7320SOL    HW233597   3.588   2.068   5.201  0.0157  0.9327 -1.4812
 7321SOL     OW33598   0.865   1.759   2.785  0.0573  0.4699 -0.6178
 7321SOL    HW133599   0.942   1.737   2.838  0.4411 -1.6518 -2.0593
 7321SOL    HW233600   0.796   1.721   2.840 -0.5993  0.2220 -1.6200
 7322SOL     OW33601   0.431   2.916  17.062  0.4021  0.0097 -0.2659
 7322SOL    HW133602   0.510   2.872  17.091  0.7101 -1.0825 -2.8168
 7322SOL    HW233603   0.366   2.904  17.131  0.8360 -1.0333 -0.0522
 7323SOL     OW33604   1.552   2.310  10.292 -0.4228 -0.2131 -0.1885
 7323SOL    HW133605   1.507   2.343  10.369  1.9617  1.9384  0.2666
 7323SOL    HW233606   1.524   2.377  10.229  0.4182 -1.4417 -1.8687
 7324SOL     OW33607   0.397   2.202   5.875  0.1574  0.2833 -0.2486
 7324SOL    HW133608   0.341   2.180   5.950 -0.9035 -0.5848 -1.2927
 7324SOL    HW233609   0.433   2.119   5.845 -0.0731  0.9691 -2.4265
 7325SOL     OW33610   2.213   2.924  13.925  0.5550  0.3223  0.6975
 7325SOL    HW133611   2.270   2.869  13.979  1.0278 -0.7795 -0.9159
 7325SOL    HW233612   2.235   2.999  13.980  2.0380  0.0122  0.5163
 7326SOL     OW33613   3.565   1.339  16.839 -0.1691  0.0246  0.2608
 7326SOL    HW133614   3.513   1.380  16.908  1.0474  0.6788  0.7664
 7326SOL    HW233615   3.518   1.255  16.835  2.7667 -1.5496 -1.7648
 7327SOL     OW33616   0.234   3.470   8.100  0.2480 -0.3839  0.1310
 7327SOL    HW133617   0.250   3.388   8.146  1.0987 -0.7947 -0.8841
 7327SOL    HW233618   0.171   3.513   8.158  0.9030 -1.0977  1.3623
 7328SOL     OW33619   3.586   0.882   5.432  0.2319 -0.6436  0.3267
 7328SOL    HW133620   3.673   0.861   5.466 -0.0422 -0.4525  1.1454
 7328SOL    HW233621   3.603   0.937   5.356 -0.3262 -1.0535 -0.0895
 7329SOL     OW33622   4.427   0.992   1.555 -0.4490 -0.0943 -0.5918
 7329SOL    HW133623   4.428   1.018   1.647 -0.3462  0.3235 -0.7139
 7329SOL    HW233624   4.489   1.059   1.527  0.1534  1.0079  3.3135
 7330SOL     OW33625   1.110   2.421   6.862  0.0876  0.3161 -0.2807
 7330SOL    HW133626   1.031   2.430   6.808  0.9907 -0.6861 -1.7767
 7330SOL    HW233627   1.181   2.420   6.798 -1.1621  0.8122 -1.6778
 7331SOL     OW33628   0.582   4.453   8.785  0.1818 -0.2181  0.0378
 7331SOL    HW133629   0.652   4.499   8.831 -0.4087  0.5315  0.1793
 7331SOL    HW233630   0.529   4.432   8.862 -1.0332  1.0602 -0.4488
 7332SOL     OW33631   3.777   3.984   4.881 -0.2863  0.6354 -0.2817
 7332SOL    HW133632   3.697   3.946   4.917  1.0189 -2.1403 -0.2981
 7332SOL    HW233633   3.851   3.925   4.897 -0.6136  0.0683 -0.8480
 7333SOL     OW33634   1.453   3.170  15.043  0.1057 -0.2551  0.2074
 7333SOL    HW133635   1.375   3.121  15.018  1.9698 -2.8720 -0.4272
 7333SOL    HW233636   1.523   3.134  14.988 -2.3273 -0.0045 -2.9833
 7334SOL     OW33637   0.021   0.460  13.577  0.4437 -0.3184  0.0011
 7334SOL    HW133638   4.698   0.433  13.509 -0.3497 -0.7353  0.8880
 7334SOL    HW233639   4.719   0.441  13.662 -0.4104  0.9915 -0.1051
 7335SOL     OW33640   3.790   4.588   9.446 -0.1412 -0.5516 -0.0342
 7335SOL    HW133641   3.728   4.658   9.464  0.9776  0.2134  0.8177
 7335SOL    HW233642   3.856   4.651   9.416 -0.4018  0.0194  0.6094
 7336SOL     OW33643   4.057   2.323   3.157 -0.1355  0.7381 -0.1801
 7336SOL    HW133644   4.095   2.285   3.078 -1.5198  0.8298 -0.8902
 7336SOL    HW233645   4.132   2.338   3.214  0.6849 -0.3677 -0.9829
 7337SOL     OW33646   3.834   2.070   9.191 -0.1442 -0.3607 -0.6099
 7337SOL    HW133647   3.789   2.151   9.165  0.8688  0.0151 -1.1896
 7337SOL    HW233648   3.907   2.100   9.244 -0.8187 -0.7088  0.5108
 7338SOL     OW33649   3.920   3.263   5.090  0.2828 -0.2354 -0.3371
 7338SOL    HW133650   3.866   3.312   5.153  1.1145  0.8948 -0.5114
 7338SOL    HW233651   3.932   3.333   5.025 -1.0077  1.1487  0.8903
 7339SOL     OW33652   1.682   1.536   2.416 -0.2327  1.0080  0.0519
 7339SOL    HW133653   1.621   1.606   2.443 -1.6856 -0.2054 -0.0725
 7339SOL    HW233654   1.746   1.549   2.485 -0.0174 -1.1377  0.2355
 7340SOL     OW33655   3.377   4.302   3.731  0.2315  0.2407  0.6969
 7340SOL    HW133656   3.449   4.291   3.793 -0.1078 -0.6295  0.9309
 7340SOL    HW233657   3.406   4.363   3.663 -1.7215 -0.1958 -0.5257
 7341SOL     OW33658   3.073   0.143   6.067 -0.0136 -0.2023 -0.2663
 7341SOL    HW133659   2.984   0.113   6.083  0.0650  0.4408  1.4279
 7341SOL    HW233660   3.086   0.204   6.140 -1.5554  0.2647 -0.3761
 7342SOL     OW33661   1.475   0.557   8.211 -0.1525  0.6804  0.2356
 7342SOL    HW133662   1.481   0.569   8.306 -0.1539  2.4311  0.0252
 7342SOL    HW233663   1.569   0.547   8.192 -0.0477 -0.2914  1.3058
 7343SOL     OW33664   1.633   1.640   8.534 -0.2707 -0.7184  0.7433
 7343SOL    HW133665   1.562   1.704   8.522  1.7996  1.2314 -1.2506
 7343SOL    HW233666   1.680   1.688   8.602 -0.6040  0.4244  0.1672
 7344SOL     OW33667   2.647   3.525   2.208 -0.3938  0.3147 -0.1785
 7344SOL    HW133668   2.723   3.559   2.256  0.2218 -2.2708  0.6398
 7344SOL    HW233669   2.661   3.431   2.212 -0.5794  0.2143 -1.9648
 7345SOL     OW33670   2.990   3.777  16.931 -0.3989 -0.6998 -0.0390
 7345SOL    HW133671   3.081   3.765  16.904 -0.5314  1.5662 -1.4872
 7345SOL    HW233672   2.991   3.715  17.004 -0.0050 -0.0960  0.4744
 7346SOL     OW33673   1.799   1.620   4.323  0.3415 -0.3469 -0.1659
 7346SOL    HW133674   1.835   1.542   4.281 -1.2454 -0.4011 -1.4394
 7346SOL    HW233675   1.856   1.621   4.399 -0.3807  1.3202  0.3677
 7347SOL     OW33676   2.134   2.127   6.534  0.1044  0.5172  0.4549
 7347SOL    HW133677   2.044   2.102   6.513  0.7212 -0.5937 -0.8975
 7347SOL    HW233678   2.131   2.198   6.470 -0.8522  0.6029  0.5902
 7348SOL     OW33679   4.377   3.716   2.931  0.1358 -0.4790 -0.6342
 7348SOL    HW133680   4.455   3.681   2.974  0.7590  0.3259 -1.1078
 7348SOL    HW233681   4.411   3.799   2.897  1.8572 -1.1996 -0.6635
 7349SOL     OW33682   3.618   2.852  11.090  0.5680 -0.6319 -0.2733
 7349SOL    HW133683   3.635   2.821  11.001 -1.0951 -1.9647 -0.1409
 7349SOL    HW233684   3.659   2.938  11.095  1.0361 -0.8736  0.0372
 7350SOL     OW33685   0.487   1.248  10.245 -0.6536  0.1053 -0.4977
 7350SOL    HW133686   0.480   1.157  10.216  0.1846  0.4287 -1.7527
 7350SOL    HW233687   0.439   1.238  10.327 -0.5863 -0.3246 -0.5109
 7351SOL     OW33688   3.017   3.726   1.748  0.2287 -0.1753  0.6788
 7351SOL    HW133689   3.053   3.805   1.788 -0.6211  0.7572 -0.3982
 7351SOL    HW233690   2.952   3.700   1.814 -0.6564 -1.7955 -0.8253
 7352SOL     OW33691   4.507   1.931   9.550  1.0202 -0.1060 -0.6532
 7352SOL    HW133692   4.531   1.886   9.631 -1.4676 -2.2026 -1.0936
 7352SOL    HW233693   4.496   2.022   9.578 -0.3534 -0.0749 -1.3069
 7353SOL     OW33694   3.624   1.771   8.688 -0.1871 -0.2807  0.0223
 7353SOL    HW133695   3.719   1.768   8.685 -0.1610 -0.0510  0.6144
 7353SOL    HW233696   3.607   1.856   8.730 -1.3658 -0.4109 -0.1936
 7354SOL     OW33697   0.910   1.318   8.353 -0.0889  0.1361  0.6439
 7354SOL    HW133698   0.903   1.365   8.270 -0.4396  0.1477  0.6810
 7354SOL    HW233699   0.939   1.393   8.405  3.2790  0.4861 -1.6992
 7355SOL     OW33700   2.236   4.555   2.485 -0.3807 -0.0242  0.1800
 7355SOL    HW133701   2.225   4.513   2.400 -2.4231 -0.3129  0.5706
 7355SOL    HW233702   2.245   4.647   2.458 -0.7947  0.8907  3.1806
 7356SOL     OW33703   1.115   2.144   5.774  0.3796 -0.2216  0.4551
 7356SOL    HW133704   1.163   2.079   5.721  1.4164  0.8952  0.0295
 7356SOL    HW233705   1.036   2.160   5.723  0.1077 -0.0640  0.9354
 7357SOL     OW33706   4.113   1.129  17.051  0.0303 -0.6550 -0.2530
 7357SOL    HW133707   4.178   1.060  17.061  0.7487  0.0010 -0.4013
 7357SOL    HW233708   4.155   1.187  17.115  0.0817  2.7676 -3.4253
 7358SOL     OW33709   4.310   1.983   4.159 -0.4871 -0.1704 -0.0360
 7358SOL    HW133710   4.298   1.969   4.065  0.3388 -1.0089 -0.0180
 7358SOL    HW233711   4.396   1.942   4.173 -1.6223 -2.8774 -1.0385
 7359SOL     OW33712   0.084   3.334   2.102 -0.2786  0.2733  0.3769
 7359SOL    HW133713   0.140   3.257   2.109 -0.4820  0.2876  1.9919
 7359SOL    HW233714   0.085   3.371   2.190  1.2103  1.1397 -0.0130
 7360SOL     OW33715   1.245   2.723   3.455 -0.0386 -0.1921 -0.1934
 7360SOL    HW133716   1.336   2.727   3.424  0.3167  0.9111  0.9997
 7360SOL    HW233717   1.213   2.658   3.392  0.8668 -0.6571 -0.1721
 7361SOL     OW33718   0.216   2.141  13.334 -0.6198  0.4643 -0.1724
 7361SOL    HW133719   0.293   2.089  13.357 -0.4668  1.1034  0.7577
 7361SOL    HW233720   0.149   2.106  13.394  1.6085 -3.4779  0.0403
 7362SOL     OW33721   0.767   1.484   5.155  0.5356  0.1039 -0.0614
 7362SOL    HW133722   0.757   1.486   5.250 -0.4164  1.6011 -0.1952
 7362SOL    HW233723   0.850   1.436   5.148 -1.0610 -2.6757 -0.0392
 7363SOL     OW33724   1.900   3.071   7.451 -0.0550 -0.4298  0.3051
 7363SOL    HW133725   1.890   3.114   7.536 -0.2955 -0.2727  0.2005
 7363SOL    HW233726   1.853   2.988   7.455  0.0359 -0.5599 -1.3116
 7364SOL     OW33727   1.877   1.080   6.742  0.0202  0.4619  0.6221
 7364SOL    HW133728   1.956   1.045   6.783  0.4123  0.6770  0.0398
 7364SOL    HW233729   1.904   1.150   6.683 -1.2098  0.0268 -0.4621
 7365SOL     OW33730   1.085   1.877  13.815 -0.2953 -0.6242  0.3475
 7365SOL    HW133731   1.009   1.834  13.853  0.6273 -0.3888  2.4886
 7365SOL    HW233732   1.054   1.892  13.726  0.3111  0.3541  0.2982
 7366SOL     OW33733   3.705   4.107   3.201  0.1487 -0.1729 -0.1476
 7366SOL    HW133734   3.724   4.182   3.257 -0.6035 -0.2728  0.2382
 7366SOL    HW233735   3.772   4.125   3.136  0.3721  1.0811  0.4304
 7367SOL     OW33736   3.391   1.126   6.374  0.2927  0.2522 -0.4106
 7367SOL    HW133737   3.375   1.100   6.284 -3.1598 -0.1857  0.3083
 7367SOL    HW233738   3.306   1.105   6.414  0.3258  1.6504  0.3987
 7368SOL     OW33739   2.335   0.310   7.474 -0.3439  0.1030 -0.5858
 7368SOL    HW133740   2.263   0.258   7.509 -0.9806  2.8277  2.1200
 7368SOL    HW233741   2.375   0.349   7.552 -0.5705 -0.9028  0.0263
 7369SOL     OW33742   0.996   4.663  15.444 -0.7007 -0.0908 -0.8210
 7369SOL    HW133743   1.031   4.698  15.362 -0.1611  0.7698 -0.2272
 7369SOL    HW233744   0.933   4.728  15.477 -0.3832 -0.6631  0.9391
 7370SOL     OW33745   3.183   0.678   4.438  0.5663  0.9616  0.0869
 7370SOL    HW133746   3.111   0.623   4.406  0.6591  1.2850 -0.6749
 7370SOL    HW233747   3.257   0.642   4.389  0.3228  1.8414 -0.9384
 7371SOL     OW33748   0.094   1.959   3.035  0.1088 -0.4000  0.0676
 7371SOL    HW133749   0.019   1.951   2.976  0.2533 -3.0905  0.2843
 7371SOL    HW233750   0.076   2.043   3.078  0.1684 -1.1624  1.5864
 7372SOL     OW33751   2.357   2.349   4.637  0.1685  0.2713 -0.2451
 7372SOL    HW133752   2.376   2.266   4.593  1.5038  1.3181 -1.6388
 7372SOL    HW233753   2.295   2.336   4.708 -0.1191 -1.1729 -0.7563
 7373SOL     OW33754   2.016   4.209  13.943  0.5439  0.3492  0.8278
 7373SOL    HW133755   1.931   4.168  13.961  0.1518  0.7728 -0.0043
 7373SOL    HW233756   2.018   4.195  13.848 -0.0883  0.6529  0.7683
 7374SOL     OW33757   1.492   2.573   6.988 -0.1500 -0.1148  0.2173
 7374SOL    HW133758   1.499   2.478   6.977 -0.6772 -0.0732 -0.5446
 7374SOL    HW233759   1.580   2.603   6.965 -0.0192  0.3000  1.2691
 7375SOL     OW33760   1.750   1.926   3.998 -0.3386  0.0432  0.9372
 7375SOL    HW133761   1.821   1.966   3.948 -1.5911 -0.1388 -0.9625
 7375SOL    HW233762   1.723   1.851   3.945  1.3066  0.3353 -0.3060
 7376SOL     OW33763   2.709   1.876   9.013 -0.5392 -0.1559  0.4165
 7376SOL    HW133764   2.751   1.843   8.933 -0.3209  1.5585 -0.1960
 7376SOL    HW233765   2.673   1.797   9.051  1.5954 -1.3848 -0.1327
 7377SOL     OW33766   4.275   2.319  16.590 -0.5714 -0.2911  0.1477
 7377SOL    HW133767   4.239   2.324  16.679 -0.8356  0.1278  0.0141
 7377SOL    HW233768   4.197   2.320  16.536  0.0895 -3.0987 -0.8653
 7378SOL     OW33769   2.725   3.472  12.159  0.0941 -0.3607 -0.3540
 7378SOL    HW133770   2.708   3.504  12.071  0.4037 -0.6138 -0.5070
 7378SOL    HW233771   2.655   3.511  12.211 -0.0969  0.3496 -1.1569
 7379SOL     OW33772   3.968   3.896   7.322  0.3246 -0.4191  0.3119
 7379SOL    HW133773   3.900   3.832   7.341  1.5925 -1.7036  0.4828
 7379SOL    HW233774   4.056   3.858   7.329  0.4160  0.2031  2.8866
 7380SOL     OW33775   1.864   2.709   2.353  0.7776 -1.0590  0.1353
 7380SOL    HW133776   1.799   2.647   2.387 -0.8430  0.5430 -0.0458
 7380SOL    HW233777   1.819   2.788   2.385 -0.6630 -1.2079 -1.5716
 7381SOL     OW33778   1.322   2.770  15.008  0.0825 -0.1270  0.0909
 7381SOL    HW133779   1.240   2.746  14.964  0.1070  0.2094 -0.1315
 7381SOL    HW233780   1.298   2.834  15.075  0.9126 -1.0937  1.3001
 7382SOL     OW33781   0.083   3.603   8.602 -0.2532 -0.3491 -0.3263
 7382SOL    HW133782   0.011   3.659   8.573 -2.6603 -2.8689  0.8758
 7382SOL    HW233783   0.111   3.640   8.686 -0.7496 -2.0643  0.5862
 7383SOL     OW33784   0.236   1.162   5.437  0.1438 -0.1262  0.3012
 7383SOL    HW133785   0.260   1.074   5.466 -0.7918 -0.7122 -0.6883
 7383SOL    HW233786   0.178   1.187   5.509  0.7898  0.9589  0.4496
 7384SOL     OW33787   1.337   0.567   6.039  0.2767  0.4497  0.1637
 7384SOL    HW133788   1.384   0.617   6.106  1.4721 -1.4308  0.7269
 7384SOL    HW233789   1.351   0.475   6.061  1.3434  0.1123 -1.9555
 7385SOL     OW33790   2.037   0.662   2.847  0.7029  0.1613 -0.1901
 7385SOL    HW133791   2.022   0.715   2.769 -0.9130  2.1460  1.4524
 7385SOL    HW233792   1.948   0.657   2.881  0.6360 -0.0785 -0.4007
 7386SOL     OW33793   0.734   4.050   3.010 -0.1022 -0.2994  0.2005
 7386SOL    HW133794   0.656   4.105   2.996  0.4196 -0.2659 -2.6661
 7386SOL    HW233795   0.773   4.055   2.922 -1.2012  1.2052 -0.2194
 7387SOL     OW33796   1.543   3.218  17.414 -0.2444 -0.2138  0.2997
 7387SOL    HW133797   1.503   3.281  17.354 -0.2942 -0.1725  0.3762
 7387SOL    HW233798   1.631   3.205  17.379  0.1617 -0.7513  1.5162
 7388SOL     OW33799   3.444   0.745   7.279 -0.6534 -0.5238  0.0823
 7388SOL    HW133800   3.424   0.728   7.371 -1.3106  1.2405  0.2694
 7388SOL    HW233801   3.410   0.667   7.236 -1.6930  0.2023 -0.4108
 7389SOL     OW33802   1.003   1.683   7.951  0.4869 -0.0482  0.1255
 7389SOL    HW133803   1.042   1.771   7.957 -1.1143  0.7019 -0.5408
 7389SOL    HW233804   0.961   1.690   7.865  0.5947  0.1040  0.0825
 7390SOL     OW33805   3.484   2.095  10.571 -0.1555  0.0833 -0.1979
 7390SOL    HW133806   3.415   2.088  10.506  1.1454  0.7475 -1.6655
 7390SOL    HW233807   3.507   2.002  10.579  1.2066  0.5247  1.0102
 7391SOL     OW33808   0.604   1.423   2.984  0.1211  0.5844  0.4800
 7391SOL    HW133809   0.575   1.338   2.951  1.2924  0.3966 -0.0788
 7391SOL    HW233810   0.518   1.459   2.965 -0.2627 -0.6573 -0.0799
 7392SOL     OW33811   4.161   2.700   3.917 -0.0866  0.2769  0.3123
 7392SOL    HW133812   4.218   2.680   3.991  0.0184 -0.4230  0.0450
 7392SOL    HW233813   4.101   2.626   3.929 -0.2836  0.4635  0.4796
 7393SOL     OW33814   4.363   2.421   2.929 -0.0635 -0.3271  0.4276
 7393SOL    HW133815   4.443   2.439   2.880  0.0139 -1.6789  0.0628
 7393SOL    HW233816   4.382   2.478   3.003  1.5533 -2.4050  1.6264
 7394SOL     OW33817   4.243   1.807   0.707  0.0016 -0.5757  0.1483
 7394SOL    HW133818   4.332   1.838   0.724  0.5566 -3.8224  3.0152
 7394SOL    HW233819   4.222   1.877   0.644 -0.1233 -0.4935  0.2804
 7395SOL     OW33820   2.150   4.390   6.192 -0.4177 -0.1631  0.3186
 7395SOL    HW133821   2.239   4.385   6.159 -0.2608  0.3388  0.6594
 7395SOL    HW233822   2.131   4.298   6.211  1.7061 -0.7183 -0.3435
 7396SOL     OW33823   2.242   1.977   5.468  0.3577 -0.3716 -0.1251
 7396SOL    HW133824   2.170   1.991   5.406  1.5126  1.0220 -1.1457
 7396SOL    HW233825   2.278   1.896   5.432  0.5563  0.2830 -1.3872
 7397SOL     OW33826   1.321   0.486   3.251  0.2626  0.5907 -0.1367
 7397SOL    HW133827   1.300   0.407   3.301 -1.1406  1.1327  0.1058
 7397SOL    HW233828   1.258   0.475   3.180  2.6098  0.4245 -2.2149
 7398SOL     OW33829   4.253   3.597   5.611 -0.0625 -0.8548 -0.0596
 7398SOL    HW133830   4.345   3.604   5.639 -0.0804  0.4854 -0.3720
 7398SOL    HW233831   4.211   3.575   5.694 -0.2714 -0.0206  0.0556
 7399SOL     OW33832   4.359   1.171   7.433  0.1274  0.5755  0.5467
 7399SOL    HW133833   4.453   1.186   7.424  0.3038 -0.7904  0.0282
 7399SOL    HW233834   4.341   1.139   7.345  1.1642  2.0432 -0.1764
 7400SOL     OW33835   0.226   4.637   3.980 -0.0281  0.3056  0.3754
 7400SOL    HW133836   0.220   4.592   4.064 -1.4407  1.0166  0.6544
 7400SOL    HW233837   0.141   4.681   3.980  0.1440  0.6317  1.8602
 7401SOL     OW33838   1.847   2.326   8.701  0.0637  0.0666 -0.1866
 7401SOL    HW133839   1.881   2.265   8.766  2.1829  1.8314  0.3593
 7401SOL    HW233840   1.920   2.389   8.701  0.5395 -0.4837  0.2528
 7402SOL     OW33841   1.258   3.294  14.345 -0.0345 -0.9727  0.0956
 7402SOL    HW133842   1.289   3.335  14.264  2.3444  0.8578  1.9279
 7402SOL    HW233843   1.164   3.295  14.325  0.1879 -1.2094 -0.9616
 7403SOL     OW33844   1.213   3.241   9.695 -0.1307 -0.2434  0.7252
 7403SOL    HW133845   1.300   3.280   9.706 -0.1318 -0.5034  1.7090
 7403SOL    HW233846   1.226   3.152   9.726 -2.4824 -0.9232 -0.2216
 7404SOL     OW33847   0.839   1.498   3.721 -0.4594  0.4080  0.4656
 7404SOL    HW133848   0.801   1.497   3.633 -0.8071 -0.0392  0.6213
 7404SOL    HW233849   0.757   1.514   3.767  1.1737 -2.1352  4.2957
 7405SOL     OW33850   2.811   0.274   4.458 -0.1068  0.1563 -0.1013
 7405SOL    HW133851   2.776   0.237   4.539  0.1882  1.4911  0.6452
 7405SOL    HW233852   2.731   0.263   4.407  1.7140 -0.3503 -2.8105
 7406SOL     OW33853   2.111   0.956   6.860 -0.3179  0.3368  0.4128
 7406SOL    HW133854   2.113   1.040   6.905 -1.8511  0.9012 -0.6120
 7406SOL    HW233855   2.206   0.944   6.850  0.2496  1.5673  4.1464
 7407SOL     OW33856   1.872   3.226   4.038 -0.0503  0.3186  0.6888
 7407SOL    HW133857   1.821   3.298   4.075 -1.2201 -1.7159  3.0539
 7407SOL    HW233858   1.954   3.275   4.042 -1.0035  2.0627 -1.1818
 7408SOL     OW33859   2.742   4.027   8.101  0.5589 -0.5233 -0.5365
 7408SOL    HW133860   2.701   4.068   8.178 -1.3325 -0.6176 -1.4997
 7408SOL    HW233861   2.685   3.950   8.094 -0.2152 -0.1877  1.8394
 7409SOL     OW33862   4.544   4.651  12.604  0.3490 -0.1759  0.4313
 7409SOL    HW133863   4.454   4.680  12.609  0.3636 -0.0545 -0.0573
 7409SOL    HW233864   4.592   4.732  12.590 -1.0147  0.3574 -1.0966
 7410SOL     OW33865   0.647   3.746   5.177  0.2042  0.1317  0.2649
 7410SOL    HW133866   0.693   3.785   5.103 -1.4975  0.6363 -0.5477
 7410SOL    HW233867   0.725   3.712   5.220  0.6190  0.1210 -0.5084
 7411SOL     OW33868   3.972   4.393  17.032  0.3704 -0.5915 -0.1794
 7411SOL    HW133869   4.057   4.401  16.991 -0.0860 -0.3428 -1.0746
 7411SOL    HW233870   3.924   4.341  16.968  1.0887 -1.7067  0.1883
 7412SOL     OW33871   1.277   1.318   6.005 -0.2428  0.2618  0.0619
 7412SOL    HW133872   1.367   1.347   5.990  0.0329  0.3722  1.9288
 7412SOL    HW233873   1.284   1.226   6.031 -0.7931  0.6072  1.4204
 7413SOL     OW33874   0.153   2.231   6.995  0.2447 -0.8575  0.3750
 7413SOL    HW133875   0.080   2.180   6.960 -0.2821  1.2683 -1.6001
 7413SOL    HW233876   0.147   2.227   7.090  0.7788 -0.7838  0.4128
 7414SOL     OW33877   0.518   3.485   8.033 -0.3545  0.3192 -0.3123
 7414SOL    HW133878   0.483   3.507   7.947 -0.8317  0.3463 -0.1172
 7414SOL    HW233879   0.435   3.474   8.080 -0.2366 -0.3055 -0.2435
 7415SOL     OW33880   1.922   0.217   4.764  0.1637  0.5611 -0.7019
 7415SOL    HW133881   1.842   0.166   4.753 -0.7195  1.5238  1.2551
 7415SOL    HW233882   1.997   0.163   4.738  1.9805  1.6028  2.2961
 7416SOL     OW33883   0.553   4.456   4.805 -0.3140  0.1157  0.4322
 7416SOL    HW133884   0.524   4.409   4.884  0.5578 -0.8162  0.1953
 7416SOL    HW233885   0.468   4.447   4.761  0.0786  1.1691 -0.4978
 7417SOL     OW33886   1.132   0.308  14.144 -0.5726  0.1772  0.0486
 7417SOL    HW133887   1.086   0.376  14.094  1.5898  0.7243 -1.1977
 7417SOL    HW233888   1.214   0.356  14.144  1.4277 -3.2357 -2.3265
 7418SOL     OW33889   3.880   3.658   1.578 -0.3697  0.6599 -0.2269
 7418SOL    HW133890   3.786   3.675   1.590 -0.6034 -1.8715  1.5549
 7418SOL    HW233891   3.871   3.582   1.520 -1.3645  2.4500 -2.4099
 7419SOL     OW33892   1.835   3.875   3.422 -0.1103  0.3531 -0.3708
 7419SOL    HW133893   1.872   3.795   3.459  0.2114  0.3052 -0.7835
 7419SOL    HW233894   1.820   3.849   3.331 -1.3370  0.3729 -0.1720
 7420SOL     OW33895   0.492   2.269   6.243 -0.2856 -0.1562  0.0057
 7420SOL    HW133896   0.506   2.331   6.315 -1.2100 -0.6387  0.6075
 7420SOL    HW233897   0.467   2.327   6.171 -0.7386 -0.5555 -0.1523
 7421SOL     OW33898   4.254   3.046   4.165 -0.9520  0.8675 -0.2733
 7421SOL    HW133899   4.258   3.133   4.204  1.7989  0.9458 -0.6891
 7421SOL    HW233900   4.333   3.006   4.201 -1.7841  0.1679  0.7784
 7422SOL     OW33901   1.528   4.149   3.767 -0.5368 -0.3661  0.1897
 7422SOL    HW133902   1.547   4.055   3.764 -1.3485 -0.5551  0.8861
 7422SOL    HW233903   1.583   4.182   3.838 -1.1716  1.1142  0.0018
 7423SOL     OW33904   3.698   0.782   6.133 -0.3251 -0.0560  0.0597
 7423SOL    HW133905   3.701   0.876   6.117  0.2881 -0.4823 -2.4479
 7423SOL    HW233906   3.782   0.777   6.178  0.3792  0.4165 -1.2004
 7424SOL     OW33907   3.530   2.456   9.541 -0.0447  0.3849  0.6310
 7424SOL    HW133908   3.581   2.510   9.481  1.3340  1.2532  2.5964
 7424SOL    HW233909   3.571   2.486   9.623  1.7613  0.6740 -0.3726
 7425SOL     OW33910   2.853   1.468   8.309  0.3326  0.7886 -0.1258
 7425SOL    HW133911   2.896   1.385   8.330  1.8065  1.3539 -0.8936
 7425SOL    HW233912   2.763   1.444   8.327  1.1330 -2.3655 -0.3645
 7426SOL     OW33913   3.430   1.357   5.013 -0.2838 -0.2487  0.3588
 7426SOL    HW133914   3.426   1.341   5.107 -0.5581  0.9140  0.5497
 7426SOL    HW233915   3.447   1.273   4.972 -2.6980 -0.0965 -1.0022
 7427SOL     OW33916   0.883   0.735   5.877  0.8090 -0.2794 -0.3640
 7427SOL    HW133917   0.977   0.731   5.862  1.1554 -2.2503  2.3501
 7427SOL    HW233918   0.868   0.799   5.946 -0.2306 -0.7166 -0.1829
 7428SOL     OW33919   0.648   4.524   3.806  0.2610 -0.0049  0.4649
 7428SOL    HW133920   0.670   4.433   3.823 -2.3535 -0.5256  1.0581
 7428SOL    HW233921   0.572   4.522   3.747  0.4854 -1.2580  0.2198
 7429SOL     OW33922   1.513   0.554   3.032 -1.1087 -0.4900 -0.6269
 7429SOL    HW133923   1.461   0.489   3.080 -1.4733 -0.6131 -1.1914
 7429SOL    HW233924   1.517   0.509   2.948  1.8052 -1.0301 -0.2190
 7430SOL     OW33925   0.213   0.044   3.233 -0.5129  0.2958 -0.1807
 7430SOL    HW133926   0.220   4.699   3.187  0.3989  0.5339 -0.4857
 7430SOL    HW233927   0.278   0.085   3.175  1.4774 -1.2907  0.9270
 7431SOL     OW33928   2.002   1.990   3.898  0.3216 -0.0232 -0.1733
 7431SOL    HW133929   2.041   2.043   3.968 -0.6357 -2.6045  2.2680
 7431SOL    HW233930   2.071   1.924   3.888  2.0065  1.8468 -1.1290
 7432SOL     OW33931   2.986   3.015   8.302  0.0557 -0.0770  0.0429
 7432SOL    HW133932   2.980   2.920   8.296 -0.9196 -0.0457  0.3979
 7432SOL    HW233933   2.909   3.043   8.352 -0.1455 -1.6326  0.5926
 7433SOL     OW33934   2.698   1.642   2.373 -0.1229  0.5785  0.0359
 7433SOL    HW133935   2.624   1.589   2.403 -0.3849 -0.4634 -2.4963
 7433SOL    HW233936   2.711   1.698   2.450  3.2388  1.4043 -1.1424
 7434SOL     OW33937   4.366   2.872   5.775  0.1203  0.1488  0.5991
 7434SOL    HW133938   4.377   2.916   5.691 -2.4235 -0.4143 -0.0296
 7434SOL    HW233939   4.419   2.921   5.838  3.3005 -2.0995 -0.2801
 7435SOL     OW33940   2.403   4.285   4.221  0.2765  0.4732 -0.1824
 7435SOL    HW133941   2.462   4.215   4.250  2.1448  1.3238 -1.9019
 7435SOL    HW233942   2.361   4.247   4.143  2.3391 -0.4476 -0.8402
 7436SOL     OW33943   3.509   4.683   4.326  0.4789  0.0220  0.0956
 7436SOL    HW133944   3.581   4.621   4.342  0.1357  0.2042  2.2656
 7436SOL    HW233945   3.460   4.641   4.256 -0.8639  0.8204  0.5664
 7437SOL     OW33946   1.071   1.797   3.985 -0.2311 -0.8178 -0.3060
 7437SOL    HW133947   0.982   1.781   3.953 -0.1138 -0.1592 -0.9558
 7437SOL    HW233948   1.058   1.797   4.079 -0.4077  0.7917 -0.3435
 7438SOL     OW33949   0.201   1.745   5.887  0.1920 -0.1861 -0.2311
 7438SOL    HW133950   0.158   1.773   5.806 -2.7142  2.0795  2.0964
 7438SOL    HW233951   0.256   1.823   5.896 -1.0836  0.6484  0.3716
 7439SOL     OW33952   0.455   0.196  16.777 -0.2281  0.3022  0.4709
 7439SOL    HW133953   0.533   0.189  16.832  2.3489 -2.9391 -3.5997
 7439SOL    HW233954   0.487   0.143  16.704 -3.1610 -1.6674  0.6219
 7440SOL     OW33955   3.883   1.726   3.827 -0.6361 -0.4385 -0.0674
 7440SOL    HW133956   3.911   1.711   3.737  1.5626  0.1408  0.5174
 7440SOL    HW233957   3.853   1.816   3.835  0.5265 -0.1826  1.4227
 7441SOL     OW33958   4.621   0.919   1.787 -0.2079  0.3044  0.1730
 7441SOL    HW133959   4.693   0.938   1.727 -0.6665  2.0620  0.1791
 7441SOL    HW233960   4.615   0.824   1.798  2.1817  0.0088 -1.0575
 7442SOL     OW33961   3.346   2.341   7.952 -0.0063  0.5602  0.0077
 7442SOL    HW133962   3.397   2.415   7.984 -0.8697  1.9950 -1.9633
 7442SOL    HW233963   3.412   2.275   7.929 -0.8619 -0.4634  0.5235
 7443SOL     OW33964   0.783   0.483   3.964  0.0034 -0.0074 -0.2122
 7443SOL    HW133965   0.754   0.574   3.972  1.3054  0.4406 -0.5548
 7443SOL    HW233966   0.729   0.458   3.889  1.5859 -0.9201 -1.0455
 7444SOL     OW33967   1.914   1.999  11.990  0.0216 -0.1048  0.3774
 7444SOL    HW133968   1.962   2.029  12.066  1.8272 -1.0648 -0.3890
 7444SOL    HW233969   1.967   2.015  11.912 -0.5675 -0.2641 -0.0597
 7445SOL     OW33970   0.058   2.927  11.314 -0.0199  0.1594 -0.0299
 7445SOL    HW133971   0.129   2.926  11.250 -1.8004  2.9922 -2.0536
 7445SOL    HW233972   0.054   2.833  11.335 -1.2801 -0.0943 -1.3642
 7446SOL     OW33973   1.731   1.597   3.124  0.3758  0.0180  0.3703
 7446SOL    HW133974   1.753   1.508   3.095  1.1608 -0.1395  1.4095
 7446SOL    HW233975   1.819   1.632   3.139 -0.1947  0.6982  2.1780
 7447SOL     OW33976   3.009   3.653   5.496 -0.2027  0.4386 -0.0011
 7447SOL    HW133977   2.992   3.646   5.402  3.0370  0.4108 -0.5716
 7447SOL    HW233978   3.041   3.565   5.517 -0.7905  0.5870  1.5342
 7448SOL     OW33979   3.860   0.927   1.008  0.4857  0.7821 -0.3393
 7448SOL    HW133980   3.888   0.837   1.023  1.9612  1.1945 -0.5729
 7448SOL    HW233981   3.814   0.953   1.089 -0.1655 -2.8186  0.4500
 7449SOL     OW33982   3.760   0.099  17.268 -0.3932  0.0967  0.2931
 7449SOL    HW133983   3.719   0.013  17.278 -1.0857  0.4824  0.7890
 7449SOL    HW233984   3.841   0.089  17.218  0.6107  1.0420  1.7146
 7450SOL     OW33985   0.889   1.271   3.234 -0.0049 -1.1527  0.6111
 7450SOL    HW133986   0.826   1.341   3.220  0.8088 -0.4139  0.6180
 7450SOL    HW233987   0.945   1.308   3.303  0.2598 -1.0527  0.3446
 7451SOL     OW33988   0.348   1.555  13.771  0.0615 -0.5164 -0.0539
 7451SOL    HW133989   0.436   1.535  13.737  0.6467  1.2407  0.4269
 7451SOL    HW233990   0.294   1.504  13.711 -1.8951 -0.1127  1.3571
 7452SOL     OW33991   0.595   3.224   2.916 -0.3621  0.3178 -0.1417
 7452SOL    HW133992   0.653   3.151   2.894 -1.5279 -0.1615 -1.5474
 7452SOL    HW233993   0.613   3.288   2.848  1.2040 -0.9054 -0.8853
 7453SOL     OW33994   3.322   1.428   8.601 -0.2636 -0.1865  0.3067
 7453SOL    HW133995   3.260   1.469   8.661  2.1760  4.4370 -0.3875
 7453SOL    HW233996   3.265   1.411   8.526 -0.4268  2.3898 -0.1295
 7454SOL     OW33997   0.271   0.487   8.483  0.0969 -0.7366 -0.4576
 7454SOL    HW133998   0.295   0.457   8.570 -2.5721 -0.5902  0.3083
 7454SOL    HW233999   0.197   0.542   8.507  0.2526 -0.3792 -0.7783
 7455SOL     OW34000   1.249   2.134  11.237 -0.2800 -0.2062  0.0831
 7455SOL    HW134001   1.187   2.086  11.183  3.7094 -3.8601 -1.2329
 7455SOL    HW234002   1.188   2.198  11.275 -2.9638 -2.4780 -0.4713
 7456SOL     OW34003   0.158   2.087  14.420 -0.2779 -0.0098  0.1657
 7456SOL    HW134004   0.207   2.119  14.496  1.2866  0.3730 -1.0208
 7456SOL    HW234005   0.216   2.095  14.345 -2.6819 -0.3941 -1.7293
 7457SOL     OW34006   0.679   2.625   8.682  0.3778 -0.1477  0.0653
 7457SOL    HW134007   0.711   2.619   8.592 -1.0750  0.6756 -0.5027
 7457SOL    HW234008   0.586   2.641   8.671 -0.4787 -2.6094  3.5165
 7458SOL     OW34009   1.119   1.370   5.785 -0.6055  0.2309 -0.3224
 7458SOL    HW134010   1.034   1.329   5.801 -0.9968  2.4359  3.2069
 7458SOL    HW234011   1.160   1.345   5.867 -0.0300  1.0825 -0.3553
 7459SOL     OW34012   1.247   2.350  13.978  0.4961 -0.5554  0.9680
 7459SOL    HW134013   1.203   2.275  13.937  1.0848  0.0131 -0.6816
 7459SOL    HW234014   1.318   2.368  13.917  0.0081 -0.4739  0.4215
 7460SOL     OW34015   1.856   2.557  14.748 -0.5170  0.3198 -1.0658
 7460SOL    HW134016   1.767   2.569  14.714 -1.0888 -1.4146 -0.1919
 7460SOL    HW234017   1.861   2.608  14.829 -0.5338 -1.0256 -0.2158
 7461SOL     OW34018   3.710   1.657   8.163  0.3821 -0.5107  0.5781
 7461SOL    HW134019   3.799   1.624   8.178  0.9269  0.2030 -1.0979
 7461SOL    HW234020   3.678   1.649   8.253  0.1309 -0.0072  0.5370
 7462SOL     OW34021   2.809   3.011   7.744  0.4448  0.3189  0.3582
 7462SOL    HW134022   2.774   3.101   7.744 -1.4963 -0.4400  1.8921
 7462SOL    HW234023   2.740   2.963   7.698  2.1736  0.0313 -1.9585
 7463SOL     OW34024   1.377   3.330  17.233  0.0571  0.1985 -0.4087
 7463SOL    HW134025   1.284   3.307  17.227 -0.0098 -0.1240  1.7932
 7463SOL    HW234026   1.383   3.399  17.299 -0.0527 -0.4920  0.3195
 7464SOL     OW34027   4.436   0.857  16.179  0.5306  0.6091 -0.0650
 7464SOL    HW134028   4.404   0.911  16.252  0.9513  0.1713  0.4443
 7464SOL    HW234029   4.434   0.922  16.109 -0.5826 -0.2244 -0.8114
 7465SOL     OW34030   3.632   0.436   6.411  0.1612 -0.1267 -0.1028
 7465SOL    HW134031   3.692   0.485   6.466  0.8233 -1.9753  0.8373
 7465SOL    HW234032   3.695   0.395   6.352  1.1198  0.0383  0.8097
 7466SOL     OW34033   4.241   2.554   7.155  0.2042  0.0446  0.2227
 7466SOL    HW134034   4.328   2.522   7.182  0.5900  1.0521  0.1499
 7466SOL    HW234035   4.230   2.504   7.074 -0.6215 -0.8373  0.8754
 7467SOL     OW34036   3.510   0.051   9.068  0.1388 -0.2706 -0.1975
 7467SOL    HW134037   3.553   0.126   9.028 -0.1376  0.6711  1.2665
 7467SOL    HW234038   3.578   0.021   9.129  0.2487 -1.1676 -0.7646
 7468SOL     OW34039   0.361   3.273  12.768  0.0690  0.9268  0.1893
 7468SOL    HW134040   0.339   3.319  12.687 -1.4612 -0.0702  0.0660
 7468SOL    HW234041   0.346   3.181  12.749 -3.5787  1.2421  1.6624
 7469SOL     OW34042   3.972   3.142   1.557 -0.0345 -0.5228 -0.3507
 7469SOL    HW134043   4.054   3.104   1.524 -0.5453 -1.8421 -0.0810
 7469SOL    HW234044   3.968   3.093   1.639  0.8034  0.0661  0.0463
 7470SOL     OW34045   4.194   1.882   2.135  0.0399 -0.3517 -0.5424
 7470SOL    HW134046   4.142   1.854   2.210 -0.3517 -0.0128 -0.6847
 7470SOL    HW234047   4.163   1.818   2.071 -0.1843  0.8280 -1.6244
 7471SOL     OW34048   2.562   1.015   7.616 -0.0609 -0.4665 -0.1176
 7471SOL    HW134049   2.526   1.100   7.642 -2.7722 -1.5439 -0.3684
 7471SOL    HW234050   2.522   0.995   7.532 -1.1463 -3.2222  1.0543
 7472SOL     OW34051   2.620   3.760   7.304  0.3592  0.3373 -0.3991
 7472SOL    HW134052   2.571   3.830   7.261 -1.7284 -0.1414  1.1916
 7472SOL    HW234053   2.702   3.809   7.302 -0.3552  1.6196  1.4632
 7473SOL     OW34054   3.740   1.997  13.699  0.4419 -0.2424  0.1164
 7473SOL    HW134055   3.831   2.015  13.673  0.4987 -2.4769 -1.1178
 7473SOL    HW234056   3.758   2.022  13.790  0.5547  1.1782 -0.2857
 7474SOL     OW34057   4.302   0.832  14.568 -0.4424 -0.6446  0.2266
 7474SOL    HW134058   4.389   0.797  14.589  0.4782  0.6911 -1.3224
 7474SOL    HW234059   4.298   0.872  14.481 -3.7760  1.8480  1.5355
 7475SOL     OW34060   2.137   1.115   4.536 -0.4806  0.1252 -0.0848
 7475SOL    HW134061   2.180   1.094   4.619  1.7040  0.3021 -1.1752
 7475SOL    HW234062   2.212   1.146   4.485  1.5450 -0.5814  2.5075
 7476SOL     OW34063   1.715   0.696   7.027  0.3062 -0.1822  0.0454
 7476SOL    HW134064   1.688   0.779   7.067 -1.3207  1.2698 -4.0882
 7476SOL    HW234065   1.785   0.718   6.966 -1.3314  1.8389 -1.1022
 7477SOL     OW34066   3.196   3.850   8.387  0.0533 -0.3810  1.0315
 7477SOL    HW134067   3.152   3.877   8.306  1.1579 -0.5470  0.3794
 7477SOL    HW234068   3.276   3.816   8.348  1.2219  1.7552  1.5999
 7478SOL     OW34069   0.790   3.055   4.440 -0.2331  0.2959  0.5736
 7478SOL    HW134070   0.802   2.980   4.382  2.1039  0.3570  0.9713
 7478SOL    HW234071   0.700   3.041   4.471 -0.0996  0.6137  1.0921
 7479SOL     OW34072   4.659   1.217   8.128  0.5061 -0.7337  0.0091
 7479SOL    HW134073   4.579   1.182   8.167 -0.0395  0.3840 -0.0996
 7479SOL    HW234074   4.660   1.176   8.042 -3.2171 -0.8919  0.0582
 7480SOL     OW34075   0.296   2.557  13.003 -0.0721 -0.2523 -0.0132
 7480SOL    HW134076   0.206   2.590  13.005  0.1050  0.1682  1.3579
 7480SOL    HW234077   0.284   2.501  13.079  1.0538  0.4160  0.6596
 7481SOL     OW34078   3.262   1.880   1.972  0.5006  0.3247  0.2799
 7481SOL    HW134079   3.188   1.900   1.914 -0.2093 -0.9107  0.7704
 7481SOL    HW234080   3.243   1.948   2.036  0.5594  0.3114  0.3114
 7482SOL     OW34081   0.807   4.699   5.429  0.3865  0.5559 -0.3464
 7482SOL    HW134082   0.845   4.718   5.344  1.4507 -0.9251 -0.2015
 7482SOL    HW234083   0.718   4.732   5.420 -0.0364 -0.1677  1.0425
 7483SOL     OW34084   4.486   0.733   5.839 -0.4560  0.2948 -0.0021
 7483SOL    HW134085   4.545   0.762   5.909 -0.2076 -1.0735  0.3672
 7483SOL    HW234086   4.422   0.686   5.894 -0.3060 -0.4979 -0.5034
 7484SOL     OW34087   3.431   2.776   4.008 -0.0113 -0.6399 -0.2788
 7484SOL    HW134088   3.338   2.771   4.029 -0.2191  2.1215 -0.5417
 7484SOL    HW234089   3.468   2.802   4.092 -2.4347  0.8004  0.3357
 7485SOL     OW34090   3.619   0.718   9.491  0.4210 -0.2395  0.7364
 7485SOL    HW134091   3.625   0.682   9.580  1.2206 -0.6344  0.5291
 7485SOL    HW234092   3.574   0.800   9.509 -0.5917 -1.0480  1.8385
 7486SOL     OW34093   0.576   0.588   7.209  0.4324 -0.0814  0.5001
 7486SOL    HW134094   0.518   0.598   7.133  1.0270  0.1008  0.0726
 7486SOL    HW234095   0.524   0.631   7.277 -0.7891 -0.3936 -0.2242
 7487SOL     OW34096   1.305   4.306  17.559  0.1202  0.0500 -0.3857
 7487SOL    HW134097   1.272   4.358  17.632  1.2843  1.1399 -0.6460
 7487SOL    HW234098   1.388   4.352  17.549  0.9531 -1.2806  0.3675
 7488SOL     OW34099   0.000   0.413  16.656  0.2152 -0.4557 -0.1107
 7488SOL    HW134100   4.680   0.338  16.665  1.4106 -1.2462  0.9830
 7488SOL    HW234101   0.063   0.387  16.723 -0.7250 -0.9072  0.6054
 7489SOL     OW34102   1.456   3.327   1.879 -0.2590 -0.3709  0.2554
 7489SOL    HW134103   1.473   3.258   1.814 -0.1354  0.2888 -0.4132
 7489SOL    HW234104   1.367   3.351   1.854 -0.1776  2.3115  2.5737
 7490SOL     OW34105   3.021   2.111   4.155  0.2269 -0.5339  0.2832
 7490SOL    HW134106   3.041   2.161   4.233 -0.0788 -0.0073  0.0197
 7490SOL    HW234107   2.925   2.113   4.158  0.2118  1.7551 -1.8965
 7491SOL     OW34108   0.849   4.288   1.812  0.5865  0.3153  0.2505
 7491SOL    HW134109   0.839   4.329   1.898 -0.8821 -0.3896  0.4172
 7491SOL    HW234110   0.793   4.341   1.756 -0.1767 -1.1569 -0.3937
 7492SOL     OW34111   1.861   2.043   4.966 -0.4317  0.5768 -0.1623
 7492SOL    HW134112   1.937   2.046   4.907  0.2978  0.9928  0.7996
 7492SOL    HW234113   1.895   2.106   5.029 -2.0252  0.0648  1.2015
 7493SOL     OW34114   2.966   1.300   6.110 -0.4718 -0.5676  0.2214
 7493SOL    HW134115   2.936   1.214   6.140 -0.9218 -0.8323 -0.9894
 7493SOL    HW234116   2.911   1.342   6.176  1.6196  2.7540 -0.1568
 7494SOL     OW34117   0.300   4.363   2.888  0.0769  0.5698  0.1746
 7494SOL    HW134118   0.254   4.385   2.807  1.4390 -0.7126 -0.9472
 7494SOL    HW234119   0.371   4.307   2.858  0.0756  0.5810  0.1507
 7495SOL     OW34120   3.546   3.406   0.745 -0.7079 -0.3493 -0.2759
 7495SOL    HW134121   3.619   3.405   0.682 -1.6566  2.3697 -1.4119
 7495SOL    HW234122   3.501   3.324   0.725  1.1223 -2.0078  2.4582
 7496SOL     OW34123   0.387   2.181   1.681 -0.5473  0.0448 -0.3455
 7496SOL    HW134124   0.475   2.173   1.718 -0.9119  1.9850  0.9637
 7496SOL    HW234125   0.325   2.143   1.743  0.8277  1.2712  1.8149
 7497SOL     OW34126   4.235   4.219  13.877  0.2685  0.2389  0.3881
 7497SOL    HW134127   4.145   4.232  13.907 -0.0179 -3.3626  1.0910
 7497SOL    HW234128   4.261   4.311  13.889  1.1463  0.3635 -2.4497
 7498SOL     OW34129   0.795   4.173   5.463  0.1312 -0.0733  0.2883
 7498SOL    HW134130   0.711   4.129   5.479  0.9557 -2.1843 -1.1564
 7498SOL    HW234131   0.768   4.262   5.441 -2.1877 -1.3642 -2.2480
 7499SOL     OW34132   1.407   4.122   4.818  0.5822 -0.4437  0.1404
 7499SOL    HW134133   1.410   4.167   4.734  1.5733  0.3156  0.5790
 7499SOL    HW234134   1.502   4.111   4.827  1.0833  2.8392 -1.1448
 7500SOL     OW34135   0.717   2.348   7.622  0.2585  0.8743 -0.4845
 7500SOL    HW134136   0.763   2.423   7.660  1.0891  0.8539 -1.4401
 7500SOL    HW234137   0.628   2.381   7.635  0.9826  2.3331  0.7380
 7501SOL     OW34138   3.761   2.318   2.445  0.3648 -0.5760  1.0344
 7501SOL    HW134139   3.679   2.342   2.489 -0.3014 -4.1279  1.7524
 7501SOL    HW234140   3.738   2.348   2.356 -1.0395  1.0772  1.9572
 7502SOL     OW34141   0.841   2.560   6.968 -0.0297  0.0901  0.1023
 7502SOL    HW134142   0.853   2.646   7.009 -2.1651  0.9070 -1.0046
 7502SOL    HW234143   0.897   2.583   6.893  0.8800 -0.2549  0.6704
 7503SOL     OW34144   0.439   4.219   9.745 -0.0313 -0.1644  0.2466
 7503SOL    HW134145   0.441   4.132   9.704 -0.4765 -1.3129  2.6706
 7503SOL    HW234146   0.465   4.193   9.833  0.4585 -2.7955 -0.6554
 7504SOL     OW34147   2.532   1.223  11.051 -0.0452 -0.5105  0.2853
 7504SOL    HW134148   2.616   1.215  11.005  0.1109  1.1237  0.2774
 7504SOL    HW234149   2.547   1.309  11.091 -1.8389  0.4519 -1.1440
 7505SOL     OW34150   3.936   1.636   3.238  0.6227  0.1686 -0.4294
 7505SOL    HW134151   3.956   1.667   3.150  0.8786  0.0946 -0.3979
 7505SOL    HW234152   3.920   1.717   3.288  1.1596  0.2991 -0.4690
 7506SOL     OW34153   2.253   0.493  16.860 -0.0090  0.7163 -0.2059
 7506SOL    HW134154   2.261   0.402  16.832 -1.1445 -0.0381  1.9003
 7506SOL    HW234155   2.245   0.473  16.953 -2.4339 -1.6451 -0.9265
 7507SOL     OW34156   3.840   0.801  10.401 -0.3713  0.0702  0.5015
 7507SOL    HW134157   3.885   0.868  10.453  2.6605  0.4091 -2.5294
 7507SOL    HW234158   3.907   0.791  10.333 -1.1875  1.5784 -0.5284
 7508SOL     OW34159   4.049   0.343   2.391 -0.0346  0.2206  0.1280
 7508SOL    HW134160   4.036   0.432   2.357 -2.3673  0.1151  0.7398
 7508SOL    HW234161   4.143   0.332   2.378  0.3304  0.2293  2.7690
 7509SOL     OW34162   3.715   2.739   8.927  0.3921  0.3543  0.0358
 7509SOL    HW134163   3.725   2.813   8.987  0.8799  0.6530 -0.4089
 7509SOL    HW234164   3.797   2.692   8.939 -0.2248 -0.9989 -1.0181
 7510SOL     OW34165   3.640   4.403  14.792 -0.7434  0.4265  0.0213
 7510SOL    HW134166   3.647   4.335  14.725 -2.4104 -0.4604  0.7281
 7510SOL    HW234167   3.732   4.412  14.815 -0.3928 -0.5107 -1.0126
 7511SOL     OW34168   2.034   4.076  12.634 -0.0530  0.0911 -0.0676
 7511SOL    HW134169   2.049   4.089  12.540 -0.0106 -0.2474 -0.1055
 7511SOL    HW234170   2.117   4.029  12.646  1.1434  1.7921 -1.6155
 7512SOL     OW34171   3.313   2.385   8.637  0.1788 -0.2184  0.0405
 7512SOL    HW134172   3.302   2.298   8.676  0.8726  0.1218  0.9895
 7512SOL    HW234173   3.371   2.369   8.562  0.7598  0.2561  0.3856
 7513SOL     OW34174   3.731   2.466   1.340 -0.1923 -0.2619  0.2792
 7513SOL    HW134175   3.784   2.401   1.293  0.3330  0.7903 -0.5828
 7513SOL    HW234176   3.790   2.535   1.371 -2.4674  2.0196 -0.4346
 7514SOL     OW34177   1.127   2.796   2.299 -0.4311 -0.0984  0.1461
 7514SOL    HW134178   1.154   2.875   2.252  0.6451 -0.0361  0.8626
 7514SOL    HW234179   1.174   2.811   2.381  0.3609 -0.2049 -0.2887
 7515SOL     OW34180   4.676   0.742   6.574 -0.0364 -0.0185 -0.2170
 7515SOL    HW134181   0.024   0.702   6.573 -1.5677 -3.3368 -0.4024
 7515SOL    HW234182   4.699   0.835   6.580  1.9302 -0.6335  1.5751
 7516SOL     OW34183   0.857   1.447   1.651 -0.1794 -0.9189 -0.6401
 7516SOL    HW134184   0.885   1.463   1.741 -0.9747 -0.4951 -0.4685
 7516SOL    HW234185   0.822   1.358   1.655 -2.8202  0.2280  2.0836
 7517SOL     OW34186   3.483   0.437   3.324  0.0362 -0.3876  0.0523
 7517SOL    HW134187   3.412   0.407   3.267  2.3694 -4.5774 -0.6602
 7517SOL    HW234188   3.516   0.360   3.370 -1.2772 -1.7535 -1.3087
 7518SOL     OW34189   3.737   2.105   4.639  0.4108  0.6275 -0.1105
 7518SOL    HW134190   3.811   2.069   4.591  0.3529  0.2462  0.0953
 7518SOL    HW234191   3.703   2.174   4.581  0.1243 -1.0088 -1.8808
 7519SOL     OW34192   3.099   3.940   1.883  0.2602  0.5253 -0.2105
 7519SOL    HW134193   3.141   4.008   1.936  0.0551  0.8685 -0.4889
 7519SOL    HW234194   3.013   3.980   1.874 -0.9106 -1.7749  0.6772
 7520SOL     OW34195   3.688   2.752  14.910  0.2766 -0.3801 -0.1570
 7520SOL    HW134196   3.678   2.722  15.001  5.3683 -0.0544  0.5000
 7520SOL    HW234197   3.781   2.732  14.901 -0.4951 -2.9369 -2.3401
 7521SOL     OW34198   2.508   1.158  13.451  0.2810 -0.6553 -0.3564
 7521SOL    HW134199   2.557   1.178  13.530 -1.4585  2.0697  0.0332
 7521SOL    HW234200   2.428   1.121  13.489 -1.2823  2.6230 -0.4540
 7522SOL     OW34201   1.712   2.679   7.817 -0.1770  0.2536  0.8534
 7522SOL    HW134202   1.691   2.587   7.800  3.0281  0.0615 -1.9899
 7522SOL    HW234203   1.634   2.728   7.792  0.0906  0.2939  0.0944
 7523SOL     OW34204   2.289   1.382  15.580  0.3634  0.2250 -0.8381
 7523SOL    HW134205   2.242   1.427  15.509 -1.0838 -1.7591 -1.1337
 7523SOL    HW234206   2.382   1.381  15.560  0.4393  0.4862 -0.5049
 7524SOL     OW34207   4.253   1.444   3.588 -0.1352  0.9296  0.5128
 7524SOL    HW134208   4.287   1.405   3.508 -0.3358  1.3985  0.2005
 7524SOL    HW234209   4.342   1.444   3.624  1.0910 -1.6124 -2.5326
 7525SOL     OW34210   1.026   4.681   6.935 -0.2087 -0.1256  0.2223
 7525SOL    HW134211   1.009   4.632   6.855 -0.1473  2.9189 -1.6513
 7525SOL    HW234212   1.110   4.651   6.969 -0.8572 -0.9085  1.1460
 7526SOL     OW34213   3.512   1.159   4.806 -0.8199  0.3019 -0.0229
 7526SOL    HW134214   3.528   1.075   4.849  1.1228 -0.0777 -1.4769
 7526SOL    HW234215   3.595   1.185   4.767 -0.9274 -0.3123 -0.6608
 7527SOL     OW34216   4.087   0.635  11.881  0.6462  0.3087  0.2852
 7527SOL    HW134217   4.150   0.569  11.910 -0.9845 -1.1954  0.4139
 7527SOL    HW234218   4.094   0.613  11.789 -0.9792  0.5754  0.1063
 7528SOL     OW34219   0.646   2.910  10.156 -0.5074 -0.1681 -0.5215
 7528SOL    HW134220   0.672   2.818  10.148  0.4028  0.1772 -1.5556
 7528SOL    HW234221   0.574   2.913  10.092 -0.0189  2.2356 -0.9509
 7529SOL     OW34222   3.124   1.810   3.026 -0.6486 -0.3698 -0.4306
 7529SOL    HW134223   3.032   1.826   3.046 -0.5825 -1.9806  1.1098
 7529SOL    HW234224   3.155   1.788   3.113  0.0990 -0.5971 -0.7548
 7530SOL     OW34225   2.068   4.058  11.672 -0.0174 -0.1488 -0.3901
 7530SOL    HW134226   2.077   4.029  11.582  0.8350 -0.2578 -0.2760
 7530SOL    HW234227   2.087   4.152  11.664 -0.0745 -0.1453 -0.4762
 7531SOL     OW34228   3.523   2.855   6.378  0.2757  0.4849 -0.3929
 7531SOL    HW134229   3.430   2.843   6.360 -0.1850  1.1742  1.4897
 7531SOL    HW234230   3.559   2.859   6.290  0.3220  1.3182 -0.3334
 7532SOL     OW34231   0.318   1.141   6.398 -0.0702  0.1862  0.2272
 7532SOL    HW134232   0.320   1.085   6.320  0.4761 -0.0549  0.4107
 7532SOL    HW234233   0.323   1.229   6.361  0.4809  0.8957  2.0164
 7533SOL     OW34234   0.584   3.400   3.138 -0.3906 -0.1539  0.6747
 7533SOL    HW134235   0.595   3.321   3.086  0.1077  1.2512 -1.3811
 7533SOL    HW234236   0.655   3.451   3.099 -0.1236 -0.0445  1.2997
 7534SOL     OW34237   1.241   3.275   4.598  0.2222 -0.3441 -0.2649
 7534SOL    HW134238   1.305   3.322   4.651 -0.5435  0.4536 -0.0509
 7534SOL    HW234239   1.168   3.295   4.656 -0.5238 -1.9852 -0.6345
 7535SOL     OW34240   1.317   4.000   8.605 -0.2249 -0.0378 -0.1011
 7535SOL    HW134241   1.279   3.957   8.529  0.4349  2.5820 -1.8991
 7535SOL    HW234242   1.268   4.081   8.613 -1.0175 -0.5806  0.5656
 7536SOL     OW34243   0.116   0.922  15.354  0.3134  0.2181  0.7183
 7536SOL    HW134244   0.024   0.946  15.341 -0.2246 -1.0800  2.2137
 7536SOL    HW234245   0.105   0.847  15.412 -3.5708  1.2089  1.2587
 7537SOL     OW34246   0.213   0.174   5.345 -0.1584 -0.0512  0.2089
 7537SOL    HW134247   0.231   0.194   5.253  1.1748 -1.9745  0.0499
 7537SOL    HW234248   0.122   0.204   5.346  0.0611  0.6648 -0.8628
 7538SOL     OW34249   0.255   0.653   8.090  0.4284  0.1354 -0.5685
 7538SOL    HW134250   0.234   0.562   8.114  0.7216  0.3532  0.4966
 7538SOL    HW234251   0.304   0.684   8.166  2.1418 -2.9527 -0.4151
 7539SOL     OW34252   0.285   3.325   4.406  0.0273  0.3645  0.0236
 7539SOL    HW134253   0.313   3.233   4.402 -0.2598  0.2073  1.8763
 7539SOL    HW234254   0.360   3.364   4.449  0.4713  0.4685 -0.8437
 7540SOL     OW34255   0.848   1.760   9.963  0.2598  0.3049 -0.3302
 7540SOL    HW134256   0.938   1.776   9.934  0.1217 -1.0530 -1.5315
 7540SOL    HW234257   0.796   1.768   9.883  0.1953  1.4583 -0.1663
 7541SOL     OW34258   0.714   4.056   3.652 -0.4020 -0.5479  0.5110
 7541SOL    HW134259   0.763   3.974   3.639  0.9636  0.5728 -1.2922
 7541SOL    HW234260   0.654   4.064   3.578  0.2009 -0.5199  0.0256
 7542SOL     OW34261   0.671   3.404   2.716  0.2034  0.2268 -0.0398
 7542SOL    HW134262   0.587   3.449   2.704  0.5036  0.6490 -0.5622
 7542SOL    HW234263   0.692   3.388   2.624  2.1784  0.2249  0.4048
 7543SOL     OW34264   4.124   0.573   9.394  0.2294  0.1313 -0.5872
 7543SOL    HW134265   4.153   0.652   9.439  1.0411 -0.4388 -0.1077
 7543SOL    HW234266   4.028   0.572   9.396  0.2274 -0.6417 -0.8899
 7544SOL     OW34267   4.732   1.787   3.887  0.1585 -0.2193  0.1261
 7544SOL    HW134268   4.732   1.746   3.974 -1.0416 -2.0891 -0.7538
 7544SOL    HW234269   4.640   1.812   3.878  0.5477  1.8056  1.8869
 7545SOL     OW34270   0.980   2.687  17.281 -0.2834 -0.3194  0.2536
 7545SOL    HW134271   1.007   2.614  17.226 -1.7248 -0.6476 -0.0107
 7545SOL    HW234272   0.903   2.648  17.323 -0.6311 -0.6716 -0.7223
 7546SOL     OW34273   3.507   1.053  16.838 -0.2300 -0.0710 -0.0353
 7546SOL    HW134274   3.548   1.024  16.919  0.0730  2.4109  0.7061
 7546SOL    HW234275   3.422   1.010  16.844 -0.8911  1.7916  3.7048
 7547SOL     OW34276   2.648   1.762   5.260 -0.4855  0.4089 -0.1289
 7547SOL    HW134277   2.677   1.671   5.254 -1.1296  0.1232  1.1777
 7547SOL    HW234278   2.706   1.812   5.202 -0.5314 -0.5058 -0.9679
 7548SOL     OW34279   2.165   3.260   1.636 -0.5987  0.0479  0.1655
 7548SOL    HW134280   2.210   3.243   1.553 -0.7905  1.3473 -0.2025
 7548SOL    HW234281   2.233   3.306   1.685  0.0656 -1.6901  0.8699
 7549SOL     OW34282   2.639   2.766   4.368 -0.0259 -0.3218 -0.2889
 7549SOL    HW134283   2.549   2.789   4.393 -0.8832 -1.2006 -2.5549
 7549SOL    HW234284   2.693   2.843   4.383 -0.2138 -0.4594  1.1322
 7550SOL     OW34285   2.093   4.398   0.548 -0.0972  0.4749  0.2064
 7550SOL    HW134286   2.129   4.315   0.579  1.0062  0.5541 -0.8686
 7550SOL    HW234287   2.036   4.426   0.620 -0.3552 -1.5280  0.7810
 7551SOL     OW34288   2.312   4.033   8.658  0.7160  0.5135 -0.1647
 7551SOL    HW134289   2.402   4.014   8.635  0.6046  0.5072 -0.5851
 7551SOL    HW234290   2.300   4.008   8.750  0.5697 -0.2023 -0.3840
 7552SOL     OW34291   2.547   4.383   4.810 -0.0598  0.5055  0.4835
 7552SOL    HW134292   2.628   4.430   4.828  0.3156  0.7864 -1.9267
 7552SOL    HW234293   2.486   4.426   4.870 -0.6102  0.7312 -0.2346
 7553SOL     OW34294   0.483   4.365  16.060  0.3510 -0.6609 -0.3941
 7553SOL    HW134295   0.449   4.314  16.133  1.3236  2.4049  2.2200
 7553SOL    HW234296   0.453   4.323  15.979 -0.7432  0.3942 -0.5309
 7554SOL     OW34297   3.148   3.000   7.150  0.2822 -0.0170 -0.0837
 7554SOL    HW134298   3.091   2.962   7.216  3.9908 -0.8216  2.6763
 7554SOL    HW234299   3.099   2.988   7.069 -0.1194 -2.6075  0.5562
 7555SOL     OW34300   2.614   1.781   7.621  0.0496 -0.0748 -0.4608
 7555SOL    HW134301   2.570   1.711   7.669 -1.2434  0.5348 -0.7473
 7555SOL    HW234302   2.542   1.826   7.576  0.9148  0.1592 -1.6081
 7556SOL     OW34303   0.943   3.177   2.958  0.6328 -0.4063 -0.8822
 7556SOL    HW134304   0.969   3.101   2.905  1.6363 -2.7116  2.9525
 7556SOL    HW234305   0.953   3.253   2.900  1.5562 -0.0309 -0.2252
 7557SOL     OW34306   2.125   1.735   3.548  0.1747 -0.0463 -0.2753
 7557SOL    HW134307   2.050   1.677   3.561  1.5376 -1.4281  1.3339
 7557SOL    HW234308   2.081   1.818   3.529  2.0590  0.4513 -2.4789
 7558SOL     OW34309   1.617   3.091  10.802  0.0147 -0.2367 -0.1584
 7558SOL    HW134310   1.613   3.187  10.802  1.8295 -0.1820  2.5717
 7558SOL    HW234311   1.531   3.070  10.765 -0.2893 -0.7722  0.8659
 7559SOL     OW34312   3.464   3.578   6.678  0.0669  0.0974  1.0618
 7559SOL    HW134313   3.393   3.626   6.635  0.5243 -1.0609 -0.9545
 7559SOL    HW234314   3.530   3.565   6.610 -1.6315 -0.4242 -0.4906
 7560SOL     OW34315   3.791   4.396   7.278 -0.0491 -0.2073 -0.2624
 7560SOL    HW134316   3.847   4.330   7.319  0.1513 -0.5011 -0.9960
 7560SOL    HW234317   3.730   4.420   7.348 -1.1538  1.9211 -1.9679
 7561SOL     OW34318   0.565   3.247   4.389  0.0910 -0.4166 -0.5152
 7561SOL    HW134319   0.639   3.259   4.329 -0.3578  2.4596 -0.4926
 7561SOL    HW234320   0.566   3.329   4.439 -1.4998  0.3225 -1.6943
 7562SOL     OW34321   4.612   3.245   3.175  0.6970  0.3162 -0.1383
 7562SOL    HW134322   4.662   3.312   3.221  0.4360  0.9925 -0.8418
 7562SOL    HW234323   4.560   3.206   3.245  1.1823 -0.9471 -0.4759
 7563SOL     OW34324   4.626   1.103  16.377 -0.0428  0.0425  0.3436
 7563SOL    HW134325   4.556   1.164  16.354 -0.0039 -1.2454 -3.1283
 7563SOL    HW234326   4.583   1.023  16.407 -0.5764  0.2603  0.1467
 7564SOL     OW34327   4.235   1.941   1.123 -0.0149 -0.1228  0.6032
 7564SOL    HW134328   4.225   2.005   1.194  0.3235 -0.2101  0.7308
 7564SOL    HW234329   4.156   1.889   1.139 -1.6126  1.4501 -2.4332
 7565SOL     OW34330   0.235   0.398   2.455 -0.0094 -0.3087  0.4440
 7565SOL    HW134331   0.265   0.307   2.464  1.0435 -0.0587 -0.6104
 7565SOL    HW234332   0.141   0.386   2.463  0.0083 -0.3289  0.6307
 7566SOL     OW34333   1.369   2.053   3.508  0.2777  0.0588 -0.2697
 7566SOL    HW134334   1.445   2.111   3.501  0.6277 -0.3336  0.2971
 7566SOL    HW234335   1.394   1.996   3.581  0.6138  2.9716  1.8463
 7567SOL     OW34336   1.732   0.398  10.721  1.0943 -0.1575 -0.2194
 7567SOL    HW134337   1.673   0.324  10.734 -1.2548  1.0297 -4.0756
 7567SOL    HW234338   1.692   0.439  10.644  0.2362  0.0503  0.3390
 7568SOL     OW34339   4.329   0.589   3.380  0.6747 -0.6079  0.3044
 7568SOL    HW134340   4.247   0.610   3.335  0.2465 -1.8362  0.5206
 7568SOL    HW234341   4.327   0.496   3.401 -0.0463 -0.4978  0.7368
 7569SOL     OW34342   4.151   4.658   7.500 -0.7748 -0.2705  0.2150
 7569SOL    HW134343   4.168   4.630   7.590  3.2622 -1.0810 -0.7869
 7569SOL    HW234344   4.086   4.727   7.515  0.3853  0.9289 -0.2054
 7570SOL     OW34345   0.957   4.516   0.195 -0.0278  0.0109 -0.1898
 7570SOL    HW134346   0.937   4.566   0.116 -1.2066  2.0697  1.4124
 7570SOL    HW234347   1.044   4.480   0.176  0.6872  1.2815  0.6872
 7571SOL     OW34348   1.427   2.183   0.215 -0.1768 -0.0355  0.2058
 7571SOL    HW134349   1.431   2.158   0.122  0.5063  0.3738  0.1231
 7571SOL    HW234350   1.335   2.158   0.223 -0.7852  1.7816 -1.2215
 7572SOL     OW34351   1.436   4.637   7.497 -0.2181 -0.0075  0.5739
 7572SOL    HW134352   1.427   4.732   7.507 -0.6821  0.0534 -0.3726
 7572SOL    HW234353   1.498   4.613   7.566 -0.5194 -3.1231 -0.2323
 7573SOL     OW34354   1.686   1.743  10.442  0.5105  0.1626 -1.2403
 7573SOL    HW134355   1.596   1.716  10.454  0.4470  0.4694 -1.0193
 7573SOL    HW234356   1.734   1.668  10.476 -0.4625 -0.4238 -1.1956
 7574SOL     OW34357   0.608   4.588   7.519 -0.0775  0.0311  0.2838
 7574SOL    HW134358   0.632   4.554   7.605  0.6513 -0.9567 -0.3176
 7574SOL    HW234359   0.627   4.681   7.533 -1.1399  0.2914  0.0221
 7575SOL     OW34360   4.468   3.087   3.413  0.5828  1.0650 -0.1305
 7575SOL    HW134361   4.538   3.075   3.478  2.1956  1.0460 -1.8704
 7575SOL    HW234362   4.419   3.005   3.411  1.3675  0.5750  0.7194
 7576SOL     OW34363   0.570   4.157   1.874  0.3090  0.3982 -0.1649
 7576SOL    HW134364   0.502   4.098   1.841 -1.7752  0.7694  3.4960
 7576SOL    HW234365   0.652   4.110   1.860  0.4918  0.6143  0.1883
 7577SOL     OW34366   2.373   0.865   4.314  0.1430  0.1601 -0.7102
 7577SOL    HW134367   2.354   0.807   4.388  1.9557 -0.3409 -0.6256
 7577SOL    HW234368   2.440   0.923   4.350 -0.0641 -0.4112  0.6062
 7578SOL     OW34369   0.731   1.477   2.671 -0.3861  0.5225 -0.6685
 7578SOL    HW134370   0.684   1.464   2.753 -0.7272  0.2875 -0.8955
 7578SOL    HW234371   0.816   1.448   2.703 -0.3077  2.8175  1.2143
 7579SOL     OW34372   3.940   0.142   4.969  0.1098  0.0265 -0.2049
 7579SOL    HW134373   3.874   0.211   4.969  1.2788  1.1398  2.4189
 7579SOL    HW234374   3.954   0.122   4.876 -1.1499  1.1746 -0.6381
 7580SOL     OW34375   3.047   2.198   7.106  0.1967 -0.2691  0.6926
 7580SOL    HW134376   3.008   2.269   7.156  1.7010  0.6122  0.6135
 7580SOL    HW234377   3.091   2.147   7.175  1.0762  0.6119  0.7822
 7581SOL     OW34378   1.073   0.775  12.354  0.5704  0.4908 -0.3926
 7581SOL    HW134379   1.014   0.787  12.428 -0.2975 -2.9456 -0.5320
 7581SOL    HW234380   1.034   0.834  12.289 -1.0530 -0.3396 -0.1545
 7582SOL     OW34381   1.297   3.144   3.615  0.6045 -0.4513  0.1813
 7582SOL    HW134382   1.308   3.194   3.696  0.9706 -1.0665  0.5133
 7582SOL    HW234383   1.254   3.209   3.560 -0.0638 -1.3679 -0.3921
 7583SOL     OW34384   4.187   1.675   7.058 -0.0383  0.1395  0.1013
 7583SOL    HW134385   4.251   1.686   7.129  1.1636  0.1090 -0.9744
 7583SOL    HW234386   4.207   1.587   7.027  1.2581  0.7614 -0.8732
 7584SOL     OW34387   1.162   0.444   6.721  0.3045 -0.6301 -0.0132
 7584SOL    HW134388   1.225   0.513   6.700 -1.0975  0.3710 -1.0077
 7584SOL    HW234389   1.104   0.441   6.645  0.2565 -0.8452  0.0315
 7585SOL     OW34390   2.632   0.850   2.622 -0.3272 -0.0025 -0.4528
 7585SOL    HW134391   2.537   0.861   2.628 -0.2565  0.4778 -0.1533
 7585SOL    HW234392   2.633   0.791   2.547  1.4884 -0.1469 -0.3022
 7586SOL     OW34393   1.182   0.448   3.896  0.0069 -0.2362  0.7283
 7586SOL    HW134394   1.163   0.511   3.965 -2.5336 -2.7643  2.3024
 7586SOL    HW234395   1.166   0.510   3.825 -1.9897 -0.7913  0.7087
 7587SOL     OW34396   1.998   2.702   7.545 -0.6065  0.1846 -0.0153
 7587SOL    HW134397   1.935   2.770   7.567 -0.3653  0.3471  0.1742
 7587SOL    HW234398   1.994   2.650   7.626  2.9447 -1.9042 -1.2122
 7588SOL     OW34399   1.407   1.438   2.778  0.1427 -0.5257  0.6012
 7588SOL    HW134400   1.353   1.456   2.701  0.0714 -1.3693  0.4533
 7588SOL    HW234401   1.339   1.436   2.846  0.1441 -0.2703  0.6105
 7589SOL     OW34402   1.866   0.302  13.902  0.0623  0.1681 -0.4836
 7589SOL    HW134403   1.936   0.333  13.846  0.7624  1.1899  0.9410
 7589SOL    HW234404   1.825   0.229  13.856  2.4117 -1.5414  0.1238
 7590SOL     OW34405   0.571   0.035   8.008  0.0270  0.1116  0.6067
 7590SOL    HW134406   0.518   4.699   8.038 -1.5955  1.4340  0.9729
 7590SOL    HW234407   0.496   0.086   7.977  1.0739  2.1296  1.4409
 7591SOL     OW34408   1.580   1.220   1.043 -0.0009  0.2067  0.1716
 7591SOL    HW134409   1.643   1.253   1.107 -0.1222  0.7814  0.0018
 7591SOL    HW234410   1.576   1.127   1.065  0.6088  0.4772  1.3762
 7592SOL     OW34411   1.263   0.808   6.897  0.0225 -0.1351  0.5107
 7592SOL    HW134412   1.289   0.805   6.989  0.1195 -0.9643  0.4527
 7592SOL    HW234413   1.178   0.849   6.912 -0.1593  0.0050 -0.8384
 7593SOL     OW34414   3.275   1.983   6.551  0.2106 -0.1037  0.0290
 7593SOL    HW134415   3.338   1.979   6.623  0.8554  0.4051 -0.5078
 7593SOL    HW234416   3.197   1.950   6.595  0.0550 -1.1047 -1.0056
 7594SOL     OW34417   2.122   1.456  13.292  0.1151 -0.1308 -0.7041
 7594SOL    HW134418   2.123   1.551  13.282  0.6569  0.1899  2.3595
 7594SOL    HW234419   2.206   1.419  13.319  0.5877  1.8778  0.5531
 7595SOL     OW34420   3.635   1.228   9.323  0.0353  0.4380  0.2273
 7595SOL    HW134421   3.607   1.319   9.311  0.4606  0.1442 -3.0198
 7595SOL    HW234422   3.565   1.189   9.270 -0.6539  0.3825  1.1793
 7596SOL     OW34423   4.462   0.432   4.282 -0.4235 -0.0826 -0.5457
 7596SOL    HW134424   4.367   0.428   4.292 -0.3120  0.6895  0.8303
 7596SOL    HW234425   4.472   0.515   4.235 -1.1437  0.6001  0.5251
 7597SOL     OW34426   3.973   3.667   5.382  0.8500 -0.4523 -0.2611
 7597SOL    HW134427   3.900   3.690   5.325  0.4920  0.8436  0.7200
 7597SOL    HW234428   3.962   3.744   5.438 -2.9512 -1.3566  0.3025
 7598SOL     OW34429   1.482   4.024   2.038 -0.2559  0.1684  0.3359
 7598SOL    HW134430   1.450   4.019   2.128 -1.8212 -0.6053 -0.2701
 7598SOL    HW234431   1.536   3.945   2.046 -2.5464 -1.2975  1.2523
 7599SOL     OW34432   0.639   3.361   1.341 -0.1835  0.2696  0.2502
 7599SOL    HW134433   0.551   3.396   1.324 -0.4741 -0.3303  0.5061
 7599SOL    HW234434   0.615   3.282   1.390 -1.4290 -0.0470 -0.8592
 7600SOL     OW34435   0.029   4.041   6.467  0.1984  0.0532 -0.8510
 7600SOL    HW134436   0.022   4.133   6.443 -0.7083  0.4302  0.8767
 7600SOL    HW234437   4.709   4.035   6.542 -2.0341 -0.2263 -2.6119
 7601SOL     OW34438   4.395   0.430   6.944  0.1361 -0.0741 -0.0072
 7601SOL    HW134439   4.399   0.399   7.034  1.0435  0.7211  0.2232
 7601SOL    HW234440   4.309   0.471   6.935  1.9761  3.4830 -1.6374
 7602SOL     OW34441   4.414   1.961   0.402  0.1805 -0.1165 -0.9404
 7602SOL    HW134442   4.472   1.959   0.325 -0.0132  2.1276 -1.1287
 7602SOL    HW234443   4.453   1.903   0.467 -2.1910 -0.6033  0.0262
 7603SOL     OW34444   2.430   2.443   2.222  0.3262  0.0404 -0.2113
 7603SOL    HW134445   2.385   2.467   2.303 -0.1685 -1.1015 -0.1448
 7603SOL    HW234446   2.490   2.517   2.225  0.9696 -0.4530 -1.1583
 7604SOL     OW34447   3.797   0.019  14.731 -0.0775 -0.0649  0.8788
 7604SOL    HW134448   3.812   0.054  14.819  2.2679 -1.1200  0.9037
 7604SOL    HW234449   3.777   0.100  14.685 -0.1798 -1.9684 -2.4539
 7605SOL     OW34450   3.853   4.066  14.259 -0.5472  0.4935 -0.1999
 7605SOL    HW134451   3.807   4.148  14.278 -1.2272  0.3386 -1.1951
 7605SOL    HW234452   3.898   4.054  14.343  0.2884  0.5510 -0.6345
 7606SOL     OW34453   0.943   0.880   4.648 -0.0300  0.2190  0.0790
 7606SOL    HW134454   0.986   0.844   4.726 -0.4822 -0.2706  0.1060
 7606SOL    HW234455   0.886   0.947   4.685 -1.5287 -1.0093  0.0097
 7607SOL     OW34456   3.324   1.893   4.660  0.1969  0.3185 -0.3196
 7607SOL    HW134457   3.334   1.821   4.598  0.3656  2.1326 -2.3830
 7607SOL    HW234458   3.378   1.864   4.734 -0.4840  0.8715  0.4078
 7608SOL     OW34459   0.446   1.107   3.391 -0.4565  0.0927 -0.7139
 7608SOL    HW134460   0.380   1.037   3.390 -1.1311  0.7177 -0.6473
 7608SOL    HW234461   0.485   1.091   3.477  0.0160  0.3340 -0.8840
 7609SOL     OW34462   1.562   3.485   5.780 -0.1000 -0.1323  0.0616
 7609SOL    HW134463   1.642   3.446   5.812  0.3916  0.8469  0.0267
 7609SOL    HW234464   1.516   3.489   5.864 -0.6063  2.6020 -0.3251
 7610SOL     OW34465   3.572   0.394   6.808 -0.0351 -0.3895 -0.0632
 7610SOL    HW134466   3.567   0.481   6.848 -1.7688 -0.4475 -0.1731
 7610SOL    HW234467   3.495   0.398   6.753  0.6559 -2.5298 -1.1799
 7611SOL     OW34468   0.606   2.894  12.754 -0.8286  0.6456 -0.0835
 7611SOL    HW134469   0.612   2.939  12.838 -0.4730 -0.7521  0.6263
 7611SOL    HW234470   0.572   2.808  12.776  0.6699 -0.3471 -1.6566
 7612SOL     OW34471   0.625   1.351   8.984 -0.5274 -0.2774  0.4115
 7612SOL    HW134472   0.631   1.360   8.889 -2.2099  1.3006  0.4538
 7612SOL    HW234473   0.630   1.255   8.989 -2.2451 -0.4117 -0.1704
 7613SOL     OW34474   4.388   2.189  10.848 -0.5065  0.1891 -0.7271
 7613SOL    HW134475   4.385   2.207  10.942  1.0904 -0.5122 -0.5553
 7613SOL    HW234476   4.300   2.210  10.817 -0.7962  1.8421  1.1909
 7614SOL     OW34477   2.771   0.741   4.699 -0.5135 -0.9916 -0.0267
 7614SOL    HW134478   2.856   0.717   4.737 -0.1868  4.1872  2.4471
 7614SOL    HW234479   2.735   0.805   4.760 -1.1491  0.1386 -1.5834
 7615SOL     OW34480   3.456   1.031   3.463 -0.7157  0.1108 -0.0148
 7615SOL    HW134481   3.470   1.121   3.493  0.9075  0.0096 -0.4686
 7615SOL    HW234482   3.367   1.013   3.494 -1.4704  0.2958 -2.0586
 7616SOL     OW34483   2.446   4.432   6.403 -0.0598  0.7297 -0.2357
 7616SOL    HW134484   2.487   4.406   6.486 -0.8179  0.7306  0.1391
 7616SOL    HW234485   2.455   4.347   6.361  0.8261  2.0162 -2.6706
 7617SOL     OW34486   1.852   1.970   5.767  0.9475 -0.1683 -0.0265
 7617SOL    HW134487   1.831   2.060   5.791  0.4521 -0.3733  0.3209
 7617SOL    HW234488   1.863   1.922   5.850  0.5986  0.5774  0.4491
 7618SOL     OW34489   1.783   2.652   9.778 -0.0905 -0.1610 -0.0613
 7618SOL    HW134490   1.879   2.645   9.776 -0.2208 -2.1581  0.6298
 7618SOL    HW234491   1.761   2.739   9.747 -0.8990  0.5943  2.6318
 7619SOL     OW34492   0.800   0.527   4.593 -0.1395  0.5345 -0.0167
 7619SOL    HW134493   0.762   0.504   4.678 -0.6990 -0.3961 -0.5222
 7619SOL    HW234494   0.731   0.493   4.536 -0.1092  2.5160 -1.2457
 7620SOL     OW34495   1.073   3.765   6.482 -0.0287  0.3441  0.5475
 7620SOL    HW134496   0.978   3.780   6.488 -0.3514 -1.5793  0.3548
 7620SOL    HW234497   1.111   3.849   6.507  2.0877 -0.3811 -0.2530
 7621SOL     OW34498   4.022   2.259   5.771 -0.3890  0.1046 -0.1241
 7621SOL    HW134499   4.057   2.174   5.744 -1.3483  0.0905 -1.2814
 7621SOL    HW234500   4.078   2.317   5.720 -1.8772  1.3697 -0.3102
 7622SOL     OW34501   4.369   0.598   2.550  0.2249  0.0644  0.2259
 7622SOL    HW134502   4.442   0.643   2.593  1.3510 -0.5753 -1.0002
 7622SOL    HW234503   4.293   0.618   2.604 -2.3910 -2.4806 -2.5137
 7623SOL     OW34504   0.385   4.471   1.203  0.7381  0.1073 -0.0384
 7623SOL    HW134505   0.449   4.514   1.146  0.6361  1.0307  0.5474
 7623SOL    HW234506   0.367   4.549   1.256  1.3035 -1.7055  2.8620
 7624SOL     OW34507   2.578   1.952   2.037  0.4948 -0.0876  0.0672
 7624SOL    HW134508   2.538   1.872   2.071 -0.8112  0.8877  0.8465
 7624SOL    HW234509   2.503   2.006   2.012  1.2217  1.4794  1.2774
 7625SOL     OW34510   2.054   3.751   8.558 -0.3402  0.1088  0.1667
 7625SOL    HW134511   2.052   3.821   8.624 -2.9346  0.1247  0.0590
 7625SOL    HW234512   1.986   3.775   8.495 -1.5763 -1.2519  0.9704
 7626SOL     OW34513   1.673   0.377  16.249  0.1472  0.1500 -0.0847
 7626SOL    HW134514   1.687   0.405  16.339 -3.2114  0.7016  0.2693
 7626SOL    HW234515   1.636   0.457  16.212 -1.6220 -0.2485  0.8354
 7627SOL     OW34516   0.598   1.204   5.398  0.4742 -0.3319  0.1314
 7627SOL    HW134517   0.567   1.131   5.452 -1.1760 -0.1803 -0.6269
 7627SOL    HW234518   0.568   1.281   5.446 -3.3020 -0.5091 -1.9753
 7628SOL     OW34519   4.198   4.213  14.693  0.5684 -0.2042  0.2451
 7628SOL    HW134520   4.277   4.228  14.641  0.1212 -1.6520 -0.8538
 7628SOL    HW234521   4.234   4.154  14.759  0.0877 -0.0787  0.6164
 7629SOL     OW34522   1.766   1.499  12.817  0.1396  0.2247 -0.0166
 7629SOL    HW134523   1.692   1.552  12.785  0.7646  0.3331 -1.2652
 7629SOL    HW234524   1.717   1.452  12.884  0.2436  1.5674  0.9971
 7630SOL     OW34525   1.039   2.613   4.916  0.2250 -0.0406  0.3116
 7630SOL    HW134526   0.992   2.648   4.840  1.0713 -1.4657 -0.8658
 7630SOL    HW234527   1.078   2.531   4.883  2.9719  1.7278 -0.8685
 7631SOL     OW34528   2.311   3.875   4.296 -0.4431 -0.2092  0.0290
 7631SOL    HW134529   2.330   3.833   4.213  1.4373  0.8335 -0.0650
 7631SOL    HW234530   2.312   3.794   4.347 -1.3380  1.1810  2.2952
 7632SOL     OW34531   0.714   2.006   6.262  0.0080 -0.0072 -0.1421
 7632SOL    HW134532   0.621   2.022   6.249 -0.7622 -2.7492  2.0545
 7632SOL    HW234533   0.743   2.097   6.251  0.8490  0.0898  2.8969
 7633SOL     OW34534   0.875   1.580  14.987  0.4138  0.8844 -0.2047
 7633SOL    HW134535   0.873   1.630  15.068  2.9160  0.1157  0.3216
 7633SOL    HW234536   0.860   1.645  14.918  0.6137  0.4459 -0.6618
 7634SOL     OW34537   2.125   0.306   8.038 -0.4787 -0.1277 -0.1935
 7634SOL    HW134538   2.216   0.289   8.064 -0.5528 -0.6727 -0.2884
 7634SOL    HW234539   2.110   0.229   7.983 -0.8088 -0.6718  0.6692
 7635SOL     OW34540   1.883   0.588   8.775  0.1448 -0.3457  0.3510
 7635SOL    HW134541   1.860   0.496   8.757  0.2686 -0.4165  0.5546
 7635SOL    HW234542   1.977   0.577   8.767  0.2281  1.1885 -0.7057
 7636SOL     OW34543   1.548   1.668   4.724 -0.0593 -0.7248 -0.0448
 7636SOL    HW134544   1.534   1.706   4.638 -0.9525  1.0022  0.8622
 7636SOL    HW234545   1.496   1.589   4.713  1.0740 -1.6698  1.2586
 7637SOL     OW34546   0.492   3.919   1.240 -0.1549 -0.3996 -0.2247
 7637SOL    HW134547   0.587   3.911   1.249 -0.1064 -0.1254 -0.4854
 7637SOL    HW234548   0.461   3.831   1.262 -3.0340  1.2408  2.1456
 7638SOL     OW34549   0.869   3.530   7.420 -0.9709 -0.0184  0.2874
 7638SOL    HW134550   0.802   3.533   7.351  0.1494 -0.4422 -0.8036
 7638SOL    HW234551   0.804   3.546   7.489 -0.2318  0.6266  0.8411
 7639SOL     OW34552   2.831   0.403   8.016 -1.1596 -0.2073 -0.0513
 7639SOL    HW134553   2.781   0.421   8.096 -0.3581 -1.0441  0.6422
 7639SOL    HW234554   2.769   0.352   7.964 -0.3979 -2.7579  1.5270
 7640SOL     OW34555   0.274   4.497  10.818  0.3984  0.0512 -0.0043
 7640SOL    HW134556   0.278   4.588  10.847  0.7039  0.1016 -0.2081
 7640SOL    HW234557   0.329   4.501  10.739 -1.3387 -2.1260 -1.3376
 7641SOL     OW34558   3.968   3.659   6.472  0.2884  0.4803 -0.8973
 7641SOL    HW134559   4.026   3.732   6.494 -0.4731 -0.2007  3.4513
 7641SOL    HW234560   3.936   3.623   6.555 -2.6432  0.5963 -1.9699
 7642SOL     OW34561   2.002   4.104  15.354 -0.1414 -0.0799 -0.7721
 7642SOL    HW134562   2.039   4.141  15.435  1.7852  1.2683 -2.2822
 7642SOL    HW234563   1.908   4.111  15.373  0.3375  1.9574  0.8817
 7643SOL     OW34564   3.532   0.644   6.890  0.0277 -0.8466  0.2326
 7643SOL    HW134565   3.511   0.668   6.980 -2.8383 -1.7403 -0.1935
 7643SOL    HW234566   3.567   0.724   6.852  1.5280 -1.7641 -0.2998
 7644SOL     OW34567   3.968   1.837   8.558  0.6675 -0.3280 -0.5379
 7644SOL    HW134568   3.943   1.747   8.578 -3.8997  1.0241 -0.0439
 7644SOL    HW234569   4.058   1.820   8.533  1.0833  2.0261 -0.6404
 7645SOL     OW34570   1.316   3.327  14.747 -0.6442  0.3478  0.6696
 7645SOL    HW134571   1.367   3.254  14.711  0.4858  0.6285  1.7055
 7645SOL    HW234572   1.241   3.278  14.781 -0.4489  0.0597  0.6874
 7646SOL     OW34573   3.372   2.213  11.966 -0.7036  0.0796  0.0939
 7646SOL    HW134574   3.350   2.294  11.919 -1.5368  0.3234  0.9142
 7646SOL    HW234575   3.365   2.147  11.897 -1.3789  0.0322  0.2115
 7647SOL     OW34576   1.066   1.680   2.972  0.7947  0.0508  0.0650
 7647SOL    HW134577   1.141   1.620   2.974  0.5416 -0.3453 -2.5842
 7647SOL    HW234578   1.100   1.752   3.025  0.5067  1.4540 -1.6698
 7648SOL     OW34579   1.723   0.766   1.284  0.4019 -0.2322 -0.5184
 7648SOL    HW134580   1.686   0.688   1.326  1.8412 -2.7922 -4.0365
 7648SOL    HW234581   1.811   0.745   1.252 -0.0336  0.1928 -1.9766
 7649SOL     OW34582   2.055   2.273   3.718 -0.3108 -0.1888  0.5910
 7649SOL    HW134583   2.110   2.285   3.795  0.5489 -0.8742  0.0810
 7649SOL    HW234584   1.969   2.264   3.760 -0.8663 -0.2724 -0.5553
 7650SOL     OW34585   2.405   0.404   2.320 -0.3937 -0.6665  0.4000
 7650SOL    HW134586   2.404   0.487   2.368  2.9264 -1.0926  1.1981
 7650SOL    HW234587   2.494   0.389   2.286 -0.1715 -1.1545  1.2085
 7651SOL     OW34588   4.314   3.333   2.706 -0.0610  0.1843 -0.2620
 7651SOL    HW134589   4.349   3.244   2.713 -0.8831 -0.1201 -0.0837
 7651SOL    HW234590   4.271   3.324   2.791  0.8847 -2.3322 -0.0378
 7652SOL     OW34591   3.833   1.863   7.273 -0.3851 -0.0425  0.6130
 7652SOL    HW134592   3.814   1.840   7.364  0.3140 -4.2339 -0.2859
 7652SOL    HW234593   3.861   1.954   7.283 -0.7591  0.0617  0.7108
 7653SOL     OW34594   2.345   0.646   8.657 -0.7715  0.1902  0.0188
 7653SOL    HW134595   2.323   0.728   8.701  0.7689 -0.0193  1.1994
 7653SOL    HW234596   2.268   0.596   8.684 -0.5624  0.2386  0.6999
 7654SOL     OW34597   1.968   1.310   9.448 -0.5855  0.0909 -0.2244
 7654SOL    HW134598   2.058   1.339   9.464 -0.4508 -1.3429  1.5953
 7654SOL    HW234599   1.913   1.354   9.513  0.0049  0.0029  0.3372
 7655SOL     OW34600   3.844   0.377   6.737 -0.2130 -0.8906 -0.1191
 7655SOL    HW134601   3.751   0.398   6.743  1.0957  4.9657 -0.2222
 7655SOL    HW234602   3.844   0.283   6.756  1.6399 -1.0958 -1.0398
 7656SOL     OW34603   2.926   1.739   3.434  0.0875  0.2436  0.1184
 7656SOL    HW134604   2.974   1.699   3.507  0.6494  1.8288  0.6365
 7656SOL    HW234605   2.861   1.670   3.422  1.6489 -0.9929 -1.3224
 7657SOL     OW34606   4.123   2.317  12.637  0.0833  0.5201  0.8417
 7657SOL    HW134607   4.139   2.406  12.669 -3.8354  1.0535  1.3081
 7657SOL    HW234608   4.057   2.329  12.568  0.3924 -2.8576 -0.0270
 7658SOL     OW34609   4.348   0.873   6.080  0.4375 -0.6393 -0.2226
 7658SOL    HW134610   4.285   0.814   6.121 -1.5896  0.9131 -1.0735
 7658SOL    HW234611   4.399   0.902   6.156  1.7337 -4.1092  0.1980
 7659SOL     OW34612   2.271   0.136   2.029 -0.7161  0.0202  0.1583
 7659SOL    HW134613   2.332   0.171   1.964  2.4367 -1.0443  2.5458
 7659SOL    HW234614   2.235   0.215   2.069  0.0101 -0.1723  1.2018
 7660SOL     OW34615   2.735   0.608  17.570 -0.2125 -0.1276 -0.0229
 7660SOL    HW134616   2.771   0.629  17.484  1.4044  0.5974  0.8296
 7660SOL    HW234617   2.791   0.671  17.616  0.9761 -2.3402  1.5592
 7661SOL     OW34618   3.965   4.052   7.082 -0.4224 -0.0806 -0.8514
 7661SOL    HW134619   3.990   3.982   7.141 -0.8096 -0.0100 -0.6031
 7661SOL    HW234620   3.924   4.113   7.143  0.6522 -0.5113  0.2818
 7662SOL     OW34621   3.006   0.574   7.310  0.2773  0.1669 -0.5099
 7662SOL    HW134622   3.002   0.659   7.355 -0.0012 -1.6550  2.9446
 7662SOL    HW234623   3.049   0.593   7.227  1.7447  0.8608  0.3939
 7663SOL     OW34624   3.235   3.329   2.540 -0.0100  0.1195 -0.2120
 7663SOL    HW134625   3.321   3.289   2.545 -0.6058 -1.2987 -1.2513
 7663SOL    HW234626   3.207   3.302   2.628  1.8508  3.2162  1.3223
 7664SOL     OW34627   0.426   4.695   3.358  0.4598  0.1833  0.0254
 7664SOL    HW134628   0.342   4.727   3.326  1.6122  0.3385 -2.8226
 7664SOL    HW234629   0.442   4.630   3.289 -2.7064 -0.3007 -0.2310
 7665SOL     OW34630   0.230   4.465   5.755 -0.1372 -0.0342 -0.1020
 7665SOL    HW134631   0.171   4.496   5.686  3.0515 -0.9507 -3.2390
 7665SOL    HW234632   0.222   4.524   5.830 -1.3839  0.8736 -0.9465
 7666SOL     OW34633   4.440   2.254  11.218 -0.2098  0.2210 -0.1227
 7666SOL    HW134634   4.455   2.333  11.271 -0.7282 -0.0592  0.4496
 7666SOL    HW234635   4.355   2.273  11.177 -0.5454 -1.0391  0.0022
 7667SOL     OW34636   0.691   3.003   2.544  0.5679  1.0654  0.1071
 7667SOL    HW134637   0.733   3.062   2.482 -1.5665  0.8152 -1.5832
 7667SOL    HW234638   0.740   2.923   2.523 -3.0590 -0.5649 -1.9992
 7668SOL     OW34639   1.580   2.448   5.758 -0.7434 -0.1392  0.6586
 7668SOL    HW134640   1.506   2.387   5.751 -1.0446  0.1348  1.4156
 7668SOL    HW234641   1.553   2.498   5.835  0.0186 -1.7780  1.9853
 7669SOL     OW34642   4.259   2.681   9.411  0.4150 -0.5932  0.3650
 7669SOL    HW134643   4.351   2.706   9.401  0.3561 -0.0589  1.1797
 7669SOL    HW234644   4.259   2.586   9.395 -1.8175 -0.6275  0.6418
 7670SOL     OW34645   1.194   0.089   3.510 -0.2860  0.0454 -0.2179
 7670SOL    HW134646   1.222   0.116   3.598 -0.3267  0.7865 -0.4343
 7670SOL    HW234647   1.219   4.734   3.509 -0.0626  0.1243 -1.3047
 7671SOL     OW34648   0.423   1.551  11.594 -0.2045  0.1484 -0.0310
 7671SOL    HW134649   0.450   1.468  11.554 -1.9959 -0.0590 -0.7984
 7671SOL    HW234650   0.329   1.534  11.601 -0.6744  0.8601 -4.5983
 7672SOL     OW34651   4.544   2.051   2.524  0.1652 -0.0513  0.2596
 7672SOL    HW134652   4.578   1.962   2.535  0.8453  0.1445 -0.2441
 7672SOL    HW234653   4.493   2.044   2.443 -1.1633  2.0303  0.9349
 7673SOL     OW34654   3.423   1.820   3.932 -0.0426  0.0150 -0.5180
 7673SOL    HW134655   3.415   1.758   3.859  0.9638  0.6589 -1.1714
 7673SOL    HW234656   3.509   1.793   3.963 -0.3719  0.6928  0.9495
 7674SOL     OW34657   2.851   3.116   6.127 -0.2577  0.0394 -0.0369
 7674SOL    HW134658   2.792   3.176   6.173 -1.4416 -1.5373  0.5195
 7674SOL    HW234659   2.937   3.150   6.149  0.3440  0.5244 -3.2053
 7675SOL     OW34660   1.966   0.912   5.091  0.1409  0.3494 -0.4916
 7675SOL    HW134661   1.873   0.909   5.070 -0.1075  3.0915  0.2426
 7675SOL    HW234662   1.992   0.993   5.047  0.5241  0.0426 -0.8331
 7676SOL     OW34663   1.055   0.273  16.941  0.2258 -0.5597 -0.1269
 7676SOL    HW134664   1.132   0.288  16.886  1.7779 -1.1919  1.8735
 7676SOL    HW234665   0.993   0.313  16.881  0.0051  1.6765  1.6018
 7677SOL     OW34666   1.903   3.222   3.154 -0.4995 -0.5827 -0.3513
 7677SOL    HW134667   1.909   3.282   3.080 -1.3596  2.3893  1.9987
 7677SOL    HW234668   1.833   3.164   3.124 -1.0124 -0.3981  0.4895
 7678SOL     OW34669   1.892   4.023   9.811  0.0234 -0.2743  0.4185
 7678SOL    HW134670   1.982   3.994   9.827  0.1517  0.1020  0.3721
 7678SOL    HW234671   1.891   4.060   9.899 -1.2656 -0.4548  0.4895
 7679SOL     OW34672   0.061   2.924   4.931  0.7843 -0.6355  0.2038
 7679SOL    HW134673   0.032   3.002   4.976 -0.2479 -0.0179 -1.5241
 7679SOL    HW234674   0.125   2.958   4.868  0.9559  0.0138  0.7450
 7680SOL     OW34675   2.000   1.140   2.180  0.1087  0.1616  0.3773
 7680SOL    HW134676   2.029   1.174   2.265  0.6327  1.5892 -0.3745
 7680SOL    HW234677   1.905   1.129   2.185  0.2332 -1.5256 -1.3499
 7681SOL     OW34678   0.607   1.036   1.923  0.0953 -0.6553  0.3404
 7681SOL    HW134679   0.526   1.060   1.967 -0.1402 -0.3582 -0.2518
 7681SOL    HW234680   0.638   0.962   1.975 -0.0028 -0.1267  1.1462
 7682SOL     OW34681   3.671   0.972   2.948 -0.3226  0.3400 -0.2348
 7682SOL    HW134682   3.748   0.925   2.918  0.9670  1.0251  1.9557
 7682SOL    HW234683   3.705   0.998   3.034 -1.3150 -1.0164  0.5580
 7683SOL     OW34684   1.932   0.070   2.322 -0.0188 -0.7963 -0.6835
 7683SOL    HW134685   1.999   0.009   2.289 -0.1164 -1.3405  0.1252
 7683SOL    HW234686   1.890   0.025   2.395 -1.4385  1.9774  0.2109
 7684SOL     OW34687   0.986   0.293  15.504  0.7866 -0.2914  0.3011
 7684SOL    HW134688   0.929   0.217  15.492 -0.0767  0.5020 -0.5427
 7684SOL    HW234689   0.972   0.348  15.428 -1.2754 -2.3474 -0.8028
 7685SOL     OW34690   2.734   3.288   3.907  0.4007  0.3497 -0.4427
 7685SOL    HW134691   2.730   3.196   3.933 -1.6271  0.4774 -0.2999
 7685SOL    HW234692   2.821   3.308   3.943  0.4881 -1.0279  0.0955
 7686SOL     OW34693   4.627   4.236   4.582  0.1680  0.0841  0.6879
 7686SOL    HW134694   4.627   4.164   4.519 -0.3177  1.1970 -0.5885
 7686SOL    HW234695   4.585   4.188   4.654  0.3359 -0.0601  0.6911
 7687SOL     OW34696   0.051   0.288   8.128  0.2997 -0.2091  0.1824
 7687SOL    HW134697   0.050   0.241   8.211 -4.0132 -0.4146  0.0423
 7687SOL    HW234698   0.145   0.292   8.110  0.4016  0.4366  0.8752
 7688SOL     OW34699   1.673   2.234   5.529  0.8362  0.3826 -0.2435
 7688SOL    HW134700   1.664   2.320   5.488  0.3584 -0.1122 -1.1617
 7688SOL    HW234701   1.645   2.246   5.620  0.6498  1.4075 -0.4414
 7689SOL     OW34702   2.135   4.254  13.204  0.4393 -0.0980  0.4126
 7689SOL    HW134703   2.098   4.309  13.134 -1.0899 -0.9517  0.5716
 7689SOL    HW234704   2.148   4.177  13.149  0.1398  0.0475  0.1347
 7690SOL     OW34705   0.925   1.191   7.495  0.0085 -0.7485  0.4940
 7690SOL    HW134706   0.971   1.188   7.411  0.0855  0.9516  0.4910
 7690SOL    HW234707   0.861   1.262   7.490 -0.9532 -1.7165 -0.9322
 7691SOL     OW34708   0.778   0.555   2.280  0.2064  0.0987  0.0052
 7691SOL    HW134709   0.868   0.571   2.253  0.7725 -0.8847  1.2876
 7691SOL    HW234710   0.753   0.508   2.201  0.6195 -0.7272  0.3622
 7692SOL     OW34711   1.596   2.369   2.611 -0.2671  0.3937 -0.2748
 7692SOL    HW134712   1.513   2.367   2.658 -1.2122  1.8541 -1.8865
 7692SOL    HW234713   1.620   2.276   2.607 -0.2700  0.4715 -2.2010
 7693SOL     OW34714   2.128   4.431   0.966 -0.5655  0.2671  0.0170
 7693SOL    HW134715   2.062   4.450   0.899 -2.4022  1.0374  2.0453
 7693SOL    HW234716   2.150   4.340   0.949  1.8682  0.8545  0.0887
 7694SOL     OW34717   0.092   3.765  16.789  0.0134  0.3049 -0.2752
 7694SOL    HW134718   0.044   3.778  16.871 -0.1107  2.0898 -0.6348
 7694SOL    HW234719   0.041   3.701  16.740 -0.1130  0.5321 -0.4388
 7695SOL     OW34720   2.452   2.388   4.071 -0.0510  0.0778 -0.1389
 7695SOL    HW134721   2.485   2.435   3.994  0.3676 -0.1569 -0.1005
 7695SOL    HW234722   2.443   2.456   4.138  1.1754  0.1873 -0.0962
 7696SOL     OW34723   1.344   2.586  14.596 -0.1946 -0.5042  0.4809
 7696SOL    HW134724   1.286   2.533  14.542 -0.1700  0.3374 -0.3526
 7696SOL    HW234725   1.279   2.638  14.644  0.1130  1.7300 -1.5632
 7697SOL     OW34726   0.368   1.589   9.739 -0.4356 -0.1215 -0.3068
 7697SOL    HW134727   0.435   1.587   9.671 -0.7307 -0.6274 -0.5810
 7697SOL    HW234728   0.406   1.522   9.796  0.6392 -0.5626 -1.5277
 7698SOL     OW34729   1.337   1.211  11.872 -0.2206  0.3208 -0.7449
 7698SOL    HW134730   1.307   1.262  11.797  0.7355  1.8669 -0.0876
 7698SOL    HW234731   1.429   1.237  11.877  0.0612 -0.6569 -0.9272
 7699SOL     OW34732   2.105   2.463   5.065 -0.2729 -0.1031 -0.2749
 7699SOL    HW134733   2.137   2.494   5.150  2.3859 -1.1196 -0.8887
 7699SOL    HW234734   2.017   2.499   5.064 -1.1543 -2.2643 -1.3830
 7700SOL     OW34735   3.485   1.706   4.351 -0.1800 -0.2923  0.8652
 7700SOL    HW134736   3.401   1.726   4.310 -0.4400 -0.6257  1.2357
 7700SOL    HW234737   3.465   1.683   4.442  3.6078 -4.5878  0.6105
 7701SOL     OW34738   3.409   2.003   3.579  0.0443  0.3368 -0.3183
 7701SOL    HW134739   3.489   2.012   3.629 -1.2044  1.7467  1.4229
 7701SOL    HW234740   3.439   1.970   3.494  1.2648  1.8014 -0.4575
 7702SOL     OW34741   1.656   2.447   1.777  0.1306  0.5566 -0.2312
 7702SOL    HW134742   1.728   2.500   1.809  0.4244  0.1249 -0.1740
 7702SOL    HW234743   1.603   2.510   1.728  0.3925  1.6851  0.9561
 7703SOL     OW34744   3.698   0.010   8.687  0.0964  0.4143  0.1034
 7703SOL    HW134745   3.784   4.709   8.701 -0.2125 -1.1659 -2.3962
 7703SOL    HW234746   3.725   0.083   8.632  1.7643 -0.5708 -0.3958
 7704SOL     OW34747   3.290   2.738   6.303  0.2543 -0.1579 -0.0164
 7704SOL    HW134748   3.239   2.768   6.228 -1.5584 -1.0856  0.8442
 7704SOL    HW234749   3.321   2.656   6.264  1.2375 -0.2777  1.0290
 7705SOL     OW34750   2.212   1.935  16.596  0.6229  0.1145 -0.7307
 7705SOL    HW134751   2.275   2.007  16.595 -1.3037  1.8184 -0.3223
 7705SOL    HW234752   2.131   1.986  16.594 -0.2875 -1.2056  1.6029
 7706SOL     OW34753   4.459   4.512  12.938 -0.8526 -0.1465 -0.3262
 7706SOL    HW134754   4.460   4.585  12.875  0.1473 -0.2152 -0.3861
 7706SOL    HW234755   4.527   4.539  12.999 -1.3533  1.1643 -0.3343
 7707SOL     OW34756   1.002   3.703   7.877 -0.5364 -0.5924 -0.2492
 7707SOL    HW134757   0.934   3.637   7.864  0.1639 -0.4507 -4.6615
 7707SOL    HW234758   0.962   3.779   7.835  0.3964 -1.1565 -2.1850
 7708SOL     OW34759   1.087   4.072  15.243 -0.4657 -0.5266  0.8137
 7708SOL    HW134760   1.136   4.008  15.294 -0.7906 -1.4784 -0.0523
 7708SOL    HW234761   1.157   4.121  15.200 -0.9068  0.6197  1.4029
 7709SOL     OW34762   0.504   2.845   3.040  0.0213  0.0688 -0.1903
 7709SOL    HW134763   0.591   2.884   3.025  0.4003 -0.0061  1.7536
 7709SOL    HW234764   0.457   2.916   3.084  1.1846  1.7668 -1.6553
 7710SOL     OW34765   1.347   2.196   1.785  0.1045 -0.4937 -0.4218
 7710SOL    HW134766   1.334   2.105   1.760  0.5631  0.0087 -2.5184
 7710SOL    HW234767   1.257   2.220   1.805  1.3609  0.9368  3.3961
 7711SOL     OW34768   3.531   3.678  12.147  0.1265 -0.2362  0.2760
 7711SOL    HW134769   3.503   3.630  12.225  0.6814  0.4860  0.9282
 7711SOL    HW234770   3.626   3.675  12.162  0.2367 -1.2998 -0.7239
 7712SOL     OW34771   1.012   3.664  17.180 -0.2424 -0.3037 -1.0047
 7712SOL    HW134772   1.069   3.684  17.106  1.0492 -1.1470 -0.2549
 7712SOL    HW234773   0.936   3.653  17.124 -0.8262 -0.7584 -0.1261
 7713SOL     OW34774   0.015   3.880   2.387 -0.3648 -0.5234  0.0243
 7713SOL    HW134775   4.692   3.808   2.401  1.7017 -1.8628  2.1307
 7713SOL    HW234776   0.084   3.834   2.339  1.2829 -0.6395  2.5115
 7714SOL     OW34777   3.968   3.012   3.029 -0.3236  0.1842  0.4739
 7714SOL    HW134778   3.877   2.984   3.041  0.3483 -1.5539  1.4945
 7714SOL    HW234779   3.957   3.085   3.090  0.9888  1.0909 -0.3866
 7715SOL     OW34780   0.946   2.331   1.394 -0.2633 -0.6857 -0.1438
 7715SOL    HW134781   0.853   2.336   1.417 -0.1192 -0.6146  0.4002
 7715SOL    HW234782   0.934   2.346   1.300  0.4339 -0.9441 -0.2779
 7716SOL     OW34783   1.691   1.764   1.951 -0.1182  0.3639 -0.0508
 7716SOL    HW134784   1.723   1.811   1.874 -2.6063  1.2574 -0.5379
 7716SOL    HW234785   1.685   1.840   2.009 -0.2011  0.3491 -0.0401
 7717SOL     OW34786   3.007   3.876   2.246  0.0994  0.4774  0.9323
 7717SOL    HW134787   2.985   3.956   2.199  1.7304 -1.3155 -2.8858
 7717SOL    HW234788   3.084   3.841   2.202 -0.3498  0.5120  0.1250
 7718SOL     OW34789   0.281   2.897  17.319 -0.2223 -0.4804 -0.8982
 7718SOL    HW134790   0.216   2.967  17.319  0.6440  0.3144  2.1831
 7718SOL    HW234791   0.336   2.934  17.388  0.7210 -1.4769 -1.1112
 7719SOL     OW34792   2.202   1.297  15.059 -0.1112 -0.0287  0.2351
 7719SOL    HW134793   2.115   1.321  15.090 -0.6137  0.8223 -1.8386
 7719SOL    HW234794   2.208   1.212  15.102 -0.1463 -0.4923 -0.6725
 7720SOL     OW34795   0.445   0.203   2.545  0.0970  0.2132 -0.1230
 7720SOL    HW134796   0.488   0.282   2.511  0.8253 -1.3785 -2.8749
 7720SOL    HW234797   0.523   0.157   2.575 -1.8866 -3.6299 -0.9335
 7721SOL     OW34798   1.340   3.727   3.837 -0.2399  0.1107  0.4525
 7721SOL    HW134799   1.378   3.812   3.859  0.4097  0.0036 -0.2305
 7721SOL    HW234800   1.336   3.688   3.924 -1.7007 -0.4320  0.1433
 7722SOL     OW34801   3.012   4.627   0.027 -0.3623 -0.2811  0.1719
 7722SOL    HW134802   3.053   4.568  17.715 -1.5378  0.3339 -1.1417
 7722SOL    HW234803   3.029   4.719   0.010 -0.4169  0.0585  1.8795
 7723SOL     OW34804   4.634   4.617   8.374  0.3292 -0.2382  0.1358
 7723SOL    HW134805   4.577   4.587   8.444  0.5668  0.6445  0.7065
 7723SOL    HW234806   4.592   4.687   8.323 -1.4263 -0.1581  1.7092
 7724SOL     OW34807   2.067   3.915  15.662 -0.2393 -0.4165  0.0129
 7724SOL    HW134808   2.083   4.000  15.621 -0.3517 -0.6254 -0.4654
 7724SOL    HW234809   2.067   3.944  15.753  0.7650 -1.0772  0.2286
 7725SOL     OW34810   2.432   0.806  12.164  0.2042 -0.5054  0.7042
 7725SOL    HW134811   2.521   0.840  12.153 -1.2640  2.2163 -2.9724
 7725SOL    HW234812   2.428   0.722  12.119  1.4181 -0.9768  1.4985
 7726SOL     OW34813   3.569   4.689   2.033 -0.5812 -0.4749  0.0525
 7726SOL    HW134814   3.563   0.031   1.980  0.3861  0.5636  1.5124
 7726SOL    HW234815   3.598   4.622   1.972  1.8794  2.3079 -1.8325
 7727SOL     OW34816   0.190   3.775   8.065 -0.1639  0.0324  0.0189
 7727SOL    HW134817   0.237   3.691   8.064 -1.3855 -0.6691  2.1295
 7727SOL    HW234818   0.189   3.791   7.971 -0.5832  1.4098  0.2552
 7728SOL     OW34819   1.434   2.689   8.718  0.2675 -0.3914 -0.3857
 7728SOL    HW134820   1.466   2.599   8.714 -2.0174 -1.2429  1.0077
 7728SOL    HW234821   1.460   2.712   8.807 -2.0264 -1.8368  0.6449
 7729SOL     OW34822   1.954   0.188   6.802 -0.0102  0.2713 -0.5025
 7729SOL    HW134823   1.867   0.148   6.812  0.0170  0.1669 -0.6823
 7729SOL    HW234824   1.965   0.196   6.707  1.4686  1.0908 -0.2579
 7730SOL     OW34825   3.649   3.522   8.206 -0.4235 -0.4719 -0.1798
 7730SOL    HW134826   3.679   3.580   8.276  1.6896 -2.6018  0.6909
 7730SOL    HW234827   3.645   3.570   8.124 -1.6391 -1.6141 -0.7978
 7731SOL     OW34828   0.353   2.187  14.596  0.0406 -0.6659 -0.3068
 7731SOL    HW134829   0.368   2.258  14.658  0.8792 -0.6779 -0.5072
 7731SOL    HW234830   0.436   2.182  14.549  0.7792 -0.9931  1.0247
 7732SOL     OW34831   0.140   2.502  10.926 -0.1480 -0.0862 -0.1080
 7732SOL    HW134832   0.191   2.535  10.852  3.6669 -3.2927  1.0815
 7732SOL    HW234833   0.205   2.438  10.957  0.9582  0.6509 -0.9142
 7733SOL     OW34834   1.790   1.759   5.214  0.5929  0.2617  0.0819
 7733SOL    HW134835   1.716   1.699   5.215  1.5205 -0.8425  2.4257
 7733SOL    HW234836   1.751   1.840   5.181  1.4990  0.4970 -0.4304
 7734SOL     OW34837   2.234   3.730   2.951 -0.1847  0.2314  0.6963
 7734SOL    HW134838   2.201   3.816   2.925  0.4798  0.6802  1.3534
 7734SOL    HW234839   2.172   3.708   3.022 -0.4223  0.5430  0.5861
 7735SOL     OW34840   3.762   2.136   4.211  0.0426 -0.2370 -0.0779
 7735SOL    HW134841   3.736   2.130   4.119 -0.0923 -1.2720  0.0193
 7735SOL    HW234842   3.719   2.056   4.241  1.5831 -1.6197 -1.5752
 7736SOL     OW34843   4.335   3.232   2.297 -0.4135  0.3132 -1.0905
 7736SOL    HW134844   4.340   3.195   2.209 -1.3481 -1.0166 -0.5822
 7736SOL    HW234845   4.260   3.186   2.335  1.8436 -0.8472  1.9908
 7737SOL     OW34846   1.228   0.056   2.101  0.5957  0.0620 -0.1537
 7737SOL    HW134847   1.296   0.074   2.036  0.7026  0.7492  0.1457
 7737SOL    HW234848   1.160   0.019   2.045 -0.2689  0.3949  0.6695
 7738SOL     OW34849   1.611   3.978   8.134  0.1836 -0.1847 -0.2098
 7738SOL    HW134850   1.698   3.939   8.143  0.0656 -0.1274  1.1624
 7738SOL    HW234851   1.583   4.014   8.218 -1.3238 -0.2304 -0.6930
 7739SOL     OW34852   0.915   4.420   9.061  0.3851 -0.5577 -0.1726
 7739SOL    HW134853   0.844   4.375   9.107  1.6790 -0.5898  1.7933
 7739SOL    HW234854   0.885   4.510   9.071 -1.9539 -1.5401  1.6948
 7740SOL     OW34855   0.804   0.752   4.456  0.7303 -0.0690  0.1396
 7740SOL    HW134856   0.849   0.796   4.529  0.5735 -0.4012  0.4346
 7740SOL    HW234857   0.803   0.665   4.496  0.5759 -1.9245 -3.8958
 7741SOL     OW34858   0.600   2.478   5.175 -0.1721 -0.9164  0.0215
 7741SOL    HW134859   0.660   2.409   5.149 -1.5431 -1.4010 -1.8518
 7741SOL    HW234860   0.611   2.481   5.270 -1.5206 -1.5883  0.1967
 7742SOL     OW34861   0.396   0.756   3.892  0.2789 -0.6158 -0.2984
 7742SOL    HW134862   0.492   0.754   3.892  0.3220  1.6840  0.8970
 7742SOL    HW234863   0.376   0.772   3.984 -1.4928 -1.4756 -0.5511
 7743SOL     OW34864   1.702   2.498   2.410  0.1027  0.3773  0.0887
 7743SOL    HW134865   1.623   2.521   2.362  1.4695 -0.9163 -2.8109
 7743SOL    HW234866   1.667   2.450   2.486 -2.8659  1.1013 -0.8202
 7744SOL     OW34867   0.054   2.242   1.924  0.0443 -0.0761  0.1611
 7744SOL    HW134868   0.023   2.186   1.995  0.2197  0.7753  0.9136
 7744SOL    HW234869   0.061   2.322   1.976 -2.0452  0.1549  0.0969
 7745SOL     OW34870   3.097   3.719  10.356 -0.1208 -0.2339  0.9519
 7745SOL    HW134871   3.136   3.801  10.326 -0.1943  0.3832  2.5598
 7745SOL    HW234872   3.021   3.720  10.297  2.1547 -1.7818 -2.0253
 7746SOL     OW34873   0.364   1.594   7.015  0.0270  0.0637 -0.0235
 7746SOL    HW134874   0.352   1.501   7.036 -0.4979  0.5411  1.8303
 7746SOL    HW234875   0.425   1.583   6.942  0.3969  1.3312  0.0984
 7747SOL     OW34876   2.753   0.600   3.911 -0.1508  0.1379  0.3553
 7747SOL    HW134877   2.840   0.640   3.905 -0.6997  1.4766  1.1320
 7747SOL    HW234878   2.728   0.621   4.001  1.3349  1.1876  0.5216
 7748SOL     OW34879   3.734   4.535  15.176  0.2379  0.3048 -0.0287
 7748SOL    HW134880   3.678   4.457  15.179  3.2129 -1.8074  0.1232
 7748SOL    HW234881   3.678   4.600  15.219  0.3046  0.3705 -0.0426
 7749SOL     OW34882   1.066   4.367   4.199 -0.6816 -0.3416 -0.1678
 7749SOL    HW134883   1.049   4.292   4.256 -2.5240 -0.8422 -1.3705
 7749SOL    HW234884   0.993   4.372   4.136  0.0783  0.5619 -0.9695
 7750SOL     OW34885   3.874   4.738   7.300  0.2469 -0.2598 -0.8049
 7750SOL    HW134886   3.780   0.011   7.285 -0.0226 -1.1670  0.2574
 7750SOL    HW234887   3.895   4.663   7.244  0.0025  1.3456 -3.0948
 7751SOL     OW34888   0.717   1.037   8.659 -0.1053  0.0399 -0.8054
 7751SOL    HW134889   0.654   1.017   8.590 -1.5618 -1.2709  0.9363
 7751SOL    HW234890   0.790   0.986   8.624 -0.8499 -0.6219 -1.3789
 7752SOL     OW34891   4.722   2.196   4.198 -0.1196 -0.3658  0.0887
 7752SOL    HW134892   0.079   2.196   4.209  0.0641 -0.1698 -1.4252
 7752SOL    HW234893   4.704   2.290   4.196 -0.1661 -0.4218 -2.1530
 7753SOL     OW34894   2.557   2.670   2.229  0.1196  0.2924 -0.3669
 7753SOL    HW134895   2.521   2.758   2.235 -1.9679 -0.6610  1.4092
 7753SOL    HW234896   2.649   2.694   2.224  0.7587 -2.1021 -0.3261
 7754SOL     OW34897   2.458   3.333   9.316 -0.2310 -0.8356 -0.0550
 7754SOL    HW134898   2.494   3.284   9.242  0.1446  2.0179 -1.7667
 7754SOL    HW234899   2.365   3.335   9.295  0.1654  1.0602 -1.6943
 7755SOL     OW34900   1.762   0.379   9.773 -0.2786  0.0209  0.5780
 7755SOL    HW134901   1.724   0.467   9.776  0.4883  0.3806 -0.3137
 7755SOL    HW234902   1.844   0.393   9.725 -0.4650  0.2621  0.3269
 7756SOL     OW34903   4.635   2.079  14.358 -0.1548  0.1742 -0.1370
 7756SOL    HW134904   4.634   1.983  14.358 -1.8513  0.2075  1.8917
 7756SOL    HW234905   4.718   2.100  14.400  0.7350 -0.0895 -1.7417
 7757SOL     OW34906   0.778   1.624   0.397  0.0914  0.4038 -0.6647
 7757SOL    HW134907   0.811   1.608   0.309  1.3891  1.6953 -0.4167
 7757SOL    HW234908   0.779   1.720   0.393 -0.9920  0.4770  0.8761
 7758SOL     OW34909   3.875   4.561  12.837  0.2125 -0.6386  0.3937
 7758SOL    HW134910   3.803   4.498  12.845 -0.5975 -0.0585 -2.1886
 7758SOL    HW234911   3.935   4.523  12.902  0.8908  1.4066  0.9556
 7759SOL     OW34912   3.164   0.642   9.297 -0.5638  0.1006  0.6351
 7759SOL    HW134913   3.225   0.613   9.364 -0.9899 -1.7182  0.2321
 7759SOL    HW234914   3.214   0.628   9.216 -0.0571 -0.2409  1.0063
 7760SOL     OW34915   0.518   2.971   3.449 -0.2971  0.0449  0.1975
 7760SOL    HW134916   0.474   2.967   3.364 -1.2100  1.6338  0.6002
 7760SOL    HW234917   0.470   2.904   3.497  0.8970  0.6229  2.1793
 7761SOL     OW34918   0.634   4.440   9.928  1.4391  0.0769  0.7231
 7761SOL    HW134919   0.641   4.463   9.835  3.1358 -1.8593  0.3786
 7761SOL    HW234920   0.618   4.346   9.916  0.2150  0.5943 -1.8429
 7762SOL     OW34921   2.377   2.582   5.985 -0.3773  0.5399  0.4128
 7762SOL    HW134922   2.419   2.658   6.026 -0.6384  1.3621 -0.8401
 7762SOL    HW234923   2.437   2.561   5.914  0.0416 -0.1688  0.9771
 7763SOL     OW34924   3.190   2.244   6.510 -0.2850 -0.5044 -0.0620
 7763SOL    HW134925   3.239   2.311   6.558  1.3628 -0.5602 -1.6932
 7763SOL    HW234926   3.248   2.169   6.504  1.7716  1.2771 -2.3391
 7764SOL     OW34927   3.774   2.824  14.159  0.3381 -0.1001  0.6417
 7764SOL    HW134928   3.770   2.799  14.251  0.3113  1.0264  0.9488
 7764SOL    HW234929   3.722   2.758  14.113 -0.5331 -0.4812  2.1855
 7765SOL     OW34930   2.630   0.142   2.893 -0.2315  0.4691  0.6998
 7765SOL    HW134931   2.648   0.048   2.890 -2.7074 -0.0257  1.0209
 7765SOL    HW234932   2.680   0.169   2.969  1.2513  3.3047 -1.2906
 7766SOL     OW34933   4.545   2.307   5.245 -0.0414 -0.1966 -0.0834
 7766SOL    HW134934   4.455   2.298   5.214 -0.1504 -2.5561  0.8423
 7766SOL    HW234935   4.606   2.248   5.202  2.9895  0.6709  2.9723
 7767SOL     OW34936   0.413   4.391   7.516  0.4871  0.0936  0.1375
 7767SOL    HW134937   0.435   4.395   7.609  0.7244 -2.5149  0.1987
 7767SOL    HW234938   0.460   4.468   7.484  1.7299 -0.7943 -0.1838
 7768SOL     OW34939   3.752   0.147   0.463  0.2556  0.3340 -0.0718
 7768SOL    HW134940   3.697   0.221   0.438 -1.7097 -1.2230 -0.3236
 7768SOL    HW234941   3.681   0.083   0.459  1.4715 -1.0217  0.0678
 7769SOL     OW34942   3.649   2.576   3.379  0.6121 -0.0788 -0.4353
 7769SOL    HW134943   3.606   2.550   3.461 -2.0465  4.0738 -0.4881
 7769SOL    HW234944   3.568   2.586   3.329 -0.6165 -0.4839  1.4677
 7770SOL     OW34945   2.955   2.159   3.247 -0.0412 -0.4521 -0.0503
 7770SOL    HW134946   3.037   2.189   3.209  0.8623 -0.3708  1.9817
 7770SOL    HW234947   2.995   2.139   3.331  0.8616  1.5013 -0.0055
 7771SOL     OW34948   2.634   3.001   3.314  0.5043 -0.1099  0.6550
 7771SOL    HW134949   2.681   2.921   3.337  0.5889 -0.1108  0.4748
 7771SOL    HW234950   2.550   2.982   3.356 -1.0607 -0.1765 -2.5146
 7772SOL     OW34951   0.498   1.572   9.484  0.4861 -0.1000 -0.3007
 7772SOL    HW134952   0.408   1.580   9.451  1.1854 -1.4537 -2.5246
 7772SOL    HW234953   0.538   1.530   9.408  0.0387 -3.5820  1.4254
 7773SOL     OW34954   0.020   2.142   8.764  0.5575  0.0387  0.3196
 7773SOL    HW134955   4.664   2.143   8.783  1.3014  0.2404  3.8956
 7773SOL    HW234956   0.059   2.181   8.842 -1.4322  1.6973  0.4803
 7774SOL     OW34957   3.391   3.630  10.315 -0.1432 -0.2294  0.0737
 7774SOL    HW134958   3.303   3.658  10.339  0.0187  0.8119 -0.5585
 7774SOL    HW234959   3.444   3.616  10.393 -0.2532 -2.7978 -0.2881
 7775SOL     OW34960   4.422   4.377   2.146  1.1813 -0.0661  0.0561
 7775SOL    HW134961   4.401   4.466   2.119 -0.4619 -0.5597 -0.2391
 7775SOL    HW234962   4.437   4.330   2.064 -0.5897 -1.6929  0.6852
 7776SOL     OW34963   3.985   2.556   8.789  0.1100 -0.3120  0.0392
 7776SOL    HW134964   3.995   2.589   8.878  0.0094 -0.1705 -0.0021
 7776SOL    HW234965   4.076   2.529   8.774  0.2212 -1.8759  3.5326
 7777SOL     OW34966   1.498   0.421   8.868 -0.4877 -0.9330  0.2406
 7777SOL    HW134967   1.549   0.340   8.873 -0.1938 -0.8034 -0.7483
 7777SOL    HW234968   1.470   0.421   8.960 -1.2159 -0.4334  0.0135
 7778SOL     OW34969   4.713   0.149   3.181  0.1134 -0.1349 -0.1595
 7778SOL    HW134970   0.051   0.099   3.211  1.6356  1.6790 -1.0257
 7778SOL    HW234971   0.012   0.209   3.116  0.2279  0.8063  0.7704
 7779SOL     OW34972   4.405   3.429   3.662  0.2575 -0.3907 -0.1116
 7779SOL    HW134973   4.466   3.496   3.631 -0.3684  1.4518  2.6203
 7779SOL    HW234974   4.318   3.468   3.656 -0.2313 -1.6886 -1.2523
 7780SOL     OW34975   1.163   1.364   8.882  0.2421 -0.4081  0.6601
 7780SOL    HW134976   1.166   1.307   8.959  0.6018  1.9100  2.3623
 7780SOL    HW234977   1.074   1.344   8.851  1.1166 -2.1326 -0.7006
 7781SOL     OW34978   4.321   0.331   3.949 -0.4864 -0.0755  0.1876
 7781SOL    HW134979   4.257   0.359   4.015  2.1810  2.4535  1.6837
 7781SOL    HW234980   4.365   0.257   3.989 -0.7545 -0.1577  0.3350
 7782SOL     OW34981   3.758   0.308   3.691  0.2614  0.0195  0.1362
 7782SOL    HW134982   3.714   0.249   3.752  0.0746  0.0286  0.0122
 7782SOL    HW234983   3.702   0.306   3.613  0.6451  0.1671 -0.1422
 7783SOL     OW34984   4.493   3.914   2.777  0.5352 -0.0513 -0.2050
 7783SOL    HW134985   4.563   3.968   2.814  0.6731 -0.5327  0.2428
 7783SOL    HW234986   4.438   3.975   2.728  0.1704  1.3760  1.9467
 7784SOL     OW34987   4.056   0.322   3.132  0.2574 -0.1013  0.2987
 7784SOL    HW134988   4.103   0.247   3.168  0.5410 -0.3012 -0.5117
 7784SOL    HW234989   3.989   0.278   3.080  1.0119  0.0833 -0.8206
 7785SOL     OW34990   1.871   1.932   9.823 -0.0907 -0.3087 -0.2981
 7785SOL    HW134991   1.899   1.891   9.905 -0.1499 -0.9120 -0.5808
 7785SOL    HW234992   1.821   2.010   9.847 -0.6473 -1.1732  1.2898
 7786SOL     OW34993   0.694   0.443   2.045  0.1381  0.2576  0.2868
 7786SOL    HW134994   0.654   0.489   1.972  1.3007  1.6768  0.5368
 7786SOL    HW234995   0.677   0.351   2.025  2.1036 -0.2594  0.8905
 7787SOL     OW34996   1.638   3.460  14.246  0.3942  0.2579  0.1192
 7787SOL    HW134997   1.567   3.423  14.193  0.3431  1.3591 -0.5773
 7787SOL    HW234998   1.628   3.403  14.322  0.1958  3.0985  2.2071
 7788SOL     OW34999   4.104   4.678  11.228 -0.3365 -0.2595 -0.1904
 7788SOL    HW135000   4.173   4.645  11.170  0.0815  0.2271  0.0312
 7788SOL    HW235001   4.081   0.026  11.195  0.3665  0.5265  1.3664
 7789SOL     OW35002   2.646   1.033  11.353 -0.6022  0.1419 -0.4880
 7789SOL    HW135003   2.557   1.017  11.321 -0.1873 -3.3254  0.0552
 7789SOL    HW235004   2.697   0.964  11.310  0.4437  0.9544 -0.5342
 7790SOL     OW35005   0.796   3.993   4.195 -0.3441  0.2575  0.4362
 7790SOL    HW135006   0.875   3.941   4.210 -0.3467 -0.4609 -2.0149
 7790SOL    HW235007   0.724   3.936   4.221  1.1093 -2.0596 -0.6026
 7791SOL     OW35008   1.858   2.465   5.775  0.8185  0.2675  0.4782
 7791SOL    HW135009   1.770   2.428   5.774 -0.0075  2.2588 -0.8803
 7791SOL    HW235010   1.844   2.551   5.815  1.1837  0.4765  0.1563
 7792SOL     OW35011   1.784   2.133  13.558 -0.5558 -0.1950 -0.3840
 7792SOL    HW135012   1.739   2.050  13.576  0.7632 -0.0996  3.5205
 7792SOL    HW235013   1.734   2.209  13.588  0.9214  0.4237  0.5368
 7793SOL     OW35014   4.276   0.412   5.849  0.4279  0.0459  0.1824
 7793SOL    HW135015   4.220   0.490   5.851  2.0662  1.2640 -1.0450
 7793SOL    HW235016   4.217   0.342   5.875  2.2634 -1.7649 -0.5366
 7794SOL     OW35017   4.271   3.798  10.552 -0.5513  0.0529 -0.5518
 7794SOL    HW135018   4.184   3.768  10.527 -0.4256 -0.5830 -0.2217
 7794SOL    HW235019   4.323   3.719  10.541  0.7637  0.8879 -0.3235
 7795SOL     OW35020   2.461   3.441  10.202 -0.1135  0.4753  0.2909
 7795SOL    HW135021   2.556   3.452  10.212  0.1230  1.2950 -3.0567
 7795SOL    HW235022   2.439   3.384  10.276 -1.1065  0.7738  0.2314
 7796SOL     OW35023   0.259   0.131   2.786  0.9007 -0.1325  0.0937
 7796SOL    HW135024   0.201   0.068   2.743  0.0392 -0.3440  1.5442
 7796SOL    HW235025   0.297   0.179   2.713  4.1774 -0.9206  1.2747
 7797SOL     OW35026   2.899   1.679   5.998 -0.5317 -0.0227 -0.2606
 7797SOL    HW135027   2.848   1.697   6.077 -1.0278 -2.2109 -0.0844
 7797SOL    HW235028   2.986   1.704   6.029  0.8346 -1.2482 -3.1325
 7798SOL     OW35029   0.294   2.814  13.961 -0.0921  0.1378 -0.1602
 7798SOL    HW135030   0.374   2.784  13.918 -0.1064 -0.4555  0.2205
 7798SOL    HW235031   0.228   2.745  13.953 -0.2568  0.1421  1.1321
 7799SOL     OW35032   0.637   3.629   0.841 -0.0668 -0.3821  0.4377
 7799SOL    HW135033   0.683   3.553   0.803  1.8975  1.4292 -0.8277
 7799SOL    HW235034   0.704   3.660   0.901  0.4397  1.4211 -1.0579
 7800SOL     OW35035   4.652   0.664  16.174  0.3162  0.0496  0.2092
 7800SOL    HW135036   4.734   0.700  16.140  0.0656  0.3321 -0.0929
 7800SOL    HW235037   4.603   0.745  16.186  1.5182  0.9101 -0.6980
 7801SOL     OW35038   3.461   0.388   5.028  0.7753  0.3439  0.9164
 7801SOL    HW135039   3.441   0.382   5.122  1.5571  0.9003  1.1257
 7801SOL    HW235040   3.523   0.315   5.023  0.9657  0.4691  1.4129
 7802SOL     OW35041   4.161   0.670   5.940 -0.3246 -0.1412  0.2403
 7802SOL    HW135042   4.082   0.649   5.889 -0.6939  0.7919  0.4292
 7802SOL    HW235043   4.125   0.677   6.028 -1.9279 -3.4706 -0.1618
 7803SOL     OW35044   0.003   2.075   2.144 -0.8124  0.1266  0.2255
 7803SOL    HW135045   4.671   2.017   2.115  0.2160 -1.4195  0.8189
 7803SOL    HW235046   4.691   2.142   2.192 -1.1506 -0.5107  0.7604
 7804SOL     OW35047   2.629   1.511  10.042 -0.5450  0.9894  0.3334
 7804SOL    HW135048   2.650   1.446  10.108  0.5511  0.3651 -0.6225
 7804SOL    HW235049   2.676   1.586  10.079  0.9803  0.3688 -0.3103
 7805SOL     OW35050   2.727   0.025   6.813 -0.8062 -0.1085  0.1550
 7805SOL    HW135051   2.696   0.005   6.901 -0.1367  0.9983  0.6449
 7805SOL    HW235052   2.726   0.121   6.813 -0.0125 -0.1075  1.3741
 7806SOL     OW35053   2.560   3.538  14.679 -0.4367  0.1172 -0.4541
 7806SOL    HW135054   2.624   3.469  14.694  0.6904  1.2324 -0.1084
 7806SOL    HW235055   2.616   3.610  14.650  0.7276 -0.4867  0.2721
 7807SOL     OW35056   1.057   1.524   5.556  0.2363 -0.1732 -0.3932
 7807SOL    HW135057   1.040   1.485   5.641  2.2292 -1.0562 -0.3903
 7807SOL    HW235058   1.058   1.616   5.581 -0.2451 -0.5263  0.8941
 7808SOL     OW35059   1.082   3.924  14.418 -0.6566 -0.3544  0.1346
 7808SOL    HW135060   1.069   3.927  14.323  1.0381  2.1101 -0.0386
 7808SOL    HW235061   1.176   3.939  14.432 -0.6579  0.4446 -0.7011
 7809SOL     OW35062   3.916   1.609   5.198 -0.0662  0.7197 -0.7781
 7809SOL    HW135063   3.945   1.681   5.254 -1.7152  1.0151 -0.3074
 7809SOL    HW235064   3.998   1.587   5.154 -0.0996  2.0059 -1.4787
 7810SOL     OW35065   3.565   4.168   8.232  0.3267  0.6028  0.4026
 7810SOL    HW135066   3.615   4.121   8.166  0.4153 -0.9800  1.6039
 7810SOL    HW235067   3.637   4.199   8.287  0.9192  1.8223 -1.0516
 7811SOL     OW35068   0.169   1.383   9.087  0.1803  0.5916  0.4237
 7811SOL    HW135069   0.241   1.350   9.141  0.5606 -0.4514 -0.7413
 7811SOL    HW235070   0.212   1.460   9.050  1.1587 -0.4845 -0.6616
 7812SOL     OW35071   0.047   1.294   6.155  0.3814  0.2212  0.1826
 7812SOL    HW135072   0.032   1.325   6.066 -0.1387 -0.1579  0.1411
 7812SOL    HW235073   0.049   1.200   6.136  1.3971  0.3620 -0.4411
 7813SOL     OW35074   3.014   3.298   3.434  0.4834  0.0984  0.5155
 7813SOL    HW135075   3.096   3.292   3.484 -0.0564 -1.5428  1.2193
 7813SOL    HW235076   2.967   3.226   3.476  1.8238 -0.8636  0.3740
 7814SOL     OW35077   1.851   1.167   0.075 -0.1523 -0.0573 -0.5900
 7814SOL    HW135078   1.844   1.170  17.731  0.4871  2.7009 -0.5514
 7814SOL    HW235079   1.946   1.177   0.084  0.0155 -1.8377 -0.4463
 7815SOL     OW35080   2.824   3.819   8.633 -0.8677  0.6370 -0.1981
 7815SOL    HW135081   2.914   3.834   8.605 -0.6341 -1.0979 -0.3228
 7815SOL    HW235082   2.795   3.759   8.565  1.5549  0.7774 -1.3701
 7816SOL     OW35083   3.960   0.802   2.263  0.2453 -1.2345 -0.2087
 7816SOL    HW135084   3.894   0.763   2.206  0.8125 -1.8866 -0.4157
 7816SOL    HW235085   4.023   0.731   2.274  0.5009 -0.6286  2.3509
 7817SOL     OW35086   2.059   3.002   1.014  0.2003 -0.6904 -0.2380
 7817SOL    HW135087   2.036   2.914   1.043 -0.1633  0.2689  2.4585
 7817SOL    HW235088   1.982   3.044   1.053 -0.7490 -1.6046 -1.1570
 7818SOL     OW35089   0.840   1.798   5.123 -0.5160 -0.9279  0.5730
 7818SOL    HW135090   0.811   1.707   5.121 -3.1235 -0.1323  1.6712
 7818SOL    HW235091   0.912   1.800   5.185  0.7510  1.9175 -0.9612
 7819SOL     OW35092   3.521   2.406  11.399 -0.3535  0.5574  0.1013
 7819SOL    HW135093   3.603   2.373  11.435 -0.6758  0.3210  0.6235
 7819SOL    HW235094   3.456   2.389  11.467 -1.2287 -0.3664 -0.9785
 7820SOL     OW35095   1.490   4.670   9.043  0.2663  0.3150  0.4090
 7820SOL    HW135096   1.404   4.637   9.018  0.0706 -0.2230  1.7488
 7820SOL    HW235097   1.508   4.622   9.125  0.1061  1.6576  1.2318
 7821SOL     OW35098   2.974   0.564   8.172 -0.3312  0.0656  0.5938
 7821SOL    HW135099   2.899   0.623   8.163 -0.5306 -0.7798 -3.1321
 7821SOL    HW235100   2.943   0.488   8.122  1.2070 -0.5181  0.5272
 7822SOL     OW35101   3.024   3.001   2.085 -0.2258 -0.1041 -0.1236
 7822SOL    HW135102   3.042   3.066   2.154  0.5382 -2.2972  1.7580
 7822SOL    HW235103   3.051   3.049   2.007 -0.5897  0.3552  0.0334
 7823SOL     OW35104   2.639   4.167   8.797  0.0344  0.0671  0.0399
 7823SOL    HW135105   2.709   4.223   8.830 -0.9901  0.6866  1.1663
 7823SOL    HW235106   2.576   4.186   8.867 -0.4323  1.1805 -0.6915
 7824SOL     OW35107   3.235   3.041   8.107 -0.1262 -0.2178 -0.5209
 7824SOL    HW135108   3.173   3.039   8.179 -0.3268  1.1497 -0.6538
 7824SOL    HW235109   3.184   3.027   8.027 -0.7144  1.1504 -0.3725
 7825SOL     OW35110   1.621   0.289   1.954 -0.2879 -0.0638  0.0078
 7825SOL    HW135111   1.560   0.228   1.912 -0.0071 -1.8086  2.1731
 7825SOL    HW235112   1.681   0.227   1.995  0.4202  0.8616  0.3762
 7826SOL     OW35113   1.035   0.127  16.267  0.3072  0.5273  0.0572
 7826SOL    HW135114   1.131   0.130  16.271  0.3107 -1.1049  1.1070
 7826SOL    HW235115   1.014   0.040  16.234  0.9341  0.1413  0.6904
 7827SOL     OW35116   1.513   1.204   1.356 -0.5452 -0.2264 -0.5054
 7827SOL    HW135117   1.608   1.193   1.357 -0.1265  3.3160 -2.6014
 7827SOL    HW235118   1.480   1.118   1.330  0.3111 -0.4610 -0.8304
 7828SOL     OW35119   1.672   1.066   8.866 -0.1279  0.0461  0.4308
 7828SOL    HW135120   1.589   1.099   8.831 -0.8112 -1.3691  0.7123
 7828SOL    HW235121   1.666   1.083   8.960  0.0672 -0.0348  0.4588
 7829SOL     OW35122   3.897   2.631   1.467  0.2701  0.6747  0.3941
 7829SOL    HW135123   3.834   2.703   1.460  0.0433  0.3623 -0.7666
 7829SOL    HW235124   3.953   2.662   1.538  1.2981 -0.5385  0.1214
 7830SOL     OW35125   1.247   0.053   2.498 -0.3239  0.1651  0.0474
 7830SOL    HW135126   1.309   0.006   2.441 -1.9464 -0.9133 -0.8405
 7830SOL    HW235127   1.285   0.140   2.483  0.2717 -0.0394  0.3774
 7831SOL     OW35128   2.048   4.560   2.830  0.2130 -0.1570  0.0113
 7831SOL    HW135129   2.136   4.528   2.846  0.2739  0.4001  0.8329
 7831SOL    HW235130   2.008   4.525   2.910  1.3447 -0.2752  0.5184
 7832SOL     OW35131   4.408   1.892   6.261 -0.3240 -0.2425 -0.0835
 7832SOL    HW135132   4.401   1.833   6.336  0.3701 -0.0063  0.1664
 7832SOL    HW235133   4.338   1.956   6.274  0.0637 -0.1583  1.5231
 7833SOL     OW35134   1.801   4.613   3.669 -0.5505  0.3391  0.4618
 7833SOL    HW135135   1.788   4.626   3.763  1.3584 -2.0566  1.0574
 7833SOL    HW235136   1.748   4.538   3.645  0.2950 -1.2004  3.3879
 7834SOL     OW35137   0.086   4.485   8.765 -0.3569 -0.2175  0.2335
 7834SOL    HW135138   0.099   4.400   8.723 -0.4062  0.0616 -0.3503
 7834SOL    HW235139   4.731   4.474   8.784 -0.1023 -3.1809 -0.1844
 7835SOL     OW35140   2.973   1.140   7.811  0.0911  0.1198 -0.4546
 7835SOL    HW135141   2.921   1.220   7.803 -0.2472 -0.0132  0.4588
 7835SOL    HW235142   3.064   1.167   7.795 -0.4339  1.5880 -0.9573
 7836SOL     OW35143   0.175   3.645   1.033 -0.7185 -0.9147 -0.0437
 7836SOL    HW135144   0.259   3.624   0.992 -1.3863  0.9863 -2.3784
 7836SOL    HW235145   0.171   3.564   1.083  0.8841 -1.0776 -0.1884
 7837SOL     OW35146   1.292   2.958   0.703  0.1857 -0.1938  0.2898
 7837SOL    HW135147   1.257   2.952   0.791  0.8192  0.9379  0.6212
 7837SOL    HW235148   1.382   2.932   0.725  0.7232  1.4710  0.0789
 7838SOL     OW35149   1.645   3.038  10.462 -0.0344 -0.1225 -0.5214
 7838SOL    HW135150   1.558   3.000  10.479 -0.5061  0.8862 -0.6907
 7838SOL    HW235151   1.657   3.040  10.367 -1.6080  0.1117 -0.7223
 7839SOL     OW35152   0.772   4.696  14.358  0.0787 -0.9789  0.1848
 7839SOL    HW135153   0.819   4.614  14.343  0.4351 -0.8310  0.4868
 7839SOL    HW235154   0.840   0.024  14.347 -0.6590 -0.0290  1.2664
 7840SOL     OW35155   3.461   3.101   7.374 -0.4349  0.3601  0.1139
 7840SOL    HW135156   3.391   3.152   7.332  0.2079  1.3513  0.2489
 7840SOL    HW235157   3.390   3.045   7.406 -2.8303  1.8768 -2.5773
 7841SOL     OW35158   4.094   0.431   1.726  0.2785 -0.3381 -0.3917
 7841SOL    HW135159   4.119   0.523   1.736  0.1431 -0.6606  3.0912
 7841SOL    HW235160   4.122   0.416   1.636  3.0321  4.6197 -0.3585
 7842SOL     OW35161   1.867   0.184   6.446  0.1228  0.1208 -0.2935
 7842SOL    HW135162   1.959   0.195   6.471  0.8416 -1.2354 -2.3436
 7842SOL    HW235163   1.871   0.119   6.375  1.1220 -0.6494  0.4742
 7843SOL     OW35164   3.754   3.086  11.035 -0.5917  0.2157 -0.0364
 7843SOL    HW135165   3.822   3.150  11.055  0.1922 -0.7237  0.2663
 7843SOL    HW235166   3.769   3.077  10.941  0.9933 -1.2013  0.3613
 7844SOL     OW35167   4.114   2.243   4.782  0.4255 -0.3271  0.0263
 7844SOL    HW135168   4.177   2.298   4.829  0.4136  0.2716 -0.6570
 7844SOL    HW235169   4.039   2.301   4.765  2.3041  2.0472 -0.2540
 7845SOL     OW35170   0.807   3.001   4.912 -0.2210  0.4712  0.0149
 7845SOL    HW135171   0.722   3.043   4.921 -0.6804  0.2826 -3.3269
 7845SOL    HW235172   0.844   3.056   4.843 -0.4127  1.0948  0.4103
 7846SOL     OW35173   1.756   4.384   6.494  0.0734  0.1251 -0.4583
 7846SOL    HW135174   1.758   4.344   6.407 -1.9100  0.9600 -0.9012
 7846SOL    HW235175   1.807   4.319   6.542  0.1128  1.6289  1.5417
 7847SOL     OW35176   3.486   2.871   7.773  0.4419 -0.5406  1.0367
 7847SOL    HW135177   3.405   2.833   7.806  0.4737 -1.4498  0.0713
 7847SOL    HW235178   3.550   2.799   7.783  1.8743  0.6947  0.7719
 7848SOL     OW35179   1.092   3.203   2.039  0.1100 -0.2457  0.1671
 7848SOL    HW135180   1.050   3.208   1.953 -1.4377  3.8372  1.2039
 7848SOL    HW235181   1.123   3.112   2.043 -1.6813 -0.9863 -2.5861
 7849SOL     OW35182   3.543   3.265  14.252  0.0402 -0.0414  0.3045
 7849SOL    HW135183   3.545   3.265  14.156 -1.2664 -0.0315  0.2806
 7849SOL    HW235184   3.622   3.221  14.282  0.5574 -0.4986 -1.7075
 7850SOL     OW35185   1.065   2.177  14.455  0.7206 -0.6136 -0.5829
 7850SOL    HW135186   1.039   2.194  14.364  0.2252 -0.5860 -0.4381
 7850SOL    HW235187   0.984   2.132  14.481 -0.1148  2.1945  1.6213
 7851SOL     OW35188   2.320   0.177  10.366 -0.3461  0.2279  0.0346
 7851SOL    HW135189   2.340   0.083  10.363 -1.3049  0.0619 -1.1902
 7851SOL    HW235190   2.381   0.197  10.437  1.4622 -0.0728 -1.4147
 7852SOL     OW35191   3.086   0.148   8.638  0.1591  0.4203  0.0298
 7852SOL    HW135192   3.166   0.201   8.631 -0.7316  1.8357  0.6013
 7852SOL    HW235193   3.076   0.131   8.545 -0.4112  1.5231 -0.1089
 7853SOL     OW35194   2.004   2.109  16.748  0.0466 -0.5636 -0.4537
 7853SOL    HW135195   1.946   2.058  16.805  0.1142 -0.5317 -0.3565
 7853SOL    HW235196   2.036   2.180  16.803  2.2036 -1.4438 -0.5550
 7854SOL     OW35197   4.445   1.443   6.593 -0.2914  0.3448  0.7272
 7854SOL    HW135198   4.355   1.436   6.560  0.3310  0.9085 -1.0606
 7854SOL    HW235199   4.424   1.492   6.673  1.4723  2.0930  0.0901
 7855SOL     OW35200   3.870   0.868   6.322 -0.3911 -0.7311 -0.4020
 7855SOL    HW135201   3.942   0.922   6.354 -1.9780  1.1516 -0.0331
 7855SOL    HW235202   3.802   0.881   6.387 -0.4340 -0.1584 -0.5653
 7856SOL     OW35203   4.266   2.765   6.428  0.1211 -0.5366 -0.1577
 7856SOL    HW135204   4.199   2.789   6.492  1.8077  2.8406  0.3640
 7856SOL    HW235205   4.338   2.819   6.463  2.3074 -1.0741 -3.8702
 7857SOL     OW35206   3.708   2.228  10.674 -0.7033  0.1938 -0.1489
 7857SOL    HW135207   3.713   2.204  10.766  3.3843 -1.6712 -0.8410
 7857SOL    HW235208   3.646   2.173  10.626 -2.4833  1.6834  0.4299
 7858SOL     OW35209   3.130   4.106  10.667  0.2653  0.9403  0.1572
 7858SOL    HW135210   3.186   4.072  10.736 -1.1716 -3.2992 -0.7488
 7858SOL    HW235211   3.171   4.187  10.636  0.6599  0.8848  0.5447
 7859SOL     OW35212   1.783   3.054   9.362  0.0658  0.0590  0.1787
 7859SOL    HW135213   1.804   3.127   9.304 -0.1739 -0.2876 -0.3428
 7859SOL    HW235214   1.713   3.081   9.421 -0.0694  0.5165 -0.1921
 7860SOL     OW35215   0.539   3.247   7.494 -0.1031  0.0841  0.0568
 7860SOL    HW135216   0.612   3.232   7.434  0.9153  0.8438  1.1148
 7860SOL    HW235217   0.471   3.262   7.428 -1.2064 -3.1389  0.4857
 7861SOL     OW35218   4.457   4.126   2.585 -0.2877  0.0722 -0.2282
 7861SOL    HW135219   4.466   4.073   2.505 -0.5249  0.4693 -0.5174
 7861SOL    HW235220   4.450   4.214   2.547  1.1158 -0.4052 -1.5626
 7862SOL     OW35221   1.174   0.681   5.813  0.1732  0.6262 -0.0378
 7862SOL    HW135222   1.217   0.762   5.785  1.8782 -0.5033 -0.7274
 7862SOL    HW235223   1.254   0.636   5.842 -2.5081 -2.4670  2.4361
 7863SOL     OW35224   0.499   1.679  13.513  0.0469  0.2439  0.3218
 7863SOL    HW135225   0.543   1.614  13.567  0.5165 -0.0515 -0.4095
 7863SOL    HW235226   0.439   1.618  13.469  0.6780  0.8215 -1.3574
 7864SOL     OW35227   0.170   1.748   7.584 -0.3753 -0.1210 -0.1172
 7864SOL    HW135228   0.234   1.815   7.559  0.3920 -1.6971 -2.3783
 7864SOL    HW235229   0.154   1.766   7.677 -0.8223 -1.5693  0.0855
 7865SOL     OW35230   3.746   0.622   5.326 -0.5171  0.0621  0.0462
 7865SOL    HW135231   3.773   0.713   5.341 -2.3543  0.3176  1.7271
 7865SOL    HW235232   3.712   0.600   5.412 -0.3049  1.0699  0.3874
 7866SOL     OW35233   3.387   0.614   4.266  0.0867 -0.5916 -0.3289
 7866SOL    HW135234   3.362   0.591   4.176  0.5809  1.3487 -0.9683
 7866SOL    HW235235   3.436   0.694   4.251 -1.1894  0.7206  2.4582
 7867SOL     OW35236   0.052   3.738   6.864  0.2614 -0.0752 -0.5151
 7867SOL    HW135237   0.105   3.766   6.789 -0.2086 -0.3380 -0.9443
 7867SOL    HW235238   0.127   3.711   6.917  1.6150  2.1766 -1.2841
 7868SOL     OW35239   2.559   1.308   6.766  0.2461  0.1696 -0.3172
 7868SOL    HW135240   2.470   1.303   6.800  0.6974  1.3821  1.0471
 7868SOL    HW235241   2.567   1.219   6.732  2.5637 -0.1931  1.1760
 7869SOL     OW35242   2.062   1.228   1.645  0.4639 -0.5594  0.1607
 7869SOL    HW135243   2.071   1.255   1.736  0.5378  0.3358 -0.1093
 7869SOL    HW235244   2.067   1.136   1.670  2.6419 -0.3910  0.3516
 7870SOL     OW35245   0.584   1.935   5.050  0.1754 -0.1112  0.5743
 7870SOL    HW135246   0.666   1.890   5.071  0.5297  0.6712  0.8431
 7870SOL    HW235247   0.583   1.945   4.954 -2.7932  0.4648  0.6596
 7871SOL     OW35248   1.833   3.247   1.545 -0.1741 -0.6846  0.2454
 7871SOL    HW135249   1.819   3.161   1.505  0.7905  0.4856 -2.6018
 7871SOL    HW235250   1.876   3.215   1.624  0.1236 -0.4150  0.1920
 7872SOL     OW35251   2.010   2.169   8.900  0.4144  0.1918 -0.3012
 7872SOL    HW135252   2.058   2.239   8.943  0.5964 -0.8733  1.2335
 7872SOL    HW235253   2.073   2.097   8.914 -2.1721 -1.8559  0.7705
 7873SOL     OW35254   4.047   4.267   8.204 -0.1471  0.6762 -0.5052
 7873SOL    HW135255   4.045   4.352   8.160 -0.6308  0.6677 -0.4962
 7873SOL    HW235256   4.104   4.214   8.148  0.5760  0.6959  0.2245
 7874SOL     OW35257   0.373   3.210   8.889  0.1893  0.3313 -0.0034
 7874SOL    HW135258   0.414   3.223   8.974  2.2661 -1.3374 -0.7558
 7874SOL    HW235259   0.310   3.138   8.900 -0.3988  0.9169  0.4108
 7875SOL     OW35260   1.237   3.248  13.156 -0.8609 -0.1419 -0.2413
 7875SOL    HW135261   1.181   3.170  13.155 -1.2972  0.1914 -1.2020
 7875SOL    HW235262   1.232   3.282  13.246 -0.7326 -2.3579  0.6078
 7876SOL     OW35263   1.099   4.538   5.157 -0.2710  0.0346 -0.1114
 7876SOL    HW135264   1.014   4.503   5.129  0.7041 -0.8377 -2.0043
 7876SOL    HW235265   1.125   4.488   5.234  0.0278  1.7825  0.9298
 7877SOL     OW35266   1.390   4.286   8.938  0.2923  0.6342  0.3816
 7877SOL    HW135267   1.415   4.201   8.901 -0.2815  0.9622 -0.7751
 7877SOL    HW235268   1.301   4.268   8.969 -0.2650 -0.6112 -1.9407
 7878SOL     OW35269   1.996   3.289   1.166 -0.1507  0.4044 -0.4458
 7878SOL    HW135270   2.073   3.232   1.158 -0.2935  0.3001 -1.1094
 7878SOL    HW235271   1.961   3.283   1.077  0.7751  1.6540 -0.8886
 7879SOL     OW35272   0.681   2.925  12.147 -0.4494 -0.0103 -0.5949
 7879SOL    HW135273   0.702   3.015  12.122  0.1502  0.4112  1.4699
 7879SOL    HW235274   0.763   2.882  12.125 -0.1767  0.5488 -0.6635
 7880SOL     OW35275   0.300   2.876   9.368 -0.0835  0.3272 -0.0278
 7880SOL    HW135276   0.355   2.800   9.383  1.2613  1.2541 -0.2631
 7880SOL    HW235277   0.278   2.906   9.456 -0.6381 -1.8993  0.5976
 7881SOL     OW35278   2.826   2.528   4.795 -0.4833 -0.4209  0.1263
 7881SOL    HW135279   2.800   2.617   4.820  1.6435  0.3086 -0.2197
 7881SOL    HW235280   2.757   2.500   4.736 -0.0114 -1.2755 -0.0143
 7882SOL     OW35281   4.170   2.497  16.097  0.6836 -0.1770 -0.2265
 7882SOL    HW135282   4.243   2.443  16.067  1.2691 -0.3959  1.5742
 7882SOL    HW235283   4.114   2.433  16.142  0.6073  1.8433  2.5981
 7883SOL     OW35284   4.203   2.027   3.402  0.1498  0.1414 -0.6704
 7883SOL    HW135285   4.202   1.931   3.408 -1.4639  0.2097  0.2668
 7883SOL    HW235286   4.256   2.045   3.324 -0.1100  0.5729 -0.7456
 7884SOL     OW35287   0.792   0.356  10.257  0.3833  0.2976 -0.8143
 7884SOL    HW135288   0.761   0.266  10.264  1.2899  0.0265 -0.2937
 7884SOL    HW235289   0.813   0.362  10.350 -4.0424 -4.1853  0.4644
 7885SOL     OW35290   3.890   0.236  16.734 -0.1334  0.0888  0.3255
 7885SOL    HW135291   3.931   0.310  16.689 -1.4893 -0.1715 -1.3290
 7885SOL    HW235292   3.881   0.267  16.824 -0.0645 -0.6702  0.5917
 7886SOL     OW35293   2.984   4.658   1.102 -0.0214  0.2661 -0.0146
 7886SOL    HW135294   2.922   4.625   1.168  1.7713  1.2296  2.1278
 7886SOL    HW235295   3.029   4.731   1.143  4.0888 -0.5263 -3.1678
 7887SOL     OW35296   3.209   3.421   4.128  0.1975 -0.8730 -0.1609
 7887SOL    HW135297   3.249   3.501   4.096  0.2810 -1.4047 -1.4313
 7887SOL    HW235298   3.176   3.446   4.214  0.6258 -1.2460  0.1094
 7888SOL     OW35299   0.553   2.823   7.167  0.3210  0.0724 -0.2492
 7888SOL    HW135300   0.574   2.858   7.081 -0.6484 -2.3474 -1.4638
 7888SOL    HW235301   0.498   2.748   7.145  0.4146 -1.2159  3.7796
 7889SOL     OW35302   0.603   3.488   4.913 -0.2584  0.2773 -0.1733
 7889SOL    HW135303   0.523   3.496   4.966  0.4857  1.4091  0.7764
 7889SOL    HW235304   0.663   3.560   4.929 -0.5818  0.5560 -0.2165
 7890SOL     OW35305   2.950   0.144   1.387  0.1455  0.0626 -0.2003
 7890SOL    HW135306   2.889   0.158   1.315  0.7295  0.7832 -0.5548
 7890SOL    HW235307   3.027   0.153   1.331  0.4022 -0.6749  0.0340
 7891SOL     OW35308   4.413   2.547   5.104  0.0528  0.6576 -0.3216
 7891SOL    HW135309   4.467   2.470   5.121 -1.9141 -0.6574 -0.0330
 7891SOL    HW235310   4.452   2.556   5.016 -0.8500 -0.5863 -0.8516
 7892SOL     OW35311   4.635   2.915   7.103  0.4899  0.0035 -0.2266
 7892SOL    HW135312   4.700   2.929   7.034  1.5190  0.2389  0.7833
 7892SOL    HW235313   4.686   2.958   7.172 -2.5914  2.8824  0.2660
 7893SOL     OW35314   1.763   1.366   4.485  0.5927  0.0389  0.0988
 7893SOL    HW135315   1.792   1.338   4.398  0.8099  1.1958 -0.1928
 7893SOL    HW235316   1.671   1.339   4.483  0.9447 -1.2841  1.1718
 7894SOL     OW35317   1.350   4.619   5.159 -0.1150 -0.0796 -0.3447
 7894SOL    HW135318   1.259   4.609   5.133 -0.3449 -3.1850  1.5740
 7894SOL    HW235319   1.381   4.534   5.128  0.9867  0.6937 -1.3261
 7895SOL     OW35320   3.615   1.989   5.966 -0.3872  0.5854  0.3234
 7895SOL    HW135321   3.580   1.900   5.965  0.6372  0.1805  1.1120
 7895SOL    HW235322   3.600   2.000   6.060 -3.8663  3.0166 -0.4924
 7896SOL     OW35323   4.450   0.681   7.614 -0.3014 -0.2055  0.9361
 7896SOL    HW135324   4.398   0.721   7.684 -2.6045  2.0703 -2.0761
 7896SOL    HW235325   4.538   0.668   7.649 -0.0199  1.8320  0.9476
 7897SOL     OW35326   2.246   0.315  13.319 -0.0400  0.3390  0.3330
 7897SOL    HW135327   2.181   0.344  13.254 -1.4646  1.1221  2.0885
 7897SOL    HW235328   2.281   0.394  13.361 -0.7228  0.6037  0.4149
 7898SOL     OW35329   2.845   4.363   4.981  0.4639  0.0416 -0.1719
 7898SOL    HW135330   2.841   4.268   4.991  1.1991  0.0182 -0.0714
 7898SOL    HW235331   2.843   4.366   4.885 -0.8001  0.2573 -0.1327
 7899SOL     OW35332   2.561   1.612   2.834 -0.5837 -0.3012  0.8766
 7899SOL    HW135333   2.485   1.665   2.858  2.1792  3.0273  2.1331
 7899SOL    HW235334   2.522   1.543   2.780  0.2025  0.0508 -0.1286
 7900SOL     OW35335   1.490   4.190  14.218  0.5520  0.3807 -0.1166
 7900SOL    HW135336   1.452   4.201  14.305  0.1655  2.3196 -0.5287
 7900SOL    HW235337   1.544   4.268  14.207  1.8486 -0.2978  1.4456
 7901SOL     OW35338   4.166   0.362   9.006 -0.9074 -0.4293 -0.4251
 7901SOL    HW135339   4.102   0.332   8.941  0.9206 -3.8553 -0.6532
 7901SOL    HW235340   4.155   0.457   9.009 -0.2243 -0.3462 -0.5378
 7902SOL     OW35341   1.979   4.486   7.660  0.4774  0.6596 -0.3596
 7902SOL    HW135342   1.919   4.417   7.631 -1.1126  1.7601  0.3103
 7902SOL    HW235343   2.061   4.451   7.626 -0.2691  0.7545 -2.2650
 7903SOL     OW35344   2.421   3.541  15.081 -0.0419 -0.4921  0.1070
 7903SOL    HW135345   2.491   3.598  15.049 -0.6192  0.4573  0.5119
 7903SOL    HW235346   2.361   3.554  15.007  0.2018  0.3660  0.0544
 7904SOL     OW35347   1.648   0.366   6.746  0.2600  0.2889 -0.2992
 7904SOL    HW135348   1.592   0.379   6.669 -1.1771 -3.4562  0.1208
 7904SOL    HW235349   1.585   0.335   6.811 -0.0198 -0.7311 -1.0662
 7905SOL     OW35350   0.632   0.828   2.114  0.2556  0.5474 -0.4049
 7905SOL    HW135351   0.536   0.825   2.108  0.2922 -0.1646 -0.6624
 7905SOL    HW235352   0.657   0.736   2.125 -2.6329 -0.1645  0.4778
 7906SOL     OW35353   1.754   3.617   3.206 -0.3619  0.3723 -0.4313
 7906SOL    HW135354   1.750   3.586   3.115 -0.7897  1.3294 -0.7369
 7906SOL    HW235355   1.710   3.540   3.241  1.3420 -0.7244 -0.6787
 7907SOL     OW35356   2.934   0.110   7.455 -0.5872 -0.1062  0.3753
 7907SOL    HW135357   2.981   0.044   7.405  0.5311 -0.4191  1.8500
 7907SOL    HW235358   2.923   0.072   7.542  2.1408 -3.3495 -0.6976
 7908SOL     OW35359   3.656   0.916   8.934  0.0185 -0.5064 -0.0102
 7908SOL    HW135360   3.666   1.009   8.915 -0.7898 -0.9073 -2.2764
 7908SOL    HW235361   3.659   0.918   9.030 -0.0266  0.9974 -0.0495
 7909SOL     OW35362   4.591   3.920   8.234  0.2591  0.2274 -0.1034
 7909SOL    HW135363   4.582   4.009   8.198  0.6480  0.3300  0.0571
 7909SOL    HW235364   4.509   3.872   8.223 -1.4806  3.4410 -1.4990
 7910SOL     OW35365   3.499   4.533   6.682 -0.3520 -0.0378 -0.1223
 7910SOL    HW135366   3.559   4.524   6.755 -0.2809  2.7771  0.1817
 7910SOL    HW235367   3.522   4.454   6.634  0.5088 -0.2843  0.6978
 7911SOL     OW35368   3.730   3.135   2.413  0.2010  0.4209  0.2906
 7911SOL    HW135369   3.636   3.128   2.427  0.3541  2.0933  2.0092
 7911SOL    HW235370   3.738   3.125   2.318  2.0682 -1.3997  0.6345
 7912SOL     OW35371   0.720   3.554  13.737  0.0610  0.2720  0.4387
 7912SOL    HW135372   0.759   3.590  13.658  2.0842  2.8398  2.5948
 7912SOL    HW235373   0.666   3.490  13.691  0.7987  0.9209 -1.3447
 7913SOL     OW35374   2.374   2.647  15.913 -0.1521 -0.3596  0.1225
 7913SOL    HW135375   2.308   2.716  15.911  1.3865  1.0424 -2.1473
 7913SOL    HW235376   2.403   2.653  15.822  1.0722 -0.4049  0.5042
 7914SOL     OW35377   3.948   0.525   2.721  0.1719  0.1635 -0.2123
 7914SOL    HW135378   4.021   0.587   2.720  1.2571 -1.1197 -0.9762
 7914SOL    HW235379   3.976   0.443   2.761  0.3337  0.4864  0.3402
 7915SOL     OW35380   3.245   2.013   7.686  0.1110  0.3395 -0.4333
 7915SOL    HW135381   3.223   1.948   7.619 -0.3313  1.5850 -1.5072
 7915SOL    HW235382   3.225   1.974   7.771 -2.2372 -1.2172 -1.6860
 7916SOL     OW35383   1.768   0.088  17.639  0.1208 -0.2579 -0.7609
 7916SOL    HW135384   1.844   0.090  17.580  1.7970  1.6016  1.4521
 7916SOL    HW235385   1.781   0.005  17.685 -0.4407 -0.7217 -1.4392
 7917SOL     OW35386   0.348   3.535  17.585  0.1280  0.3485  0.1723
 7917SOL    HW135387   0.439   3.543  17.612  0.0051 -1.8045  1.2028
 7917SOL    HW235388   0.310   3.479  17.652  1.1954 -1.6640 -0.9120
 7918SOL     OW35389   2.487   0.586  15.819 -0.0563  0.5530 -0.4214
 7918SOL    HW135390   2.567   0.618  15.777  0.7840 -2.0544 -0.8162
 7918SOL    HW235391   2.519   0.586  15.909  0.0409 -0.0809 -0.4555
 7919SOL     OW35392   1.539   2.815  11.598  0.4669 -0.4390  0.2588
 7919SOL    HW135393   1.567   2.864  11.675  1.0782  0.5496 -0.5821
 7919SOL    HW235394   1.557   2.887  11.537 -1.7623 -0.1049 -0.0150
 7920SOL     OW35395   1.724   2.708  14.346 -0.7252 -0.1135  0.3589
 7920SOL    HW135396   1.629   2.701  14.354 -0.7127  1.0206  1.4315
 7920SOL    HW235397   1.757   2.618  14.353  0.0845  0.1939  0.5418
 7921SOL     OW35398   1.213   3.606   4.571  0.2343  0.0121 -0.1272
 7921SOL    HW135399   1.147   3.601   4.640 -0.6393  0.2463 -0.9443
 7921SOL    HW235400   1.223   3.701   4.557  0.5161 -0.1517 -1.0101
 7922SOL     OW35401   4.288   1.739   9.226 -0.0732  0.3933  0.3803
 7922SOL    HW135402   4.326   1.678   9.289  0.1379  1.9912  1.8098
 7922SOL    HW235403   4.359   1.804   9.220 -0.6677  1.0216  0.1575
 7923SOL     OW35404   4.727   3.774   1.635 -0.4158  0.0091 -0.0720
 7923SOL    HW135405   4.674   3.847   1.667  1.7701  1.3605  0.4772
 7923SOL    HW235406   4.676   3.715   1.690 -1.2949  0.7103 -0.1397
 7924SOL     OW35407   2.974   2.871   3.577 -0.1527 -0.3550  0.4158
 7924SOL    HW135408   3.062   2.841   3.602  1.1148  2.8551 -0.1538
 7924SOL    HW235409   2.924   2.793   3.600 -1.0850  0.3587  0.7607
 7925SOL     OW35410   0.909   3.267   5.698 -0.1288  0.6337  0.0458
 7925SOL    HW135411   0.928   3.209   5.772 -2.7362 -1.3084 -0.8248
 7925SOL    HW235412   0.912   3.355   5.736 -1.1984  0.9756 -0.6731
 7926SOL     OW35413   2.409   3.682  13.536  0.4752  0.2217  0.1041
 7926SOL    HW135414   2.442   3.705  13.449 -1.2633  2.4279  0.0266
 7926SOL    HW235415   2.485   3.689  13.594 -0.4030 -3.4718  1.7095
 7927SOL     OW35416   1.735   3.079   5.326 -0.6168 -0.2344 -0.2658
 7927SOL    HW135417   1.753   2.995   5.369 -0.3357 -1.0533 -1.9935
 7927SOL    HW235418   1.780   3.138   5.385  3.9810 -2.4056 -1.6419
 7928SOL     OW35419   0.318   0.353   8.168 -0.0772 -0.2187  0.3883
 7928SOL    HW135420   0.403   0.324   8.201 -0.6550 -1.4842  0.7580
 7928SOL    HW235421   0.265   0.332   8.245 -1.0149 -1.4112 -0.5990
 7929SOL     OW35422   3.109   2.273  15.818 -0.3125  0.3471  0.0477
 7929SOL    HW135423   3.041   2.317  15.869 -0.0566  1.1444 -0.3056
 7929SOL    HW235424   3.185   2.277  15.875  0.8797  1.6799 -1.6405
 7930SOL     OW35425   3.955   3.937   3.834  0.1351 -0.2265 -0.0335
 7930SOL    HW135426   3.970   4.014   3.779  0.5233 -0.3103 -0.0429
 7930SOL    HW235427   4.017   3.953   3.906  1.1698 -0.0599 -0.9612
 7931SOL     OW35428   2.184   4.491   6.459  0.6029  0.4883 -0.0458
 7931SOL    HW135429   2.191   4.459   6.369 -2.1326  0.4846 -0.2688
 7931SOL    HW235430   2.275   4.510   6.482  0.3836  0.1860  1.0803
 7932SOL     OW35431   1.894   0.501   7.362  0.0936  0.4332 -0.2791
 7932SOL    HW135432   1.962   0.439   7.337 -0.5440 -0.2971 -0.2280
 7932SOL    HW235433   1.849   0.453   7.432  1.4422  2.3456  1.9155
 7933SOL     OW35434   2.068   2.426   7.707 -0.5179  0.3571 -0.0230
 7933SOL    HW135435   2.063   2.498   7.770  0.8640  0.9630 -0.6140
 7933SOL    HW235436   1.976   2.404   7.688 -0.7607  0.8456  0.6138
 7934SOL     OW35437   2.880   0.356   9.210 -0.3910 -0.0808 -0.4012
 7934SOL    HW135438   2.869   0.268   9.175 -3.5524  1.2206 -2.7008
 7934SOL    HW235439   2.950   0.385   9.151 -0.0340  0.3107  0.2108
 7935SOL     OW35440   0.103   1.434   4.060 -0.1559  0.0841  0.2363
 7935SOL    HW135441   0.185   1.430   4.010  1.8214  0.8284  3.4571
 7935SOL    HW235442   0.095   1.346   4.095 -0.1676 -0.5673 -1.3719
 7936SOL     OW35443   3.835   3.734   6.249  0.0215 -0.1356 -0.3353
 7936SOL    HW135444   3.891   3.714   6.325 -1.0221 -2.1883 -0.0901
 7936SOL    HW235445   3.833   3.829   6.253  0.0384 -0.1807  0.8655
 7937SOL     OW35446   3.616   3.609   6.952 -0.1256 -0.6142  0.5652
 7937SOL    HW135447   3.588   3.602   6.861  3.0505 -0.0488 -0.4865
 7937SOL    HW235448   3.658   3.526   6.976  1.8100  0.4312  0.8558
 7938SOL     OW35449   4.684   2.417   2.575 -0.0919 -0.3971 -0.0986
 7938SOL    HW135450   0.015   2.483   2.574  1.0739 -1.5919  2.5770
 7938SOL    HW235451   4.616   2.460   2.525  0.1386  1.0688  0.8505
 7939SOL     OW35452   2.117   3.265   3.738 -0.1198  0.5103  0.3635
 7939SOL    HW135453   2.075   3.346   3.765  0.6632  0.9009  0.4119
 7939SOL    HW235454   2.183   3.246   3.805 -2.1131 -2.2555  1.5623
 7940SOL     OW35455   1.667   0.674   7.302 -0.7096 -0.0152  0.2290
 7940SOL    HW135456   1.636   0.623   7.227  1.2789  0.2577 -0.7570
 7940SOL    HW235457   1.756   0.640   7.298 -0.3636  0.4035  4.2520
 7941SOL     OW35458   0.179   3.765   9.700  0.2048 -0.4482 -0.1286
 7941SOL    HW135459   0.102   3.787   9.647  0.2357  0.9501  0.4058
 7941SOL    HW235460   0.152   3.694   9.758  0.0153  0.2546  0.6498
 7942SOL     OW35461   2.041   3.709   7.868  0.0265  0.5023 -0.1444
 7942SOL    HW135462   2.068   3.618   7.877  0.2089  0.8626  2.7104
 7942SOL    HW235463   2.060   3.719   7.774  3.1443 -1.1910  0.3384
 7943SOL     OW35464   1.821   0.517   4.142 -0.5554 -0.2247  0.2603
 7943SOL    HW135465   1.756   0.577   4.178 -0.6845 -0.8983  1.1391
 7943SOL    HW235466   1.846   0.483   4.228  0.4245 -0.8443 -0.2640
 7944SOL     OW35467   2.514   4.538   2.559 -0.1395  0.0995 -0.3226
 7944SOL    HW135468   2.421   4.559   2.550  0.2691  0.7343 -3.0424
 7944SOL    HW235469   2.534   4.605   2.624  0.2604  1.1040 -1.4654
 7945SOL     OW35470   3.570   0.253   9.669 -0.0730 -0.0960  0.1161
 7945SOL    HW135471   3.582   0.339   9.628  1.9219 -0.9528 -1.1359
 7945SOL    HW235472   3.624   0.189   9.623 -0.0964 -0.0871  0.0756
 7946SOL     OW35473   2.491   1.041   4.686 -0.0706  0.3636 -0.5453
 7946SOL    HW135474   2.569   1.025   4.738  1.0251 -0.6671 -2.4981
 7946SOL    HW235475   2.524   1.057   4.598  1.0188 -1.0152 -0.3903
 7947SOL     OW35476   2.175   2.466   7.194 -0.1583 -0.5566 -0.2519
 7947SOL    HW135477   2.228   2.392   7.164  3.0137  1.1220  1.1844
 7947SOL    HW235478   2.179   2.461   7.289 -0.9552  0.4407 -0.1698
 7948SOL     OW35479   4.451   0.281   5.138 -0.5255 -0.5486  0.0398
 7948SOL    HW135480   4.490   0.358   5.096  1.9281 -1.1759  1.1229
 7948SOL    HW235481   4.463   0.206   5.080  2.0084 -0.5316  0.5313
 7949SOL     OW35482   0.879   1.651   2.542 -0.3149  0.8376  0.5658
 7949SOL    HW135483   0.889   1.720   2.607  2.0101  0.3881  0.6592
 7949SOL    HW235484   0.820   1.591   2.588 -0.5241  0.4913 -0.1542
 7950SOL     OW35485   0.902   1.769   9.484  0.3443  0.0473  0.2488
 7950SOL    HW135486   0.946   1.692   9.520  2.1134 -0.4328 -3.0409
 7950SOL    HW235487   0.854   1.741   9.406 -0.1724  3.4605 -0.6569
 7951SOL     OW35488   1.101   1.420   7.664  0.1410 -0.6486 -0.5268
 7951SOL    HW135489   1.062   1.351   7.717  1.1473 -1.0103 -0.2685
 7951SOL    HW235490   1.140   1.480   7.727  2.8814 -2.3686 -0.6064
 7952SOL     OW35491   2.713   3.789   5.430 -0.9203 -0.1463  0.2655
 7952SOL    HW135492   2.649   3.824   5.368 -1.9335 -1.1951  0.7191
 7952SOL    HW235493   2.655   3.725   5.471 -1.3025 -0.1599 -0.2945
 7953SOL     OW35494   1.494   3.574   0.077  0.4415 -0.2105  0.0378
 7953SOL    HW135495   1.398   3.571   0.075  0.4474  0.1221 -0.8900
 7953SOL    HW235496   1.497   3.505   0.010  1.1923 -0.9526  0.8292
 7954SOL     OW35497   1.756   1.066  10.236 -0.5799 -0.2161 -0.0593
 7954SOL    HW135498   1.824   1.130  10.258 -0.0185 -0.6788 -0.4544
 7954SOL    HW235499   1.704   1.086  10.313  4.3364  1.7549  2.7524
 7955SOL     OW35500   4.177   2.579  14.223  0.1843 -0.0496 -0.1048
 7955SOL    HW135501   4.108   2.530  14.268 -1.1396  3.0221  1.2474
 7955SOL    HW235502   4.171   2.550  14.132  1.0729 -1.6395  0.3540
 7956SOL     OW35503   3.059   1.479   9.390  0.9645  0.0288 -0.1916
 7956SOL    HW135504   3.021   1.531   9.461  0.6688  1.2815 -1.2699
 7956SOL    HW235505   3.152   1.500   9.401  0.8674  0.6854 -0.5822
 7957SOL     OW35506   4.051   1.495  14.576  0.4239 -0.4370 -0.2573
 7957SOL    HW135507   4.064   1.450  14.659  0.2778  3.0181  1.6365
 7957SOL    HW235508   4.047   1.585  14.607 -2.7962 -0.7881  0.3616
 7958SOL     OW35509   0.560   2.361  13.447  0.0425 -0.3071  0.0471
 7958SOL    HW135510   0.525   2.358  13.536 -0.5719  0.0038 -0.1810
 7958SOL    HW235511   0.593   2.451  13.445 -0.3924 -0.1831 -2.3168
 7959SOL     OW35512   2.981   2.476   5.030  0.4111 -0.3159 -0.0366
 7959SOL    HW135513   2.935   2.479   4.945  0.5210  0.4834 -0.0692
 7959SOL    HW235514   3.055   2.533   5.008 -0.7363  1.0546 -0.4134
 7960SOL     OW35515   0.507   1.366  12.376  0.6928  0.3835 -0.6713
 7960SOL    HW135516   0.478   1.295  12.433  0.6535  1.0742  0.1744
 7960SOL    HW235517   0.602   1.360  12.384  0.5987  0.0613  0.2958
 7961SOL     OW35518   2.158   4.155  15.568 -0.0211 -0.2230 -0.3157
 7961SOL    HW135519   2.128   4.238  15.603  0.7040  1.0186 -2.6616
 7961SOL    HW235520   2.234   4.184  15.517 -0.1044 -0.8782 -0.8235
 7962SOL     OW35521   1.498   3.742   8.539 -0.3992 -0.1914  0.1894
 7962SOL    HW135522   1.428   3.806   8.549  0.3243  0.9222 -1.9441
 7962SOL    HW235523   1.492   3.728   8.444 -0.6893 -0.9737  0.3179
 7963SOL     OW35524   0.765   1.637  16.110  0.4370  0.1328  0.1527
 7963SOL    HW135525   0.741   1.687  16.189  0.2866  1.3030 -0.6281
 7963SOL    HW235526   0.677   1.625  16.074  0.6228 -1.4675  0.2415
 7964SOL     OW35527   1.985   3.337   2.837  0.0690 -0.0863  0.1356
 7964SOL    HW135528   2.063   3.334   2.892  1.1678  1.2509 -1.3315
 7964SOL    HW235529   1.988   3.251   2.795  1.3652 -0.9232  1.9316
 7965SOL     OW35530   4.266   0.965   9.599 -0.3803 -0.4004  0.4677
 7965SOL    HW135531   4.304   0.893   9.549  3.6417  1.1998  1.2188
 7965SOL    HW235532   4.172   0.958   9.584 -0.4478  1.1716  0.0781
 7966SOL     OW35533   2.288   3.277   3.981  0.2302  0.5543 -0.6228
 7966SOL    HW135534   2.378   3.265   4.011  0.2226  1.7550 -0.1460
 7966SOL    HW235535   2.251   3.217   4.046  0.1050 -0.1594 -1.3497
 7967SOL     OW35536   3.937   4.386  14.525 -0.5229  0.1177  0.0560
 7967SOL    HW135537   3.989   4.398  14.605 -0.0529 -1.9416  0.0876
 7967SOL    HW235538   3.860   4.437  14.545  1.0134  2.4326  0.0383
 7968SOL     OW35539   0.492   0.546  17.477 -0.2205 -0.0904  0.1213
 7968SOL    HW135540   0.486   0.508  17.389 -0.7892 -0.9374  0.5237
 7968SOL    HW235541   0.422   0.611  17.469 -0.6055 -0.4420  0.5912
 7969SOL     OW35542   3.121   3.131   6.193 -0.3067 -0.1927  0.2610
 7969SOL    HW135543   3.174   3.075   6.137  2.2818  2.4504  0.0517
 7969SOL    HW235544   3.182   3.178   6.250 -0.2816 -0.6085  0.5788
 7970SOL     OW35545   1.392   1.928   4.267  0.3333  0.1701  0.1859
 7970SOL    HW135546   1.412   1.884   4.184 -0.4410 -0.0651  0.1218
 7970SOL    HW235547   1.386   2.020   4.240  0.5396  0.4355  1.0444
 7971SOL     OW35548   1.962   0.728   5.834  0.4039 -0.0067  0.0365
 7971SOL    HW135549   1.901   0.655   5.824 -0.3805  0.4527  1.5590
 7971SOL    HW235550   2.005   0.692   5.912 -0.7986  0.7014  1.0087
 7972SOL     OW35551   1.734   3.757  15.596  0.3312 -0.1933 -0.1356
 7972SOL    HW135552   1.767   3.762  15.506 -0.3191 -0.3371 -0.3840
 7972SOL    HW235553   1.679   3.835  15.606  1.6012  0.9711 -2.2168
 7973SOL     OW35554   1.352   1.662   6.714  0.3449 -0.1198  0.6200
 7973SOL    HW135555   1.363   1.568   6.700 -0.8467  0.2419 -2.5858
 7973SOL    HW235556   1.398   1.691   6.636 -1.2400 -1.0180 -0.6490
 7974SOL     OW35557   1.992   0.105  17.436  0.5110  0.4127  0.5024
 7974SOL    HW135558   1.986   0.200  17.428  0.9425  0.5361  1.5931
 7974SOL    HW235559   2.085   0.086  17.449  0.2907 -1.4938 -0.6992
 7975SOL     OW35560   0.795   3.551  16.684  0.2348 -0.2166 -0.3771
 7975SOL    HW135561   0.837   3.618  16.631 -0.5225 -0.5387 -1.3969
 7975SOL    HW235562   0.709   3.543  16.642  0.5601 -0.4624 -0.9988
 7976SOL     OW35563   3.616   2.430  15.957  0.5003 -0.0473 -0.3790
 7976SOL    HW135564   3.672   2.426  15.880  1.8205  0.3274  0.5658
 7976SOL    HW235565   3.548   2.378  15.913 -1.3413  0.5516  1.7765
 7977SOL     OW35566   4.288   4.063   5.272 -0.6904 -0.3987  0.1907
 7977SOL    HW135567   4.210   4.051   5.218 -0.1225 -0.0932 -0.7161
 7977SOL    HW235568   4.260   4.022   5.353  0.2288 -1.1481  0.1335
 7978SOL     OW35569   2.516   3.879  14.042 -0.2382 -0.4667 -0.3899
 7978SOL    HW135570   2.599   3.888  13.995 -0.7541  0.8087 -1.0749
 7978SOL    HW235571   2.454   3.926  13.986  0.2965  1.2276  0.4473
 7979SOL     OW35572   4.276   0.333  16.171  0.0121  0.4062 -0.3841
 7979SOL    HW135573   4.272   0.418  16.214  0.9818  0.7611 -1.0015
 7979SOL    HW235574   4.299   0.355  16.081 -0.7861 -0.4174 -0.7915
 7980SOL     OW35575   0.357   4.312   8.496 -0.2492  0.1581  0.2190
 7980SOL    HW135576   0.303   4.273   8.566 -0.3236 -3.8231 -2.0581
 7980SOL    HW235577   0.302   4.300   8.419 -2.1677  1.2568  1.4048
 7981SOL     OW35578   2.770   1.976  14.497  0.4910  0.2249 -0.2975
 7981SOL    HW135579   2.717   2.038  14.447 -1.0742 -1.4981 -0.7618
 7981SOL    HW235580   2.860   2.003  14.477  0.2333  0.0770 -1.6783
 7982SOL     OW35581   1.049   2.778  16.603  0.0344 -0.0311  0.0640
 7982SOL    HW135582   0.996   2.715  16.554 -2.9334  2.0335  0.5779
 7982SOL    HW235583   0.995   2.857  16.608  0.0749 -0.0733  1.1785
 7983SOL     OW35584   1.390   2.183   4.194  0.9358 -0.0819 -0.1430
 7983SOL    HW135585   1.454   2.193   4.124 -0.7194 -0.3371 -1.6797
 7983SOL    HW235586   1.388   2.273   4.228  2.5604  1.5009 -4.3222
 7984SOL     OW35587   2.037   0.679   7.610  0.2315  0.0207  0.1793
 7984SOL    HW135588   2.068   0.662   7.521 -1.5006  0.3799 -0.4790
 7984SOL    HW235589   1.987   0.598   7.616 -0.9878  0.5913 -2.4535
 7985SOL     OW35590   3.560   0.594   3.794 -0.0346 -0.1744 -0.4350
 7985SOL    HW135591   3.521   0.622   3.711 -2.3287 -2.9813 -0.2988
 7985SOL    HW235592   3.551   0.502   3.769  0.7485 -0.8665  1.8602
 7986SOL     OW35593   4.391   4.724   1.596 -0.0080 -0.1897 -0.0394
 7986SOL    HW135594   4.300   0.013   1.595  0.8009  2.6216  3.2732
 7986SOL    HW235595   4.426   0.069   1.629 -0.1202  0.7423 -2.3218
 7987SOL     OW35596   2.117   3.054   3.217 -0.1436 -0.0925  0.1516
 7987SOL    HW135597   2.074   3.007   3.288  0.9631 -0.2706  0.7075
 7987SOL    HW235598   2.056   3.126   3.202 -0.3268 -0.1217  0.7771
 7988SOL     OW35599   3.656   1.889   4.245  0.6373 -0.2865  0.3321
 7988SOL    HW135600   3.596   1.841   4.302  0.5008  1.2735  1.5252
 7988SOL    HW235601   3.668   1.837   4.166  2.8153  0.8888 -0.1202
 7989SOL     OW35602   4.433   4.116   6.261 -0.4349 -0.6612  0.5467
 7989SOL    HW135603   4.413   4.067   6.181  0.6188  0.7178 -0.5623
 7989SOL    HW235604   4.506   4.069   6.302  0.8992  0.9682  0.0009
 7990SOL     OW35605   3.918   1.240   3.121 -0.1690  1.0483 -0.2817
 7990SOL    HW135606   3.846   1.279   3.072 -0.3664  0.5169 -0.4036
 7990SOL    HW235607   3.884   1.153   3.138 -2.0608  1.5611 -1.4440
 7991SOL     OW35608   2.325   0.408   6.129 -0.5399  0.1388 -0.3202
 7991SOL    HW135609   2.258   0.359   6.082  0.9151 -2.8592  0.7558
 7991SOL    HW235610   2.369   0.332   6.167 -1.2108 -0.4134 -0.6433
 7992SOL     OW35611   2.876   2.771  15.353  0.6087 -0.1882 -0.4490
 7992SOL    HW135612   2.863   2.855  15.309  3.0896  0.3814 -0.0790
 7992SOL    HW235613   2.964   2.743  15.327  0.9170  0.4685 -0.1050
 7993SOL     OW35614   0.960   3.702   5.202 -0.1393  0.1601 -0.5781
 7993SOL    HW135615   1.028   3.738   5.259  0.8543 -2.1244 -0.3310
 7993SOL    HW235616   0.993   3.725   5.116  1.0381  3.2061  0.6735
 7994SOL     OW35617   3.900   1.282   8.749  0.2732 -0.0184 -0.7814
 7994SOL    HW135618   3.941   1.302   8.665  0.1461  1.9983 -0.3651
 7994SOL    HW235619   3.971   1.313   8.805 -0.3942 -0.8399  0.5159
 7995SOL     OW35620   4.619   0.994   8.906  0.0037  0.4718 -0.3143
 7995SOL    HW135621   4.676   0.926   8.869  1.9564  1.6341  0.5633
 7995SOL    HW235622   4.684   1.024   8.969  1.1354  0.1856 -1.3617
 7996SOL     OW35623   1.915   3.244  11.873 -0.6696  0.3040 -0.0514
 7996SOL    HW135624   2.008   3.227  11.885 -0.4746  0.7259 -0.9998
 7996SOL    HW235625   1.921   3.302  11.798  2.1468 -0.8347 -0.6950
 7997SOL     OW35626   0.678   2.316   1.436  0.2815  0.1583  0.8142
 7997SOL    HW135627   0.607   2.375   1.411 -0.7753 -0.7145  1.8050
 7997SOL    HW235628   0.635   2.235   1.411 -1.6959  1.4099  0.1405
 7998SOL     OW35629   4.063   0.848   1.859 -0.2270 -0.0630 -0.0688
 7998SOL    HW135630   4.066   0.882   1.770 -0.3924 -2.0871 -0.8585
 7998SOL    HW235631   4.158   0.855   1.868 -0.5072  0.0318  2.8517
 7999SOL     OW35632   3.822   1.091   2.554  0.1465 -0.2913  0.0476
 7999SOL    HW135633   3.820   1.175   2.600 -0.4090  0.4708 -1.3400
 7999SOL    HW235634   3.764   1.097   2.478 -0.3459 -2.0896  0.2875
 8000SOL     OW35635   0.552   2.741   4.864 -0.0815 -0.5773  0.1010
 8000SOL    HW135636   0.521   2.795   4.791  0.7127 -0.6048 -0.2589
 8000SOL    HW235637   0.480   2.678   4.870  0.1960 -0.9127 -0.1188
 8001SOL     OW35638   0.907   2.897  15.051 -0.2234  0.0504 -0.2715
 8001SOL    HW135639   0.979   2.864  14.996  1.3419  3.2693 -0.1797
 8001SOL    HW235640   0.948   2.971  15.095  1.4245 -1.5303  0.8786
 8002SOL     OW35641   0.043   2.913   7.568 -0.1715  0.4817 -0.1154
 8002SOL    HW135642   0.066   2.934   7.477  0.6992 -3.2688 -0.7487
 8002SOL    HW235643   0.115   2.958   7.612 -0.1436 -0.3770  0.7134
 8003SOL     OW35644   2.464   3.288  13.667 -0.4966 -0.4164 -0.0101
 8003SOL    HW135645   2.479   3.291  13.762 -0.5845  0.5816 -0.0321
 8003SOL    HW235646   2.447   3.195  13.655 -3.4564  0.0341  0.7145
 8004SOL     OW35647   3.315   3.332  12.450  0.2658 -0.0999 -0.0648
 8004SOL    HW135648   3.346   3.242  12.461  0.1510 -0.0442  0.7060
 8004SOL    HW235649   3.303   3.366  12.538  2.0095  1.0535 -0.2620
 8005SOL     OW35650   2.841   2.743   9.943 -0.3774  0.2969 -0.3202
 8005SOL    HW135651   2.861   2.730   9.851 -1.6291 -1.2956 -0.3579
 8005SOL    HW235652   2.925   2.725   9.985 -0.3218 -0.0594 -0.5931
 8006SOL     OW35653   3.993   4.356   4.160  0.4954  0.1366  0.4780
 8006SOL    HW135654   4.060   4.422   4.142 -1.3033  2.1350  1.1667
 8006SOL    HW235655   3.933   4.367   4.087 -1.5178  0.0484  2.1173
 8007SOL     OW35656   3.859   3.424  14.320 -0.3456 -0.5788  0.0825
 8007SOL    HW135657   3.844   3.332  14.344 -1.8244 -0.2396  0.4581
 8007SOL    HW235658   3.837   3.416  14.228  2.1470  1.0889 -0.6507
 8008SOL     OW35659   0.641   1.048  12.613  0.6312  0.0666  0.8477
 8008SOL    HW135660   0.687   1.119  12.567 -1.1599  1.4914  1.2381
 8008SOL    HW235661   0.705   0.977  12.603  2.1911  1.4567  0.8398
 8009SOL     OW35662   0.663   1.996  17.697 -0.2173 -0.4078 -0.3968
 8009SOL    HW135663   0.679   2.084  17.663  1.4137  0.5542  2.9680
 8009SOL    HW235664   0.580   1.994  17.744  0.2944 -2.5448  0.4087
 8010SOL     OW35665   1.301   2.224   4.555  0.1517  0.0025  0.5787
 8010SOL    HW135666   1.377   2.179   4.518 -0.5069  1.1215 -2.1290
 8010SOL    HW235667   1.268   2.163   4.621 -0.3768 -0.6070 -0.2366
 8011SOL     OW35668   3.250   3.772  13.097  0.8092  0.2883 -0.3020
 8011SOL    HW135669   3.286   3.683  13.093 -1.5721 -0.7254  0.8589
 8011SOL    HW235670   3.239   3.778  13.002  0.4629 -0.3388 -0.3022
 8012SOL     OW35671   2.759   2.982   5.240  0.3541 -0.0022 -0.2381
 8012SOL    HW135672   2.764   2.934   5.323 -3.4779  0.4243  0.2305
 8012SOL    HW235673   2.742   2.911   5.179  0.4447 -0.1294 -0.1153
 8013SOL     OW35674   2.481   4.732   4.171 -0.4453  0.2202  0.0140
 8013SOL    HW135675   2.489   4.661   4.235  2.3658 -0.4918 -1.1549
 8013SOL    HW235676   2.458   4.672   4.099 -0.9642  2.3223 -1.5721
 8014SOL     OW35677   0.583   1.821   9.349 -0.5844  0.2434  0.1322
 8014SOL    HW135678   0.650   1.764   9.312  0.8232  0.7092  1.9870
 8014SOL    HW235679   0.536   1.769   9.414 -0.3668  0.1235  0.1907
 8015SOL     OW35680   3.330   0.651   9.071 -0.0018 -0.1498  0.3248
 8015SOL    HW135681   3.380   0.700   9.006 -1.9987  0.6371 -0.6277
 8015SOL    HW235682   3.347   0.573   9.019 -0.4524 -0.5658  0.7965
 8016SOL     OW35683   4.295   4.445   8.362 -0.5236  0.0866 -0.0310
 8016SOL    HW135684   4.237   4.521   8.360  0.6642  1.0427  1.3812
 8016SOL    HW235685   4.352   4.474   8.434 -0.0028  1.1005 -0.8507
 8017SOL     OW35686   2.473   1.834   8.606  0.0860 -0.6660  0.5147
 8017SOL    HW135687   2.402   1.898   8.596  1.7706  0.4192 -4.4173
 8017SOL    HW235688   2.464   1.816   8.699 -2.1364  1.2135  0.6877
 8018SOL     OW35689   3.091   3.430   7.316  0.0946  0.9431  0.2601
 8018SOL    HW135690   3.117   3.518   7.344  3.6248 -0.2938  0.8077
 8018SOL    HW235691   3.045   3.395   7.393 -0.3332 -1.1826 -0.9770
 8019SOL     OW35692   0.929   3.598   0.468  0.2977 -0.2371  0.0946
 8019SOL    HW135693   0.987   3.543   0.520  0.6029  0.7309  0.7957
 8019SOL    HW235694   0.906   3.670   0.527  3.2742 -0.0032  0.9973
 8020SOL     OW35695   3.491   0.255  12.549  0.1156 -0.3432 -0.4938
 8020SOL    HW135696   3.499   0.350  12.551 -1.0811 -0.3053  2.4706
 8020SOL    HW235697   3.398   0.250  12.570  0.6565 -0.2253  1.9271
 8021SOL     OW35698   4.379   3.541   6.206  0.1561 -0.5260  0.1744
 8021SOL    HW135699   4.363   3.451   6.177  0.3659 -0.0819 -1.3201
 8021SOL    HW235700   4.431   3.521   6.284  2.3006  2.6707 -0.4480
 8022SOL     OW35701   4.730   3.545   0.737 -0.6803  0.6572 -0.2413
 8022SOL    HW135702   4.704   3.608   0.805 -0.5697  0.2990  0.1344
 8022SOL    HW235703   0.041   3.607   0.683  1.0715 -0.7096 -0.2109
 8023SOL     OW35704   4.224   0.013   4.929  0.1561 -0.2067 -0.2063
 8023SOL    HW135705   4.275   4.672   4.916 -0.1748 -0.3936 -0.3730
 8023SOL    HW235706   4.210   0.029   5.023 -1.3253  3.0962 -0.9576
 8024SOL     OW35707   2.801   4.249   4.401 -0.2000  0.4396 -0.1999
 8024SOL    HW135708   2.724   4.249   4.458 -1.2919 -1.1745 -1.6763
 8024SOL    HW235709   2.799   4.160   4.366 -2.2563  0.8692 -1.1689
 8025SOL     OW35710   0.570   1.295   3.680  0.2835  0.1281  0.2353
 8025SOL    HW135711   0.605   1.283   3.769 -0.8719  1.9904  0.9297
 8025SOL    HW235712   0.611   1.218   3.640  0.1149 -0.1436  0.5765
 8026SOL     OW35713   1.975   0.780   7.271 -0.4945  0.1664  0.4135
 8026SOL    HW135714   2.068   0.803   7.279  0.1213 -1.9115 -0.7727
 8026SOL    HW235715   1.978   0.690   7.237  0.4827  0.5244 -0.4423
 8027SOL     OW35716   1.148   1.775   5.596  0.2539  0.2663 -0.0061
 8027SOL    HW135717   1.232   1.741   5.625 -0.5628 -1.7138  0.0189
 8027SOL    HW235718   1.127   1.809   5.683 -0.7782 -1.0523  0.2682
 8028SOL     OW35719   4.182   1.244  16.774 -0.2633 -0.0817  0.7331
 8028SOL    HW135720   4.158   1.172  16.832 -3.3865 -1.1522 -1.8686
 8028SOL    HW235721   4.112   1.243  16.708 -1.6658 -0.6390  2.2236
 8029SOL     OW35722   1.194   4.056   5.748 -0.1044  0.0046  0.5946
 8029SOL    HW135723   1.101   4.053   5.722  0.4925  1.9789 -1.8500
 8029SOL    HW235724   1.192   4.091   5.837  1.3979 -1.2061  1.0974
 8030SOL     OW35725   4.076   0.775  16.264 -0.0977  0.2081  0.3856
 8030SOL    HW135726   4.043   0.846  16.318  1.1423  1.7577 -0.8970
 8030SOL    HW235727   4.091   0.809  16.176  0.4016 -0.0382  0.3733
 8031SOL     OW35728   4.724   0.981  10.957 -0.2799 -0.3240  0.6939
 8031SOL    HW135729   4.734   0.912  11.022  1.0882 -2.2224 -1.5449
 8031SOL    HW235730   4.643   1.022  10.988 -0.1196  0.9681 -0.6097
 8032SOL     OW35731   1.953   2.390   0.300 -0.1788  0.3468 -0.4592
 8032SOL    HW135732   1.986   2.457   0.239  0.7912  0.5738  0.3070
 8032SOL    HW235733   1.887   2.436   0.351 -0.3918  1.4703 -1.7480
 8033SOL     OW35734   0.204   0.809   1.778  0.0568 -0.2013  0.3100
 8033SOL    HW135735   0.232   0.784   1.866 -1.5125 -0.3597  0.7540
 8033SOL    HW235736   0.171   0.727   1.744  0.4472  0.2432 -1.1230
 8034SOL     OW35737   3.464   2.363   8.421 -0.7204 -0.6149  0.2943
 8034SOL    HW135738   3.396   2.373   8.354 -0.5985 -0.4906  0.1880
 8034SOL    HW235739   3.521   2.310   8.366 -0.5785 -1.1836  1.0026
 8035SOL     OW35740   0.814   1.222  17.381 -0.3002 -0.1581  0.4136
 8035SOL    HW135741   0.891   1.165  17.380 -0.7474 -0.7209 -1.5862
 8035SOL    HW235742   0.815   1.262  17.294 -0.8282  1.5469  1.1790
 8036SOL     OW35743   2.741   4.407   8.932 -1.0678 -0.1919 -0.2552
 8036SOL    HW135744   2.829   4.442   8.921  0.2225 -2.9484  1.4273
 8036SOL    HW235745   2.741   4.369   9.020  0.2685  0.4692  0.0266
 8037SOL     OW35746   1.102   2.593   8.962 -1.0620 -0.1889  0.3001
 8037SOL    HW135747   1.126   2.685   8.966 -1.0921 -0.0811 -2.0045
 8037SOL    HW235748   1.070   2.580   9.051 -1.6602 -0.0949  0.0954
 8038SOL     OW35749   2.397   3.251  10.371  0.2486  0.0593  0.4177
 8038SOL    HW135750   2.302   3.258  10.361  0.3689  1.8196  0.6104
 8038SOL    HW235751   2.416   3.163  10.339  1.7627  0.3136  0.6367
 8039SOL     OW35752   1.077   2.564   1.952 -0.1095  0.7547 -0.0866
 8039SOL    HW135753   1.075   2.476   1.914 -0.4447  1.1297 -0.9326
 8039SOL    HW235754   1.115   2.611   1.878 -0.2458  2.7411  1.1139
 8040SOL     OW35755   3.442   3.640   8.542 -0.1827  0.6194 -0.1655
 8040SOL    HW135756   3.422   3.554   8.506  2.5545 -0.4085  0.7089
 8040SOL    HW235757   3.397   3.648   8.626  0.2067 -1.1037  0.1947
 8041SOL     OW35758   1.998   0.128  16.126 -0.3111 -0.2518  0.2496
 8041SOL    HW135759   1.924   0.094  16.076 -0.3788 -0.9307  0.8116
 8041SOL    HW235760   2.031   0.043  16.153 -1.4299 -0.3984  1.1452
 8042SOL     OW35761   1.717   0.146   5.126 -0.1823 -0.0416 -0.0551
 8042SOL    HW135762   1.630   0.123   5.095  0.2579 -1.8015  0.0072
 8042SOL    HW235763   1.748   0.064   5.164  0.4119  0.2342  0.0553
 8043SOL     OW35764   4.078   1.155   5.503 -0.4005  0.2730 -0.1751
 8043SOL    HW135765   4.040   1.241   5.518  1.3903  1.7834 -4.5338
 8043SOL    HW235766   4.047   1.137   5.415  0.1035  0.4264 -0.3824
 8044SOL     OW35767   3.907   4.510  14.752 -0.9649 -0.8938 -0.2044
 8044SOL    HW135768   3.961   4.511  14.830 -0.0981 -4.0723 -0.7499
 8044SOL    HW235769   3.866   4.596  14.754  1.4610  0.2758 -0.6761
 8045SOL     OW35770   2.455   0.196   3.808  0.3344 -0.3054  0.0681
 8045SOL    HW135771   2.527   0.174   3.748  0.5675 -1.8206  0.9015
 8045SOL    HW235772   2.395   0.131   3.773  0.7207 -0.2398 -0.7334
 8046SOL     OW35773   1.790   2.176  16.581  0.4818 -0.0451  0.1059
 8046SOL    HW135774   1.874   2.161  16.625  0.6142  0.7111  0.1051
 8046SOL    HW235775   1.807   2.257  16.533  1.2665  0.1161  0.6649
 8047SOL     OW35776   0.270   2.197   4.141 -0.1720  0.3709 -0.3574
 8047SOL    HW135777   0.334   2.153   4.195 -0.5544 -0.6361 -0.7298
 8047SOL    HW235778   0.241   2.130   4.079  0.5442  1.0350 -1.4032
 8048SOL     OW35779   1.862   0.611   2.290 -0.1895 -0.1888 -0.2796
 8048SOL    HW135780   1.883   0.518   2.278 -2.6922 -0.9752  1.1742
 8048SOL    HW235781   1.783   0.627   2.238 -0.7939 -0.5436  0.5249
 8049SOL     OW35782   4.623   0.703   4.394 -0.4147  0.4690 -0.2488
 8049SOL    HW135783   4.596   0.649   4.320 -2.2293 -2.0403  2.2637
 8049SOL    HW235784   4.545   0.729   4.443 -0.8709  0.0910 -0.7745
 8050SOL     OW35785   3.725   0.382   1.846 -0.3650  0.0489 -0.1525
 8050SOL    HW135786   3.740   0.465   1.891 -1.0808  0.0136  0.1420
 8050SOL    HW235787   3.754   0.396   1.755  0.4827 -2.2064 -0.2194
 8051SOL     OW35788   2.108   4.252   4.821 -0.6188 -0.0976 -0.5847
 8051SOL    HW135789   2.171   4.258   4.892 -1.3121  0.8962 -0.0533
 8051SOL    HW235790   2.029   4.219   4.865 -1.3889  2.1265 -0.2790
 8052SOL     OW35791   2.453   0.315   6.990  0.0344  0.0238 -0.3568
 8052SOL    HW135792   2.426   0.362   6.911 -0.4508 -0.5771 -0.5499
 8052SOL    HW235793   2.540   0.351   7.006  0.5774 -1.3782 -0.1784
 8053SOL     OW35794   2.761   2.240   7.573  0.2447 -0.3903  0.4077
 8053SOL    HW135795   2.692   2.228   7.638 -0.2216  1.4983  0.2663
 8053SOL    HW235796   2.757   2.336   7.582 -0.8816 -0.5299  1.3759
 8054SOL     OW35797   4.126   1.425   3.246  0.1160 -0.3471  0.0894
 8054SOL    HW135798   4.060   1.488   3.274 -1.3530 -2.1962  0.7205
 8054SOL    HW235799   4.076   1.370   3.186 -0.2232  0.1269 -0.0581
 8055SOL     OW35800   2.091   1.587  11.366  0.0218 -0.2172  0.2399
 8055SOL    HW135801   2.123   1.518  11.424  2.2025  0.2784 -0.4135
 8055SOL    HW235802   2.139   1.565  11.287 -0.8887  0.3342 -0.4739
 8056SOL     OW35803   3.267   4.280   8.950  0.2278  0.2597 -0.3966
 8056SOL    HW135804   3.302   4.359   8.992  0.3176  0.7454 -1.3952
 8056SOL    HW235805   3.329   4.262   8.880 -2.6071 -1.4381 -2.4641
 8057SOL     OW35806   1.734   3.939   7.728 -0.0901  0.4500  0.2682
 8057SOL    HW135807   1.715   3.849   7.700  0.1145  0.2648  0.7171
 8057SOL    HW235808   1.778   3.922   7.811  0.7917 -1.1833 -0.5313
 8058SOL     OW35809   0.809   3.302   3.798  0.1696 -0.2655 -0.4383
 8058SOL    HW135810   0.861   3.333   3.873 -2.0473 -0.5964  1.2169
 8058SOL    HW235811   0.837   3.211   3.796  2.6037  0.5123 -2.0441
 8059SOL     OW35812   1.893   4.445   4.746  0.1545  0.0848  0.1583
 8059SOL    HW135813   1.920   4.510   4.682  0.8669 -0.7070 -0.3542
 8059SOL    HW235814   1.978   4.405   4.766 -0.0799 -0.8019 -0.6211
 8060SOL     OW35815   4.461   4.230  10.696  0.4834 -0.6068 -0.2738
 8060SOL    HW135816   4.452   4.169  10.770 -0.5589  0.6536  0.6217
 8060SOL    HW235817   4.382   4.214  10.644  0.9561  3.8239 -2.3718
 8061SOL     OW35818   2.736   3.474   8.717  0.2126 -0.1838  0.1955
 8061SOL    HW135819   2.823   3.469   8.756  0.6227  1.2161 -0.5753
 8061SOL    HW235820   2.679   3.470   8.793  0.4665 -1.8543  0.3078
 8062SOL     OW35821   2.401   2.594   7.767  0.1183  0.1033 -0.0343
 8062SOL    HW135822   2.366   2.648   7.695 -2.1038  1.0389  1.7629
 8062SOL    HW235823   2.332   2.609   7.831 -0.3395 -0.3943 -0.4106
 8063SOL     OW35824   1.445   4.023   6.826  0.3949 -1.1348 -0.1168
 8063SOL    HW135825   1.435   4.107   6.782  2.0333  0.5286  2.6791
 8063SOL    HW235826   1.477   4.035   6.916 -0.0908 -0.0831 -0.0824
 8064SOL     OW35827   2.551   1.665   6.560  0.2853 -0.0991  0.5520
 8064SOL    HW135828   2.578   1.699   6.474  0.0919 -2.5180 -0.4509
 8064SOL    HW235829   2.606   1.587   6.556  1.5835  0.9020 -1.6418
 8065SOL     OW35830   4.066   0.306   1.984  0.4141  0.0285 -0.6051
 8065SOL    HW135831   4.053   0.379   1.924  1.4261 -1.1331 -2.2485
 8065SOL    HW235832   3.985   0.255   1.976  0.7667 -0.7311  0.6646
 8066SOL     OW35833   2.176   2.926   2.216  0.6668 -0.1701  0.4115
 8066SOL    HW135834   2.087   2.956   2.234 -0.3431 -2.2697 -0.9952
 8066SOL    HW235835   2.231   3.003   2.225  0.3857 -0.0137  0.7711
 8067SOL     OW35836   3.928   4.341  15.264 -0.1351  0.2558  0.3515
 8067SOL    HW135837   3.877   4.311  15.339 -0.8375  1.4809  0.3621
 8067SOL    HW235838   3.875   4.416  15.238  3.4439  1.8000 -2.5552
 8068SOL     OW35839   0.301   3.030  12.706  0.1728 -0.0008 -0.0964
 8068SOL    HW135840   0.242   3.007  12.778 -2.5255  2.3310 -1.5499
 8068SOL    HW235841   0.237   3.050  12.637  0.8656  0.4783 -0.5960
 8069SOL     OW35842   4.527   1.641   7.684 -0.0203  0.1669 -0.1351
 8069SOL    HW135843   4.562   1.695   7.614 -0.9280  0.9758  0.0358
 8069SOL    HW235844   4.571   1.557   7.677  0.2358  0.4555 -1.9904
 8070SOL     OW35845   3.701   0.435   7.266  0.1570 -0.3372  0.1647
 8070SOL    HW135846   3.668   0.385   7.341  1.6717 -1.6199 -0.0433
 8070SOL    HW235847   3.733   0.371   7.203  1.3987 -0.5515  1.0005
 8071SOL     OW35848   0.849   3.453   7.835  0.3158  0.2908  0.7070
 8071SOL    HW135849   0.940   3.426   7.840  0.4447  0.3131 -1.3944
 8071SOL    HW235850   0.820   3.409   7.915  1.1621 -1.9511 -0.2161
 8072SOL     OW35851   2.362   2.935  15.989 -0.0751 -0.2574 -0.3100
 8072SOL    HW135852   2.322   3.021  15.998 -0.2735 -0.3580 -0.2315
 8072SOL    HW235853   2.441   2.949  16.043 -0.6790  1.5753  0.1006
 8073SOL     OW35854   0.135   2.292  10.625  0.5826  0.0850 -0.4326
 8073SOL    HW135855   0.072   2.227  10.654  2.2448  0.4483  3.9989
 8073SOL    HW235856   0.127   2.295  10.529  1.2204 -2.9686 -0.5798
 8074SOL     OW35857   0.541   0.102   7.218 -0.1436 -0.3158 -0.5693
 8074SOL    HW135858   0.448   0.108   7.238 -0.2557 -1.0322 -0.8819
 8074SOL    HW235859   0.547   0.011   7.190  1.0138 -0.9497  1.6887
 8075SOL     OW35860   1.010   4.039   5.072 -0.0814  0.2534 -0.0605
 8075SOL    HW135861   0.998   3.979   5.146 -0.9837 -0.1405 -0.5317
 8075SOL    HW235862   0.936   4.098   5.080 -0.0363  0.6642 -2.9456
 8076SOL     OW35863   2.283   1.721  14.387 -0.1661  0.3690  0.2801
 8076SOL    HW135864   2.336   1.753  14.314 -0.5569 -3.1242 -1.5194
 8076SOL    HW235865   2.255   1.809  14.413 -1.4158 -0.1045  0.5570
 8077SOL     OW35866   0.797   0.256   7.285 -0.5585  0.2200  0.0383
 8077SOL    HW135867   0.716   0.217   7.252  0.5683 -1.7708 -0.3374
 8077SOL    HW235868   0.858   0.186   7.263  0.2167  0.4539  1.4658
 8078SOL     OW35869   0.873   3.547  17.571 -0.2996  0.2045 -0.0044
 8078SOL    HW135870   0.929   3.475  17.541  1.4413  1.3903  0.4173
 8078SOL    HW235871   0.818   3.514  17.642  0.5290 -0.3011  0.4056
 8079SOL     OW35872   2.458   0.257   9.705  0.1187  0.2565 -0.1193
 8079SOL    HW135873   2.468   0.222   9.793 -1.5161 -0.7251 -0.3273
 8079SOL    HW235874   2.439   0.183   9.648  0.8004  0.7731 -1.0230
 8080SOL     OW35875   2.716   1.750  12.923 -0.0015 -1.0536  0.0415
 8080SOL    HW135876   2.656   1.679  12.947 -1.7761  1.4051  2.9449
 8080SOL    HW235877   2.652   1.792  12.865  0.4177 -1.3534 -0.6408
 8081SOL     OW35878   2.060   2.668  16.020  0.0062  0.0947 -0.1082
 8081SOL    HW135879   1.965   2.670  16.005  0.0602 -1.7170 -0.7319
 8081SOL    HW235880   2.078   2.583  16.061 -2.2750  0.5557  1.8912
 8082SOL     OW35881   2.655   4.717   9.083  0.2299  0.6916  0.2368
 8082SOL    HW135882   2.746   0.009   9.085  0.6691 -0.6998  1.8046
 8082SOL    HW235883   2.652   4.704   8.989 -0.3097  2.2837  0.0299
 8083SOL     OW35884   1.210   3.613  10.974 -0.6407 -0.6952  0.6347
 8083SOL    HW135885   1.115   3.611  10.987 -0.6341  0.1079  0.8055
 8083SOL    HW235886   1.212   3.645  10.884 -2.1506  1.4733  1.3588
 8084SOL     OW35887   2.214   4.372   4.381  0.7295  0.5212 -0.0302
 8084SOL    HW135888   2.195   4.320   4.459  0.9200  1.6938  0.7841
 8084SOL    HW235889   2.282   4.317   4.341 -2.5361 -2.2518 -1.7959
 8085SOL     OW35890   0.509   4.476   9.683 -0.5515 -0.5443 -0.1862
 8085SOL    HW135891   0.456   4.405   9.717  1.7278 -0.9912  2.4411
 8085SOL    HW235892   0.454   4.544   9.723 -0.3097 -1.7649  2.1780
 8086SOL     OW35893   1.269   1.475   4.629 -0.2491 -0.1262 -0.6089
 8086SOL    HW135894   1.254   1.552   4.575  0.8274  1.0342  0.7580
 8086SOL    HW235895   1.238   1.410   4.565 -1.0310  0.4217 -0.7877
 8087SOL     OW35896   2.414   4.546   7.135  0.1977  0.2873 -0.0963
 8087SOL    HW135897   2.498   4.590   7.149 -0.2527  0.8820  0.7578
 8087SOL    HW235898   2.383   4.548   7.226 -0.3182  0.5291 -0.2739
 8088SOL     OW35899   2.683   2.300   0.379 -0.1312  0.8131  0.3690
 8088SOL    HW135900   2.738   2.250   0.320  0.9542  0.6834  1.4859
 8088SOL    HW235901   2.672   2.242   0.455 -2.5488 -1.2869 -1.5963
 8089SOL     OW35902   2.091   1.073   8.123 -0.2234 -0.1639  0.0760
 8089SOL    HW135903   2.142   1.026   8.057 -0.3243 -0.4835  0.2225
 8089SOL    HW235904   2.065   1.001   8.181 -1.1669 -0.0278 -0.1802
 8090SOL     OW35905   1.286   1.747   9.053 -0.0980  0.0715  0.7429
 8090SOL    HW135906   1.241   1.685   9.111  1.4612 -1.8332 -0.1002
 8090SOL    HW235907   1.243   1.832   9.064  0.4349  0.3170  0.9209
 8091SOL     OW35908   4.198   2.205  11.561  0.0514 -0.4567  0.7277
 8091SOL    HW135909   4.208   2.120  11.603 -0.7144  0.2384  2.3304
 8091SOL    HW235910   4.292   2.227  11.565 -0.2945  1.1410  0.2063
 8092SOL     OW35911   3.391   4.255  11.682 -0.5634 -0.2923  0.2447
 8092SOL    HW135912   3.380   4.209  11.598  0.2089  0.4361 -0.2511
 8092SOL    HW235913   3.392   4.346  11.653  1.8542 -0.2007  0.6697
 8093SOL     OW35914   2.944   4.120   8.733  0.1085  0.0065  0.2321
 8093SOL    HW135915   2.927   4.026   8.728  0.0916  0.0392 -0.3249
 8093SOL    HW235916   2.866   4.154   8.688  0.5766 -2.0659 -2.1484
 8094SOL     OW35917   1.313   0.730   7.443  0.0681 -0.3167 -0.2946
 8094SOL    HW135918   1.276   0.652   7.403 -1.4350  0.5199 -0.5292
 8094SOL    HW235919   1.406   0.709   7.447 -0.0230 -0.4032  1.6247
 8095SOL     OW35920   0.673   3.306   5.267 -0.3774 -0.3122  0.0800
 8095SOL    HW135921   0.709   3.218   5.264 -1.1588 -0.6811  2.0517
 8095SOL    HW235922   0.722   3.345   5.194  1.0927 -0.2003  1.1313
 8096SOL     OW35923   2.532   1.058   7.061  0.1450  0.2551  0.3091
 8096SOL    HW135924   2.461   1.046   6.999 -0.2929  0.4516  0.7678
 8096SOL    HW235925   2.603   1.009   7.019 -0.1754  1.4922 -1.6836
 8097SOL     OW35926   3.338   3.972   8.714 -0.4438 -0.9046 -0.0645
 8097SOL    HW135927   3.352   3.932   8.800  2.2872 -2.2613 -1.1418
 8097SOL    HW235928   3.270   3.926   8.664 -1.6832  0.3151  0.5010
 8098SOL     OW35929   2.112   0.172   6.570 -0.7431  0.2859  0.0150
 8098SOL    HW135930   2.202   0.183   6.539  0.0004 -0.1962  2.0113
 8098SOL    HW235931   2.128   0.135   6.657  2.1211  1.6823  0.1013
 8099SOL     OW35932   2.892   0.442   7.737 -0.0600 -0.2466  0.0655
 8099SOL    HW135933   2.809   0.484   7.715  1.5751  1.9868 -1.7429
 8099SOL    HW235934   2.875   0.414   7.828  0.9408 -0.3645  0.2078
 8100SOL     OW35935   2.540   0.257   1.136  0.2916  0.1016  0.0156
 8100SOL    HW135936   2.488   0.176   1.136  0.0675  0.2467  0.0512
 8100SOL    HW235937   2.519   0.286   1.047  1.1342  1.8922  0.4158
 8101SOL     OW35938   2.135   3.121   4.139 -0.5201 -0.4635 -0.0513
 8101SOL    HW135939   2.054   3.072   4.128  0.6490 -2.3453 -0.3478
 8101SOL    HW235940   2.150   3.117   4.234  1.1603 -1.9772 -0.3867
 8102SOL     OW35941   3.608   4.373  17.516  0.7246  0.4989  0.7254
 8102SOL    HW135942   3.598   4.467  17.533  0.5125  0.6758 -0.3923
 8102SOL    HW235943   3.688   4.350  17.565  0.7192  0.0024  0.4994
 8103SOL     OW35944   3.044   2.665   5.442 -0.3892 -0.3016 -0.4827
 8103SOL    HW135945   3.055   2.653   5.536 -0.0043  0.5052 -0.4261
 8103SOL    HW235946   3.122   2.694   5.395  1.0046 -1.2109  1.3187
 8104SOL     OW35947   2.831   4.250   9.133 -0.5896 -0.1773 -0.1184
 8104SOL    HW135948   2.846   4.252   9.228 -1.9086 -2.3961  0.1299
 8104SOL    HW235949   2.901   4.196   9.096 -1.0703 -1.1662  0.4163
 8105SOL     OW35950   2.132   0.975   5.989  0.1090 -0.4599  0.3080
 8105SOL    HW135951   2.102   0.898   6.036  2.6066 -1.3010  0.5034
 8105SOL    HW235952   2.054   0.995   5.937  0.2037 -0.3521  0.2082
 8106SOL     OW35953   1.860   2.747   8.350 -0.0214 -0.0681 -0.2464
 8106SOL    HW135954   1.925   2.680   8.326 -1.8544 -2.0253  0.2954
 8106SOL    HW235955   1.881   2.751   8.443  0.8411 -2.1014 -0.3443
 8107SOL     OW35956   4.463   1.353  16.339  0.1499  0.3899  0.2865
 8107SOL    HW135957   4.376   1.368  16.303  0.9677  0.6834 -1.5565
 8107SOL    HW235958   4.448   1.335  16.432  1.1947 -3.7197 -0.3583
 8108SOL     OW35959   4.062   0.699   7.789  1.0807  0.2642  0.4481
 8108SOL    HW135960   4.020   0.744   7.715 -2.4708 -0.5943  1.9551
 8108SOL    HW235961   4.120   0.637   7.745 -1.1662 -1.7287  0.3275
 8109SOL     OW35962   2.290   1.960   2.133  0.2289  0.0602 -0.5013
 8109SOL    HW135963   2.244   2.022   2.189  0.1021 -0.9002  0.4508
 8109SOL    HW235964   2.283   1.881   2.186 -0.6998  0.3450 -0.2047
 8110SOL     OW35965   4.618   3.758   8.481 -0.3348  0.0939  0.0400
 8110SOL    HW135966   4.636   3.786   8.391  0.5913 -1.7557 -0.3569
 8110SOL    HW235967   4.531   3.794   8.495 -0.2744  0.7103 -1.1834
 8111SOL     OW35968   0.254   1.701   9.116  0.1107  0.0286  0.3150
 8111SOL    HW135969   0.317   1.647   9.068 -0.0932 -0.6081  0.7655
 8111SOL    HW235970   0.298   1.713   9.200 -1.5147 -0.9276  1.3123
 8112SOL     OW35971   2.807   1.571   7.609  0.6013  0.7494  0.2062
 8112SOL    HW135972   2.743   1.642   7.598 -2.1232 -1.8687 -0.9936
 8112SOL    HW235973   2.848   1.579   7.523  1.0272 -0.5156  0.2947
 8113SOL     OW35974   2.625   2.029   9.251 -0.0735  0.1654  0.0419
 8113SOL    HW135975   2.659   1.984   9.174  1.5150  0.9981  0.2490
 8113SOL    HW235976   2.533   2.029   9.224  0.1741  2.4195 -0.8520
 8114SOL     OW35977   4.370   2.636   4.464  0.0028 -0.1202  0.0370
 8114SOL    HW135978   4.326   2.612   4.546  0.6571 -0.1695  0.3736
 8114SOL    HW235979   4.438   2.569   4.461  0.0998  0.0613 -1.6335
 8115SOL     OW35980   4.548   3.561   9.804 -0.1660  0.1561  0.3488
 8115SOL    HW135981   4.513   3.530   9.721 -0.6072 -1.6804  1.2215
 8115SOL    HW235982   4.643   3.571   9.797 -0.0265 -0.5835  1.2147
 8116SOL     OW35983   2.515   2.257   2.442 -0.5794 -0.2441 -0.0142
 8116SOL    HW135984   2.596   2.307   2.444 -1.2229  0.7435  0.8388
 8116SOL    HW235985   2.468   2.296   2.368 -1.9888 -0.2994  0.8529
 8117SOL     OW35986   2.863   3.886   7.257 -0.3232 -0.0860  0.3688
 8117SOL    HW135987   2.897   3.876   7.168 -1.0236 -3.9313  0.5050
 8117SOL    HW235988   2.834   3.976   7.245  2.2880  0.6151 -0.4653
 8118SOL     OW35989   1.565   2.737   8.960  0.3218 -0.1972  0.1830
 8118SOL    HW135990   1.518   2.803   9.011  0.7399  0.3693 -0.1681
 8118SOL    HW235991   1.532   2.657   9.002 -1.1388 -0.6976 -1.9306
 8119SOL     OW35992   0.542   4.381  13.984  0.2312 -0.3423 -0.4181
 8119SOL    HW135993   0.528   4.287  13.971  1.1181 -0.4038 -0.8783
 8119SOL    HW235994   0.470   4.417  13.931  0.2695  1.7385  0.9540
 8120SOL     OW35995   4.561   0.775   7.287 -0.1422  0.1566 -0.1820
 8120SOL    HW135996   4.656   0.790   7.282 -0.2057  0.1825 -1.2660
 8120SOL    HW235997   4.555   0.710   7.357 -2.1109 -0.1456 -0.6486
 8121SOL     OW35998   1.856   2.875   1.737 -0.1902 -0.4565 -0.1513
 8121SOL    HW135999   1.919   2.945   1.752 -0.7917  0.1024 -0.2174
 8121SOL    HW236000   1.855   2.862   1.642  1.3195  0.1861 -0.2375
 8122SOL     OW36001   3.314   3.871   4.875 -0.0431 -0.9552  0.3369
 8122SOL    HW136002   3.292   3.779   4.893 -1.4129 -0.2828  1.9754
 8122SOL    HW236003   3.408   3.870   4.893  0.2305  1.1731 -1.0780
 8123SOL     OW36004   4.223   3.478   5.870 -0.0517  0.0677 -0.5410
 8123SOL    HW136005   4.146   3.442   5.914 -0.5048  2.9657  1.0385
 8123SOL    HW236006   4.238   3.553   5.927 -1.3122 -0.1334  0.0611
 8124SOL     OW36007   1.128   1.669  15.401  0.3395  0.0350  0.4224
 8124SOL    HW136008   1.039   1.660  15.365 -0.5741  2.7787  1.9827
 8124SOL    HW236009   1.112   1.741  15.463 -0.0580  0.6264 -0.3533
 8125SOL     OW36010   0.547   0.866   7.574  0.4647 -0.2967  0.3569
 8125SOL    HW136011   0.642   0.856   7.577  0.0647 -4.3742 -0.3811
 8125SOL    HW236012   0.542   0.926   7.500  0.6528 -1.6091 -0.7315
 8126SOL     OW36013   0.527   3.966   9.070  0.2694  0.2624  0.6895
 8126SOL    HW136014   0.480   4.045   9.045 -1.2507 -1.2511 -1.2444
 8126SOL    HW236015   0.612   3.974   9.025  0.6941 -0.7800  1.2936
 8127SOL     OW36016   4.374   1.305   8.913  0.1684  0.4542  0.0316
 8127SOL    HW136017   4.431   1.317   8.989  1.0986  1.9051 -0.9133
 8127SOL    HW236018   4.289   1.287   8.953  0.1939 -2.4513 -1.2386
 8128SOL     OW36019   1.000   4.419   6.829  0.4480  0.0625 -0.3198
 8128SOL    HW136020   1.036   4.446   6.914  0.2165 -1.0121  0.1228
 8128SOL    HW236021   1.023   4.326   6.834  1.7643  0.3721 -0.7786
 8129SOL     OW36022   4.455   3.799  16.975 -0.3798  0.1384 -0.2916
 8129SOL    HW136023   4.438   3.881  17.022  2.0919  0.5766 -0.1872
 8129SOL    HW236024   4.446   3.828  16.884 -2.1407  0.6178  0.0341
 8130SOL     OW36025   1.558   1.956   6.312  0.2492  0.1285 -0.6658
 8130SOL    HW136026   1.475   2.003   6.300  0.7415  1.1612  0.0147
 8130SOL    HW236027   1.577   1.906   6.232  2.6993  1.4067 -0.8565
 8131SOL     OW36028   3.858   0.187   3.332 -0.1230 -0.3394 -0.0333
 8131SOL    HW136029   3.833   0.180   3.240  0.0280  0.3613 -0.1332
 8131SOL    HW236030   3.915   0.263   3.347 -0.2726 -0.2151 -0.1030
 8132SOL     OW36031   0.400   2.448   4.711 -0.0715 -0.0178  0.3495
 8132SOL    HW136032   0.400   2.481   4.801 -0.0603  2.4870 -0.5693
 8132SOL    HW236033   0.380   2.356   4.727  0.5815 -0.5744 -2.1192
 8133SOL     OW36034   4.274   2.522  17.180 -0.3025 -0.1338 -0.1705
 8133SOL    HW136035   4.303   2.430  17.186 -2.4650 -0.6953  1.6043
 8133SOL    HW236036   4.231   2.518  17.095  0.4677  1.0995 -0.6110
 8134SOL     OW36037   4.541   3.079   5.011  0.0854  0.5622  0.6595
 8134SOL    HW136038   4.521   3.030   4.932  1.0942  0.8692  0.2145
 8134SOL    HW236039   4.465   3.059   5.065 -0.7572 -0.9474 -1.1157
 8135SOL     OW36040   0.901   2.021   3.378 -0.5261  0.2255 -0.1803
 8135SOL    HW136041   0.989   2.060   3.376 -1.7674  2.9006 -2.8234
 8135SOL    HW236042   0.914   1.936   3.335 -0.1683 -1.4270  3.1695
 8136SOL     OW36043   3.275   0.238   7.485  0.0567 -0.0899  0.3439
 8136SOL    HW136044   3.215   0.311   7.497  1.3225  0.9161  0.5829
 8136SOL    HW236045   3.238   0.162   7.529 -0.8350  1.5659  2.3949
 8137SOL     OW36046   1.916   4.365  16.206 -0.3859  0.3682  0.3243
 8137SOL    HW136047   1.920   4.366  16.110  0.1166  1.6697  0.3524
 8137SOL    HW236048   1.980   4.298  16.231 -1.4252 -0.3941  0.9250
 8138SOL     OW36049   3.762   4.659  15.921 -0.0870 -0.6017  0.0718
 8138SOL    HW136050   3.801   4.603  15.987  0.9557  2.0811  1.7300
 8138SOL    HW236051   3.808   0.004  15.930 -0.0634 -0.7402  1.1980
 8139SOL     OW36052   2.263   1.452   2.071 -0.3984 -0.7347  0.7376
 8139SOL    HW136053   2.212   1.386   2.024 -1.0566  0.2977  0.0106
 8139SOL    HW236054   2.190   1.496   2.114 -1.0269  0.8390 -1.9858
 8140SOL     OW36055   3.128   4.691   6.887  0.0458  0.2876  0.0400
 8140SOL    HW136056   3.167   4.604   6.877  0.2264  0.0125  2.9840
 8140SOL    HW236057   3.054   4.695   6.827 -0.2836  1.0713  0.5043
 8141SOL     OW36058   2.171   3.825   5.038 -0.2209 -0.4955  0.2716
 8141SOL    HW136059   2.232   3.890   5.005 -0.6226  0.2516  1.0119
 8141SOL    HW236060   2.106   3.882   5.079 -0.5348 -0.2489 -0.5775
 8142SOL     OW36061   2.359   0.300   2.808 -0.0809  0.9458 -0.2868
 8142SOL    HW136062   2.345   0.394   2.820  0.7730  0.8386  1.6306
 8142SOL    HW236063   2.288   0.263   2.755 -0.1769  1.8066 -0.7519
 8143SOL     OW36064   1.512   1.590   8.980 -0.0848 -0.0091  0.1824
 8143SOL    HW136065   1.449   1.639   9.033  1.1339  1.0421  0.6501
 8143SOL    HW236066   1.579   1.561   9.042 -0.0833  1.7555  1.0029
 8144SOL     OW36067   4.047   1.365   1.242  0.0718  0.4228  0.1267
 8144SOL    HW136068   3.977   1.319   1.196 -0.1418 -0.0127  0.8888
 8144SOL    HW236069   4.034   1.450   1.200  1.9945 -0.0391 -1.3897
 8145SOL     OW36070   3.732   4.516   5.537 -0.3872 -0.1884  0.2106
 8145SOL    HW136071   3.823   4.522   5.567  0.1228 -0.0275 -1.3868
 8145SOL    HW236072   3.748   4.533   5.444 -3.1073  0.6843 -0.1074
 8146SOL     OW36073   4.093   4.604   9.045  0.6390  0.0943  0.2681
 8146SOL    HW136074   4.141   4.670   9.094  1.1808  0.0684 -0.2316
 8146SOL    HW236075   4.021   4.658   9.011 -2.1870 -2.4350  2.1415
 8147SOL     OW36076   3.362   2.537   8.896 -0.2785 -0.0141 -0.3131
 8147SOL    HW136077   3.403   2.623   8.901  0.2548 -0.2146 -1.3902
 8147SOL    HW236078   3.360   2.509   8.805  0.6247  0.0545 -0.3448
 8148SOL     OW36079   0.626   3.487  14.517 -0.1247  0.1536  0.2489
 8148SOL    HW136080   0.721   3.478  14.508 -0.2487 -0.9509 -0.0219
 8148SOL    HW236081   0.605   3.562  14.462  0.5519  0.6286  0.6446
 8149SOL     OW36082   1.092   3.719   4.963  0.4939  0.4770  0.2892
 8149SOL    HW136083   1.029   3.674   4.907 -1.1921  1.5427  1.3549
 8149SOL    HW236084   1.145   3.771   4.902  1.0049 -0.7356 -0.3194
 8150SOL     OW36085   4.604   3.713   2.600  0.2146 -0.3863  0.0959
 8150SOL    HW136086   4.577   3.628   2.634  2.8447 -0.4861  1.9922
 8150SOL    HW236087   4.589   3.774   2.672 -0.4498  0.7939 -1.0422
 8151SOL     OW36088   0.438   2.917   2.173  0.5759  0.0416  0.0757
 8151SOL    HW136089   0.462   2.853   2.106  0.1685  0.9816 -0.9717
 8151SOL    HW236090   0.520   2.961   2.195 -0.4190  1.6656  0.5552
 8152SOL     OW36091   2.075   0.473   3.453 -0.7014  0.4341 -0.3553
 8152SOL    HW136092   2.053   0.414   3.525  0.5680  0.1139 -0.2408
 8152SOL    HW236093   2.149   0.427   3.415 -0.7151  1.1765 -1.2756
 8153SOL     OW36094   3.383   2.777  11.187  0.1428 -0.5098 -0.4560
 8153SOL    HW136095   3.472   2.804  11.162  0.1808  1.8063  2.2498
 8153SOL    HW236096   3.403   2.684  11.176 -3.4188 -1.2987 -0.2662
 8154SOL     OW36097   1.938   0.113   3.005  0.6022  0.6045  0.2097
 8154SOL    HW136098   1.886   0.159   3.071  0.9785 -0.8633  1.5469
 8154SOL    HW236099   2.007   0.073   3.059 -1.0280 -3.2690 -0.5745
 8155SOL     OW36100   4.611   2.211   8.533 -0.3656 -0.0943  0.4349
 8155SOL    HW136101   4.660   2.230   8.453 -0.6378  0.3985  0.3913
 8155SOL    HW236102   4.680   2.210   8.600  0.2295 -0.2949 -0.1864
 8156SOL     OW36103   3.963   2.911  15.045 -0.2251 -0.0680  0.1093
 8156SOL    HW136104   3.969   2.818  15.023  0.2280  0.3731 -1.6280
 8156SOL    HW236105   3.900   2.908  15.118 -0.6676 -2.3821 -0.3628
 8157SOL     OW36106   1.144   0.992   8.229 -0.1397  1.5247  0.2616
 8157SOL    HW136107   1.065   1.041   8.208 -1.3054 -0.5584 -0.1908
 8157SOL    HW236108   1.097   0.930   8.284  2.1460  0.2486  0.7888
 8158SOL     OW36109   3.243   2.239   4.911 -0.0038 -0.4762 -0.0473
 8158SOL    HW136110   3.249   2.274   4.822 -1.0070  0.5316  0.2792
 8158SOL    HW236111   3.337   2.229   4.921 -0.0543 -1.8430 -0.9771
 8159SOL     OW36112   4.335   3.077   7.306  0.5316 -0.0683  0.0238
 8159SOL    HW136113   4.407   3.103   7.363  0.1170  0.9127  0.1183
 8159SOL    HW236114   4.261   3.112   7.356 -0.6113  1.1513 -2.4895
 8160SOL     OW36115   1.569   4.081   8.387  0.3681 -0.1282 -0.1151
 8160SOL    HW136116   1.606   4.046   8.469 -0.3596 -1.5108 -0.3693
 8160SOL    HW236117   1.535   4.158   8.432  0.9476  0.1251 -0.1066
 8161SOL     OW36118   1.475   0.405   7.413 -0.0074  0.3344  0.1672
 8161SOL    HW136119   1.501   0.392   7.322 -2.2491  1.0494 -0.5722
 8161SOL    HW236120   1.420   0.483   7.402 -2.0340 -1.1143 -0.0273
 8162SOL     OW36121   2.276   1.810  11.342 -0.2774 -0.2814  0.5666
 8162SOL    HW136122   2.189   1.770  11.347 -0.6558  0.4156 -0.5007
 8162SOL    HW236123   2.245   1.898  11.368 -0.2715  0.0523 -0.5728
 8163SOL     OW36124   1.873   3.712   6.535 -0.2576 -0.3457  0.1618
 8163SOL    HW136125   1.881   3.619   6.512 -1.5534 -0.5691  0.6169
 8163SOL    HW236126   1.836   3.704   6.623 -0.5656 -2.9384 -0.1961
 8164SOL     OW36127   1.888   1.200  12.281  0.3343 -0.2196  0.4877
 8164SOL    HW136128   1.797   1.171  12.294 -0.5029  2.3279  0.4048
 8164SOL    HW236129   1.918   1.139  12.214 -0.7242 -0.3108  0.0891
 8165SOL     OW36130   2.543   0.663   7.988 -0.0394  0.2232  0.3948
 8165SOL    HW136131   2.612   0.664   8.054  1.9263 -0.4949 -1.6534
 8165SOL    HW236132   2.511   0.572   7.991 -0.3747  0.3145 -0.5300
 8166SOL     OW36133   4.707   3.382  12.577 -0.1844  0.4085 -0.2363
 8166SOL    HW136134   4.698   3.455  12.516 -0.9324  0.0350 -0.5676
 8166SOL    HW236135   0.062   3.383  12.598 -0.1493  0.6595 -0.4011
 8167SOL     OW36136   3.762   2.956  10.463  0.2455  0.4478  0.2267
 8167SOL    HW136137   3.696   2.906  10.511  1.0962  0.2644  1.2089
 8167SOL    HW236138   3.708   3.033  10.445 -0.8755 -0.1701  0.8978
 8168SOL     OW36139   0.935   3.464  15.433 -0.7740  0.2394  0.0037
 8168SOL    HW136140   0.865   3.406  15.403 -0.2186 -1.7337  2.5065
 8168SOL    HW236141   0.985   3.405  15.490 -2.9289 -0.8611  0.7496
 8169SOL     OW36142   3.217   4.495   2.998  0.0775 -0.3481 -0.3073
 8169SOL    HW136143   3.292   4.532   2.951 -0.4224 -1.4667 -1.9829
 8169SOL    HW236144   3.193   4.428   2.934 -0.1787  0.3875 -0.9769
 8170SOL     OW36145   1.138   3.024   5.373  0.2515 -0.1733  0.5705
 8170SOL    HW136146   1.222   3.069   5.378  0.6266 -0.7651 -0.4462
 8170SOL    HW236147   1.110   3.022   5.282 -0.1060 -0.4662  0.6836
 8171SOL     OW36148   0.462   1.609  12.076 -0.4688 -0.1916  0.2341
 8171SOL    HW136149   0.488   1.700  12.090 -1.5246  0.3660 -1.3902
 8171SOL    HW236150   0.472   1.612  11.981  1.0456 -1.6056  0.3542
 8172SOL     OW36151   2.731   3.700   7.868 -0.1457  0.2586 -0.3197
 8172SOL    HW136152   2.717   3.763   7.797 -1.9084  0.6694  0.3809
 8172SOL    HW236153   2.653   3.705   7.923 -0.7289 -2.4578 -0.8761
 8173SOL     OW36154   2.066   1.284   1.913 -0.0764 -0.7082  0.0505
 8173SOL    HW136155   1.976   1.305   1.937  0.7517  2.0920  0.6905
 8173SOL    HW236156   2.072   1.201   1.960  0.5041 -0.2482  0.7802
 8174SOL     OW36157   2.038   2.545   4.730  0.2419  0.3202 -0.3041
 8174SOL    HW136158   1.943   2.537   4.734  0.3783 -0.8972  0.4298
 8174SOL    HW236159   2.046   2.534   4.635  1.4383 -1.2412 -0.0270
 8175SOL     OW36160   4.545   3.540  10.652 -0.5370 -0.6401  0.1375
 8175SOL    HW136161   4.626   3.490  10.642 -1.4571 -2.0356 -0.3256
 8175SOL    HW236162   4.476   3.507  10.594  0.2194 -0.0489 -1.1171
 8176SOL     OW36163   1.400   1.393   6.618 -0.0864  0.5054  0.2637
 8176SOL    HW136164   1.465   1.335   6.580  0.0466  1.4946 -1.0529
 8176SOL    HW236165   1.346   1.333   6.669 -1.7289  1.5181 -0.2471
 8177SOL     OW36166   0.402   3.196  17.598  0.1291 -0.0457  0.3058
 8177SOL    HW136167   0.471   3.206  17.664  2.5290 -0.7093 -2.0905
 8177SOL    HW236168   0.394   3.101  17.590 -1.6318  0.3037 -2.1229
 8178SOL     OW36169   2.248   3.688   6.879 -0.4484  0.1872 -0.1268
 8178SOL    HW136170   2.206   3.645   6.804 -1.8491  0.8668  0.2673
 8178SOL    HW236171   2.316   3.737   6.831  0.9295 -1.9636 -0.3802
 8179SOL     OW36172   4.309   0.177  11.339 -0.2730 -0.1983  0.2449
 8179SOL    HW136173   4.294   0.200  11.431 -4.0909  0.7182 -0.6075
 8179SOL    HW236174   4.387   0.123  11.331  1.1683  1.7544  1.2267
 8180SOL     OW36175   1.860   0.302   2.578  0.0991  0.0791 -0.6466
 8180SOL    HW136176   1.887   0.227   2.631 -3.3482 -0.4213  0.3777
 8180SOL    HW236177   1.943   0.349   2.577 -0.7720  1.6070  0.5003
 8181SOL     OW36178   0.720   1.886   8.507 -0.4931 -0.3312  0.9472
 8181SOL    HW136179   0.784   1.908   8.440 -0.9528  0.5004  0.7851
 8181SOL    HW236180   0.685   1.805   8.470  0.7927 -1.2607  1.7782
 8182SOL     OW36181   4.722   0.783  11.162  0.1994  0.0094  0.5840
 8182SOL    HW136182   0.013   0.695  11.137 -0.6956 -0.2951  0.5784
 8182SOL    HW236183   0.065   0.827  11.188 -0.2685  1.9820 -1.2742
 8183SOL     OW36184   0.606   2.253   3.958  0.4134  0.2316  0.0081
 8183SOL    HW136185   0.685   2.211   3.925  1.0309  1.8624 -0.5998
 8183SOL    HW236186   0.561   2.169   3.963  1.1796 -0.1992 -0.2923
 8184SOL     OW36187   0.554   2.375   9.055  0.7204  0.1864  0.1529
 8184SOL    HW136188   0.513   2.327   8.984  2.4604 -0.4235 -0.4413
 8184SOL    HW236189   0.610   2.439   9.011  1.1426  0.4914  1.1171
 8185SOL     OW36190   1.082   3.388  15.673 -0.0679 -0.1176  0.4575
 8185SOL    HW136191   1.150   3.401  15.739  1.5281 -1.3985 -0.9494
 8185SOL    HW236192   1.044   3.304  15.699  0.7984 -0.1642  1.5779
 8186SOL     OW36193   0.100   1.423   4.671  0.2979 -0.1216  0.3712
 8186SOL    HW136194   0.089   1.337   4.712 -1.2487 -0.3537 -0.5574
 8186SOL    HW236195   0.010   1.441   4.645  0.7855  0.0063 -1.2376
 8187SOL     OW36196   0.217   3.643   5.951  0.0190  0.4567 -0.0361
 8187SOL    HW136197   0.302   3.601   5.936 -0.0613 -0.1214  1.1544
 8187SOL    HW236198   0.242   3.733   5.930  0.7929  0.4898  0.9887
 8188SOL     OW36199   1.381   1.519   6.302  0.1097  0.5511 -0.0776
 8188SOL    HW136200   1.383   1.477   6.388 -0.3479  0.4192 -0.1292
 8188SOL    HW236201   1.470   1.515   6.267  0.2981 -0.1287  0.4774
 8189SOL     OW36202   2.551   3.013  12.905 -0.1387 -0.0528  0.2685
 8189SOL    HW136203   2.562   2.920  12.924  0.4595 -0.2372 -0.9412
 8189SOL    HW236204   2.457   3.028  12.918 -0.7133 -3.6343  0.2065
 8190SOL     OW36205   3.043   1.461   3.009 -0.2051  0.2458 -0.3243
 8190SOL    HW136206   3.016   1.376   2.976 -1.5647  0.7200 -0.4318
 8190SOL    HW236207   3.034   1.513   2.928  1.6296 -0.7376 -1.1671
 8191SOL     OW36208   1.439   0.466  10.677 -0.9588  0.2718  0.5922
 8191SOL    HW136209   1.383   0.400  10.635 -0.5398  0.6304 -0.5212
 8191SOL    HW236210   1.439   0.433  10.767 -1.2829  2.5993  1.4339
 8192SOL     OW36211   0.704   3.162   7.258 -0.0854  0.0894 -0.0657
 8192SOL    HW136212   0.744   3.249   7.249  1.6463 -0.8066 -0.9662
 8192SOL    HW236213   0.719   3.129   7.169 -0.1585 -1.4772  0.5036
 8193SOL     OW36214   2.717   0.055   3.669  0.3097 -0.4947  0.0020
 8193SOL    HW136215   2.788   4.730   3.682  1.0283  0.6083  1.3349
 8193SOL    HW236216   2.727   0.072   3.576  1.6441 -2.0372 -0.1470
 8194SOL     OW36217   2.887   3.167  11.237 -0.2863 -0.1380 -0.7818
 8194SOL    HW136218   2.894   3.081  11.279  2.3630  1.0962  1.3744
 8194SOL    HW236219   2.953   3.220  11.282 -1.2394 -0.3173  0.8352
 8195SOL     OW36220   2.828   1.288  16.977 -0.2685  0.1085  0.6890
 8195SOL    HW136221   2.873   1.276  17.061 -0.5478  0.4384  0.8843
 8195SOL    HW236222   2.761   1.220  16.985  0.0038  0.0704  2.7933
 8196SOL     OW36223   4.710   1.805   2.403 -0.2478 -0.0618 -0.2874
 8196SOL    HW136224   4.722   1.717   2.438 -0.2543 -0.6620 -1.8196
 8196SOL    HW236225   4.636   1.788   2.346 -0.6880 -0.0829  0.2896
 8197SOL     OW36226   0.358   1.593   1.714 -0.3438  0.1202  0.3489
 8197SOL    HW136227   0.421   1.650   1.758  0.2678  0.3293 -0.8133
 8197SOL    HW236228   0.413   1.525   1.677 -1.9340  0.3739 -2.5046
 8198SOL     OW36229   3.072   4.360   8.694  0.4604 -0.4468  0.1641
 8198SOL    HW136230   3.166   4.349   8.707  0.7121  0.7545 -0.6063
 8198SOL    HW236231   3.038   4.272   8.709  0.0018 -0.3544 -0.3276
 8199SOL     OW36232   2.711   0.323   5.499 -0.0808  0.9562 -0.1992
 8199SOL    HW136233   2.786   0.352   5.550  0.7282 -0.1027 -0.7804
 8199SOL    HW236234   2.740   0.353   5.412 -0.2941  0.6048 -0.3933
 8200SOL     OW36235   4.220   2.647  10.927  0.4514  0.3000 -0.4099
 8200SOL    HW136236   4.202   2.635  10.834 -1.8832 -0.1554  0.0806
 8200SOL    HW236237   4.142   2.694  10.957  1.0150  1.7132 -1.1749
 8201SOL     OW36238   2.458   2.037   7.258 -0.0687  0.3297  0.0441
 8201SOL    HW136239   2.425   2.003   7.341 -1.1995 -0.5982 -0.7797
 8201SOL    HW236240   2.519   2.110   7.270  1.4260 -0.8256 -0.5192
 8202SOL     OW36241   2.561   2.608   8.501 -0.1181  0.0712 -0.4317
 8202SOL    HW136242   2.608   2.691   8.497  0.4124 -0.1938  0.3725
 8202SOL    HW236243   2.574   2.585   8.593  1.5345  3.0306  0.0703
 8203SOL     OW36244   1.168   3.328   8.059 -0.3092 -0.5797  0.6305
 8203SOL    HW136245   1.186   3.303   7.968 -1.7698  1.3993 -0.2003
 8203SOL    HW236246   1.145   3.240   8.090  0.7103 -0.4397  1.7892
 8204SOL     OW36247   4.677   1.733   6.776  0.5455  0.5116 -0.4077
 8204SOL    HW136248   4.584   1.719   6.759 -0.1966  2.7608  1.7923
 8204SOL    HW236249   4.717   1.651   6.749 -0.8809  0.5126 -2.5100
 8205SOL     OW36250   1.935   2.431   4.032  0.7738  0.3108  0.7930
 8205SOL    HW136251   1.870   2.368   4.063  1.2912 -0.2440  0.7604
 8205SOL    HW236252   1.937   2.431   3.936 -1.7290 -5.4856  0.7571
 8206SOL     OW36253   2.539   2.995  13.622  0.3266 -0.4141  0.1563
 8206SOL    HW136254   2.592   3.075  13.610 -0.4865 -0.1932 -1.8812
 8206SOL    HW236255   2.595   2.926  13.587 -0.6168 -0.5384 -1.0708
 8207SOL     OW36256   0.967   1.065   8.519  0.1738 -0.3332  0.4336
 8207SOL    HW136257   0.915   1.071   8.439  0.6400 -0.9764  0.0788
 8207SOL    HW236258   1.055   1.065   8.481 -0.7270  0.2083 -1.6457
 8208SOL     OW36259   0.972   1.428   7.071 -0.0203 -0.3921 -0.4510
 8208SOL    HW136260   1.017   1.507   7.042  0.4475 -1.1027 -1.6472
 8208SOL    HW236261   1.020   1.409   7.151  2.3452  0.9092 -1.5786
 8209SOL     OW36262   1.075   3.059   8.093  0.1372  0.6270 -0.4671
 8209SOL    HW136263   1.142   3.006   8.049 -2.2610 -2.5638 -0.3026
 8209SOL    HW236264   0.988   3.030   8.066  1.0045 -1.2802 -1.2136
 8210SOL     OW36265   0.560   3.899   0.772  0.0584  0.5005  0.6876
 8210SOL    HW136266   0.601   3.953   0.706 -1.2536 -2.3609 -2.4691
 8210SOL    HW236267   0.613   3.820   0.776 -1.2221 -0.5092 -2.3565
 8211SOL     OW36268   3.881   3.722  13.316  0.1013 -0.6767 -0.2328
 8211SOL    HW136269   3.927   3.769  13.385  0.7616 -0.6431 -0.6950
 8211SOL    HW236270   3.937   3.737  13.240 -0.6161  2.6555 -0.0905
 8212SOL     OW36271   0.491   4.268   5.010 -0.0750 -0.3265 -0.3681
 8212SOL    HW136272   0.444   4.184   5.012  1.9258 -1.3964  0.9627
 8212SOL    HW236273   0.515   4.261   5.102 -0.5067 -2.6749 -0.4205
 8213SOL     OW36274   2.234   1.973   1.424  0.4543  0.3729 -0.0656
 8213SOL    HW136275   2.296   1.934   1.363  0.9854  0.1481  0.6119
 8213SOL    HW236276   2.193   2.032   1.360 -0.9996 -0.5024  0.0533
 8214SOL     OW36277   4.738   0.793   7.530 -0.6068 -0.6078  0.1448
 8214SOL    HW136278   0.089   0.819   7.508 -1.4275  1.1552 -1.0809
 8214SOL    HW236279   4.724   0.708   7.489 -0.1655 -0.5160 -0.1873
 8215SOL     OW36280   2.181   4.358   8.927  0.3724 -0.0447  0.2345
 8215SOL    HW136281   2.271   4.327   8.919 -0.2914 -1.3352 -2.1868
 8215SOL    HW236282   2.168   4.392   8.838  1.3207 -1.3714 -0.4078
 8216SOL     OW36283   1.619   1.935   3.139 -0.5356  0.1398 -0.0502
 8216SOL    HW136284   1.554   1.908   3.204 -0.1499 -3.3098 -1.1196
 8216SOL    HW236285   1.677   1.978   3.202 -0.4778  0.0444 -0.0394
 8217SOL     OW36286   3.893   3.370   3.830 -0.5302 -0.3581  0.2030
 8217SOL    HW136287   3.915   3.328   3.913  2.2017  0.6607 -0.0014
 8217SOL    HW236288   3.849   3.452   3.853 -0.6525  0.1781 -1.9831
 8218SOL     OW36289   3.030   1.992   8.863 -0.1158  0.0593  0.6963
 8218SOL    HW136290   3.005   1.926   8.799 -0.8762  0.5142  0.5212
 8218SOL    HW236291   3.080   2.050   8.806 -2.0496  0.4637 -0.5996
 8219SOL     OW36292   3.884   4.020   2.742  0.0569 -0.1931  0.4209
 8219SOL    HW136293   3.904   3.927   2.731  0.5858 -0.1268  0.8017
 8219SOL    HW236294   3.941   4.062   2.677  0.5664 -1.2966  0.1498
 8220SOL     OW36295   0.501   2.327   0.894  0.1843 -0.4571  0.4415
 8220SOL    HW136296   0.535   2.244   0.927  1.9605 -0.9746 -2.7102
 8220SOL    HW236297   0.472   2.300   0.807  0.3618 -0.9082  0.5248
 8221SOL     OW36298   0.279   2.543   0.439 -0.5241 -0.2378  0.2104
 8221SOL    HW136299   0.192   2.503   0.445  1.5472 -4.5502  1.4685
 8221SOL    HW236300   0.274   2.605   0.511 -0.5974 -1.1228  0.9627
 8222SOL     OW36301   3.375   3.380   8.452  0.3680  0.2435  0.1266
 8222SOL    HW136302   3.288   3.345   8.435  0.7066 -0.6390  0.2420
 8222SOL    HW236303   3.432   3.304   8.442  0.5568  0.1200  2.1680
 8223SOL     OW36304   2.351   0.638  12.776  0.6970 -0.0169  0.0563
 8223SOL    HW136305   2.363   0.610  12.685 -2.5961 -0.6603 -0.1834
 8223SOL    HW236306   2.373   0.556  12.820  0.1715 -0.3187 -0.2390
 8224SOL     OW36307   4.123   2.630   5.738  0.0010  0.5041 -0.0220
 8224SOL    HW136308   4.145   2.721   5.756  1.5022  0.4952 -1.7846
 8224SOL    HW236309   4.149   2.592   5.822 -1.4877  0.5187  0.4404
 8225SOL     OW36310   2.923   3.405   4.506 -0.0346  0.3922  0.0525
 8225SOL    HW136311   2.903   3.481   4.560  1.9228  0.9445 -0.0053
 8225SOL    HW236312   2.982   3.349   4.555  0.1408  0.6515  0.1374
 8226SOL     OW36313   0.594   3.508  17.680 -0.2233  0.1968 -0.1965
 8226SOL    HW136314   0.596   3.598  17.712  0.7661 -0.5051  1.6887
 8226SOL    HW236315   0.658   3.472  17.741  2.2758  2.1291 -1.7084
 8227SOL     OW36316   1.810   1.297   5.110 -0.1292 -0.2352  0.0994
 8227SOL    HW136317   1.849   1.385   5.106 -0.5444 -0.1209 -1.3225
 8227SOL    HW236318   1.727   1.315   5.067 -0.4121 -0.0214  0.7396
 8228SOL     OW36319   1.598   2.408  13.405  0.0947 -0.1536 -0.6603
 8228SOL    HW136320   1.549   2.403  13.488 -1.8151  0.3447 -1.7412
 8228SOL    HW236321   1.625   2.499  13.405  3.7583 -1.2553 -1.6204
 8229SOL     OW36322   1.972   3.058  12.551  0.3191 -0.5987 -0.2835
 8229SOL    HW136323   1.891   3.071  12.601  0.2621 -0.3024 -0.4488
 8229SOL    HW236324   2.036   3.097  12.611  2.1734 -1.3538 -1.7910
 8230SOL     OW36325   4.467   1.382   5.771 -0.4898  0.4306  0.0213
 8230SOL    HW136326   4.405   1.439   5.816  0.7974  1.7635  0.1105
 8230SOL    HW236327   4.427   1.297   5.758  0.6914 -0.1079 -0.1181
 8231SOL     OW36328   1.510   1.917   8.273 -0.1455  0.0100 -0.1056
 8231SOL    HW136329   1.454   1.991   8.251  0.3653  1.0275  1.9891
 8231SOL    HW236330   1.500   1.911   8.368  1.7441  1.5471  0.1971
 8232SOL     OW36331   4.108   1.323   4.113  0.0497 -0.4749  0.2149
 8232SOL    HW136332   4.046   1.393   4.093  2.9404  2.0893  0.2679
 8232SOL    HW236333   4.181   1.375   4.146 -0.2963 -0.5611  1.1112
 8233SOL     OW36334   0.034   3.791  11.490 -0.1676 -0.3443 -0.4992
 8233SOL    HW136335   0.101   3.724  11.505 -1.1258 -1.5420 -1.6365
 8233SOL    HW236336   0.052   3.812  11.399 -0.0325  2.8246  0.2640
 8234SOL     OW36337   3.760   0.590   8.388  0.0377  0.0441 -0.3584
 8234SOL    HW136338   3.720   0.621   8.307 -0.1109  0.0861 -0.2688
 8234SOL    HW236339   3.795   0.505   8.360 -1.1843 -0.3126 -0.7664
 8235SOL     OW36340   4.522   4.459   5.441 -0.1965  0.6217  0.0821
 8235SOL    HW136341   4.509   4.388   5.378  1.6572 -1.0231  1.5503
 8235SOL    HW236342   4.610   4.481   5.412 -0.1818  1.7397  0.9735
 8236SOL     OW36343   3.410   1.601   1.715 -0.0937  0.3914  0.5597
 8236SOL    HW136344   3.317   1.609   1.737  0.1627  3.1197  0.6152
 8236SOL    HW236345   3.418   1.516   1.671 -0.0843 -0.1336  1.5795
 8237SOL     OW36346   0.958   3.802   1.722  0.0424 -0.4056 -0.0934
 8237SOL    HW136347   1.033   3.815   1.779  0.8293 -0.2216 -1.1759
 8237SOL    HW236348   0.900   3.874   1.748  1.6065  0.7528  0.1865
 8238SOL     OW36349   4.456   0.427   1.024  0.6655  0.5489  0.7246
 8238SOL    HW136350   4.510   0.404   0.948  1.9996  1.5693  1.3417
 8238SOL    HW236351   4.494   0.504   1.066  1.4681  1.3329 -1.4233
 8239SOL     OW36352   1.146   3.088   7.484 -0.3379  0.3068  0.6784
 8239SOL    HW136353   1.138   3.182   7.468 -1.7759  0.0808 -0.0045
 8239SOL    HW236354   1.082   3.081   7.555 -0.8063  2.9198  0.5089
 8240SOL     OW36355   1.956   2.824   0.478 -0.4288  0.0558  0.1660
 8240SOL    HW136356   1.904   2.744   0.468 -0.8837  0.3872 -0.1373
 8240SOL    HW236357   2.031   2.802   0.533 -1.9415 -0.5517  2.0066
 8241SOL     OW36358   0.708   4.675   8.298 -0.1092  0.7010  0.2254
 8241SOL    HW136359   0.782   4.679   8.358  1.8277  1.9479 -2.2014
 8241SOL    HW236360   0.761   4.710   8.226 -1.6734  0.7712 -0.9080
 8242SOL     OW36361   1.062   1.665   6.451  0.0091  0.0537  0.1458
 8242SOL    HW136362   1.131   1.684   6.387 -1.7714  1.8849 -1.2209
 8242SOL    HW236363   1.062   1.749   6.497  0.3790 -0.8089  1.7192
 8243SOL     OW36364   2.445   0.682   6.384 -0.4226  0.3244  0.1408
 8243SOL    HW136365   2.447   0.667   6.290  2.4887  0.4582  0.1926
 8243SOL    HW236366   2.398   0.607   6.421 -0.1527 -0.0891 -0.3490
 8244SOL     OW36367   1.329   3.312  12.609 -0.0027  0.5570 -0.0783
 8244SOL    HW136368   1.345   3.381  12.545  0.3923  1.5431  1.0855
 8244SOL    HW236369   1.381   3.356  12.676 -0.0560 -2.2862  1.8641
 8245SOL     OW36370   0.399   2.534   4.957  0.6177 -0.5402  0.0415
 8245SOL    HW136371   0.448   2.508   5.035  1.4922 -1.2458 -0.7418
 8245SOL    HW236372   0.317   2.568   4.993 -0.2830  1.1671 -3.5248
 8246SOL     OW36373   2.587   4.242   0.807 -0.2484 -0.4804 -0.1305
 8246SOL    HW136374   2.604   4.308   0.739  1.6873 -1.1699 -0.2898
 8246SOL    HW236375   2.535   4.181   0.755 -0.0192 -1.1671  0.4555
 8247SOL     OW36376   3.056   3.961   4.312 -0.0618  0.0265  0.0292
 8247SOL    HW136377   2.962   3.950   4.328  0.1457 -0.1285  1.1517
 8247SOL    HW236378   3.065   3.890   4.249 -0.7966  0.5297 -0.6504
 8248SOL     OW36379   3.370   4.728   2.416  0.4015  0.6731 -0.1032
 8248SOL    HW136380   3.422   0.063   2.385 -1.3973  2.0973  0.2587
 8248SOL    HW236381   3.432   4.692   2.480  0.2514 -2.2074 -1.5705
 8249SOL     OW36382   3.460   2.674   4.631  0.3457 -0.1650  0.4822
 8249SOL    HW136383   3.482   2.764   4.656  1.0950 -0.4798  0.9665
 8249SOL    HW236384   3.443   2.650   4.722  2.0312 -0.0003  0.8532
 8250SOL     OW36385   4.579   4.079   6.007 -0.6140 -0.0852 -0.3247
 8250SOL    HW136386   4.662   4.118   6.037 -0.5150 -0.4672 -0.0946
 8250SOL    HW236387   4.520   4.153   5.994 -0.9224 -0.1411  0.7441
 8251SOL     OW36388   1.189   3.733   8.791  0.9263  0.0243  0.1014
 8251SOL    HW136389   1.240   3.673   8.738 -0.6171  0.2396 -1.6241
 8251SOL    HW236390   1.224   3.715   8.878 -1.2659 -0.8403  0.8199
 8252SOL     OW36391   3.224   4.018   0.639 -0.1909  0.1838 -0.2949
 8252SOL    HW136392   3.281   3.947   0.612 -0.5392  0.5075 -1.8598
 8252SOL    HW236393   3.143   3.971   0.659  0.2480  0.2417  1.6579
 8253SOL     OW36394   0.324   2.106   5.406  0.1000 -0.1135  0.3680
 8253SOL    HW136395   0.305   2.196   5.379 -0.7476 -0.3853  0.0448
 8253SOL    HW236396   0.248   2.091   5.462  0.1758  0.6497  0.6723
 8254SOL     OW36397   0.411   4.011  11.445 -0.2695  0.0179  0.4493
 8254SOL    HW136398   0.322   4.040  11.466 -0.4297  1.0229 -1.6476
 8254SOL    HW236399   0.413   4.019  11.350  0.2231 -1.5105  0.3259
 8255SOL     OW36400   1.589   2.340  14.220  0.0684  0.4877 -0.0022
 8255SOL    HW136401   1.659   2.309  14.278  1.9049  2.7206 -0.9999
 8255SOL    HW236402   1.559   2.258  14.183 -0.3165  0.3233  0.6677
 8256SOL     OW36403   4.273   4.065  11.843 -0.7376 -0.1597 -0.0662
 8256SOL    HW136404   4.285   4.116  11.923 -0.4080 -1.6475  0.8342
 8256SOL    HW236405   4.183   4.035  11.850 -0.9832  0.9848  1.6649
 8257SOL     OW36406   1.248   0.229   4.903 -0.4164  0.2870  0.6049
 8257SOL    HW136407   1.188   0.155   4.900 -0.7020  0.5924 -1.1647
 8257SOL    HW236408   1.179   0.295   4.914 -1.1139 -0.5211  1.0316
 8258SOL     OW36409   3.762   1.066   6.072  0.0879 -0.0349 -0.0227
 8258SOL    HW136410   3.848   1.045   6.109 -0.1027 -0.6846  0.0585
 8258SOL    HW236411   3.718   1.085   6.155  0.3047 -4.3004  1.0716
 8259SOL     OW36412   1.486   2.543   2.275  0.4870  0.0411  0.1673
 8259SOL    HW136413   1.395   2.571   2.278  0.7453  0.7277  1.8340
 8259SOL    HW236414   1.527   2.605   2.214 -1.4078  1.3858  0.2557
 8260SOL     OW36415   4.133   4.668   0.772  0.1594 -0.0734  0.3411
 8260SOL    HW136416   4.051   4.679   0.723  1.2985  1.3962 -1.2276
 8260SOL    HW236417   4.163   4.587   0.731 -1.7742 -1.3969  1.5035
 8261SOL     OW36418   4.587   3.917   5.334  0.4642 -0.3510  0.2561
 8261SOL    HW136419   4.558   3.980   5.400  0.4689 -0.7175  0.6133
 8261SOL    HW236420   4.655   3.870   5.381 -0.2543 -0.4966  1.1530
 8262SOL     OW36421   0.196   0.203  15.485 -0.0421 -0.2173 -0.2476
 8262SOL    HW136422   0.248   0.238  15.558 -0.4915 -1.9581  0.9048
 8262SOL    HW236423   0.265   0.199  15.419  1.0057  0.2900  0.7986
 8263SOL     OW36424   1.273   4.380  15.860 -0.3042  0.1970 -0.1802
 8263SOL    HW136425   1.279   4.397  15.766 -2.6161 -1.2836 -0.6027
 8263SOL    HW236426   1.207   4.445  15.885  0.0267  0.6421 -0.4678
 8264SOL     OW36427   2.912   1.620   9.921 -0.3127  0.1241  0.4154
 8264SOL    HW136428   2.957   1.648  10.000  2.2212  0.5919 -1.2156
 8264SOL    HW236429   2.834   1.676   9.919  0.9201  1.7583 -1.0778
 8265SOL     OW36430   1.558   4.227   2.333  0.4428  0.1291  0.0946
 8265SOL    HW136431   1.473   4.212   2.293  0.8146 -0.8029 -0.3511
 8265SOL    HW236432   1.541   4.170   2.407  0.2859  1.1930  0.8747
 8266SOL     OW36433   2.254   2.312   2.049  0.0228 -0.2119  0.3930
 8266SOL    HW136434   2.307   2.359   2.113 -0.4634 -0.5454  1.0413
 8266SOL    HW236435   2.245   2.386   1.989  1.2438  0.9489  1.6490
 8267SOL     OW36436   2.359   0.304  10.150  0.2839  0.3308 -0.0239
 8267SOL    HW136437   2.343   0.286  10.243 -2.1522 -0.8704 -0.6763
 8267SOL    HW236438   2.329   0.395  10.153  2.3077  0.9598  0.9308
 8268SOL     OW36439   0.021   0.994  16.816  0.2045  0.6379  0.0022
 8268SOL    HW136440   0.079   0.965  16.746 -1.6215 -1.4649 -0.6401
 8268SOL    HW236441   0.082   1.001  16.889  0.7482  2.4716 -0.6158
 8269SOL     OW36442   0.467   1.807   2.753 -0.1543 -0.1862 -0.4756
 8269SOL    HW136443   0.482   1.781   2.844  0.3429 -3.0484 -1.3803
 8269SOL    HW236444   0.416   1.888   2.753  1.8334  1.0647  0.7122
 8270SOL     OW36445   0.503   1.587   4.411 -0.1535 -0.0611 -0.0677
 8270SOL    HW136446   0.517   1.494   4.429 -0.3240  0.2699  1.8315
 8270SOL    HW236447   0.424   1.597   4.464  1.0530  1.8336  1.3425
 8271SOL     OW36448   2.109   3.181  14.269  0.3298  0.0475  0.3574
 8271SOL    HW136449   2.155   3.137  14.198 -0.1243 -0.6144  0.4744
 8271SOL    HW236450   2.115   3.118  14.341 -0.7221  0.7101  1.0271
 8272SOL     OW36451   4.123   0.124  16.187  0.2186 -0.0557 -0.2531
 8272SOL    HW136452   4.184   0.197  16.179  1.5135 -0.9422  1.3318
 8272SOL    HW236453   4.070   0.140  16.266  0.4356  1.2836 -0.3826
 8273SOL     OW36454   1.284   0.199   3.791 -0.0857  0.1037 -0.4745
 8273SOL    HW136455   1.304   0.152   3.872  0.0455 -1.6200 -1.5168
 8273SOL    HW236456   1.250   0.282   3.824  2.3900  1.1277 -0.5180
 8274SOL     OW36457   3.382   3.720   1.397 -0.2820  0.1751 -0.0932
 8274SOL    HW136458   3.366   3.678   1.313 -0.3957  0.5881 -0.2791
 8274SOL    HW236459   3.322   3.671   1.453 -0.0113 -1.6104 -1.3423
 8275SOL     OW36460   0.170   3.511   2.587  0.0455 -0.1084  0.4151
 8275SOL    HW136461   0.159   3.491   2.494  2.8327  0.5133 -0.0439
 8275SOL    HW236462   0.146   3.425   2.622  3.0376 -0.5122  1.4712
 8276SOL     OW36463   0.022   3.197  15.236  0.2381 -0.2181 -0.1423
 8276SOL    HW136464   0.094   3.134  15.251  1.3422  1.6506  2.4148
 8276SOL    HW236465   0.044   3.263  15.301 -1.9969 -0.1041  0.4807
 8277SOL     OW36466   0.428   1.764   1.328  0.0399  0.3151  0.3575
 8277SOL    HW136467   0.335   1.771   1.351 -0.0340 -0.0638  0.1639
 8277SOL    HW236468   0.438   1.810   1.245  2.8748  0.2735  0.6844
 8278SOL     OW36469   2.850   2.287   8.726  0.3758 -0.3598 -0.5354
 8278SOL    HW136470   2.816   2.238   8.651 -0.2135  2.6908 -2.3098
 8278SOL    HW236471   2.816   2.242   8.803 -0.0173 -1.8554 -1.6042
 8279SOL     OW36472   2.774   1.048   6.410 -0.1867  0.3029 -0.1687
 8279SOL    HW136473   2.760   0.966   6.363 -1.9103  2.0142 -2.6335
 8279SOL    HW236474   2.849   1.070   6.355  1.0605 -2.8822  0.2408
 8280SOL     OW36475   3.041   3.129   4.818  0.0872  0.1022 -0.2136
 8280SOL    HW136476   3.091   3.129   4.736  3.1479  1.8735  1.6323
 8280SOL    HW236477   2.950   3.135   4.791 -0.2084 -1.2233  0.4953
 8281SOL     OW36478   2.558   2.518   3.873 -0.1419 -0.0542  1.0042
 8281SOL    HW136479   2.644   2.482   3.856 -0.0287  0.4474  0.5099
 8281SOL    HW236480   2.512   2.486   3.796 -2.4833  1.1945  1.8695
 8282SOL     OW36481   3.578   2.107   3.995  0.3909 -0.7168  0.2153
 8282SOL    HW136482   3.508   2.046   4.017  1.0182 -0.2553  3.5216
 8282SOL    HW236483   3.537   2.155   3.923  2.2979  0.2826 -0.2061
 8283SOL     OW36484   3.561   0.734   3.274  0.3503 -0.1996 -0.6407
 8283SOL    HW136485   3.500   0.772   3.211  0.9085  0.3449 -0.8502
 8283SOL    HW236486   3.599   0.660   3.227  0.0323  0.8774 -2.6152
 8284SOL     OW36487   2.029   2.804   4.338 -0.2564 -0.1419 -0.2826
 8284SOL    HW136488   1.933   2.809   4.341 -0.2966 -1.1191  0.1015
 8284SOL    HW236489   2.050   2.847   4.420 -1.0580  0.0802 -0.1844
 8285SOL     OW36490   4.347   2.106   5.432  0.0853  0.1211 -0.0872
 8285SOL    HW136491   4.397   2.172   5.383 -0.1646 -1.5903 -2.6134
 8285SOL    HW236492   4.259   2.138   5.411  0.1745  0.2627 -0.2456
 8286SOL     OW36493   0.033   2.217  10.192  0.1812  0.3628 -0.0266
 8286SOL    HW136494   0.106   2.185  10.244 -1.0601 -0.6417  1.0810
 8286SOL    HW236495   4.723   2.256  10.264  0.2932  1.0735 -0.3373
 8287SOL     OW36496   2.273   3.083  17.394 -0.0068  0.3822 -0.1671
 8287SOL    HW136497   2.342   3.019  17.414 -1.8267 -1.9867 -1.4261
 8287SOL    HW236498   2.323   3.157  17.360 -0.4109  0.8111  0.1895
 8288SOL     OW36499   3.867   1.325   2.692 -0.2243 -0.1208 -0.2444
 8288SOL    HW136500   3.882   1.349   2.783 -0.0317  0.8447 -0.5225
 8288SOL    HW236501   3.875   1.408   2.644 -0.7219  1.7953  2.9949
 8289SOL     OW36502   1.530   4.447  13.010  0.2541  0.0425  0.4524
 8289SOL    HW136503   1.554   4.365  12.968 -0.2825 -0.3762  0.9522
 8289SOL    HW236504   1.571   4.430  13.095  1.1671 -0.5513 -0.1086
 8290SOL     OW36505   0.960   0.757  13.337  0.3438 -0.5982 -0.6279
 8290SOL    HW136506   0.982   0.692  13.271  0.2236 -0.9356 -0.3421
 8290SOL    HW236507   0.971   0.838  13.288  1.2100  0.7612  1.8112
 8291SOL     OW36508   1.271   0.976   5.719 -0.0881 -0.3032  0.1046
 8291SOL    HW136509   1.197   0.978   5.659 -0.2543 -2.3055  0.2469
 8291SOL    HW236510   1.347   0.943   5.671  0.8804 -0.2053  1.5545
 8292SOL     OW36511   2.748   0.935   6.912 -0.1561  0.3132 -0.5675
 8292SOL    HW136512   2.708   0.858   6.952  1.1648  0.4070  0.9324
 8292SOL    HW236513   2.764   0.918   6.819 -1.5650 -1.1503 -0.5481
 8293SOL     OW36514   2.239   1.398   9.467  0.3432 -0.1514 -0.0106
 8293SOL    HW136515   2.213   1.490   9.468  1.2233  0.1165 -1.4344
 8293SOL    HW236516   2.328   1.416   9.436  0.1837  1.7824  0.6506
 8294SOL     OW36517   4.586   3.800   4.298  1.0826 -0.3288  0.0758
 8294SOL    HW136518   4.541   3.877   4.262  0.2386 -0.2954  1.2235
 8294SOL    HW236519   4.517   3.748   4.339  0.1176  1.3155  0.5509
 8295SOL     OW36520   3.857   3.123  16.367 -0.4964 -0.3880  0.4587
 8295SOL    HW136521   3.892   3.205  16.331  0.5876 -0.7728  0.6347
 8295SOL    HW236522   3.802   3.092  16.294  0.8626  1.7139 -1.4809
 8296SOL     OW36523   2.421   1.748   8.931 -0.2408  0.2511  0.0463
 8296SOL    HW136524   2.475   1.714   9.003  0.3253 -2.2463 -1.5580
 8296SOL    HW236525   2.390   1.666   8.892 -1.9110  1.5621 -1.3680
 8297SOL     OW36526   0.819   0.119   7.901  0.7097  0.4440 -0.5653
 8297SOL    HW136527   0.846   0.153   7.986  0.2411 -0.1516 -0.1785
 8297SOL    HW236528   0.757   0.050   7.927 -0.0297  0.8744 -1.2130
 8298SOL     OW36529   1.708   1.268   0.284 -0.3133 -0.0930  0.0570
 8298SOL    HW136530   1.755   1.243   0.204  0.0755 -0.1811  0.3126
 8298SOL    HW236531   1.783   1.267   0.343  1.8320  0.8782 -2.6520
 8299SOL     OW36532   0.621   3.076   0.501 -0.5211 -0.0640 -0.3308
 8299SOL    HW136533   0.700   3.118   0.535 -1.3550  1.5648 -0.3718
 8299SOL    HW236534   0.582   3.041   0.582  0.0842  0.3379  0.1340
 8300SOL     OW36535   2.588   0.409   4.753  0.2388  0.4571  0.2046
 8300SOL    HW136536   2.637   0.328   4.734  1.5818  1.9505 -2.5974
 8300SOL    HW236537   2.589   0.459   4.672  1.0128  1.5264  0.8740
 8301SOL     OW36538   0.762   0.150  17.152 -0.3503  0.2099 -0.4434
 8301SOL    HW136539   0.778   0.228  17.206 -1.4188 -0.5592  0.9686
 8301SOL    HW236540   0.763   0.177  17.060  1.7215  1.6784  0.0048
 8302SOL     OW36541   4.234   1.573  16.550  0.1592 -0.3810  0.3855
 8302SOL    HW136542   4.326   1.582  16.572  0.0228 -0.6314  1.0358
 8302SOL    HW236543   4.239   1.567  16.454 -0.4769 -0.4203  0.3533
 8303SOL     OW36544   2.527   0.504  10.556  0.6965  0.6395  0.0476
 8303SOL    HW136545   2.458   0.556  10.514  0.0859  1.0183  1.5156
 8303SOL    HW236546   2.585   0.481  10.484  2.2744  0.5784  1.3358
 8304SOL     OW36547   3.383   2.205  13.112 -0.1456  0.0670  0.0364
 8304SOL    HW136548   3.402   2.134  13.173 -1.3525 -0.4913 -0.2446
 8304SOL    HW236549   3.467   2.220  13.068  0.8524 -0.0640  1.8913
 8305SOL     OW36550   1.109   2.919   3.600  0.1879  0.0787 -1.2004
 8305SOL    HW136551   1.169   2.990   3.577  0.8483 -0.1129 -0.0573
 8305SOL    HW236552   1.152   2.846   3.556  0.1646  0.2676 -1.5384
 8306SOL     OW36553   2.743   3.556   0.658  0.0924 -0.2829  0.4298
 8306SOL    HW136554   2.719   3.648   0.647 -0.4011 -0.4784 -0.0968
 8306SOL    HW236555   2.751   3.545   0.753  0.3003  0.9853  0.5616
 8307SOL     OW36556   1.741   3.556  11.822  0.0939 -0.2938 -0.3953
 8307SOL    HW136557   1.802   3.563  11.895  0.0630 -0.6319 -0.3355
 8307SOL    HW236558   1.789   3.594  11.749  0.4387 -2.4196 -1.2954
 8308SOL     OW36559   1.283   1.024   6.015  0.2099  0.1715  0.7273
 8308SOL    HW136560   1.305   1.015   5.922  3.3539  1.7151  1.3407
 8308SOL    HW236561   1.319   0.940   6.044  2.5032 -0.1264 -2.9746
 8309SOL     OW36562   4.385   3.376   7.587  0.2436 -0.4231  0.1624
 8309SOL    HW136563   4.425   3.407   7.668  1.7747  1.6703 -1.3967
 8309SOL    HW236564   4.328   3.306   7.619  1.3930 -2.1672 -1.5979
 8310SOL     OW36565   4.363   0.478  13.071 -0.3162 -0.1671  0.4852
 8310SOL    HW136566   4.314   0.423  13.010 -1.8525  1.7618 -0.0221
 8310SOL    HW236567   4.308   0.477  13.149  0.1793  0.7542  0.8446
 8311SOL     OW36568   4.169   3.026   6.200  0.7308 -0.1418  0.7111
 8311SOL    HW136569   4.101   2.962   6.219 -2.1393  2.3943 -0.8920
 8311SOL    HW236570   4.149   3.018   6.107  1.4228  1.5740  0.4140
 8312SOL     OW36571   0.756   4.218  17.696 -0.2452 -0.6252 -0.5988
 8312SOL    HW136572   0.803   4.135  17.705 -1.0241 -0.6924  2.6933
 8312SOL    HW236573   0.776   4.256  17.610  0.1142  0.3234 -0.0953
 8313SOL     OW36574   1.940   2.289  11.503  1.0815 -0.0649  0.6773
 8313SOL    HW136575   1.982   2.270  11.419 -2.4898  0.7981 -1.3061
 8313SOL    HW236576   1.918   2.382  11.491  2.1043 -0.0759 -1.2136
 8314SOL     OW36577   3.212   0.709   3.704  0.4050  0.4695 -0.0200
 8314SOL    HW136578   3.294   0.696   3.655  1.8363  0.0932  2.4787
 8314SOL    HW236579   3.245   0.730   3.791  0.5080 -1.4060  0.3847
 8315SOL     OW36580   3.797   3.349  14.072  0.2287  0.1562 -0.2299
 8315SOL    HW136581   3.829   3.411  14.006  1.2573 -0.1574 -0.0190
 8315SOL    HW236582   3.710   3.331  14.038  0.5174  1.1142 -1.4633
 8316SOL     OW36583   0.047   2.488   8.539  0.2829 -0.4077 -0.0838
 8316SOL    HW136584   4.690   2.496   8.540  0.2212 -1.3712  3.0341
 8316SOL    HW236585   0.060   2.579   8.565  0.0532 -0.2182 -0.6297
 8317SOL     OW36586   4.299   0.767   1.448  0.0454 -0.1556 -0.0382
 8317SOL    HW136587   4.348   0.833   1.496  1.2929 -1.2562  0.1997
 8317SOL    HW236588   4.327   0.685   1.489 -1.3132  0.6032  2.3918
 8318SOL     OW36589   3.837   1.648   1.396 -1.2726 -0.5969  0.4871
 8318SOL    HW136590   3.836   1.552   1.385 -0.1158 -0.6727  1.0854
 8318SOL    HW236591   3.758   1.675   1.349 -0.5969  1.2680  0.4433
 8319SOL     OW36592   2.436   4.422   2.168  0.6826 -0.7415  0.2175
 8319SOL    HW136593   2.507   4.395   2.226  1.2770  1.2492  0.4183
 8319SOL    HW236594   2.475   4.483   2.105  1.1893 -1.8135 -0.5131
 8320SOL     OW36595   2.196   3.306   7.399 -0.1317 -0.1021 -0.2285
 8320SOL    HW136596   2.226   3.291   7.310  0.2763  2.1409 -0.4820
 8320SOL    HW236597   2.113   3.351   7.388 -0.4734 -0.7580 -0.2949
 8321SOL     OW36598   3.553   0.753   6.574  0.0053 -0.7889 -0.0084
 8321SOL    HW136599   3.580   0.671   6.532  0.9220  0.0518 -1.0760
 8321SOL    HW236600   3.638   0.798   6.576 -0.9021  1.1566 -3.6848
 8322SOL     OW36601   4.129   2.025   5.686 -0.7585 -0.0196  0.0405
 8322SOL    HW136602   4.214   2.049   5.721 -0.7558  0.7700 -0.5118
 8322SOL    HW236603   4.088   1.997   5.767  2.4558 -1.0479  1.3010
 8323SOL     OW36604   4.207   1.475   2.127  0.5815  0.1062 -0.2205
 8323SOL    HW136605   4.148   1.421   2.179  1.9264  1.3194  2.5315
 8323SOL    HW236606   4.264   1.509   2.196 -1.6005  0.8703  1.2044
 8324SOL     OW36607   3.880   0.628   1.864 -0.0366 -0.3753 -0.2436
 8324SOL    HW136608   3.951   0.565   1.877  0.8211  0.6621  0.1161
 8324SOL    HW236609   3.915   0.709   1.901 -2.3570 -0.2918  1.7466
 8325SOL     OW36610   0.897   1.997   4.614 -0.3209  0.2730 -0.3453
 8325SOL    HW136611   0.974   1.942   4.624 -0.1536  0.5731 -0.0002
 8325SOL    HW236612   0.843   1.952   4.679 -0.1427  2.3167  1.2124
 8326SOL     OW36613   3.735   0.551  12.525  0.0895  0.2712 -0.4406
 8326SOL    HW136614   3.756   0.479  12.585 -1.5082  1.1438  1.1627
 8326SOL    HW236615   3.639   0.558  12.520  0.1470 -1.0248 -3.0420
 8327SOL     OW36616   4.453   3.793  11.140 -0.2534 -0.8198 -0.3641
 8327SOL    HW136617   4.505   3.801  11.060 -0.5248  1.7167 -0.2761
 8327SOL    HW236618   4.394   3.865  11.119  2.5393  1.7471  0.6878
 8328SOL     OW36619   2.248   2.859   5.130  0.2221 -0.4409 -0.2521
 8328SOL    HW136620   2.322   2.803   5.154 -1.0396 -1.7470  0.6050
 8328SOL    HW236621   2.178   2.797   5.152 -1.6371  1.6791 -0.2678
 8329SOL     OW36622   2.951   2.328   2.361 -0.2813 -0.1565  0.1837
 8329SOL    HW136623   2.944   2.386   2.284  1.0605 -0.3140 -0.0594
 8329SOL    HW236624   2.871   2.331   2.413 -0.0795  1.0172  0.4309
 8330SOL     OW36625   3.960   2.247   8.938 -0.0261  0.2965 -0.3672
 8330SOL    HW136626   3.910   2.205   8.868 -1.2097  1.5209 -0.2553
 8330SOL    HW236627   3.917   2.332   8.950  0.4220  0.2629  1.5064
 8331SOL     OW36628   4.149   4.460   9.506  0.1945  0.0243  0.6289
 8331SOL    HW136629   4.071   4.417   9.471 -0.1104  0.6784  0.5148
 8331SOL    HW236630   4.152   4.539   9.452 -1.1236 -0.1725  0.2755
 8332SOL     OW36631   4.165   1.553   1.745  0.5554  0.0612  0.0231
 8332SOL    HW136632   4.100   1.523   1.682 -1.4943 -0.1665  2.2451
 8332SOL    HW236633   4.245   1.541   1.695 -0.5664 -1.1331 -1.4601
 8333SOL     OW36634   0.504   1.691   1.066  0.4604 -0.3874  0.3343
 8333SOL    HW136635   0.527   1.637   0.990 -0.6062 -1.6812  0.9332
 8333SOL    HW236636   0.422   1.652   1.094 -0.9434  4.0576  2.3493
 8334SOL     OW36637   2.384   4.018   6.907 -0.4177  0.7519  0.3947
 8334SOL    HW136638   2.358   4.071   6.831 -1.4661 -0.1050  0.1563
 8334SOL    HW236639   2.332   4.060   6.975 -0.0541  2.7363 -0.5722
 8335SOL     OW36640   3.062   0.216  13.103 -0.5759  0.3216 -0.3233
 8335SOL    HW136641   3.101   0.275  13.168 -0.1013  0.1485 -0.4546
 8335SOL    HW236642   3.133   0.211  13.038  0.0202  0.1827  0.3392
 8336SOL     OW36643   2.639   2.473   8.235 -0.1267  0.0609  0.1246
 8336SOL    HW136644   2.632   2.503   8.326 -3.0281 -1.3110  0.3534
 8336SOL    HW236645   2.568   2.410   8.240 -1.0885  1.2415  1.2134
 8337SOL     OW36646   1.344   1.660  11.955 -0.4763 -0.1476 -0.3362
 8337SOL    HW136647   1.276   1.679  11.890 -0.8824 -0.6850 -0.0717
 8337SOL    HW236648   1.417   1.688  11.900 -0.6238  0.9019  0.0147
 8338SOL     OW36649   4.113   4.375   7.253  0.1371  0.3982 -0.8138
 8338SOL    HW136650   4.183   4.310   7.240 -0.3591  0.1857 -2.5343
 8338SOL    HW236651   4.083   4.349   7.340 -0.1452 -1.7903 -1.5541
 8339SOL     OW36652   0.154   1.419  11.568  0.1991 -0.4033  0.0837
 8339SOL    HW136653   0.103   1.344  11.598 -0.5460  0.5854  1.2898
 8339SOL    HW236654   0.191   1.380  11.489  0.1285 -0.2069 -0.0440
 8340SOL     OW36655   4.308   1.522  11.101 -0.1654 -0.4271  0.0969
 8340SOL    HW136656   4.355   1.598  11.134 -0.0183  0.0534 -1.2313
 8340SOL    HW236657   4.381   1.483  11.055 -0.3991  0.0691 -0.7002
 8341SOL     OW36658   4.623   3.470   7.445  0.6453 -0.4272  0.1734
 8341SOL    HW136659   4.557   3.460   7.377 -0.1905 -1.7916  1.1827
 8341SOL    HW236660   4.589   3.401   7.502 -2.3805  0.3180 -0.7414
 8342SOL     OW36661   0.341   3.564  11.329 -0.4419  0.4155  0.2810
 8342SOL    HW136662   0.435   3.545  11.326 -0.4128  0.3981  1.4179
 8342SOL    HW236663   0.337   3.644  11.381 -0.1273  0.8938 -0.4432
 8343SOL     OW36664   1.845   3.447   6.503 -0.1985  0.4090  0.0200
 8343SOL    HW136665   1.778   3.412   6.445 -0.4481  1.6768 -0.4645
 8343SOL    HW236666   1.840   3.387   6.577 -6.0328  0.1592 -0.5583
 8344SOL     OW36667   0.417   2.656   8.374  0.5662 -0.2063 -0.0018
 8344SOL    HW136668   0.429   2.638   8.467 -2.2525 -0.7186  0.2593
 8344SOL    HW236669   0.387   2.570   8.346  0.9907 -0.3111 -0.1464
 8345SOL     OW36670   3.073   4.427   8.181  0.1471  0.3940  0.3031
 8345SOL    HW136671   3.079   4.462   8.270 -3.4866 -0.6606  0.9724
 8345SOL    HW236672   3.150   4.464   8.139 -0.3104  0.5397 -0.4007
 8346SOL     OW36673   3.897   4.649  12.570  0.0243 -0.1807 -0.0791
 8346SOL    HW136674   3.808   4.681  12.556  0.0236  0.4447  1.3301
 8346SOL    HW236675   3.894   4.630  12.664  3.5700  0.4128  0.1681
 8347SOL     OW36676   4.262   1.139  13.628 -0.8269 -0.4820  0.8843
 8347SOL    HW136677   4.232   1.093  13.550 -2.4901  2.2941 -0.1379
 8347SOL    HW236678   4.221   1.225  13.620 -1.0844 -0.3712  3.1677
 8348SOL     OW36679   4.187   0.418  11.978 -0.2853 -0.0150 -0.7744
 8348SOL    HW136680   4.102   0.373  11.974  0.2373 -1.3137  3.0123
 8348SOL    HW236681   4.215   0.394  12.066  1.1575  2.2471 -0.6020
 8349SOL     OW36682   0.329   0.037   5.563  0.4079 -0.2250  0.5059
 8349SOL    HW136683   0.292   0.085   5.489  0.7902  0.8079  0.9995
 8349SOL    HW236684   0.271   0.062   5.635  1.8144 -0.7201  1.8054
 8350SOL     OW36685   0.177   3.826   1.958  0.2424 -0.4170 -0.0876
 8350SOL    HW136686   0.190   3.733   1.939 -1.9936 -0.8990  0.7386
 8350SOL    HW236687   0.101   3.841   1.902 -0.7621  0.7757  1.5799
 8351SOL     OW36688   2.727   3.032  15.727  0.3752 -0.1940  0.7236
 8351SOL    HW136689   2.647   3.003  15.683 -0.4264  0.8727  1.4938
 8351SOL    HW236690   2.693   3.099  15.785  1.5069 -1.6301  3.0624
 8352SOL     OW36691   1.925   3.772   2.580  0.3915 -0.5550 -0.4514
 8352SOL    HW136692   1.894   3.694   2.533  0.7552 -1.3632  0.6469
 8352SOL    HW236693   1.971   3.736   2.656  1.2844 -0.8009 -1.1119
 8353SOL     OW36694   2.712   1.988   4.652 -0.0697  0.8829 -0.1183
 8353SOL    HW136695   2.779   2.056   4.657  0.5979  0.1225  1.2751
 8353SOL    HW236696   2.777   1.918   4.652 -0.5254  0.4633  0.2996
 8354SOL     OW36697   0.830   0.176   2.758 -0.1093  0.4234 -0.6102
 8354SOL    HW136698   0.871   0.263   2.758 -0.6072  0.6548  0.1999
 8354SOL    HW236699   0.907   0.124   2.735  0.2102  1.3853 -1.7151
 8355SOL     OW36700   4.630   3.075  12.827  0.6095  0.1603  0.1682
 8355SOL    HW136701   4.611   3.074  12.920  0.7160  0.0063  0.1887
 8355SOL    HW236702   4.658   2.984  12.814 -2.2510 -0.8572  1.2890
 8356SOL     OW36703   2.513   0.246   7.687  0.2569  0.6463 -0.3333
 8356SOL    HW136704   2.570   0.315   7.655  1.7269 -0.8731 -1.0313
 8356SOL    HW236705   2.436   0.291   7.721 -0.8059  0.1039 -2.0178
 8357SOL     OW36706   1.698   3.637   6.206  0.2023  0.3836  0.4106
 8357SOL    HW136707   1.647   3.685   6.272  2.2167 -0.7750  2.8239
 8357SOL    HW236708   1.651   3.654   6.124  0.1429  0.1813  0.4013
 8358SOL     OW36709   3.260   2.342   9.646  0.1463  0.1720 -0.1314
 8358SOL    HW136710   3.225   2.418   9.599 -0.5085 -0.4765 -0.6870
 8358SOL    HW236711   3.345   2.333   9.604  0.0788  0.5200 -0.3436
 8359SOL     OW36712   2.086   3.552   8.766  0.2655  0.1553 -0.6184
 8359SOL    HW136713   2.022   3.500   8.717  0.7387 -1.7185  0.7567
 8359SOL    HW236714   2.099   3.614   8.695  1.5881  1.0932  0.4465
 8360SOL     OW36715   0.449   3.780   8.348 -0.0292 -0.1276 -0.2823
 8360SOL    HW136716   0.465   3.754   8.439 -1.7473 -0.6409 -0.1423
 8360SOL    HW236717   0.511   3.851   8.333 -0.0381 -0.0396  0.1110
 8361SOL     OW36718   0.620   2.394   5.424  0.7058  0.4657  0.0423
 8361SOL    HW136719   0.591   2.358   5.507  1.4175 -0.2849 -0.0436
 8361SOL    HW236720   0.676   2.321   5.397 -0.4503 -0.9028  1.3893
 8362SOL     OW36721   4.290   3.314   8.720  0.6760 -0.0859  1.1193
 8362SOL    HW136722   4.298   3.231   8.673  1.4405  2.8639 -3.9535
 8362SOL    HW236723   4.279   3.264   8.801 -1.7184  0.0756  0.8954
 8363SOL     OW36724   1.262   3.564   5.755 -0.1487  0.0223  0.0167
 8363SOL    HW136725   1.224   3.486   5.797 -0.1714  0.0817  0.1056
 8363SOL    HW236726   1.341   3.529   5.713  0.1398  2.2129 -1.2551
 8364SOL     OW36727   3.070   0.996  11.679  0.4321 -0.2114  0.6835
 8364SOL    HW136728   3.076   0.906  11.647 -0.1073 -0.9303  2.5945
 8364SOL    HW236729   3.025   0.980  11.762 -0.3075  0.4334  0.4089
 8365SOL     OW36730   3.718   3.793  10.107  0.1667 -0.1872 -0.1521
 8365SOL    HW136731   3.713   3.843  10.025  1.5206 -1.3662 -0.9507
 8365SOL    HW236732   3.655   3.838  10.163  2.0236  1.8370  0.3015
 8366SOL     OW36733   0.799   1.101   4.739  0.4134  0.4318 -0.1022
 8366SOL    HW136734   0.791   1.112   4.834  0.9306  1.8028 -0.2197
 8366SOL    HW236735   0.878   1.154   4.730  1.7681 -1.1540  2.4853
 8367SOL     OW36736   0.080   2.623  11.309 -0.4530 -0.1337 -0.1558
 8367SOL    HW136737   0.117   2.624  11.397 -0.9727 -1.3879  0.0679
 8367SOL    HW236738   0.096   2.535  11.276 -1.9838 -0.9147  1.2173
 8368SOL     OW36739   4.198   2.598  12.690 -0.1575 -0.5274  0.3665
 8368SOL    HW136740   4.169   2.646  12.612 -0.8180 -1.9358 -0.2469
 8368SOL    HW236741   4.148   2.639  12.761 -2.2567  0.5826 -1.7604
 8369SOL     OW36742   3.660   1.998   8.835  0.3498 -0.2251 -0.3344
 8369SOL    HW136743   3.693   1.945   8.908 -3.3339 -2.6533 -0.4626
 8369SOL    HW236744   3.745   2.034   8.811 -0.0674  2.1299  1.6654
 8370SOL     OW36745   4.489   4.229  11.028 -0.4515  0.1161 -0.5966
 8370SOL    HW136746   4.434   4.151  11.027 -1.3743  0.7725  0.2984
 8370SOL    HW236747   4.565   4.202  10.975 -0.8153  0.6499 -1.3938
 8371SOL     OW36748   1.862   1.055   7.233  0.1872 -0.3665 -0.1768
 8371SOL    HW136749   1.904   0.974   7.260  0.9455 -0.3592 -1.3548
 8371SOL    HW236750   1.789   1.035   7.174  0.8402 -0.3893 -0.9574
 8372SOL     OW36751   1.164   1.918   7.969 -0.0523  0.0895 -0.2836
 8372SOL    HW136752   1.113   1.998   7.983 -0.2040  0.0551 -0.6487
 8372SOL    HW236753   1.158   1.930   7.874  1.7808 -0.5499 -0.4838
 8373SOL     OW36754   0.837   0.920   7.471 -0.0945  0.0391 -0.0368
 8373SOL    HW136755   0.863   1.012   7.460 -2.6125  0.7870  0.1114
 8373SOL    HW236756   0.918   0.877   7.499 -0.3561  0.7812  1.8329
 8374SOL     OW36757   3.595   3.661   7.986  0.1446 -0.1138  0.3612
 8374SOL    HW136758   3.690   3.653   7.975 -0.0973  0.1483 -2.0179
 8374SOL    HW236759   3.581   3.742   7.937  0.2683  0.8219  1.8939
 8375SOL     OW36760   3.565   0.213   4.204 -0.5879 -0.1332 -0.0207
 8375SOL    HW136761   3.504   0.150   4.242  0.4593 -1.5339 -0.6757
 8375SOL    HW236762   3.553   0.281   4.270 -1.2867 -0.2700 -0.0051
 8376SOL     OW36763   2.896   2.783   6.273 -0.1355  0.2443 -0.8333
 8376SOL    HW136764   2.850   2.742   6.346 -1.9293  0.3758 -1.8957
 8376SOL    HW236765   2.898   2.871   6.310 -0.9448 -0.3479  0.6212
 8377SOL     OW36766   0.881   4.692   9.545 -0.2973  0.4695  0.2967
 8377SOL    HW136767   0.923   4.732   9.469 -1.2044 -0.7664 -0.8536
 8377SOL    HW236768   0.791   4.709   9.518 -0.1752  0.2847 -0.2353
 8378SOL     OW36769   4.032   1.766   2.319  0.1010 -0.7342  0.0225
 8378SOL    HW136770   4.061   1.677   2.337 -1.2611 -0.7146  2.1722
 8378SOL    HW236771   3.941   1.750   2.293  0.0306  1.7661 -1.2970
 8379SOL     OW36772   2.372   3.470  16.529 -0.1671 -0.5301 -0.0272
 8379SOL    HW136773   2.445   3.412  16.507  0.8610  0.8505 -0.3139
 8379SOL    HW236774   2.348   3.431  16.613  0.7688  2.3855  1.5945
 8380SOL     OW36775   4.466   1.965   0.918 -0.2715 -0.1055 -0.0636
 8380SOL    HW136776   4.439   2.056   0.904  1.4206  0.1725 -1.5860
 8380SOL    HW236777   4.386   1.927   0.955 -0.3596 -0.8015 -0.9544
 8381SOL     OW36778   2.681   2.556   6.175  0.1762 -0.0763 -0.5540
 8381SOL    HW136779   2.695   2.465   6.147  1.5350 -0.1616  0.4715
 8381SOL    HW236780   2.659   2.547   6.268  0.8395 -0.2018 -0.4138
 8382SOL     OW36781   2.751   3.130   4.838 -0.8355 -0.3106  0.2613
 8382SOL    HW136782   2.709   3.215   4.828 -1.5655 -0.7429 -0.2745
 8382SOL    HW236783   2.690   3.099   4.905 -0.2960 -1.7632  0.0909
 8383SOL     OW36784   2.612   4.349   5.199  0.9659  0.3857  0.1311
 8383SOL    HW136785   2.659   4.349   5.115  0.8637 -0.6858  0.0747
 8383SOL    HW236786   2.635   4.433   5.237 -0.8420  1.1516 -0.4598
 8384SOL     OW36787   3.842   1.629  12.284  0.3453 -0.3528 -0.1513
 8384SOL    HW136788   3.852   1.589  12.370  0.7063  0.5160  0.2064
 8384SOL    HW236789   3.776   1.570  12.248  2.7884 -2.1045 -1.7201
 8385SOL     OW36790   1.756   2.815   4.310 -0.2970  0.1829  0.1448
 8385SOL    HW136791   1.729   2.730   4.346  1.2961  0.0894  1.1298
 8385SOL    HW236792   1.734   2.795   4.219 -0.5612  1.6339 -0.1035
 8386SOL     OW36793   1.028   1.899   6.620 -0.5092 -0.0903 -0.0264
 8386SOL    HW136794   1.023   1.994   6.630 -0.9169  0.0459 -1.4967
 8386SOL    HW236795   1.081   1.871   6.694 -0.8030  0.1789  0.2925
 8387SOL     OW36796   0.597   4.326   2.723  0.5902 -0.2803  0.1329
 8387SOL    HW136797   0.557   4.364   2.645 -0.2217  0.6478  0.9983
 8387SOL    HW236798   0.644   4.398   2.765 -2.8689  1.6196  0.7628
 8388SOL     OW36799   2.435   3.158   8.884  0.1454 -0.2300  0.0776
 8388SOL    HW136800   2.476   3.114   8.809 -2.0607 -0.8263 -0.7671
 8388SOL    HW236801   2.431   3.092   8.952  2.1581 -0.6675 -0.2146
 8389SOL     OW36802   1.220   1.377   8.265 -0.2542 -0.2914 -0.0170
 8389SOL    HW136803   1.127   1.392   8.247 -0.1020 -1.1424 -1.5662
 8389SOL    HW236804   1.223   1.306   8.328  2.3669  0.5860  0.8314
 8390SOL     OW36805   2.263   3.190   2.251 -0.2737 -0.1821 -0.2164
 8390SOL    HW136806   2.334   3.225   2.305 -0.0948  0.4626 -0.8583
 8390SOL    HW236807   2.292   3.231   2.169  0.7497  1.0842  0.7867
 8391SOL     OW36808   2.113   3.311   9.199 -1.0092  0.4389  0.0321
 8391SOL    HW136809   2.108   3.404   9.217 -0.6431  0.0649  2.0870
 8391SOL    HW236810   2.021   3.298   9.177 -0.4360  0.1331 -2.2512
 8392SOL     OW36811   0.913   0.416  16.766  0.1295 -0.1808 -0.0723
 8392SOL    HW136812   0.849   0.469  16.719 -0.8031 -0.7335  0.5650
 8392SOL    HW236813   0.984   0.408  16.703  2.4709 -1.9118  2.7638
 8393SOL     OW36814   2.570   4.283  16.062  0.1606  0.4509  0.0945
 8393SOL    HW136815   2.506   4.352  16.045  0.8568  1.1667  0.3542
 8393SOL    HW236816   2.578   4.290  16.157 -1.5218  0.0053  0.2634
 8394SOL     OW36817   2.541   1.460   2.073 -0.3013  0.7019 -0.2299
 8394SOL    HW136818   2.450   1.470   2.045  0.2159 -0.3927 -2.3032
 8394SOL    HW236819   2.570   1.547   2.046 -0.9087  0.5519 -1.3933
 8395SOL     OW36820   2.168   4.324  13.635 -0.4844 -0.3509  0.0785
 8395SOL    HW136821   2.089   4.373  13.659 -0.2982  0.1153 -0.2577
 8395SOL    HW236822   2.127   4.238  13.650  2.1819 -1.5513  0.4821
 8396SOL     OW36823   1.005   1.291   4.213  0.0322 -0.4852 -0.2869
 8396SOL    HW136824   1.063   1.313   4.140 -2.0770  1.7539 -1.3173
 8396SOL    HW236825   0.918   1.329   4.197 -0.1374 -0.9644 -0.5171
 8397SOL     OW36826   4.234   2.107   2.527 -0.4971 -0.6565 -0.1462
 8397SOL    HW136827   4.271   2.071   2.447  1.2618  0.0299  0.3618
 8397SOL    HW236828   4.294   2.181   2.529  1.0976 -2.0016  1.4239
 8398SOL     OW36829   4.449   1.802   3.917  0.4183 -0.0989 -0.2735
 8398SOL    HW136830   4.446   1.707   3.918 -0.6707 -0.0550  1.5248
 8398SOL    HW236831   4.381   1.823   3.853  0.4422  0.4606 -0.1170
 8399SOL     OW36832   3.439   3.517   6.319  0.0735 -0.6190 -0.0482
 8399SOL    HW136833   3.529   3.505   6.349 -0.0779 -0.2378  0.5606
 8399SOL    HW236834   3.411   3.426   6.304 -0.0932 -0.5664 -0.0588
 8400SOL     OW36835   4.427   1.563   2.315  0.0910  0.3503 -0.9874
 8400SOL    HW136836   4.389   1.647   2.341  1.5004  0.7012 -0.0630
 8400SOL    HW236837   4.432   1.505   2.392 -0.3830  0.7265 -0.6733
 8401SOL     OW36838   4.501   1.679  15.533  0.7265 -0.3898  0.5314
 8401SOL    HW136839   4.549   1.762  15.534 -1.9035  1.0871  1.2945
 8401SOL    HW236840   4.561   1.629  15.477 -0.9332 -0.3843 -1.2164
 8402SOL     OW36841   2.638   2.106   1.409 -0.3069  0.1277 -0.3022
 8402SOL    HW136842   2.665   2.187   1.450 -0.0228  0.7427 -1.6933
 8402SOL    HW236843   2.588   2.076   1.485 -1.0913  0.6359 -0.6155
 8403SOL     OW36844   4.576   4.244   8.152  0.2918 -0.6846  0.6356
 8403SOL    HW136845   4.629   4.293   8.090 -1.0198  0.6198  0.5550
 8403SOL    HW236846   4.494   4.290   8.139 -0.4940 -2.5307 -0.8923
 8404SOL     OW36847   2.397   0.723   9.748  0.4221 -0.4488 -0.4970
 8404SOL    HW136848   2.423   0.645   9.699  0.5345  0.5636 -2.0460
 8404SOL    HW236849   2.462   0.789   9.725 -0.1964  0.5644  0.6304
 8405SOL     OW36850   4.456   3.436  13.144  0.6827  1.1342 -0.2266
 8405SOL    HW136851   4.432   3.527  13.125 -2.3567  0.3004 -0.4045
 8405SOL    HW236852   4.551   3.430  13.144  0.7305  1.8246  1.5812
 8406SOL     OW36853   2.201   0.485   4.286 -0.7508  0.3950 -0.0877
 8406SOL    HW136854   2.250   0.422   4.234 -0.8003  0.8335 -0.6625
 8406SOL    HW236855   2.201   0.559   4.225 -0.1319  1.4074  1.1557
 8407SOL     OW36856   1.294   0.313   6.148  0.3061 -0.1381 -0.2235
 8407SOL    HW136857   1.361   0.247   6.170 -0.5416 -0.8167  0.3063
 8407SOL    HW236858   1.257   0.334   6.234  1.6420 -1.8852  0.7871
 8408SOL     OW36859   3.390   3.204  17.703  0.1761  0.0185  0.5694
 8408SOL    HW136860   3.413   3.188  17.612 -1.2945 -0.9522  0.3700
 8408SOL    HW236861   3.335   3.129  17.727 -1.2757  0.5863 -1.0301
 8409SOL     OW36862   0.907   3.511   9.112 -0.6237 -0.0706 -0.0538
 8409SOL    HW136863   1.002   3.513   9.098 -0.5208 -1.3182  0.4776
 8409SOL    HW236864   0.899   3.474   9.200  0.1664  1.1747  0.5458
 8410SOL     OW36865   2.794   0.097   6.417  0.5124 -0.5048 -0.1282
 8410SOL    HW136866   2.816   0.062   6.330  0.8344  3.4801 -1.6625
 8410SOL    HW236867   2.734   0.031   6.452 -0.3786  0.7708  0.7431
 8411SOL     OW36868   2.904   4.322   7.416 -0.1360  0.3208  0.2530
 8411SOL    HW136869   2.996   4.338   7.436 -0.4348  2.8411 -0.3748
 8411SOL    HW236870   2.855   4.400   7.443 -2.4625 -1.0457  0.0492
 8412SOL     OW36871   0.274   3.316  12.052 -0.3239  0.2702 -0.3465
 8412SOL    HW136872   0.263   3.295  11.959 -1.4902  0.8142 -0.3352
 8412SOL    HW236873   0.198   3.274  12.093 -0.2253  1.1250  0.7140
 8413SOL     OW36874   4.479   1.190  16.020  0.1223 -0.1526  0.6554
 8413SOL    HW136875   4.393   1.229  16.037 -0.2152 -0.4238 -0.4397
 8413SOL    HW236876   4.446   1.135  15.950  1.6167 -0.0733 -0.1118
 8414SOL     OW36877   2.184   1.513   2.501  0.2142 -0.3934 -0.1061
 8414SOL    HW136878   2.211   1.494   2.591  0.2957  1.6525  0.2922
 8414SOL    HW236879   2.134   1.431   2.492 -2.8777  1.6916 -1.7561
 8415SOL     OW36880   1.945   0.367  17.438 -0.4099  0.5189  0.2523
 8415SOL    HW136881   1.907   0.418  17.366 -1.2510 -2.9444 -1.7682
 8415SOL    HW236882   1.981   0.442  17.486  1.6605 -0.3537  0.0918
 8416SOL     OW36883   2.185   0.904  12.947  0.3335 -0.1847  0.8127
 8416SOL    HW136884   2.108   0.850  12.929  1.3516 -1.4296  0.1915
 8416SOL    HW236885   2.155   0.990  12.918  1.6616 -0.8512 -2.5858
 8417SOL     OW36886   2.187   1.199   5.551 -0.0554 -0.0336 -0.1506
 8417SOL    HW136887   2.158   1.278   5.595 -0.5035 -0.8803  1.0746
 8417SOL    HW236888   2.218   1.244   5.472 -0.0457 -1.0445 -0.7348
 8418SOL     OW36889   4.049   0.541   2.208 -0.6343 -0.1382  0.4620
 8418SOL    HW136890   4.096   0.584   2.137  3.0246 -3.5168  0.8435
 8418SOL    HW236891   4.026   0.463   2.158 -0.3083  0.1264 -0.0904
 8419SOL     OW36892   2.872   2.457   2.765 -0.0983  0.8531  0.0333
 8419SOL    HW136893   2.847   2.524   2.829 -0.3195  0.1525  0.6797
 8419SOL    HW236894   2.966   2.456   2.778 -0.0192  1.4147 -0.4808
 8420SOL     OW36895   0.786   2.815   3.345  0.0259 -0.5529 -0.1048
 8420SOL    HW136896   0.691   2.830   3.339 -0.1782 -1.4305  0.8895
 8420SOL    HW236897   0.820   2.869   3.274 -0.4806 -0.7585 -0.5090
 8421SOL     OW36898   2.642   0.684   4.145 -0.4111  0.5876  0.2344
 8421SOL    HW136899   2.581   0.613   4.165  2.4331 -1.7988  0.4281
 8421SOL    HW236900   2.663   0.695   4.237 -1.3988  1.3925  0.3573
 8422SOL     OW36901   0.928   3.885   1.453 -0.6268  0.7556  0.1607
 8422SOL    HW136902   0.960   3.863   1.540  1.8060  0.0267 -0.9128
 8422SOL    HW236903   0.939   3.979   1.444 -1.7769  0.8044 -0.7921
 8423SOL     OW36904   1.844   1.232  10.582  0.3562 -0.1780  0.2585
 8423SOL    HW136905   1.910   1.221  10.514  0.6011 -1.7450  0.7592
 8423SOL    HW236906   1.765   1.204  10.535  2.7994 -0.6955 -3.5509
 8424SOL     OW36907   1.171   1.812  12.885 -0.1256  0.3841 -0.3989
 8424SOL    HW136908   1.118   1.855  12.952  0.1300  0.3443 -0.1730
 8424SOL    HW236909   1.131   1.725  12.892  4.3688 -1.3778  2.8948
 8425SOL     OW36910   0.437   3.234   1.949  0.2073 -0.2505 -0.3379
 8425SOL    HW136911   0.451   3.150   1.906 -1.5394 -2.0543  2.6574
 8425SOL    HW236912   0.376   3.212   2.018 -0.1441 -1.8696 -1.1648
 8426SOL     OW36913   2.021   1.372   8.842 -0.2064  0.1739 -0.1948
 8426SOL    HW136914   2.003   1.281   8.821 -0.1606  0.1593 -0.1716
 8426SOL    HW236915   1.961   1.382   8.916 -2.0724 -0.8355 -1.5714
 8427SOL     OW36916   0.096   2.370   5.083 -0.3333  0.4871  0.0414
 8427SOL    HW136917   0.073   2.376   5.176 -1.3217  0.1789 -0.1842
 8427SOL    HW236918   0.181   2.327   5.088 -1.5724 -1.6191  3.1118
 8428SOL     OW36919   3.043   1.578   4.862 -0.2085  0.7912 -0.2664
 8428SOL    HW136920   3.019   1.665   4.828 -0.7115  0.1657 -1.4961
 8428SOL    HW236921   2.959   1.540   4.885 -0.2176  1.0675  0.1743
 8429SOL     OW36922   3.252   0.683   4.967 -0.8295  0.3862  0.0987
 8429SOL    HW136923   3.275   0.638   4.886  0.6815  2.7733 -0.7863
 8429SOL    HW236924   3.233   0.600   5.012  1.1125 -0.2708 -0.2908
 8430SOL     OW36925   3.276   0.824   2.155  0.5532 -0.0576 -0.0497
 8430SOL    HW136926   3.327   0.891   2.110  1.7016  1.3855  3.3700
 8430SOL    HW236927   3.290   0.747   2.101 -1.4329 -0.9126  0.6489
 8431SOL     OW36928   0.258   1.139  15.998 -0.3044 -0.3959  0.4159
 8431SOL    HW136929   0.266   1.201  15.925 -3.1653  0.1670  0.5884
 8431SOL    HW236930   0.165   1.118  15.987 -0.0444 -0.4730 -1.6418
 8432SOL     OW36931   0.918   0.060  11.676  0.1550  0.5857  0.1153
 8432SOL    HW136932   0.981   0.130  11.693 -0.1209  0.5603  1.2573
 8432SOL    HW236933   0.865   0.066  11.755  0.8427  0.1409  0.6178
 8433SOL     OW36934   4.288   1.455   6.836  0.6955  0.1634  0.0006
 8433SOL    HW136935   4.209   1.402   6.848  1.3178 -0.5172  1.0811
 8433SOL    HW236936   4.344   1.410   6.898 -1.0018  0.2806  1.6042
 8434SOL     OW36937   1.882   2.633   6.152 -0.3081 -0.0538  0.0355
 8434SOL    HW136938   1.850   2.721   6.172 -0.1115  0.5461 -2.2982
 8434SOL    HW236939   1.963   2.633   6.202 -0.7817  2.9352  0.7751
 8435SOL     OW36940   2.835   3.411   6.215 -0.0235  0.1266  0.1175
 8435SOL    HW136941   2.772   3.434   6.147  2.5163 -0.5931 -2.4660
 8435SOL    HW236942   2.825   3.475   6.286 -2.1744  0.5545 -0.5895
 8436SOL     OW36943   4.181   3.937   2.923  0.5476 -0.1352 -0.6770
 8436SOL    HW136944   4.186   3.842   2.930  0.3521 -0.0307  0.8644
 8436SOL    HW236945   4.161   3.946   2.830  1.3814  1.5833 -0.6882
 8437SOL     OW36946   2.421   0.132   5.783 -0.3803  0.2415  0.3594
 8437SOL    HW136947   2.429   0.223   5.813 -1.6149  0.3463  0.3674
 8437SOL    HW236948   2.504   0.093   5.809  1.4983  2.2091 -2.7049
 8438SOL     OW36949   3.985   1.791   6.225 -0.4366 -0.3391 -0.6113
 8438SOL    HW136950   4.051   1.789   6.156 -2.1108 -1.6624 -2.1952
 8438SOL    HW236951   4.030   1.769   6.306 -0.7982 -1.3432 -0.6893
 8439SOL     OW36952   3.044   1.565   9.052 -0.7646  0.0996  0.2285
 8439SOL    HW136953   3.050   1.643   9.107  1.5197 -0.4792  0.8260
 8439SOL    HW236954   2.951   1.551   9.040 -0.4180 -1.0404 -1.1603
 8440SOL     OW36955   2.295   1.034  13.566 -0.4515 -0.0827  0.1317
 8440SOL    HW136956   2.201   1.034  13.547 -0.0717  1.5446 -1.8081
 8440SOL    HW236957   2.292   1.086  13.647  1.0419  1.2867 -0.7017
 8441SOL     OW36958   0.138   3.797  14.935 -0.2216 -0.0665 -0.0547
 8441SOL    HW136959   0.209   3.837  14.985  0.8100 -1.1974 -0.6233
 8441SOL    HW236960   0.109   3.864  14.873  3.0327  0.2218 -1.2572
 8442SOL     OW36961   2.228   1.888   2.524 -0.1813  0.2457 -0.1100
 8442SOL    HW136962   2.229   1.840   2.442 -0.0357 -0.4322  0.2884
 8442SOL    HW236963   2.166   1.959   2.506  1.0465  1.6085  1.0024
 8443SOL     OW36964   4.165   0.985  12.528 -0.3744 -0.2834 -0.3220
 8443SOL    HW136965   4.169   0.890  12.541  0.4604 -0.2220 -0.0820
 8443SOL    HW236966   4.109   0.986  12.450  0.1694  4.0991 -0.6351
 8444SOL     OW36967   4.535   1.425   4.364 -0.2920 -0.4054 -0.1634
 8444SOL    HW136968   4.458   1.454   4.412 -0.9271 -2.1041 -0.1636
 8444SOL    HW236969   4.495   1.356   4.312 -0.6861 -0.0665 -0.3017
 8445SOL     OW36970   1.447   0.842   9.805  0.1978  0.1746  0.3958
 8445SOL    HW136971   1.432   0.913   9.742 -1.6637  1.6226  2.4655
 8445SOL    HW236972   1.450   0.893   9.886 -1.0255 -0.0396  0.5751
 8446SOL     OW36973   3.884   1.653   4.323  0.2830  0.5099  0.3572
 8446SOL    HW136974   3.943   1.695   4.260  0.2221  1.1157  0.7126
 8446SOL    HW236975   3.877   1.715   4.395  0.3603 -0.7416  1.4456
 8447SOL     OW36976   1.322   2.417   9.172 -0.9482 -0.7167  0.1151
 8447SOL    HW136977   1.252   2.482   9.162 -0.1193  0.1868  0.1384
 8447SOL    HW236978   1.293   2.357   9.104 -0.2469  1.0584 -1.7733
 8448SOL     OW36979   0.956   4.285   7.742  0.4576 -0.1697 -0.1269
 8448SOL    HW136980   1.040   4.299   7.785  1.6242 -4.1512 -1.0695
 8448SOL    HW236981   0.922   4.206   7.784  0.1609 -0.8043 -1.5755
 8449SOL     OW36982   0.833   3.596   1.576 -0.0170  0.1999  0.1027
 8449SOL    HW136983   0.903   3.652   1.608  2.9363 -2.7930 -1.1207
 8449SOL    HW236984   0.770   3.612   1.647 -0.0469  1.5775 -0.2255
 8450SOL     OW36985   1.325   0.199  16.614  0.0193 -0.1679  0.2786
 8450SOL    HW136986   1.398   0.176  16.672 -0.6778 -2.0403  0.4297
 8450SOL    HW236987   1.317   0.120  16.560  0.2760  0.2540 -0.3616
 8451SOL     OW36988   3.473   3.771  16.028 -0.3260 -0.5227 -0.5222
 8451SOL    HW136989   3.518   3.811  16.103 -1.0373 -1.5233  0.4326
 8451SOL    HW236990   3.384   3.761  16.063 -0.0761  2.0842  0.8435
 8452SOL     OW36991   3.873   2.363   4.981  0.7905  0.4631 -0.0696
 8452SOL    HW136992   3.784   2.379   4.950  0.5218  1.5029  1.2411
 8452SOL    HW236993   3.927   2.398   4.910  1.1044 -1.5336 -0.8225
 8453SOL     OW36994   0.561   3.943   7.025  0.5342 -0.0748 -0.3682
 8453SOL    HW136995   0.523   3.888   7.094  0.6596 -1.1328 -1.1491
 8453SOL    HW236996   0.557   4.023   7.077  0.2133 -0.3633  0.0621
 8454SOL     OW36997   2.716   1.445   6.551  0.2330  0.6689 -0.3197
 8454SOL    HW136998   2.794   1.498   6.567  0.9257 -0.2803 -0.5322
 8454SOL    HW236999   2.709   1.405   6.637  1.7415 -0.8714 -0.9176
 8455SOL     OW37000   1.533   1.634   4.246 -0.6760  0.2732 -0.3737
 8455SOL    HW137001   1.515   1.543   4.221 -1.9546  0.8304 -1.4289
 8455SOL    HW237002   1.623   1.626   4.278 -0.9875  0.3991  0.5191
 8456SOL     OW37003   4.082   0.604   3.189 -0.8351 -0.0542  0.2665
 8456SOL    HW137004   4.060   0.512   3.176 -0.5005  0.2083 -2.1326
 8456SOL    HW237005   4.108   0.633   3.101 -0.0322 -2.3749 -0.2613
 8457SOL     OW37006   1.881   1.277   6.568  0.3628  0.0531  0.4820
 8457SOL    HW137007   1.889   1.299   6.476  2.1373 -1.5847  0.2612
 8457SOL    HW237008   1.842   1.356   6.607  1.0797  1.0768 -0.8776
 8458SOL     OW37009   0.066   1.592   9.773 -0.1517  0.0074  0.3774
 8458SOL    HW137010   0.157   1.612   9.752  0.8510 -1.3122  3.4837
 8458SOL    HW237011   0.070   1.496   9.775  0.4827  0.0491  1.3948
 8459SOL     OW37012   1.913   0.120   7.902 -0.3457  0.1021 -0.6324
 8459SOL    HW137013   1.937   0.099   7.811  1.0414 -1.6105  0.1180
 8459SOL    HW237014   1.841   0.058   7.915 -1.1145  1.0804 -0.2430
 8460SOL     OW37015   1.284   1.570   3.259  0.1358  0.3508  0.2119
 8460SOL    HW137016   1.281   1.636   3.190  0.0253 -0.6604 -0.7518
 8460SOL    HW237017   1.373   1.581   3.291 -0.2144 -0.3756  1.4196
 8461SOL     OW37018   0.093   1.999   8.509  0.1507  0.1735  0.3288
 8461SOL    HW137019   0.091   2.025   8.601  2.0212  3.8234 -0.6522
 8461SOL    HW237020   0.153   2.069   8.482  0.0663 -0.5695 -1.7975
 8462SOL     OW37021   2.471   0.042   3.456  0.4848 -0.6952  0.3633
 8462SOL    HW137022   2.381   0.043   3.487  0.8281  0.9551  1.3371
 8462SOL    HW237023   2.492   0.131   3.484 -0.2853 -0.9464  1.7334
 8463SOL     OW37024   1.445   4.342   7.093  0.5192 -0.2921  0.2154
 8463SOL    HW137025   1.503   4.321   7.020 -2.2757 -0.0026 -2.0389
 8463SOL    HW237026   1.367   4.380   7.053 -0.0808 -0.1472  1.5124
 8464SOL     OW37027   2.160   2.866  15.834 -0.0813 -0.1584 -0.4893
 8464SOL    HW137028   2.113   2.817  15.902  0.3985 -0.7875 -0.6080
 8464SOL    HW237029   2.241   2.880  15.883 -0.6610  1.4089  0.0085
 8465SOL     OW37030   3.491   0.941   2.322  0.1690  0.8070  0.3730
 8465SOL    HW137031   3.425   0.907   2.262  0.2636  0.0592  0.6893
 8465SOL    HW237032   3.442   0.929   2.404  0.5851  1.5891  0.7304
 8466SOL     OW37033   0.154   1.469   5.652  0.3189 -0.0779  0.5362
 8466SOL    HW137034   0.072   1.516   5.636  0.9569  1.0062  0.4806
 8466SOL    HW237035   0.122   1.379   5.641  0.2406  0.1403 -1.1328
 8467SOL     OW37036   1.528   1.000  10.670  0.1137 -0.4544 -0.3677
 8467SOL    HW137037   1.505   1.045  10.752  1.6888  3.1160 -1.8637
 8467SOL    HW237038   1.472   0.922  10.673 -0.5758  0.0885  0.9839
 8468SOL     OW37039   2.910   2.155   1.697 -0.5172 -0.1375  0.1778
 8468SOL    HW137040   2.979   2.139   1.761 -0.0245  0.0665 -0.3006
 8468SOL    HW237041   2.865   2.071   1.702 -1.4006  0.3043 -0.3781
 8469SOL     OW37042   3.679   0.958  10.256 -0.4729  0.2963  0.1774
 8469SOL    HW137043   3.663   1.024  10.324  1.4652  2.0129 -1.0494
 8469SOL    HW237044   3.738   0.903  10.307  2.3388  2.2820 -0.9037
 8470SOL     OW37045   0.938   4.420   9.488  0.1330 -0.5218  0.6085
 8470SOL    HW137046   1.000   4.449   9.422 -2.0378  2.7454  0.0309
 8470SOL    HW237047   0.883   4.498   9.490  1.0009  0.0947  0.4966
 8471SOL     OW37048   0.263   2.884   1.429 -0.8471 -0.0441 -0.1315
 8471SOL    HW137049   0.349   2.842   1.424 -0.9523 -0.2591 -0.1448
 8471SOL    HW237050   0.237   2.852   1.516  0.0998  1.9371  0.8869
 8472SOL     OW37051   2.487   0.875  11.770 -0.0515  0.3948 -0.0347
 8472SOL    HW137052   2.523   0.805  11.825 -1.7828 -0.7366 -0.3551
 8472SOL    HW237053   2.555   0.874  11.703  0.8452 -2.7923  0.9012
 8473SOL     OW37054   0.149   0.872   3.417 -0.0475 -0.2121 -0.5082
 8473SOL    HW137055   0.131   0.919   3.335 -0.0632  2.9986  1.3623
 8473SOL    HW237056   0.166   0.948   3.472 -0.2882  1.2584 -2.4374
 8474SOL     OW37057   2.620   2.276   7.258  0.3788 -0.2334 -0.5508
 8474SOL    HW137058   2.587   2.325   7.183  0.4640 -1.4723 -1.3956
 8474SOL    HW237059   2.563   2.314   7.325  0.7687  0.0922 -0.3990
 8475SOL     OW37060   2.094   0.739  12.724 -0.2892  0.2324  0.1296
 8475SOL    HW137061   2.121   0.798  12.654  1.4292  1.1414  1.5420
 8475SOL    HW237062   2.170   0.735  12.783 -1.0462  1.2104  1.1782
 8476SOL     OW37063   3.312   1.969   2.838  0.2587 -0.9352  0.0782
 8476SOL    HW137064   3.373   1.901   2.811  0.7325  0.1124 -1.4876
 8476SOL    HW237065   3.314   1.949   2.932  1.3499 -1.2901 -0.0231
 8477SOL     OW37066   1.812   3.520   4.964 -0.4675  0.4818  0.4070
 8477SOL    HW137067   1.776   3.453   4.906  1.1811 -0.1957  0.1549
 8477SOL    HW237068   1.789   3.485   5.050  0.3319 -0.2842  0.3082
 8478SOL     OW37069   3.830   1.316   6.392 -0.0914 -0.4458 -0.6068
 8478SOL    HW137070   3.821   1.379   6.320 -0.1233 -0.7164 -0.8401
 8478SOL    HW237071   3.792   1.367   6.463  0.4072 -0.4365 -0.3427
 8479SOL     OW37072   0.679   0.646   6.750 -0.1228 -0.6291 -0.5546
 8479SOL    HW137073   0.668   0.722   6.806 -0.2396 -0.2951 -1.0279
 8479SOL    HW237074   0.629   0.658   6.669  0.6761 -1.2812 -1.1577
 8480SOL     OW37075   4.068   2.198   6.883  0.5772  0.3557 -0.2060
 8480SOL    HW137076   4.046   2.244   6.803  0.0974 -0.0345 -0.3025
 8480SOL    HW237077   4.009   2.123   6.876 -0.5537  1.3432 -1.2427
 8481SOL     OW37078   2.485   3.494   2.605 -0.2212  0.5877  0.7119
 8481SOL    HW137079   2.578   3.511   2.589 -0.6261  0.8686 -1.2700
 8481SOL    HW237080   2.473   3.548   2.684  0.4801  1.2833  0.3510
 8482SOL     OW37081   3.852   1.038   9.312 -0.4090 -0.2891 -0.7246
 8482SOL    HW137082   3.805   1.121   9.301  2.1485  1.3358  0.3661
 8482SOL    HW237083   3.784   0.976   9.287 -0.6570 -0.0512 -0.6329
 8483SOL     OW37084   0.088   4.667   6.413 -0.0087  0.1497  0.5919
 8483SOL    HW137085   0.152   4.626   6.355 -0.0006  0.1116  0.6281
 8483SOL    HW237086   0.029   4.705   6.347  0.2395 -0.4905 -0.0017
 8484SOL     OW37087   1.153   4.254  14.095  0.0263 -0.3985  0.1807
 8484SOL    HW137088   1.185   4.299  14.173 -1.9230  0.5787  0.4068
 8484SOL    HW237089   1.217   4.291  14.034  0.3068 -0.6750  0.3045
 8485SOL     OW37090   4.659   0.249   6.443  0.3070 -0.3024 -0.3361
 8485SOL    HW137091   4.678   0.342   6.442  1.6144 -0.5566  1.3667
 8485SOL    HW237092   0.003   0.218   6.481 -2.2046 -2.8267  3.0774
 8486SOL     OW37093   0.250   4.373   3.442 -0.3929  0.3641  0.2859
 8486SOL    HW137094   0.330   4.366   3.391  1.1753 -0.5377  2.8833
 8486SOL    HW237095   0.190   4.416   3.381 -1.0364  0.8287  1.2418
 8487SOL     OW37096   1.346   3.744   4.153  0.5525  0.0912 -0.1718
 8487SOL    HW137097   1.408   3.699   4.210 -1.5320  0.4881  2.4556
 8487SOL    HW237098   1.382   3.833   4.153 -0.3781  0.4693 -0.4005
 8488SOL     OW37099   2.548   3.506  17.080 -0.0541  0.0293  0.1876
 8488SOL    HW137100   2.465   3.540  17.115  0.5717 -0.0507  1.7036
 8488SOL    HW237101   2.530   3.414  17.061 -0.4080 -0.0059  0.6948
 8489SOL     OW37102   2.444   2.007  13.993  0.3009 -0.3702  0.4562
 8489SOL    HW137103   2.475   2.097  13.986  0.2950 -0.3351  0.9159
 8489SOL    HW237104   2.463   1.973  13.905  1.6443  0.4172  0.4473
 8490SOL     OW37105   4.364   4.387  13.166  0.1019 -0.5727 -0.7682
 8490SOL    HW137106   4.447   4.391  13.214 -1.7591  1.9187  2.2216
 8490SOL    HW237107   4.394   4.428  13.084 -1.3572  1.6841 -0.1853
 8491SOL     OW37108   2.972   2.112  13.290  0.2459 -0.6381 -0.4379
 8491SOL    HW137109   2.972   2.054  13.366 -0.7537 -0.9325 -0.6678
 8491SOL    HW237110   3.064   2.131  13.270 -0.0570 -1.4773 -2.6300
 8492SOL     OW37111   1.936   4.418   2.235 -0.3139 -0.1600 -0.0005
 8492SOL    HW137112   1.924   4.408   2.141 -1.3171 -0.5425  0.1650
 8492SOL    HW237113   2.030   4.420   2.252 -0.5983 -0.4032  1.6108
 8493SOL     OW37114   0.681   1.415   5.837 -0.4896 -0.4882  0.2466
 8493SOL    HW137115   0.653   1.360   5.910 -0.7175 -2.4402 -1.3323
 8493SOL    HW237116   0.598   1.460   5.818  0.3745  1.6526  1.4654
 8494SOL     OW37117   2.795   3.777  12.411 -0.2217 -0.1482  0.1979
 8494SOL    HW137118   2.809   3.864  12.449 -0.2424 -1.0593  2.3084
 8494SOL    HW237119   2.852   3.771  12.335 -0.5921 -0.2240 -0.0729
 8495SOL     OW37120   4.590   0.614   1.166  0.2706  0.1337  0.0377
 8495SOL    HW137121   4.633   0.691   1.128 -0.6560  0.5327 -0.2050
 8495SOL    HW237122   4.509   0.658   1.195  1.0884 -0.7944  3.7342
 8496SOL     OW37123   0.611   0.293  15.296 -0.6687 -0.4909 -0.3960
 8496SOL    HW137124   0.575   0.363  15.241  1.7561  0.5296 -0.6763
 8496SOL    HW237125   0.661   0.337  15.364 -1.1757 -0.3143 -0.1350
 8497SOL     OW37126   2.500   2.519   7.187  0.1917  0.4568  0.5640
 8497SOL    HW137127   2.456   2.456   7.130  0.6355 -1.4891  2.3936
 8497SOL    HW237128   2.438   2.591   7.200  1.6401  1.9452 -0.7038
 8498SOL     OW37129   2.518   2.807   3.943  0.6535 -0.3185 -0.1953
 8498SOL    HW137130   2.520   2.712   3.939  2.1068 -0.2765 -0.7131
 8498SOL    HW237131   2.612   2.813   3.958  0.6688 -0.9502 -0.0493
 8499SOL     OW37132   4.534   3.875   6.895 -0.2484 -0.9854  0.1726
 8499SOL    HW137133   4.499   3.798   6.850 -2.1379 -0.0235 -0.0091
 8499SOL    HW237134   4.619   3.832   6.911  0.3809  0.3082  0.2799
 8500SOL     OW37135   3.665   4.268  14.344 -0.3826 -0.2106 -0.0593
 8500SOL    HW137136   3.664   4.362  14.362  0.2638  0.0075 -1.1960
 8500SOL    HW237137   3.601   4.269  14.273  0.9221  0.3805 -1.2046
 8501SOL     OW37138   1.390   3.894  15.703 -0.2320 -0.1358  0.1660
 8501SOL    HW137139   1.308   3.912  15.656 -0.0904  1.1315  0.4043
 8501SOL    HW237140   1.461   3.925  15.646 -0.4616 -0.7869 -0.4724
 8502SOL     OW37141   2.252   4.351   1.944  0.3214  0.0524  0.4610
 8502SOL    HW137142   2.306   4.367   1.866 -0.5169  0.4108 -0.0501
 8502SOL    HW237143   2.319   4.365   2.010  1.1566 -2.4857  0.1623
 8503SOL     OW37144   1.219   2.957   7.088  0.9614 -0.1450 -0.1627
 8503SOL    HW137145   1.230   2.867   7.058  1.1548  0.2287 -1.2354
 8503SOL    HW237146   1.156   2.946   7.159  1.0825  3.1156  0.4374
 8504SOL     OW37147   2.383   2.378   3.688  0.2821 -0.5129  0.0573
 8504SOL    HW137148   2.317   2.346   3.750  0.0936 -0.9843 -0.3856
 8504SOL    HW237149   2.334   2.373   3.606  1.0332  0.5353 -0.4589
 8505SOL     OW37150   4.178   2.061  10.414  0.5090 -0.0774 -0.4897
 8505SOL    HW137151   4.163   2.056  10.320  2.5979  0.5315 -0.8586
 8505SOL    HW237152   4.101   2.105  10.451  0.5761  0.7540 -1.3229
 8506SOL     OW37153   3.890   4.446   7.571 -0.1141  0.1940 -0.3002
 8506SOL    HW137154   3.888   4.539   7.551 -1.2358 -0.3917 -3.0007
 8506SOL    HW237155   3.980   4.428   7.545 -0.0202  1.3883 -0.7891
 8507SOL     OW37156   0.546   2.283   2.349 -0.4332 -0.2027 -0.6555
 8507SOL    HW137157   0.461   2.294   2.307  0.3806  1.2118 -1.9209
 8507SOL    HW237158   0.521   2.219   2.415  2.7459  0.3858  1.1213
 8508SOL     OW37159   3.829   0.388   8.212 -0.1592 -0.8234  0.5723
 8508SOL    HW137160   3.821   0.437   8.131  1.6204  0.2729  1.0627
 8508SOL    HW237161   3.824   0.296   8.187  1.1667 -0.7052 -0.1362
 8509SOL     OW37162   4.085   4.111   9.131  0.8275  0.2350  0.0054
 8509SOL    HW137163   4.056   4.198   9.105  0.0067  0.4641  1.6840
 8509SOL    HW237164   4.042   4.106   9.216  0.6807 -1.0108 -0.1451
 8510SOL     OW37165   3.082   3.517   3.754  0.3061 -0.1879  0.0203
 8510SOL    HW137166   3.047   3.581   3.691 -1.7660 -2.3319 -1.0251
 8510SOL    HW237167   3.134   3.466   3.691 -0.0796 -1.9672  1.1484
 8511SOL     OW37168   4.657   2.632   4.644  0.0069  0.1640  0.1485
 8511SOL    HW137169   4.600   2.574   4.592 -0.1783  0.5031 -0.0261
 8511SOL    HW237170   4.717   2.558   4.654 -0.3486 -0.3617 -1.5359
 8512SOL     OW37171   4.720   4.542  12.772  0.0663  0.0602 -0.0513
 8512SOL    HW137172   4.655   4.574  12.710 -1.2488 -0.6930  0.9453
 8512SOL    HW237173   4.670   4.484  12.828 -1.7709  2.2455  0.5617
 8513SOL     OW37174   2.383   3.722   5.265  0.5870 -0.1605  0.1788
 8513SOL    HW137175   2.323   3.753   5.197  0.9689  0.6979  0.2321
 8513SOL    HW237176   2.314   3.703   5.329 -0.2552 -0.6210 -0.8650
 8514SOL     OW37177   2.663   0.044   5.437 -0.0408  0.2636  0.4822
 8514SOL    HW137178   2.642   0.124   5.485 -0.1585  0.8664 -0.5695
 8514SOL    HW237179   2.751   0.071   5.409  1.1926 -2.2787  1.9324
 8515SOL     OW37180   0.673   2.691   9.189  0.4780 -0.3404  0.8507
 8515SOL    HW137181   0.672   2.616   9.130  1.7687  1.3018 -1.2797
 8515SOL    HW237182   0.696   2.767   9.136 -1.9825  0.2788  0.6864
 8516SOL     OW37183   0.759   1.061   7.908 -0.3283  0.1071 -0.0829
 8516SOL    HW137184   0.794   0.972   7.909 -1.6434 -0.3818  2.2866
 8516SOL    HW237185   0.834   1.108   7.872 -0.4446  0.2400 -0.1518
 8517SOL     OW37186   4.067   1.753   1.937  0.1018  0.1820 -0.3931
 8517SOL    HW137187   3.978   1.740   1.972  0.6596  1.3239  1.4280
 8517SOL    HW237188   4.079   1.671   1.890  0.1972  0.3668 -0.6920
 8518SOL     OW37189   0.949   2.116   2.888  0.1795 -0.1322  0.4962
 8518SOL    HW137190   1.018   2.062   2.850 -2.4697 -1.1745 -2.7885
 8518SOL    HW237191   0.894   2.046   2.923 -0.0892 -0.9384 -1.5550
 8519SOL     OW37192   2.885   3.162   8.734  0.2088 -0.2473  0.0975
 8519SOL    HW137193   2.864   3.187   8.644 -0.5537 -0.8374  0.1185
 8519SOL    HW237194   2.919   3.246   8.764  1.0268 -0.3252 -0.5898
 8520SOL     OW37195   3.584   3.525   1.946 -0.3818 -0.0409  0.6899
 8520SOL    HW137196   3.642   3.596   1.972 -0.2278  0.2456 -0.4809
 8520SOL    HW237197   3.548   3.504   2.033  0.7064 -1.2462  0.8543
 8521SOL     OW37198   3.470   2.851   1.597 -0.4292 -0.5992  0.0521
 8521SOL    HW137199   3.499   2.764   1.625 -1.9603 -0.5783  1.6844
 8521SOL    HW237200   3.552   2.899   1.610  0.5738 -2.0362 -0.9245
 8522SOL     OW37201   1.175   3.236   9.416  0.3756  0.1282  0.2735
 8522SOL    HW137202   1.164   3.223   9.510 -2.0776 -3.8659 -0.5472
 8522SOL    HW237203   1.093   3.280   9.391 -0.6600 -3.1321 -2.1802
 8523SOL     OW37204   3.644   4.192  14.610 -0.1789 -0.2115  0.1650
 8523SOL    HW137205   3.571   4.157  14.558 -0.0834 -1.1688  0.6850
 8523SOL    HW237206   3.704   4.208  14.537 -0.2644  1.1750  0.3866
 8524SOL     OW37207   0.382   1.516   4.041  0.5372 -0.0372 -0.1471
 8524SOL    HW137208   0.358   1.578   3.972  1.2226  0.0537 -0.3040
 8524SOL    HW237209   0.460   1.550   4.083 -0.0413  1.7296 -0.5070
 8525SOL     OW37210   4.170   3.901   9.364  0.0969  0.2298 -0.4571
 8525SOL    HW137211   4.088   3.946   9.383  1.1485  0.6599  3.0438
 8525SOL    HW237212   4.138   3.815   9.394  3.3930  0.1677  2.8358
 8526SOL     OW37213   3.348   2.135  11.364 -0.4954  0.2987  0.2239
 8526SOL    HW137214   3.264   2.162  11.401 -0.7013 -1.9765  1.4146
 8526SOL    HW237215   3.409   2.209  11.365  0.7312 -0.6991 -0.8602
 8527SOL     OW37216   1.996   1.351   4.657  0.2366  0.2116  0.2671
 8527SOL    HW137217   2.045   1.272   4.633  0.9854  0.8429 -0.2768
 8527SOL    HW237218   1.917   1.312   4.696  0.7036 -2.1260 -1.0915
 8528SOL     OW37219   2.733   4.619   0.742 -0.1350  0.3100 -0.1125
 8528SOL    HW137220   2.795   4.548   0.725 -1.7542 -0.7246 -1.8047
 8528SOL    HW237221   2.710   4.642   0.652  2.2037 -2.0171 -1.3258
 8529SOL     OW37222   2.853   0.061   7.710 -0.5060 -0.0280  0.7919
 8529SOL    HW137223   2.808   4.716   7.724  1.7442 -1.5322 -1.0782
 8529SOL    HW237224   2.831   0.098   7.796  1.8353  1.1689  0.8603
 8530SOL     OW37225   0.532   3.393  12.067  0.3011  0.4248  0.2169
 8530SOL    HW137226   0.442   3.361  12.071  0.6326 -0.8510 -2.3189
 8530SOL    HW237227   0.579   3.310  12.074 -0.3349  0.0480  0.0990
 8531SOL     OW37228   3.090   1.294   7.363 -0.5841  0.1655  0.0847
 8531SOL    HW137229   3.010   1.311   7.314  0.0869  1.7486 -0.4528
 8531SOL    HW237230   3.083   1.201   7.387  0.5540  0.6853  2.4365
 8532SOL     OW37231   1.829   2.326   7.623  0.0634 -0.0075  0.4980
 8532SOL    HW137232   1.776   2.346   7.700  0.3858  2.9524 -0.0677
 8532SOL    HW237233   1.792   2.242   7.595 -0.0703  0.5096 -0.8857
 8533SOL     OW37234   2.908   4.074   3.633  0.1517 -0.1268  0.0426
 8533SOL    HW137235   2.926   3.999   3.689  1.1332  1.1323  1.3834
 8533SOL    HW237236   2.966   4.137   3.675  0.3468 -0.0730 -0.3046
 8534SOL     OW37237   3.403   0.834   3.875  0.3285 -0.8503  0.7686
 8534SOL    HW137238   3.485   0.803   3.838 -1.0479 -1.1271 -2.0175
 8534SOL    HW237239   3.403   0.793   3.961  1.6889  1.2244  1.7688
 8535SOL     OW37240   0.548   4.526   5.286  0.1559  0.1032 -0.0045
 8535SOL    HW137241   0.557   4.593   5.219 -1.7865  1.0057  0.6469
 8535SOL    HW237242   0.474   4.474   5.254  0.7913 -0.2010 -0.9734
 8536SOL     OW37243   1.925   3.713   7.234  0.0387  0.1467  0.8592
 8536SOL    HW137244   2.013   3.718   7.272 -0.3146  1.1916  1.5752
 8536SOL    HW237245   1.937   3.760   7.152 -2.2590 -0.6057  0.0910
 8537SOL     OW37246   3.746   2.383   8.221  0.3249 -0.2662  0.2078
 8537SOL    HW137247   3.741   2.473   8.187  0.8267  0.4843  2.1252
 8537SOL    HW237248   3.761   2.325   8.146  0.9195  1.1191 -0.7389
 8538SOL     OW37249   4.126   1.935   3.940  0.0148 -0.0767 -0.3945
 8538SOL    HW137250   4.035   1.965   3.938  0.2504  0.6605 -0.0593
 8538SOL    HW237251   4.155   1.956   3.851 -1.0407  1.2508 -0.4080
 8539SOL     OW37252   0.056   2.653   2.910 -0.2506 -0.4230  0.1108
 8539SOL    HW137253   0.112   2.703   2.850 -0.0656  0.7431  1.2503
 8539SOL    HW237254   4.735   2.726   2.929 -1.9928 -1.3936 -1.6491
 8540SOL     OW37255   3.849   0.728   3.168  0.1339 -0.0966 -0.1917
 8540SOL    HW137256   3.802   0.645   3.163  0.7946 -0.4201 -1.1501
 8540SOL    HW237257   3.934   0.685   3.179 -0.3039 -0.6023  1.2463
 8541SOL     OW37258   4.262   1.215   1.473  0.2147 -0.3214  0.1938
 8541SOL    HW137259   4.343   1.237   1.428 -0.8540 -0.8378 -1.9992
 8541SOL    HW237260   4.290   1.136   1.519 -1.4612 -1.4578 -0.7327
 8542SOL     OW37261   0.326   2.320  10.983  0.9800  0.4216  0.4329
 8542SOL    HW137262   0.312   2.340  11.076 -0.3845  1.9565 -0.0935
 8542SOL    HW237263   0.367   2.234  10.992  0.8184  0.3773  0.7439
 8543SOL     OW37264   0.977   4.193   6.438 -0.1616  0.0455 -0.0616
 8543SOL    HW137265   1.032   4.262   6.474  0.0227 -1.1598  1.9720
 8543SOL    HW237266   0.908   4.183   6.504 -0.5283 -2.0753 -0.7583
 8544SOL     OW37267   3.683   0.231  13.728  0.4076  0.3369  0.6438
 8544SOL    HW137268   3.647   0.274  13.651 -0.9151  0.2099  1.1880
 8544SOL    HW237269   3.769   0.197  13.702 -1.3766 -3.3133 -0.5134
 8545SOL     OW37270   1.380   0.014  13.965 -0.4080 -0.3205  0.2813
 8545SOL    HW137271   1.359   0.019  13.872 -3.6665 -2.2240  0.9062
 8545SOL    HW237272   1.289   0.020  13.994 -0.2941 -2.2568  1.0833
 8546SOL     OW37273   3.271   3.582  16.417 -0.9694 -0.5356 -0.0524
 8546SOL    HW137274   3.182   3.616  16.411 -1.3290 -1.4616 -0.0035
 8546SOL    HW237275   3.328   3.659  16.413  1.1753 -2.1717 -1.0922
 8547SOL     OW37276   0.998   1.938  13.556  0.6369 -0.4698  0.4273
 8547SOL    HW137277   0.949   1.932  13.474  0.6974 -0.4996  0.3939
 8547SOL    HW237278   0.932   1.909  13.619 -0.7886  0.7536 -0.5114
 8548SOL     OW37279   1.770   3.302   7.961 -0.1270 -0.5810 -0.0194
 8548SOL    HW137280   1.762   3.390   7.997 -0.5704 -0.3709 -0.6537
 8548SOL    HW237281   1.716   3.309   7.883  0.1251 -0.0348 -0.1402
 8549SOL     OW37282   2.398   2.156   7.646  0.0651 -0.5574  0.6691
 8549SOL    HW137283   2.439   2.224   7.592  0.2162 -0.7487  0.5434
 8549SOL    HW237284   2.436   2.169   7.734  1.5396  3.1918 -0.5100
 8550SOL     OW37285   1.503   3.426   3.402 -0.6365 -0.1374 -0.2567
 8550SOL    HW137286   1.513   3.467   3.488 -0.1608  0.1276 -0.4343
 8550SOL    HW237287   1.475   3.499   3.347  5.2778  2.1783 -0.1948
 8551SOL     OW37288   1.318   0.090  17.588 -0.3870 -0.1995 -0.5796
 8551SOL    HW137289   1.257   0.131  17.527  0.8035  2.6080  0.1216
 8551SOL    HW237290   1.288   0.104  17.678 -0.6157  1.5850 -0.9459
 8552SOL     OW37291   1.534   3.378   9.150 -0.5275 -0.3845 -0.2073
 8552SOL    HW137292   1.519   3.462   9.193  0.2697 -0.4745  0.2499
 8552SOL    HW237293   1.545   3.322   9.227 -0.3918  0.5132  0.4217
 8553SOL     OW37294   1.322   4.086   2.715 -0.0009 -0.2146  0.0377
 8553SOL    HW137295   1.294   4.104   2.805 -1.7336 -0.2554 -0.5075
 8553SOL    HW237296   1.305   4.177   2.691  2.6188  0.3319  0.1718
 8554SOL     OW37297   1.999   4.085  17.189  0.1356  0.1694 -0.7192
 8554SOL    HW137298   1.963   4.002  17.157 -0.8495 -0.0089  0.8728
 8554SOL    HW237299   1.929   4.112  17.248  0.8426  0.2397  0.0940
 8555SOL     OW37300   0.059   2.370   4.632  0.3643 -0.4863 -0.0078
 8555SOL    HW137301   0.046   2.309   4.704  3.2562 -0.8568  0.2110
 8555SOL    HW237302   0.155   2.370   4.635  0.3383 -1.3326  0.6384
 8556SOL     OW37303   0.793   2.365   9.893 -0.6784 -0.2193  0.0497
 8556SOL    HW137304   0.838   2.281   9.902 -0.6220 -0.4838 -2.7075
 8556SOL    HW237305   0.703   2.348   9.922 -0.5907 -0.8823 -0.0683
 8557SOL     OW37306   1.075   2.675   6.226 -0.2394  1.4018 -0.0798
 8557SOL    HW137307   0.982   2.654   6.238  0.3036 -0.3230  1.1512
 8557SOL    HW237308   1.083   2.653   6.133  0.7809 -0.2480  0.3976
 8558SOL     OW37309   0.169   0.530   7.691  0.3571 -0.8352  0.1802
 8558SOL    HW137310   0.217   0.585   7.629 -0.2961  0.0236  0.4281
 8558SOL    HW237311   0.229   0.500   7.760 -0.6053 -1.5374  0.6976
 8559SOL     OW37312   3.702   3.040   4.605 -0.1432  0.2143  0.2109
 8559SOL    HW137313   3.749   3.112   4.646  1.4625 -0.8435  0.2081
 8559SOL    HW237314   3.622   3.084   4.576  0.3607  0.4257 -0.8767
 8560SOL     OW37315   1.016   2.931  16.336  0.3821  0.5289  0.2752
 8560SOL    HW137316   1.110   2.913  16.343  0.1419 -0.7796  0.2430
 8560SOL    HW237317   1.012   3.023  16.309 -1.5753  0.8842  1.8566
 8561SOL     OW37318   4.541   0.482   4.988  0.5375 -0.7297 -0.3386
 8561SOL    HW137319   4.537   0.545   5.060  1.6650  1.5751 -2.2960
 8561SOL    HW237320   4.535   0.541   4.912 -1.6012  0.2326  0.5878
 8562SOL     OW37321   2.546   1.333   7.397 -0.7681  0.5861  0.3332
 8562SOL    HW137322   2.558   1.369   7.485  1.0491  0.5086  0.1219
 8562SOL    HW237323   2.459   1.366   7.376 -0.8552  0.7102  0.8819
 8563SOL     OW37324   4.429   4.630  10.700  0.0452 -0.1020 -0.4767
 8563SOL    HW137325   4.500   4.583  10.744 -2.9838 -1.2989  3.1782
 8563SOL    HW237326   4.488   4.653  10.629  1.1130  1.6698  0.9911
 8564SOL     OW37327   3.688   4.569   3.172 -0.2790  0.1635 -0.7717
 8564SOL    HW137328   3.720   4.546   3.085  0.9612 -0.2140 -0.2196
 8564SOL    HW237329   3.604   4.616   3.168  0.1153  0.6947 -2.7670
 8565SOL     OW37330   2.090   1.793   6.736  0.5005 -0.0053 -0.3991
 8565SOL    HW137331   2.148   1.756   6.803 -1.4140 -1.6287  0.3901
 8565SOL    HW237332   2.146   1.826   6.666  1.0644 -0.6632 -0.2585
 8566SOL     OW37333   2.314   1.732   7.254 -0.2949 -0.2833  0.3629
 8566SOL    HW137334   2.233   1.710   7.300  0.8547 -3.1469  1.0176
 8566SOL    HW237335   2.365   1.761   7.329  0.1004 -0.6217  0.2235
 8567SOL     OW37336   4.630   1.422   3.884 -0.3676 -0.2125  0.5049
 8567SOL    HW137337   4.692   1.416   3.957 -0.0474  1.1075  0.3392
 8567SOL    HW237338   4.554   1.461   3.927  0.0993 -0.1410  1.2628
 8568SOL     OW37339   0.656   1.705   7.574 -0.1079  0.2066 -0.7945
 8568SOL    HW137340   0.587   1.641   7.558  0.6419 -0.5273 -1.0519
 8568SOL    HW237341   0.612   1.761   7.638  0.4827  0.6874 -0.8030
 8569SOL     OW37342   0.354   3.002   3.211  0.5964 -0.3917  0.0891
 8569SOL    HW137343   0.278   3.027   3.262 -0.0796  2.2504 -2.1909
 8569SOL    HW237344   0.348   3.066   3.140  0.4376  0.5278  0.9293
 8570SOL     OW37345   4.256   0.120   5.178  0.0507 -0.2261 -0.2810
 8570SOL    HW137346   4.318   0.192   5.182 -0.9843  0.5929  1.0471
 8570SOL    HW237347   4.310   0.045   5.204 -0.7221  0.0262  2.0623
 8571SOL     OW37348   0.530   0.612   5.171  0.0783  1.0884  0.6171
 8571SOL    HW137349   0.583   0.536   5.196 -0.7087  0.6894  1.0750
 8571SOL    HW237350   0.535   0.659   5.254 -2.3656 -0.8293  1.8474
 8572SOL     OW37351   3.500   2.154   2.728  0.7546 -0.0945 -0.6028
 8572SOL    HW137352   3.579   2.145   2.781  1.7172  1.1588 -1.7975
 8572SOL    HW237353   3.471   2.064   2.741 -0.1494  0.0984 -1.2702
 8573SOL     OW37354   1.362   1.838  13.232  0.2425  0.0645 -0.0550
 8573SOL    HW137355   1.424   1.829  13.304  0.5344 -1.0097 -0.4475
 8573SOL    HW237356   1.376   1.926  13.196  1.0509 -0.6418 -1.4641
 8574SOL     OW37357   0.274   1.646   3.414  0.7008  0.3007  0.4812
 8574SOL    HW137358   0.348   1.674   3.468 -0.3711  0.9058  1.6377
 8574SOL    HW237359   0.212   1.634   3.486  0.2413 -1.2621 -0.1718
 8575SOL     OW37360   4.001   2.881  10.331 -0.6809  0.3129  0.5218
 8575SOL    HW137361   3.921   2.926  10.356 -2.4773 -1.8977 -1.2343
 8575SOL    HW237362   4.065   2.951  10.339 -1.4031  0.8698  1.3731
 8576SOL     OW37363   0.664   3.626   6.773 -0.6628 -0.0115 -0.3326
 8576SOL    HW137364   0.656   3.709   6.726 -1.4065  0.0325 -0.1394
 8576SOL    HW237365   0.572   3.600   6.763 -0.8844  1.1504 -1.2712
 8577SOL     OW37366   0.084   1.848  14.259  0.0243  0.0406 -0.2132
 8577SOL    HW137367   0.124   1.903  14.191 -1.7018  1.9646  0.3406
 8577SOL    HW237368   0.153   1.840  14.324 -0.3584 -3.1395 -0.1884
 8578SOL     OW37369   1.812   1.129   1.680 -0.0869 -0.6743 -0.0954
 8578SOL    HW137370   1.848   1.046   1.709  1.3270 -0.1640 -0.3970
 8578SOL    HW237371   1.767   1.096   1.602 -1.6979 -0.1253  0.5836
 8579SOL     OW37372   2.226   2.297   3.927  0.7407 -0.1685 -0.2135
 8579SOL    HW137373   2.205   2.228   3.990 -0.0629 -1.2345 -1.6677
 8579SOL    HW237374   2.307   2.327   3.969 -0.1406 -0.0252  1.3644
 8580SOL     OW37375   1.216   1.397   9.336 -0.9113 -0.2040  0.3945
 8580SOL    HW137376   1.162   1.363   9.408 -3.2693  1.0038 -0.8309
 8580SOL    HW237377   1.254   1.315   9.304  1.3034 -0.2238  3.0469
 8581SOL     OW37378   1.538   2.710   3.547  0.4942  0.8197  0.0793
 8581SOL    HW137379   1.628   2.735   3.526  0.7763 -0.3352 -0.1130
 8581SOL    HW237380   1.495   2.794   3.528  1.1117  0.7428 -1.6933
 8582SOL     OW37381   2.306   3.395  16.790 -0.3442  0.7074 -0.2750
 8582SOL    HW137382   2.339   3.385  16.879 -0.8064 -0.2077 -0.2097
 8582SOL    HW237383   2.288   3.302  16.777  0.3350  0.4384  0.7297
 8583SOL     OW37384   2.894   1.893   9.548  0.0834 -0.9510 -0.1132
 8583SOL    HW137385   2.898   1.982   9.513  2.3116 -1.0577 -0.1395
 8583SOL    HW237386   2.799   1.892   9.554  0.0417 -0.4172 -0.7290
 8584SOL     OW37387   1.714   2.732   9.489  0.0350 -0.0489 -0.3586
 8584SOL    HW137388   1.760   2.648   9.488  0.9112  0.4131  1.1041
 8584SOL    HW237389   1.765   2.790   9.432 -0.4522  0.4865 -0.2515
 8585SOL     OW37390   1.753   2.160   0.127  0.0714  0.6085 -0.0666
 8585SOL    HW137391   1.712   2.222   0.189  1.1168 -0.0907  1.3248
 8585SOL    HW237392   1.747   2.080   0.179  0.3314  1.0990  0.7304
 8586SOL     OW37393   2.019   4.321   3.692  1.1066 -0.2106  0.0080
 8586SOL    HW137394   2.113   4.312   3.678  0.7361 -2.7013 -0.8709
 8586SOL    HW237395   1.998   4.238   3.649  1.2439 -0.3647  0.2321
 8587SOL     OW37396   4.029   0.380  11.672  0.0704 -0.5346 -0.0058
 8587SOL    HW137397   3.976   0.301  11.673  0.3731 -0.7522 -1.3763
 8587SOL    HW237398   4.114   0.337  11.674  1.2200  1.7266  0.0454
 8588SOL     OW37399   1.146   2.127  13.799 -0.1937  1.0019 -0.5765
 8588SOL    HW137400   1.155   2.032  13.803  1.7410  1.2862  1.7219
 8588SOL    HW237401   1.172   2.140  13.708 -0.7025  1.9180 -0.5990
 8589SOL     OW37402   3.061   2.483  15.640 -0.2454  0.0496 -0.5368
 8589SOL    HW137403   3.040   2.402  15.686  0.9637 -0.2538 -0.5099
 8589SOL    HW237404   3.119   2.452  15.570 -1.3673 -0.8965 -1.0393
 8590SOL     OW37405   0.458   2.096  10.961  0.4195 -0.5990 -0.1499
 8590SOL    HW137406   0.481   2.005  10.982  1.3856 -0.3945 -0.3013
 8590SOL    HW237407   0.413   2.074  10.879 -1.1866  3.1183 -0.2454
 8591SOL     OW37408   4.374   3.025  10.168  0.1080  0.1962 -0.5109
 8591SOL    HW137409   4.408   2.966  10.235 -0.8600 -1.4748 -1.4763
 8591SOL    HW237410   4.441   3.090  10.190  0.0177  0.8706 -2.2802
 8592SOL     OW37411   2.312   4.179   3.380 -0.0982 -0.0866  0.2190
 8592SOL    HW137412   2.340   4.269   3.361  1.6306 -0.5504  0.6020
 8592SOL    HW237413   2.276   4.138   3.302 -1.3209  2.0040 -0.3163
 8593SOL     OW37414   3.788   1.786   2.062 -0.0563 -0.4861  0.1297
 8593SOL    HW137415   3.700   1.813   2.036 -1.0317 -3.1430  0.7032
 8593SOL    HW237416   3.768   1.708   2.113 -1.6143  0.3495  0.7962
 8594SOL     OW37417   0.572   3.777   3.062  0.2121  0.0308 -0.2868
 8594SOL    HW137418   0.613   3.694   3.037  0.0868 -0.3757  0.8972
 8594SOL    HW237419   0.530   3.805   2.980  2.5913  1.4308 -1.0311
 8595SOL     OW37420   0.925   1.023   4.245 -0.4217  0.0022  0.0997
 8595SOL    HW137421   0.933   1.116   4.224 -1.2913 -0.5625 -2.8228
 8595SOL    HW237422   0.989   1.030   4.315 -0.5028 -0.6948  0.2484
 8596SOL     OW37423   3.127   0.309   9.330  0.8693 -0.0083  0.1371
 8596SOL    HW137424   3.156   0.391   9.370  0.4083  0.6982 -0.9814
 8596SOL    HW237425   3.036   0.332   9.312  0.7843 -0.5270 -0.1182
 8597SOL     OW37426   3.731   3.465   0.559 -0.3218 -0.4059 -0.4212
 8597SOL    HW137427   3.758   3.430   0.474 -0.1298 -1.2346 -0.0148
 8597SOL    HW237428   3.655   3.515   0.528 -1.4584 -1.1726  1.1344
 8598SOL     OW37429   2.294   0.069   9.056 -0.7166 -0.1455 -0.2300
 8598SOL    HW137430   2.285   4.720   9.018  3.6568  0.0160 -1.7474
 8598SOL    HW237431   2.205   0.103   9.056 -0.7772 -0.3335  1.6060
 8599SOL     OW37432   3.848   3.275   5.448  0.1978 -0.0173  0.1654
 8599SOL    HW137433   3.863   3.294   5.541 -0.6923 -0.8880  0.4807
 8599SOL    HW237434   3.931   3.308   5.413 -0.9045 -0.0851 -2.5098
 8600SOL     OW37435   2.766   1.755   8.771  0.1389 -0.3085 -0.2365
 8600SOL    HW137436   2.724   1.673   8.743  2.6478 -1.2073 -1.3826
 8600SOL    HW237437   2.798   1.796   8.690 -0.3950  1.7204  0.5967
 8601SOL     OW37438   2.415   4.070   4.646 -0.0126 -0.0815  0.4721
 8601SOL    HW137439   2.408   3.977   4.665  0.5032 -0.7580 -2.6504
 8601SOL    HW237440   2.324   4.082   4.619  0.2300  0.1677 -0.2496
 8602SOL     OW37441   1.861   4.134   3.490  0.0122 -0.1281 -0.3067
 8602SOL    HW137442   1.955   4.118   3.500  0.1221  0.3961 -0.5422
 8602SOL    HW237443   1.846   4.039   3.481 -2.0018  0.2426 -0.7991
 8603SOL     OW37444   1.077   4.216  10.121 -0.9684  0.0170 -0.1657
 8603SOL    HW137445   1.167   4.247  10.131 -1.4284  1.4183 -0.3692
 8603SOL    HW237446   1.033   4.243  10.201  2.5133 -0.6571  1.9668
 8604SOL     OW37447   0.564   1.654   2.530 -0.5493  0.1663 -0.4889
 8604SOL    HW137448   0.519   1.694   2.605 -0.3695 -2.7195  1.1650
 8604SOL    HW237449   0.635   1.605   2.572 -0.2119  1.7267  0.7453
 8605SOL     OW37450   0.237   0.724   6.879  0.0844  0.6383 -0.3382
 8605SOL    HW137451   0.230   0.629   6.890 -0.4579  0.8282  0.9301
 8605SOL    HW237452   0.212   0.742   6.788  1.1915 -1.1583 -1.0030
 8606SOL     OW37453   3.394   2.469   6.511 -0.4444  0.7425 -0.9422
 8606SOL    HW137454   3.430   2.514   6.587  1.4681 -1.5075 -0.5183
 8606SOL    HW237455   3.303   2.499   6.513 -0.7424 -0.1320 -1.4200
 8607SOL     OW37456   2.984   2.230  11.697  0.4288 -0.6864 -0.2925
 8607SOL    HW137457   2.915   2.227  11.764  1.0778  1.0535  0.4527
 8607SOL    HW237458   2.982   2.324  11.684  0.6421 -0.7798 -1.0060
 8608SOL     OW37459   2.297   1.646  16.757 -1.3705 -0.6621  0.5105
 8608SOL    HW137460   2.206   1.617  16.761 -2.7257  3.2115 -1.9533
 8608SOL    HW237461   2.304   1.677  16.666 -1.1357  0.3759  0.8782
 8609SOL     OW37462   0.155   3.058   3.412 -0.4665 -0.5391  0.4446
 8609SOL    HW137463   0.131   3.008   3.490 -3.0546 -0.4155 -0.2823
 8609SOL    HW237464   0.119   3.145   3.428 -0.3041  0.0224 -2.2334
 8610SOL     OW37465   2.172   2.502   7.468 -0.6262  0.2536 -0.1342
 8610SOL    HW137466   2.145   2.594   7.478 -1.6640  0.0980 -1.4527
 8610SOL    HW237467   2.124   2.462   7.540 -2.5673  1.4649 -0.7537
 8611SOL     OW37468   4.562   3.329  15.090  0.0431 -0.2089 -0.1939
 8611SOL    HW137469   4.618   3.300  15.161 -1.5880 -0.4793  0.9838
 8611SOL    HW237470   4.594   3.279  15.015 -1.8005 -1.2150 -0.3199
 8612SOL     OW37471   1.511   4.307   8.491  0.0471 -0.3752  0.6955
 8612SOL    HW137472   1.486   4.399   8.484  1.8249  0.2378  2.4852
 8612SOL    HW237473   1.530   4.296   8.584 -1.5657  1.7141  1.2565
 8613SOL     OW37474   4.159   3.026   5.921  0.1350  0.3646 -0.3345
 8613SOL    HW137475   4.241   2.981   5.904  2.0126  3.1658  1.2076
 8613SOL    HW237476   4.104   2.986   5.854 -0.6585  0.1948  0.4262
 8614SOL     OW37477   4.632   0.046  12.225 -0.3554 -0.2580  0.3518
 8614SOL    HW137478   4.648   0.111  12.293 -1.8553  0.3590  0.1181
 8614SOL    HW237479   4.542   0.069  12.203 -0.4550  1.5515  2.7655
 8615SOL     OW37480   0.912   3.268  13.740  0.2466 -0.1699 -0.5295
 8615SOL    HW137481   0.953   3.185  13.718 -0.2081 -0.7016  0.6028
 8615SOL    HW237482   0.818   3.259  13.724 -0.1479  1.3433  0.8852
 8616SOL     OW37483   2.645   3.870   7.684 -0.2971 -0.1136 -0.2545
 8616SOL    HW137484   2.554   3.886   7.709 -0.4647 -0.0050 -0.9384
 8616SOL    HW237485   2.671   3.962   7.675 -0.0667 -0.3533 -1.9983
 8617SOL     OW37486   0.840   3.431   8.864 -0.3241 -0.1455 -0.2598
 8617SOL    HW137487   0.889   3.457   8.943 -1.6788  0.5616  0.3444
 8617SOL    HW237488   0.888   3.480   8.798  0.9255 -1.1326 -0.1004
 8618SOL     OW37489   1.556   2.044   8.922  0.3713  0.2605  0.1743
 8618SOL    HW137490   1.570   1.978   8.990  1.7627 -0.5178 -0.8731
 8618SOL    HW237491   1.483   2.013   8.868  0.8335 -0.2704 -0.1492
 8619SOL     OW37492   4.623   1.417  16.132 -0.2419 -0.0471  0.1701
 8619SOL    HW137493   4.594   1.329  16.109  0.8622 -0.0941 -1.0196
 8619SOL    HW237494   4.586   1.425  16.220 -0.6523 -0.0694  0.0010
 8620SOL     OW37495   1.353   3.013   5.941 -0.4331 -0.4494  0.1146
 8620SOL    HW137496   1.337   3.020   5.847  0.3992  1.3288  0.1153
 8620SOL    HW237497   1.321   2.926   5.964 -0.9543 -0.1099  0.6641
 8621SOL     OW37498   3.111   0.372   6.220 -0.3601 -0.7044 -0.3373
 8621SOL    HW137499   3.066   0.444   6.176  2.2906  0.1409 -1.6295
 8621SOL    HW237500   3.064   0.357   6.303  0.7720  2.1945  0.8294
 8622SOL     OW37501   1.481   3.019   7.180 -0.5331  0.1460 -0.4052
 8622SOL    HW137502   1.506   2.954   7.246 -1.3635  0.2698  0.0238
 8622SOL    HW237503   1.399   2.990   7.141 -0.6606 -0.1219  0.0700
 8623SOL     OW37504   4.264   1.199   6.058 -0.0650  0.3351  0.0455
 8623SOL    HW137505   4.285   1.164   6.145  1.6177  2.6305  0.5558
 8623SOL    HW237506   4.292   1.128   6.000 -0.6951  0.2481 -0.1469
 8624SOL     OW37507   2.032   2.882   3.448  0.3585 -0.3453  0.3003
 8624SOL    HW137508   1.954   2.835   3.478  1.1883 -2.1956 -0.4012
 8624SOL    HW237509   2.040   2.943   3.521  0.6374  1.2506 -1.0762
 8625SOL     OW37510   0.829   0.541  15.179 -0.1639  0.6486  0.1446
 8625SOL    HW137511   0.791   0.627  15.194  0.1828  0.7484  0.4609
 8625SOL    HW237512   0.749   0.488  15.179  0.1801  0.1544 -4.6008
 8626SOL     OW37513   2.278   4.521  15.369  0.0310  0.3296 -0.2324
 8626SOL    HW137514   2.348   4.585  15.355  0.1251  0.2818  0.0115
 8626SOL    HW237515   2.235   4.530  15.284 -1.3121  0.0965  0.4192
 8627SOL     OW37516   1.688   4.547   1.108 -0.3314 -0.0968 -0.4034
 8627SOL    HW137517   1.775   4.557   1.147 -1.2132  0.8277  1.3190
 8627SOL    HW237518   1.704   4.479   1.042  3.1713 -0.5171  0.8355
 8628SOL     OW37519   3.240   2.572   8.208 -0.1282  0.0829  0.0623
 8628SOL    HW137520   3.156   2.599   8.173 -0.1457 -0.5829 -0.4017
 8628SOL    HW237521   3.231   2.477   8.217  2.0608 -0.1840 -0.4667
 8629SOL     OW37522   3.102   3.377  15.363  0.2154 -0.1627 -0.0521
 8629SOL    HW137523   3.049   3.456  15.372 -1.4698 -0.8545 -3.7519
 8629SOL    HW237524   3.181   3.419  15.330 -1.8937  1.1111 -3.4898
 8630SOL     OW37525   3.481   1.755   5.139  0.1217 -0.1401 -0.5883
 8630SOL    HW137526   3.424   1.799   5.203  0.2978 -0.0272 -0.5104
 8630SOL    HW237527   3.534   1.696   5.192  2.4891  2.0854 -0.5022
 8631SOL     OW37528   0.488   4.694   1.070  0.5696 -0.2378 -0.4828
 8631SOL    HW137529   0.521   0.021   1.009 -1.0046  0.4240 -0.6433
 8631SOL    HW237530   0.515   4.737   1.151  0.1167 -3.8186  1.5800
 8632SOL     OW37531   0.088   3.024   7.293  0.2262 -0.5032 -0.4872
 8632SOL    HW137532   0.094   3.116   7.321 -0.9484 -0.1850 -1.2668
 8632SOL    HW237533   0.180   3.000   7.281 -0.3966 -3.1736  0.0489
 8633SOL     OW37534   0.743   2.051   0.958  0.3415  0.0208 -0.0564
 8633SOL    HW137535   0.787   1.968   0.976 -0.8576 -0.6185 -0.0442
 8633SOL    HW237536   0.687   2.055   1.036  0.9585  0.9562  0.3367
 8634SOL     OW37537   2.996   1.151  15.369 -0.0591  0.5214  0.0345
 8634SOL    HW137538   2.966   1.201  15.293  0.3412  2.7446  1.3607
 8634SOL    HW237539   3.089   1.172  15.357 -0.5203  1.5045 -1.8187
 8635SOL     OW37540   2.547   4.335  10.676  0.2363  0.1988 -0.4224
 8635SOL    HW137541   2.496   4.393  10.620  2.2370  0.7338 -1.7159
 8635SOL    HW237542   2.632   4.346  10.632  0.4037 -0.3881 -0.2529
 8636SOL     OW37543   4.362   3.651   4.407 -0.4070 -0.1799  0.1615
 8636SOL    HW137544   4.346   3.737   4.448  0.5823 -0.4628  1.1601
 8636SOL    HW237545   4.299   3.646   4.335  2.0333 -0.0213 -1.9798
 8637SOL     OW37546   0.089   4.000  14.696  0.4472 -0.1400 -0.2983
 8637SOL    HW137547   0.144   4.063  14.649  0.6997 -1.8968 -2.3374
 8637SOL    HW237548   0.125   3.920  14.658 -0.0249  0.1147 -1.2582
 8638SOL     OW37549   2.122   2.467   8.636 -0.1179  0.4600  0.2472
 8638SOL    HW137550   2.063   2.539   8.659 -2.7412  0.1667 -5.5935
 8638SOL    HW237551   2.151   2.444   8.724  1.2528  0.5541 -0.1764
 8639SOL     OW37552   0.758   3.057   7.016  0.1033  0.2877  0.0610
 8639SOL    HW137553   0.690   3.019   6.961  0.3580  0.1571 -0.1615
 8639SOL    HW237554   0.823   3.076   6.949 -0.2197  0.5186 -0.1901
 8640SOL     OW37555   3.450   4.593   8.714 -0.3306  0.3951 -0.3840
 8640SOL    HW137556   3.385   4.635   8.658  0.0025  1.8771  0.3194
 8640SOL    HW237557   3.534   4.639   8.710  0.5417 -1.2916 -1.4743
 8641SOL     OW37558   3.150   2.840  11.551  0.1666  0.4010  0.0469
 8641SOL    HW137559   3.214   2.899  11.511  0.0980 -0.4590 -1.3049
 8641SOL    HW237560   3.178   2.764  11.501 -0.3355 -1.2082  2.2034
 8642SOL     OW37561   4.269   0.577   5.542 -0.0075 -0.1025  0.6699
 8642SOL    HW137562   4.331   0.529   5.598  0.0995 -1.0017 -0.2249
 8642SOL    HW237563   4.319   0.589   5.462 -0.6175  1.6501  0.5464
 8643SOL     OW37564   0.629   0.050   4.582  0.3188 -0.0611  0.0774
 8643SOL    HW137565   0.661   0.017   4.497  4.8283  0.9069  1.4031
 8643SOL    HW237566   0.543   0.008   4.588 -0.7760  2.2711  0.5880
 8644SOL     OW37567   0.580   3.633   9.158  0.1580 -0.3086  0.4683
 8644SOL    HW137568   0.674   3.650   9.164 -0.0589  1.7109 -1.7453
 8644SOL    HW237569   0.571   3.619   9.064 -0.7433  2.0139  0.2100
 8645SOL     OW37570   0.067   3.620  15.939  0.4408  0.0360  0.4500
 8645SOL    HW137571   0.078   3.708  15.974 -0.5246  0.6858 -0.8636
 8645SOL    HW237572   0.158   3.591  15.935  0.3465 -0.0643 -1.1238
 8646SOL     OW37573   0.277   3.719  14.039 -0.0917  0.1344 -0.4973
 8646SOL    HW137574   0.216   3.706  13.966  2.4500  0.7983 -2.7504
 8646SOL    HW237575   0.280   3.815  14.036  0.1943  0.0620 -2.7825
 8647SOL     OW37576   1.236   0.698   8.114 -0.7272  0.2496  0.3757
 8647SOL    HW137577   1.254   0.761   8.045 -0.4069  0.6591  0.8328
 8647SOL    HW237578   1.319   0.661   8.145 -1.8784 -1.2630  1.7054
 8648SOL     OW37579   1.297   1.117   9.267 -0.8515  0.4187 -0.3846
 8648SOL    HW137580   1.366   1.177   9.238 -0.0729 -1.2132 -1.8705
 8648SOL    HW237581   1.231   1.110   9.198 -2.4052  1.3333  0.9886
 8649SOL     OW37582   1.346   4.664  17.209 -0.0975 -0.5717 -1.4196
 8649SOL    HW137583   1.415   4.611  17.169  1.8144  0.8132  0.0530
 8649SOL    HW237584   1.390   4.715  17.277 -0.4845 -0.4760 -1.2429
 8650SOL     OW37585   4.565   3.634  15.840 -0.0864 -0.1403 -0.0784
 8650SOL    HW137586   4.514   3.612  15.919 -1.0850  1.3462 -0.2968
 8650SOL    HW237587   4.656   3.627  15.868 -0.1564  1.8055  0.6526
 8651SOL     OW37588   1.959   2.492   6.443 -1.0541 -0.5234 -0.0416
 8651SOL    HW137589   1.908   2.445   6.378 -1.6002  0.2940 -0.1998
 8651SOL    HW237590   2.024   2.422   6.452  2.3485  2.7019  0.4567
 8652SOL     OW37591   1.347   2.362   2.784 -0.1611  0.2267 -0.1772
 8652SOL    HW137592   1.303   2.292   2.735 -0.3595  1.8703 -2.3521
 8652SOL    HW237593   1.301   2.351   2.867  0.1112  1.5373  0.1487
 8653SOL     OW37594   4.273   0.980   2.130 -0.0450 -0.3227  0.2899
 8653SOL    HW137595   4.323   0.900   2.150  0.4361 -0.5601 -1.8781
 8653SOL    HW237596   4.270   0.977   2.035  1.0968 -1.4504  0.2918
 8654SOL     OW37597   0.645   4.451   1.681 -0.1893 -0.0396  0.6225
 8654SOL    HW137598   0.654   4.417   1.592  2.5854  2.4607 -0.0529
 8654SOL    HW237599   0.576   4.394   1.714  1.1812 -2.7886 -1.2557
 8655SOL     OW37600   0.963   1.268   6.499 -0.5259  0.1732 -0.3195
 8655SOL    HW137601   1.025   1.241   6.431 -0.2675  1.2639 -0.5285
 8655SOL    HW237602   0.885   1.269   6.443 -1.0756 -0.3411  0.4403
 8656SOL     OW37603   1.808   4.211   8.026  0.5082  0.2489  0.2669
 8656SOL    HW137604   1.848   4.219   8.113  1.8322  2.0725 -0.5045
 8656SOL    HW237605   1.722   4.250   8.040  0.8644  0.9877  0.3588
 8657SOL     OW37606   3.204   1.778  17.402 -0.0918  0.0443  0.0931
 8657SOL    HW137607   3.148   1.807  17.330 -0.2636 -0.5470 -0.0121
 8657SOL    HW237608   3.137   1.747  17.463  0.9140  0.3358  1.3555
 8658SOL     OW37609   3.543   0.002   0.736  0.3662 -0.7384  0.6820
 8658SOL    HW137610   3.571   4.651   0.756 -0.7484 -0.9892  1.0996
 8658SOL    HW237611   3.546   4.731   0.641 -1.7633  1.3105  0.4197
 8659SOL     OW37612   3.231   3.531   3.516 -0.0920  0.4419 -0.0001
 8659SOL    HW137613   3.244   3.446   3.475 -0.9168  0.7233 -0.8482
 8659SOL    HW237614   3.301   3.584   3.477  1.8328 -2.4708 -0.4529
 8660SOL     OW37615   4.105   3.543  10.269  0.3178  0.1997 -0.1970
 8660SOL    HW137616   4.014   3.541  10.240 -0.2304 -1.0443  1.6139
 8660SOL    HW237617   4.154   3.573  10.192 -1.0149  1.8189 -0.3995
 8661SOL     OW37618   4.136   1.422   8.598 -0.4161  0.5176 -0.9094
 8661SOL    HW137619   4.150   1.328   8.594  1.8358  0.7836  0.6067
 8661SOL    HW237620   4.224   1.451   8.620 -0.7785 -0.5402  1.9243
 8662SOL     OW37621   1.217   4.206   5.212 -0.0314 -0.3713 -0.3136
 8662SOL    HW137622   1.145   4.168   5.162 -0.3894 -3.2215  2.3526
 8662SOL    HW237623   1.164   4.250   5.278  0.0231  0.3139 -0.7267
 8663SOL     OW37624   1.682   1.117   5.921  0.2755 -0.0805  0.1746
 8663SOL    HW137625   1.704   1.207   5.945  3.6556 -1.3832  2.0357
 8663SOL    HW237626   1.716   1.064   5.994  1.8508 -0.9602 -1.1978
 8664SOL     OW37627   0.738   1.585   4.920 -0.3985  0.1636  0.3150
 8664SOL    HW137628   0.751   1.537   5.001 -0.9054  0.3173  0.4888
 8664SOL    HW237629   0.644   1.572   4.908 -0.2387 -0.9035  0.2680
 8665SOL     OW37630   4.461   4.378   6.918 -0.3527 -0.3792 -0.2239
 8665SOL    HW137631   4.370   4.361   6.942 -0.1166 -2.2119 -0.6464
 8665SOL    HW237632   4.475   4.453   6.977  0.1221 -0.0605 -0.7427
 8666SOL     OW37633   4.426   4.626   4.052 -0.1508 -0.0609 -0.3025
 8666SOL    HW137634   4.470   4.585   4.127 -0.2994  1.7872  0.7840
 8666SOL    HW237635   4.472   4.595   3.975  1.1870  0.1183  0.4207
 8667SOL     OW37636   1.411   1.272   6.878 -0.1007  0.1855 -0.6131
 8667SOL    HW137637   1.389   1.181   6.901 -1.8063  0.4009 -1.3887
 8667SOL    HW237638   1.328   1.318   6.869 -0.2565 -0.1578 -0.9071
 8668SOL     OW37639   0.381   0.031   4.846  0.7343  0.3091 -0.2716
 8668SOL    HW137640   0.309   4.714   4.815 -0.8662  2.1409  0.1864
 8668SOL    HW237641   0.436   0.053   4.771  1.5006  1.7292  0.7247
 8669SOL     OW37642   2.693   1.217   8.166  0.2885 -0.6387  0.1718
 8669SOL    HW137643   2.757   1.174   8.109 -0.2672 -0.8780 -0.2802
 8669SOL    HW237644   2.637   1.144   8.193 -1.4842 -0.1201 -2.0752
 8670SOL     OW37645   4.601   2.970   4.057 -0.1056  0.0336  0.2225
 8670SOL    HW137646   4.649   3.025   4.119  0.2812  1.0375 -0.9598
 8670SOL    HW237647   4.569   2.904   4.118  0.2342  0.0703  0.4430
 8671SOL     OW37648   2.690   2.467   2.435  0.1165 -0.2335  0.3635
 8671SOL    HW137649   2.736   2.511   2.506 -1.5864 -0.9655  1.9035
 8671SOL    HW237650   2.738   2.497   2.358 -2.1989 -1.2212 -1.4565
 8672SOL     OW37651   0.400   0.560  16.792 -0.0786 -0.0408  0.1351
 8672SOL    HW137652   0.358   0.593  16.713 -1.1232  0.2460  0.8163
 8672SOL    HW237653   0.482   0.533  16.750 -1.6462 -2.3923 -1.3978
 8673SOL     OW37654   1.456   3.830   2.483  0.0646 -0.2547  0.7144
 8673SOL    HW137655   1.499   3.784   2.555  1.2289  0.1324  0.2787
 8673SOL    HW237656   1.493   3.918   2.494 -0.6291  0.2359 -0.8405
 8674SOL     OW37657   0.693   2.133  16.446  0.0750  0.2822  0.3059
 8674SOL    HW137658   0.649   2.159  16.365  2.6040  0.5650 -0.9988
 8674SOL    HW237659   0.621   2.147  16.508  0.9838  1.0127  1.2054
 8675SOL     OW37660   4.622   4.040  15.009 -0.1990 -0.0035 -0.4980
 8675SOL    HW137661   4.671   4.117  14.981 -0.1914  0.1296 -0.1078
 8675SOL    HW237662   4.678   4.016  15.082 -3.2556  0.0042  1.8736
 8676SOL     OW37663   2.754   3.029   4.023  0.1513  0.1571 -0.0856
 8676SOL    HW137664   2.724   2.938   4.029 -1.0059  0.6857  2.1821
 8676SOL    HW237665   2.833   3.014   3.970 -0.0551 -1.4193  0.0553
 8677SOL     OW37666   2.757   0.720  16.637  0.1965  0.6631 -0.0889
 8677SOL    HW137667   2.721   0.809  16.630  0.4772  0.6969 -1.1374
 8677SOL    HW237668   2.821   0.714  16.566 -2.4721 -0.0199 -2.4273
 8678SOL     OW37669   2.803   1.448  10.397  0.2847  0.1741  0.2438
 8678SOL    HW137670   2.767   1.519  10.344 -0.8410  0.6848  1.6718
 8678SOL    HW237671   2.785   1.375  10.338  0.7375 -0.2690  0.6574
 8679SOL     OW37672   3.763   0.571   1.156  0.2464  0.0077  0.6845
 8679SOL    HW137673   3.726   0.590   1.241  1.1483  1.6257  0.7083
 8679SOL    HW237674   3.698   0.517   1.111  0.0529 -1.8462  3.1800
 8680SOL     OW37675   1.378   2.455   8.144  0.6823 -0.0210  0.0409
 8680SOL    HW137676   1.381   2.545   8.177  0.1123 -0.0481  0.1811
 8680SOL    HW237677   1.349   2.413   8.225 -0.4880  2.1082  0.7222
 8681SOL     OW37678   0.041   0.711   5.662 -0.8354  0.7224 -0.3637
 8681SOL    HW137679   4.698   0.708   5.611 -1.1864 -0.3385  0.2621
 8681SOL    HW237680   0.028   0.628   5.707  0.1499  0.1023 -1.2463
 8682SOL     OW37681   0.850   3.120  10.103  0.0752 -0.2416 -0.0746
 8682SOL    HW137682   0.803   3.173  10.168  0.4046 -0.8369  0.6549
 8682SOL    HW237683   0.825   3.030  10.121  1.0192 -0.3274  0.8099
 8683SOL     OW37684   4.697   3.476   5.903 -0.2134 -0.0095  0.4997
 8683SOL    HW137685   4.688   3.438   5.990 -0.6543 -3.5241 -1.0883
 8683SOL    HW237686   0.036   3.533   5.902 -0.6028  0.4775 -2.1701
 8684SOL     OW37687   1.513   3.329  14.459  0.2515 -0.4959  0.4040
 8684SOL    HW137688   1.527   3.240  14.492 -0.4938 -0.9830 -0.6179
 8684SOL    HW237689   1.427   3.317  14.420  0.1719 -1.7751  0.9546
 8685SOL     OW37690   3.297   4.470   6.921 -0.3702 -0.1221 -0.2571
 8685SOL    HW137691   3.343   4.504   6.998  1.2521 -2.6234 -0.1319
 8685SOL    HW237692   3.370   4.466   6.859  0.1988  3.4328  0.1640
 8686SOL     OW37693   1.500   0.080   3.644  0.4073 -0.0837  0.1555
 8686SOL    HW137694   1.442   0.118   3.710  3.4192  0.7164  2.3190
 8686SOL    HW237695   1.588   0.086   3.681 -0.0602  0.6640  1.1549
 8687SOL     OW37696   3.265   2.745   2.828 -0.9498 -0.2414 -0.3912
 8687SOL    HW137697   3.179   2.705   2.811  0.0120 -2.1020 -0.9746
 8687SOL    HW237698   3.253   2.796   2.908  0.7431  0.4308 -0.5732
 8688SOL     OW37699   1.402   3.137   5.372 -1.0086  0.3824 -0.0510
 8688SOL    HW137700   1.475   3.083   5.403 -1.1629 -0.4176 -1.0816
 8688SOL    HW237701   1.431   3.220   5.411 -1.0444  1.3110 -2.0055
 8689SOL     OW37702   1.085   1.990   3.657 -0.0756  0.5102 -0.1944
 8689SOL    HW137703   1.036   1.910   3.638 -1.3999  1.7080 -1.7723
 8689SOL    HW237704   1.123   2.015   3.573  1.5964  0.4743  0.5555
 8690SOL     OW37705   1.323   3.370  15.816 -0.2290 -0.0498 -0.1221
 8690SOL    HW137706   1.378   3.341  15.888  2.4000  2.8232 -0.9678
 8690SOL    HW237707   1.360   3.456  15.795 -0.0320  0.0572  0.6699
 8691SOL     OW37708   2.457   0.396   5.532  0.0952 -0.5857  0.1371
 8691SOL    HW137709   2.552   0.388   5.532  0.0753 -0.8057 -0.0389
 8691SOL    HW237710   2.435   0.401   5.439 -0.3753 -0.8205  0.2351
 8692SOL     OW37711   2.217   0.118   4.130  0.4601  0.7734 -0.2005
 8692SOL    HW137712   2.276   0.044   4.142 -1.1063 -0.4189  0.0949
 8692SOL    HW237713   2.149   0.099   4.194  1.1387 -3.0248 -0.5852
 8693SOL     OW37714   1.569   1.089   2.970 -0.0310 -0.1828 -0.3278
 8693SOL    HW137715   1.660   1.119   2.964  0.1580 -1.0172 -1.8149
 8693SOL    HW237716   1.568   1.068   3.063 -1.7996  3.0954  0.3916
 8694SOL     OW37717   2.355   1.709   5.611  0.3048 -0.3626 -0.2519
 8694SOL    HW137718   2.338   1.727   5.519  1.9113  0.4354 -0.3755
 8694SOL    HW237719   2.439   1.754   5.610  0.2455 -0.2095  1.3258
 8695SOL     OW37720   0.896   1.936   8.301  0.2837  0.1283 -0.8718
 8695SOL    HW137721   0.939   2.017   8.276 -0.8753  1.4806  1.5388
 8695SOL    HW237722   0.966   1.871   8.292 -1.9306 -2.4730  0.6605
 8696SOL     OW37723   3.402   1.133  10.303  0.2423 -0.3187  0.0451
 8696SOL    HW137724   3.465   1.205  10.307  1.4151 -1.4246  1.6165
 8696SOL    HW237725   3.337   1.169  10.243  1.5412  1.1592 -0.4593
 8697SOL     OW37726   4.730   1.465   6.675 -0.1849 -0.0778 -0.2173
 8697SOL    HW137727   4.708   1.394   6.736 -0.8336  0.5402  0.2737
 8697SOL    HW237728   4.678   1.430   6.602  0.8933 -0.6350 -0.7060
 8698SOL     OW37729   3.041   1.671   5.490  0.0291 -0.3061 -0.1196
 8698SOL    HW137730   3.062   1.723   5.413  0.0715 -0.9745 -0.5604
 8698SOL    HW237731   3.055   1.582   5.457  0.0960  0.0255 -0.9729
 8699SOL     OW37732   2.520   2.960   2.238 -1.1333 -0.3940  0.0896
 8699SOL    HW137733   2.575   2.962   2.316 -0.6255  0.6810 -0.3049
 8699SOL    HW237734   2.590   2.975   2.176 -1.7774 -0.8549 -0.7498
 8700SOL     OW37735   2.606   3.684  14.953 -0.0091  0.2715 -0.3135
 8700SOL    HW137736   2.615   3.750  15.022 -0.1608 -0.8455  0.7950
 8700SOL    HW237737   2.533   3.722  14.904 -1.0702  0.1127  1.1182
 8701SOL     OW37738   4.228   1.759   6.061  0.0326 -0.1926  0.3522
 8701SOL    HW137739   4.288   1.790   6.129  0.3701 -1.6846  0.7282
 8701SOL    HW237740   4.286   1.732   5.990  0.2027  0.6298  0.1740
 8702SOL     OW37741   2.984   0.489   4.447  0.1344 -0.1297 -0.8110
 8702SOL    HW137742   3.057   0.456   4.499  0.1435  0.9150 -0.1513
 8702SOL    HW237743   2.926   0.412   4.456 -0.4697  0.1452 -2.3902
 8703SOL     OW37744   0.886   2.153   3.999 -0.2488 -0.2257  0.6067
 8703SOL    HW137745   0.868   2.123   4.088 -3.3300  0.8039  0.3469
 8703SOL    HW237746   0.968   2.197   4.019 -1.5637  1.8636  1.4013
 8704SOL     OW37747   3.089   1.614   4.078  0.0654 -0.1411  0.2678
 8704SOL    HW137748   3.024   1.621   4.009 -0.3627 -0.5162  0.6319
 8704SOL    HW237749   3.028   1.582   4.145 -2.1773  1.7843 -0.8486
 8705SOL     OW37750   2.254   4.284   9.202 -0.3044  0.1090 -0.7174
 8705SOL    HW137751   2.171   4.269   9.247 -0.1146  1.2528  0.0205
 8705SOL    HW237752   2.307   4.344   9.255 -0.4398  0.2194 -0.7049
 8706SOL     OW37753   2.094   0.101   3.835 -0.4190 -0.2612  0.2628
 8706SOL    HW137754   2.140   0.081   3.916  0.1400  1.1996  0.3050
 8706SOL    HW237755   2.068   0.011   3.817  1.4948 -0.5648 -0.9634
 8707SOL     OW37756   4.581   4.386   8.793  0.0049  0.3850 -0.3004
 8707SOL    HW137757   4.546   4.296   8.794  1.0821 -0.0035  2.5813
 8707SOL    HW237758   4.534   4.424   8.867 -1.6733 -1.4212 -0.4443
 8708SOL     OW37759   3.667   0.924   4.329 -0.1258 -0.4174 -0.0326
 8708SOL    HW137760   3.690   0.840   4.369 -1.3642 -0.3764  0.7454
 8708SOL    HW237761   3.583   0.894   4.295 -0.9806  1.1989  0.6915
 8709SOL     OW37762   4.304   3.377   4.648  0.2523 -0.0144 -0.2624
 8709SOL    HW137763   4.307   3.354   4.741 -1.6688 -0.3800 -0.2918
 8709SOL    HW237764   4.263   3.297   4.614  0.2501 -0.0833 -0.0972
 8710SOL     OW37765   2.179   0.157   0.304 -0.1811  0.7053 -0.6208
 8710SOL    HW137766   2.272   0.180   0.307 -0.0703  0.2015 -0.1385
 8710SOL    HW237767   2.142   0.226   0.249 -0.5322  0.0622 -1.1890
 8711SOL     OW37768   2.720   4.189   3.102 -0.0765  0.0194  0.6480
 8711SOL    HW137769   2.791   4.250   3.084 -0.6415  0.6492  0.5579
 8711SOL    HW237770   2.769   4.110   3.123 -0.9179 -1.0395 -1.3160
 8712SOL     OW37771   1.132   1.484   6.221  0.3329  0.0390 -0.1888
 8712SOL    HW137772   1.113   1.396   6.255 -3.4291  1.4436  1.3234
 8712SOL    HW237773   1.226   1.503   6.220  0.8748 -2.5013  1.7689
 8713SOL     OW37774   4.349   4.691   6.015 -0.0945  0.1143  0.0357
 8713SOL    HW137775   4.324   4.645   6.095  1.2639  0.1311  0.4779
 8713SOL    HW237776   4.441   4.715   6.030 -0.4141  1.4313 -0.0599
 8714SOL     OW37777   4.114   2.056  12.733  0.0263  0.4251 -0.1390
 8714SOL    HW137778   4.120   2.141  12.689 -2.6847  0.4581 -0.4087
 8714SOL    HW237779   4.206   2.028  12.731 -0.0573  0.2394 -1.4173
 8715SOL     OW37780   0.761   0.831   3.437  0.3994 -0.2422  0.0253
 8715SOL    HW137781   0.836   0.790   3.393 -0.8432 -0.2660 -2.0835
 8715SOL    HW237782   0.693   0.764   3.445 -1.3115  1.3383 -1.3654
 8716SOL     OW37783   2.431   2.776   6.364  0.2318 -0.2796 -0.3507
 8716SOL    HW137784   2.429   2.867   6.393  0.3956 -0.3944  0.0118
 8716SOL    HW237785   2.448   2.785   6.270 -1.3647 -1.4300 -0.7431
 8717SOL     OW37786   3.583   3.223   6.483  0.3012 -0.0063 -0.1743
 8717SOL    HW137787   3.622   3.287   6.542  0.7308  0.1663 -0.6466
 8717SOL    HW237788   3.656   3.225   6.421 -1.0180 -0.7249 -1.7547
 8718SOL     OW37789   3.471   3.409   3.744  0.0972 -0.0900  0.5184
 8718SOL    HW137790   3.518   3.345   3.796  2.0410  0.8588 -0.0730
 8718SOL    HW237791   3.405   3.345   3.719  1.9463 -1.2027 -1.5420
 8719SOL     OW37792   4.677   0.262  15.529 -0.1226  0.1701  0.0458
 8719SOL    HW137793   4.694   0.174  15.562  1.7134  0.6345  0.3585
 8719SOL    HW237794   0.022   0.263  15.481  0.3697 -0.0131  0.8843
 8720SOL     OW37795   0.991   4.148   9.433  0.2520  0.3023 -0.2431
 8720SOL    HW137796   0.903   4.115   9.415  0.4132 -0.9712  1.3374
 8720SOL    HW237797   0.977   4.241   9.449 -1.6933  0.0215 -0.3357
 8721SOL     OW37798   0.110   3.063   5.553  0.2898  0.0570 -0.3914
 8721SOL    HW137799   0.025   3.106   5.562  0.7026  0.7718  0.1264
 8721SOL    HW237800   0.100   2.993   5.618 -0.3446  1.2853  0.8372
 8722SOL     OW37801   1.119   3.519   6.568 -0.4949 -0.6141 -0.2268
 8722SOL    HW137802   1.119   3.606   6.527  0.1218  0.0042  1.0837
 8722SOL    HW237803   1.051   3.533   6.634  0.3315 -0.5164  0.6032
 8723SOL     OW37804   0.106   3.580   9.873 -0.2864  0.0010  0.9991
 8723SOL    HW137805   0.172   3.577   9.942  1.0218  0.5596 -0.2210
 8723SOL    HW237806   0.070   3.492   9.885  2.7543 -1.4958 -0.6237
 8724SOL     OW37807   0.123   0.380   4.356 -0.3005 -0.4948 -0.0491
 8724SOL    HW137808   0.137   0.439   4.282  2.9427 -0.0763  0.9028
 8724SOL    HW237809   0.170   0.435   4.419 -0.3794 -0.1288 -0.3147
 8725SOL     OW37810   1.387   2.575   7.271 -0.0608 -0.5707 -0.3945
 8725SOL    HW137811   1.381   2.583   7.175  3.6758  0.8820 -0.5050
 8725SOL    HW237812   1.301   2.601   7.303 -0.4342 -1.3679 -0.7532
 8726SOL     OW37813   1.668   1.666   3.873  0.4771  0.1721  0.5052
 8726SOL    HW137814   1.577   1.641   3.859  0.8011 -0.2417 -0.8590
 8726SOL    HW237815   1.722   1.588   3.881 -1.6456 -1.2813  0.4948
 8727SOL     OW37816   2.555   1.622   1.194  0.0988 -0.1736 -0.0552
 8727SOL    HW137817   2.614   1.623   1.118  0.1331  0.4492 -0.0134
 8727SOL    HW237818   2.516   1.535   1.183  2.7057 -1.5343  1.6116
 8728SOL     OW37819   1.682   1.995   3.610  0.1273  0.5065  0.0565
 8728SOL    HW137820   1.595   1.971   3.643 -0.1385 -1.5366 -2.1165
 8728SOL    HW237821   1.676   2.088   3.631 -0.6411  0.2790  0.8842
 8729SOL     OW37822   4.417   0.122   7.100 -0.4194 -0.3247 -0.1640
 8729SOL    HW137823   4.410   0.157   7.188 -0.0476  0.5314 -0.4736
 8729SOL    HW237824   4.459   0.038   7.121  1.0496  0.1909 -1.0136
 8730SOL     OW37825   3.790   1.675   6.059  0.1111 -0.5441  0.0255
 8730SOL    HW137826   3.810   1.691   5.967  0.3017  0.3123  0.2115
 8730SOL    HW237827   3.860   1.719   6.107 -0.6413  0.4476  0.2298
 8731SOL     OW37828   4.132   0.025   1.509  0.7185  0.3288  0.1455
 8731SOL    HW137829   4.053   0.057   1.552  0.8673  0.7472  0.1109
 8731SOL    HW237830   4.102   0.003   1.421 -0.9142  0.4998  0.6668
 8732SOL     OW37831   1.370   1.695   3.022  0.0569  0.1789  0.0118
 8732SOL    HW137832   1.423   1.764   2.981  0.1702  1.0731  1.6835
 8732SOL    HW237833   1.404   1.617   2.978  2.0044  0.2674  1.3652
 8733SOL     OW37834   2.463   3.928   8.282  0.4831 -0.3443  0.0370
 8733SOL    HW137835   2.499   3.843   8.309  0.8204  0.1330  1.0981
 8733SOL    HW237836   2.371   3.928   8.308  0.6225 -1.5076  0.5211
 8734SOL     OW37837   1.945   0.159   4.412 -0.0080  0.0155  0.5152
 8734SOL    HW137838   1.885   0.088   4.435  0.7078 -0.7318  0.0783
 8734SOL    HW237839   2.033   0.122   4.409  0.7095  1.9073 -2.0171
 8735SOL     OW37840   3.744   0.200   2.168  0.3330  0.1289 -0.3888
 8735SOL    HW137841   3.752   0.195   2.073 -0.5673 -0.3213 -0.4408
 8735SOL    HW237842   3.690   0.278   2.178 -0.7679 -1.0095  2.4564
 8736SOL     OW37843   3.177   4.463   5.414  0.5354 -0.3316  0.2349
 8736SOL    HW137844   3.123   4.472   5.335 -1.6880 -0.3204  1.7739
 8736SOL    HW237845   3.246   4.522   5.383 -2.1036  3.9918  2.4482
 8737SOL     OW37846   2.681   2.779   5.080 -0.7493  0.1250 -0.2271
 8737SOL    HW137847   2.599   2.761   5.126 -1.5590 -1.3470 -2.2861
 8737SOL    HW237848   2.639   2.806   4.999  0.7700  1.4056 -0.5932
 8738SOL     OW37849   3.086   0.685  13.028 -0.5202 -0.0248  0.1309
 8738SOL    HW137850   3.121   0.755  12.974 -0.7829  0.6327  0.8172
 8738SOL    HW237851   3.051   0.733  13.103  0.3364  2.0867 -0.8412
 8739SOL     OW37852   3.620   0.775  10.595 -0.5526  0.0078 -0.4016
 8739SOL    HW137853   3.544   0.792  10.539 -0.4220  0.3426 -0.4741
 8739SOL    HW237854   3.690   0.818  10.545 -0.0045  2.1789  2.2378
 8740SOL     OW37855   1.411   3.247   0.916  0.4534 -0.2301 -0.8049
 8740SOL    HW137856   1.449   3.317   0.968 -0.4839  0.4539 -1.0360
 8740SOL    HW237857   1.320   3.255   0.947  0.4264 -1.6493 -0.5019
 8741SOL     OW37858   2.410   2.952   9.073 -0.1672 -0.1841  0.0271
 8741SOL    HW137859   2.360   2.912   9.144 -2.5758  1.1942 -0.9030
 8741SOL    HW237860   2.488   2.897   9.078 -0.1815 -0.0629  1.5995
 8742SOL     OW37861   4.526   2.994   5.961  0.0305 -0.7589  0.1961
 8742SOL    HW137862   4.547   3.084   5.939 -1.7986  0.4101  3.2761
 8742SOL    HW237863   4.491   2.998   6.050 -0.2676  2.3526 -0.0644
 8743SOL     OW37864   1.013   0.027   2.365  0.3467  0.2032 -0.4426
 8743SOL    HW137865   1.081   0.060   2.423 -1.1798 -0.0291  1.4940
 8743SOL    HW237866   0.973   0.113   2.352  2.4972  1.5760  2.0376
 8744SOL     OW37867   1.235   2.708  17.141  0.3822  0.1026 -0.1984
 8744SOL    HW137868   1.317   2.699  17.189  0.3616  3.7688  0.5078
 8744SOL    HW237869   1.171   2.718  17.212  1.0220 -0.0797  0.3937
 8745SOL     OW37870   2.852   1.811   7.862  0.4503 -0.3360 -0.5660
 8745SOL    HW137871   2.806   1.748   7.917 -1.3215 -1.1900 -3.0461
 8745SOL    HW237872   2.789   1.824   7.792 -1.5899 -3.4932  0.6954
 8746SOL     OW37873   3.830   2.067   2.134  0.1449 -0.1270 -0.0882
 8746SOL    HW137874   3.826   1.978   2.100  1.7667  0.6879 -2.4270
 8746SOL    HW237875   3.898   2.066   2.201  0.3499 -0.9972 -0.3053
 8747SOL     OW37876   0.678   0.109   3.739 -0.0401  0.5340 -1.0317
 8747SOL    HW137877   0.641   0.040   3.684 -1.1479  0.5104 -0.2514
 8747SOL    HW237878   0.619   0.113   3.815  2.0915 -1.3137  0.7257
 8748SOL     OW37879   3.007   3.533  10.535  0.1877 -0.2246  0.1795
 8748SOL    HW137880   2.925   3.581  10.545  0.0193 -0.4518 -0.1313
 8748SOL    HW237881   3.044   3.598  10.475 -1.2936  0.4046 -0.0431
 8749SOL     OW37882   0.358   1.207   7.292 -0.2594 -0.1702 -0.0037
 8749SOL    HW137883   0.339   1.249   7.376  1.7668  0.3691  0.1846
 8749SOL    HW237884   0.423   1.143   7.320  1.5505  3.0085  3.1317
 8750SOL     OW37885   4.250   3.797   1.153  0.0384 -0.4383 -0.4327
 8750SOL    HW137886   4.176   3.844   1.116  1.1038  0.1702 -1.7677
 8750SOL    HW237887   4.210   3.718   1.190  2.8641 -0.8101  1.8864
 8751SOL     OW37888   1.128   2.471   7.728  0.0851 -0.7619  0.0506
 8751SOL    HW137889   1.126   2.511   7.641  1.0903 -0.1882  0.2842
 8751SOL    HW237890   1.097   2.382   7.713  1.1859 -1.1238 -0.0791
 8752SOL     OW37891   2.518   0.360   3.058 -0.2303  0.2448  0.3785
 8752SOL    HW137892   2.499   0.359   2.964 -3.5403 -1.4285  1.0819
 8752SOL    HW237893   2.513   0.271   3.092 -0.9868  0.3304  0.4908
 8753SOL     OW37894   3.825   1.948  13.380  0.0689  0.3396  0.6953
 8753SOL    HW137895   3.845   2.039  13.405  0.6648 -0.2042  2.1529
 8753SOL    HW237896   3.904   1.936  13.327  0.0418 -0.0812  0.7546
 8754SOL     OW37897   2.351   1.763   5.332 -0.2691 -0.6190  0.4076
 8754SOL    HW137898   2.301   1.724   5.259 -3.0575 -1.2599  2.6695
 8754SOL    HW237899   2.440   1.752   5.297 -0.8615  0.3236 -1.3994
 8755SOL     OW37900   1.320   2.408  11.045 -0.2552 -0.7401 -0.4285
 8755SOL    HW137901   1.247   2.358  11.009  0.7562 -1.1869 -1.9031
 8755SOL    HW237902   1.298   2.431  11.135  0.5997 -2.1879  0.1597
 8756SOL     OW37903   4.410   0.296   1.308 -0.5166 -0.2530  0.6617
 8756SOL    HW137904   4.444   0.215   1.268  1.5482  1.2437 -0.6080
 8756SOL    HW237905   4.436   0.364   1.246 -1.8165 -0.2881  0.0827
 8757SOL     OW37906   4.287   2.325   1.521 -0.1566  0.3197  0.4285
 8757SOL    HW137907   4.348   2.358   1.455  0.3831 -2.2232 -0.3492
 8757SOL    HW237908   4.350   2.325   1.593  0.8630 -0.4967 -0.4662
 8758SOL     OW37909   2.235   1.588  13.655 -0.1773 -0.2296  0.0284
 8758SOL    HW137910   2.170   1.521  13.674 -0.2403  0.2493  1.5456
 8758SOL    HW237911   2.274   1.577  13.742 -1.5285 -1.4478  0.4648
 8759SOL     OW37912   3.968   0.781   1.329 -0.3663  0.3227 -0.0431
 8759SOL    HW137913   4.055   0.818   1.316  0.7159 -1.3595  2.5630
 8759SOL    HW237914   3.917   0.861   1.318 -0.7429  0.3415  1.8956
 8760SOL     OW37915   0.890   2.219   6.518 -0.0645  0.4651  0.1774
 8760SOL    HW137916   0.896   2.240   6.424 -1.0480 -0.4259 -0.0781
 8760SOL    HW237917   0.807   2.174   6.528  0.0573 -0.1817 -1.7521
 8761SOL     OW37918   3.381   4.397   5.178  0.0734  0.5936 -0.5467
 8761SOL    HW137919   3.321   4.369   5.247  0.6045  0.0638 -0.2941
 8761SOL    HW237920   3.423   4.310   5.173 -1.1549 -0.0395  0.3180
 8762SOL     OW37921   3.593   0.281   5.450 -0.6106  0.0553 -0.6481
 8762SOL    HW137922   3.611   0.188   5.457 -0.3425  0.1015 -0.7174
 8762SOL    HW237923   3.517   0.287   5.508  0.4395  2.9582  0.4413
 8763SOL     OW37924   4.380   3.946  10.365 -0.2779  0.3208 -0.6810
 8763SOL    HW137925   4.300   3.970  10.319 -1.4688 -1.8663  0.2451
 8763SOL    HW237926   4.339   3.904  10.441 -0.5349 -2.3895 -2.3299
 8764SOL     OW37927   3.432   1.349   6.001  0.1194 -0.2111  0.2005
 8764SOL    HW137928   3.392   1.361   5.915  0.0991 -0.6950  0.1408
 8764SOL    HW237929   3.514   1.313   5.968  1.1332  1.9917  0.2878
 8765SOL     OW37930   1.443   2.925   4.017  0.0077 -0.2041 -0.1560
 8765SOL    HW137931   1.352   2.928   3.987  0.2395 -1.1404 -0.9596
 8765SOL    HW237932   1.444   2.869   4.095  0.4696  0.9582  0.6670
 8766SOL     OW37933   3.726   3.129   5.761 -0.4886  1.0155 -0.2061
 8766SOL    HW137934   3.663   3.094   5.699  0.3416  0.6327 -0.8374
 8766SOL    HW237935   3.677   3.199   5.803 -0.3756  0.7110  0.4306
 8767SOL     OW37936   1.808   0.003   8.516 -0.0950 -0.3439 -0.2682
 8767SOL    HW137937   1.875   0.006   8.584 -0.4711 -1.5668  0.1510
 8767SOL    HW237938   1.729   0.006   8.570  1.8215  2.1820  2.3769
 8768SOL     OW37939   1.135   4.006   6.563  0.2038 -0.1299  0.4987
 8768SOL    HW137940   1.076   4.066   6.518  1.1505 -0.4391 -1.1432
 8768SOL    HW237941   1.217   4.055   6.555 -0.1499  0.5087  0.7705
 8769SOL     OW37942   3.399   2.976   4.368 -0.0135  0.2233  0.2195
 8769SOL    HW137943   3.338   3.036   4.326  2.5420  1.9119 -1.1300
 8769SOL    HW237944   3.344   2.911   4.410  1.7223 -1.7905 -0.5646
 8770SOL     OW37945   3.709   0.913   3.857 -0.1839 -0.4510 -0.3777
 8770SOL    HW137946   3.776   0.981   3.865 -0.6239  0.1033 -1.4357
 8770SOL    HW237947   3.764   0.835   3.849  0.7628  0.1822 -0.1357
 8771SOL     OW37948   2.888   3.270   1.819 -0.1266  0.1092  0.3227
 8771SOL    HW137949   2.920   3.250   1.731 -1.5045 -2.7274  0.4913
 8771SOL    HW237950   2.942   3.220   1.880 -0.6377 -0.2214  0.5006
 8772SOL     OW37951   4.702   2.602   7.017 -0.2219 -0.0778 -0.4073
 8772SOL    HW137952   4.712   2.681   7.071 -2.5951 -0.2117  0.2248
 8772SOL    HW237953   4.672   2.540   7.084  0.1604 -0.3825 -0.5162
 8773SOL     OW37954   2.466   0.285  13.637 -0.7937  0.3032 -0.1078
 8773SOL    HW137955   2.472   0.319  13.726  0.3861  1.0781 -0.4922
 8773SOL    HW237956   2.449   0.193  13.659  0.4814  0.7336  2.6522
 8774SOL     OW37957   0.669   2.786   1.707  0.5006 -0.1572  0.5896
 8774SOL    HW137958   0.602   2.736   1.660 -0.5891  1.3953  0.4896
 8774SOL    HW237959   0.750   2.755   1.666 -1.4756 -1.6764 -2.1661
 8775SOL     OW37960   4.020   1.591   7.685 -0.0187  0.1241  0.6418
 8775SOL    HW137961   3.987   1.554   7.603 -0.7503  0.6420  0.6930
 8775SOL    HW237962   4.098   1.633   7.649  0.9614  0.1013  2.7589
 8776SOL     OW37963   0.838   3.839   7.124  0.2751  0.0968 -0.6706
 8776SOL    HW137964   0.831   3.794   7.208 -1.1372 -0.0084 -0.8375
 8776SOL    HW237965   0.747   3.861   7.105  0.4928  1.6288  0.0744
 8777SOL     OW37966   0.225   0.318  16.820 -0.3583 -0.3813 -0.4818
 8777SOL    HW137967   0.312   0.279  16.814 -0.1780 -0.1732  0.7911
 8777SOL    HW237968   0.244   0.390  16.880 -1.1597 -0.2293 -0.4089
 8778SOL     OW37969   0.843   1.114   5.361  0.2537  0.3802  0.5762
 8778SOL    HW137970   0.920   1.157   5.399 -0.5191  0.3658  2.1725
 8778SOL    HW237971   0.768   1.164   5.396 -0.1496  0.8990 -1.0292
 8779SOL     OW37972   3.390   4.552   9.002  0.3984  0.0125 -0.1737
 8779SOL    HW137973   3.422   4.640   9.021 -1.3501  0.4287  0.8230
 8779SOL    HW237974   3.417   4.550   8.910  0.2361 -0.9158 -0.1967
 8780SOL     OW37975   0.143   2.484   2.039 -0.0088 -0.5362  0.1685
 8780SOL    HW137976   0.086   2.515   2.109 -0.7519 -1.3369 -0.0776
 8780SOL    HW237977   0.131   2.550   1.971  1.9915  0.5522  0.9007
 8781SOL     OW37978   3.822   0.349   0.734  0.0193  0.2229  0.3751
 8781SOL    HW137979   3.784   0.393   0.658  1.0252  1.5237  0.6174
 8781SOL    HW237980   3.740   0.320   0.773 -0.4472  0.4056 -0.4904
 8782SOL     OW37981   3.758   0.502   3.384 -0.0940 -0.1802  0.4845
 8782SOL    HW137982   3.668   0.488   3.412 -0.5101  1.3394 -0.0916
 8782SOL    HW237983   3.739   0.534   3.296 -0.0750 -1.4345  0.0246
 8783SOL     OW37984   3.983   3.479   6.012  0.1161 -0.1910  0.8800
 8783SOL    HW137985   4.009   3.562   6.052 -2.4503  0.0383  2.1229
 8783SOL    HW237986   3.889   3.486   6.031  0.6399  2.5736  2.4585
 8784SOL     OW37987   1.723   2.769   7.170 -0.6532 -0.1524  0.0896
 8784SOL    HW137988   1.694   2.683   7.202 -1.2788 -0.1993 -0.6036
 8784SOL    HW237989   1.761   2.749   7.085  0.7187  0.6856  0.5139
 8785SOL     OW37990   1.741   3.384   5.186 -0.0566  0.0873 -0.3212
 8785SOL    HW137991   1.696   3.308   5.150  1.4731 -0.1542 -1.7436
 8785SOL    HW237992   1.699   3.391   5.272  1.4327 -0.4193  0.4554
 8786SOL     OW37993   1.969   0.803   4.269 -0.3312 -0.1464 -0.7633
 8786SOL    HW137994   1.960   0.873   4.205  2.2594 -1.2004 -2.2790
 8786SOL    HW237995   2.032   0.763   4.208 -0.3065 -1.6217  0.2181
 8787SOL     OW37996   3.657   0.134   6.413  0.1263 -0.1317 -0.4309
 8787SOL    HW137997   3.623   0.132   6.324 -0.7870  0.5409 -0.0956
 8787SOL    HW237998   3.581   0.106   6.464  1.0726  0.7338  1.4458
 8788SOL     OW37999   1.910   0.181  14.824  0.1176  0.6868 -0.1398
 8788SOL    HW138000   1.836   0.178  14.884  0.9795 -2.9860  0.7783
 8788SOL    HW238001   1.858   0.154  14.748 -0.4235  1.8982 -0.2006
 8789SOL     OW38002   3.820   2.659   2.601  0.1640  0.2512 -0.2080
 8789SOL    HW138003   3.731   2.693   2.612  1.1790  2.4708  1.1955
 8789SOL    HW238004   3.854   2.677   2.689  0.1650  0.8445 -0.3280
 8790SOL     OW38005   2.397   1.058  10.899 -0.7321  0.1800  0.2965
 8790SOL    HW138006   2.450   1.112  10.958  0.3237 -1.4545  0.8220
 8790SOL    HW238007   2.433   0.970  10.900 -2.0065 -0.3479  0.1554
 8791SOL     OW38008   4.697   0.633   7.845  0.1075 -0.2324  0.3142
 8791SOL    HW138009   0.032   0.594   7.798  0.4179 -0.8243  1.2856
 8791SOL    HW238010   4.669   0.570   7.911 -1.8921 -0.3091 -0.6004
 8792SOL     OW38011   0.521   1.458  15.985  0.0039 -0.8380 -0.0748
 8792SOL    HW138012   0.539   1.473  15.892 -3.5658 -2.5649 -1.0250
 8792SOL    HW238013   0.487   1.545  16.002 -1.0413 -1.3120  0.2617
 8793SOL     OW38014   0.304   3.496  14.486 -0.0822 -0.0209  0.1112
 8793SOL    HW138015   0.231   3.557  14.492  1.1672  1.2297  2.8170
 8793SOL    HW238016   0.380   3.549  14.512  1.3244 -2.0404  0.1417
 8794SOL     OW38017   3.703   1.645   8.431  0.2061 -0.5986 -0.0526
 8794SOL    HW138018   3.658   1.692   8.502 -1.2941 -0.8116 -0.8648
 8794SOL    HW238019   3.701   1.558   8.470  0.2758 -0.3963  0.4047
 8795SOL     OW38020   0.409   3.174   5.906  0.8962 -0.2223  0.0928
 8795SOL    HW138021   0.355   3.110   5.858 -1.0836  0.1080  1.8839
 8795SOL    HW238022   0.479   3.190   5.843  1.1716  1.2942  0.8044
 8796SOL     OW38023   3.621   3.840   2.793 -0.1308  0.6502  0.4110
 8796SOL    HW138024   3.581   3.922   2.822 -0.4422  0.4156  0.6565
 8796SOL    HW238025   3.704   3.840   2.839 -0.3003  0.7202  0.7145
 8797SOL     OW38026   1.619   4.580   7.125  0.2378 -0.1616 -0.3488
 8797SOL    HW138027   1.677   4.654   7.147 -0.5572  0.5285 -0.5903
 8797SOL    HW238028   1.538   4.622   7.154 -0.6151 -0.1025 -2.8075
 8798SOL     OW38029   4.499   2.652   5.760 -0.2792 -0.0513 -0.1022
 8798SOL    HW138030   4.580   2.687   5.797 -0.3240  0.7876 -0.8268
 8798SOL    HW238031   4.447   2.732   5.766 -0.9762 -0.4665 -0.5938
 8799SOL     OW38032   3.487   0.392   4.394 -0.2179 -0.4161  0.6564
 8799SOL    HW138033   3.544   0.422   4.464 -0.2227 -1.7024  1.2092
 8799SOL    HW238034   3.457   0.473   4.351  0.1242  0.3319  1.8276
 8800SOL     OW38035   2.291   2.467   2.465 -0.0484 -0.5812  0.1462
 8800SOL    HW138036   2.350   2.521   2.517  1.4171  0.0189 -2.1511
 8800SOL    HW238037   2.222   2.532   2.452  1.6610  1.3874  0.9161
 8801SOL     OW38038   2.050   0.820   4.531  0.4248  0.1777 -0.1554
 8801SOL    HW138039   1.999   0.821   4.451 -0.7864 -2.0755  0.5685
 8801SOL    HW238040   2.084   0.908   4.545 -1.8872  0.9985  0.2064
 8802SOL     OW38041   2.094   0.793   9.674  0.7219 -0.0967  0.2607
 8802SOL    HW138042   2.145   0.723   9.632  0.6299 -0.1818  0.2896
 8802SOL    HW238043   2.166   0.833   9.721  0.4009  0.2473  0.4600
 8803SOL     OW38044   0.087   0.045  10.698  0.3652 -0.2191  0.7026
 8803SOL    HW138045   0.181   0.045  10.715  0.7824 -1.2333 -1.5102
 8803SOL    HW238046   0.055   0.025  10.786 -0.9828 -1.5605 -0.0907
 8804SOL     OW38047   2.348   3.672   5.703  0.1708  0.0013 -0.2118
 8804SOL    HW138048   2.334   3.598   5.762 -0.2951  0.7053  0.5587
 8804SOL    HW238049   2.261   3.712   5.704 -1.0311 -2.5268 -1.6390
 8805SOL     OW38050   4.163   2.491  17.580  0.2054  0.2640  0.0800
 8805SOL    HW138051   4.108   2.492  17.502 -0.9797  1.6566  0.9461
 8805SOL    HW238052   4.104   2.443  17.639 -2.4816  4.2334  0.5653
 8806SOL     OW38053   0.421   0.151  14.222 -0.5683  0.5158 -0.3068
 8806SOL    HW138054   0.414   0.240  14.187 -0.6821  0.4074 -0.5596
 8806SOL    HW238055   0.367   0.158  14.301 -0.4814 -0.2529 -0.1793
 8807SOL     OW38056   0.117   2.984   4.249  0.2499 -0.1326 -0.1075
 8807SOL    HW138057   0.077   3.071   4.245  0.2685 -0.0465  1.4546
 8807SOL    HW238058   0.081   2.960   4.334 -0.8205  0.1997 -0.4738
 8808SOL     OW38059   3.665   1.572   3.094  0.1040 -0.6165 -0.4753
 8808SOL    HW138060   3.574   1.548   3.079  0.4533 -0.7630 -2.3095
 8808SOL    HW238061   3.691   1.529   3.176 -0.5940  0.9111  0.5571
 8809SOL     OW38062   0.410   0.241   4.383  0.1095 -0.5430 -0.4807
 8809SOL    HW138063   0.386   0.239   4.291  0.4709  1.0804 -0.6076
 8809SOL    HW238064   0.446   0.152   4.383  0.5080 -0.3852 -0.1173
 8810SOL     OW38065   3.268   3.334   8.781  0.4042  0.6564  0.2406
 8810SOL    HW138066   3.300   3.266   8.841  0.0508  0.0350 -0.2769
 8810SOL    HW238067   3.306   3.315   8.696  1.2312 -1.0203  0.9712
 8811SOL     OW38068   0.032   3.408   2.348  0.0374  0.5897  0.3744
 8811SOL    HW138069   4.724   3.353   2.410  0.6486  0.4708  0.7228
 8811SOL    HW238070   4.717   3.487   2.340  0.2532  0.6411 -0.6522
 8812SOL     OW38071   2.635   3.935   2.489  0.2648  0.0215  0.9014
 8812SOL    HW138072   2.619   3.986   2.410 -0.8382 -0.6298  0.6963
 8812SOL    HW238073   2.723   3.911   2.460 -1.1523 -2.4111 -1.4676
 8813SOL     OW38074   4.266   4.164   4.256  0.0771 -0.1812 -0.3088
 8813SOL    HW138075   4.246   4.161   4.350 -1.7490 -0.6469 -0.7194
 8813SOL    HW238076   4.293   4.255   4.248  0.5152 -0.2780  0.0361
 8814SOL     OW38077   2.581   0.296   3.529  0.6076  0.1371  0.0090
 8814SOL    HW138078   2.598   0.328   3.617  2.3457 -0.5226 -0.0908
 8814SOL    HW238079   2.599   0.378   3.484  0.6948  0.5213  0.7636
 8815SOL     OW38080   1.512   3.224   4.168  0.0118  0.2335  0.5183
 8815SOL    HW138081   1.578   3.161   4.199 -1.5228 -1.6685 -0.0460
 8815SOL    HW238082   1.537   3.308   4.206 -0.6714  0.1457  1.1624
 8816SOL     OW38083   3.121   3.415  11.179 -0.4640  0.8341 -0.2963
 8816SOL    HW138084   3.078   3.369  11.251 -2.0829 -0.1120 -1.8557
 8816SOL    HW238085   3.151   3.489  11.231  2.1862 -1.5467  1.5852
 8817SOL     OW38086   3.516   4.640  14.801 -0.8293  0.2170 -0.3552
 8817SOL    HW138087   3.551   4.552  14.791 -1.7948 -0.2511  0.4094
 8817SOL    HW238088   3.583   4.697  14.762 -1.3449  0.9550 -0.1607
 8818SOL     OW38089   0.204   2.957   0.222 -0.5649 -0.5078  0.0371
 8818SOL    HW138090   0.132   3.013   0.252  0.1718  0.4971 -0.0679
 8818SOL    HW238091   0.200   2.943   0.127  0.7112  4.3545 -0.7044
 8819SOL     OW38092   1.074   0.609   7.041 -0.6480 -0.0445  0.5745
 8819SOL    HW138093   1.025   0.659   6.975  0.1532  2.7431  2.1097
 8819SOL    HW238094   0.994   0.573   7.080  0.1979  0.4711  2.7712
 8820SOL     OW38095   2.183   2.873   8.036 -0.5941 -0.0003  0.0240
 8820SOL    HW138096   2.133   2.894   8.115 -0.7981  0.5009 -0.2344
 8820SOL    HW238097   2.181   2.951   7.980 -0.8507 -0.2983 -0.3843
 8821SOL     OW38098   3.742   4.018   6.734  0.0276  0.0797  0.6028
 8821SOL    HW138099   3.781   4.057   6.656 -2.7232 -0.2071 -0.9004
 8821SOL    HW238100   3.744   4.099   6.786 -0.1801  1.0773 -0.9447
 8822SOL     OW38101   3.575   2.423   5.594 -0.0055  0.1635 -0.7378
 8822SOL    HW138102   3.649   2.463   5.549  1.8528 -1.5933  0.7732
 8822SOL    HW238103   3.619   2.385   5.670 -0.1557 -1.5243 -1.5030
 8823SOL     OW38104   2.902   4.546   7.080  0.3022 -0.5580  0.2366
 8823SOL    HW138105   2.986   4.508   7.051  1.3517  1.8761  0.0873
 8823SOL    HW238106   2.924   4.637   7.100  0.4809 -0.6782  0.5900
 8824SOL     OW38107   4.136   0.833   4.520  0.1220  0.1356  0.2304
 8824SOL    HW138108   4.104   0.744   4.536  0.2825 -0.0244 -0.3425
 8824SOL    HW238109   4.148   0.865   4.610 -0.8212  1.3856 -0.0950
 8825SOL     OW38110   0.723   4.449   7.762 -0.0600 -0.6239 -0.2661
 8825SOL    HW138111   0.812   4.425   7.736 -0.3685 -0.0396 -1.8610
 8825SOL    HW238112   0.724   4.434   7.857 -2.3936  0.1816 -0.1236
 8826SOL     OW38113   1.597   0.999   6.274  0.7946 -0.1384  0.6299
 8826SOL    HW138114   1.670   1.061   6.271 -0.5652  1.4502  0.4399
 8826SOL    HW238115   1.540   1.032   6.343 -0.3434 -0.5057 -0.1314
 8827SOL     OW38116   1.256   2.167  15.880  0.3271  0.2388 -0.1063
 8827SOL    HW138117   1.271   2.244  15.826 -0.1524  1.3564  1.3592
 8827SOL    HW238118   1.274   2.204  15.966 -1.1462 -0.4202  0.4940
 8828SOL     OW38119   0.452   2.331   0.610 -0.3433  1.2770  0.7681
 8828SOL    HW138120   0.538   2.342   0.569  0.8328 -3.0075  2.1319
 8828SOL    HW238121   0.397   2.372   0.543  0.7562  2.0418  0.3350
 8829SOL     OW38122   0.828   4.217   5.153  0.4107  0.2891 -0.0680
 8829SOL    HW138123   0.755   4.206   5.214  0.3419  0.9368 -0.0319
 8829SOL    HW238124   0.854   4.309   5.163  1.3923 -0.0496  0.4193
 8830SOL     OW38125   1.223   0.574   2.317 -0.8556 -0.1767 -0.2350
 8830SOL    HW138126   1.146   0.553   2.264 -0.0602 -1.4971 -0.8701
 8830SOL    HW238127   1.211   0.662   2.352  2.5498  1.2311 -2.6801
 8831SOL     OW38128   0.354   2.819   7.533 -0.0090 -0.1403 -0.2460
 8831SOL    HW138129   0.299   2.763   7.587  0.1237  0.1217  0.1598
 8831SOL    HW238130   0.316   2.790   7.451  0.1742  0.8487 -0.6816
 8832SOL     OW38131   1.686   2.792   8.668  0.0177  0.5382  0.6105
 8832SOL    HW138132   1.739   2.712   8.668  0.7308  1.0153 -0.3355
 8832SOL    HW238133   1.603   2.748   8.686  0.4212 -0.3811  0.1994
 8833SOL     OW38134   3.731   3.390   7.380 -0.2516 -0.4029 -0.4895
 8833SOL    HW138135   3.819   3.407   7.415 -0.6937  0.6396  0.0994
 8833SOL    HW238136   3.764   3.339   7.306 -0.3502 -0.8053 -0.2546
 8834SOL     OW38137   4.054   2.867   0.833  0.6642  0.2113  0.3942
 8834SOL    HW138138   4.076   2.941   0.889  1.9371 -0.5230  0.8488
 8834SOL    HW238139   3.963   2.847   0.857  0.3263  0.1918 -0.8727
 8835SOL     OW38140   2.081   3.635  16.329  0.0683 -0.0219 -1.1708
 8835SOL    HW138141   1.995   3.677  16.327 -0.2516 -0.6804 -1.2766
 8835SOL    HW238142   2.108   3.651  16.420 -0.7219 -1.2389 -0.7158
 8836SOL     OW38143   0.470   0.830   1.740 -0.0626  0.5253  0.1605
 8836SOL    HW138144   0.375   0.828   1.741 -0.0154 -2.2560 -0.4936
 8836SOL    HW238145   0.493   0.909   1.788  2.3270 -0.4744  0.7144
 8837SOL     OW38146   4.634   1.680   4.434  0.2974 -0.4054 -0.0171
 8837SOL    HW138147   4.622   1.597   4.388 -0.3244 -0.0992 -0.4137
 8837SOL    HW238148   4.636   1.652   4.525  1.1131 -3.3139 -0.9203
 8838SOL     OW38149   4.195   2.014   0.528  0.4154  0.0882  0.2350
 8838SOL    HW138150   4.265   1.990   0.467  0.0639  0.2678 -0.2284
 8838SOL    HW238151   4.205   2.109   0.529 -0.3855  0.1925 -3.9469
 8839SOL     OW38152   2.712   0.773   6.285 -0.2370  0.3026  0.3285
 8839SOL    HW138153   2.655   0.757   6.209  1.6241 -2.0965 -0.5621
 8839SOL    HW238154   2.790   0.719   6.269  0.6728  1.1402  2.0525
 8840SOL     OW38155   1.454   4.306  13.584 -0.1844  0.9346  0.1127
 8840SOL    HW138156   1.549   4.301  13.598 -0.4081  1.7115  1.9844
 8840SOL    HW238157   1.446   4.394  13.549 -0.6286  0.9505  0.2466
 8841SOL     OW38158   3.592   1.145   3.729  0.0052 -0.2814  0.3266
 8841SOL    HW138159   3.511   1.109   3.766 -1.2246  0.5069 -1.5871
 8841SOL    HW238160   3.652   1.073   3.745  0.5738  0.1370  0.0917
 8842SOL     OW38161   1.721   0.709   6.044  0.0977  0.2493  0.6171
 8842SOL    HW138162   1.794   0.720   6.105  0.7081 -0.6873  0.0588
 8842SOL    HW238163   1.748   0.629   5.999  0.2546 -0.1420  1.4081
 8843SOL     OW38164   1.120   0.285   7.580  0.2510 -0.0016  0.2862
 8843SOL    HW138165   1.181   0.351   7.613  0.6578 -1.2609  2.0529
 8843SOL    HW238166   1.038   0.330   7.561 -0.2483 -1.1308 -0.2691
 8844SOL     OW38167   0.955   1.377   2.756  0.2039  0.1132 -0.5393
 8844SOL    HW138168   1.005   1.363   2.837  0.1944 -0.0712 -0.5649
 8844SOL    HW238169   0.946   1.286   2.729  1.4589 -0.3073  0.4316
 8845SOL     OW38170   1.125   2.050   5.411  0.1046 -0.2241  0.2151
 8845SOL    HW138171   1.056   2.052   5.477  0.6448 -2.7550  0.8523
 8845SOL    HW238172   1.205   2.035   5.461  0.1322 -1.2858 -0.1298
 8846SOL     OW38173   0.420   2.591   7.065  0.2601 -0.2326 -0.2699
 8846SOL    HW138174   0.479   2.524   7.030 -0.8978 -1.3863 -0.0084
 8846SOL    HW238175   0.350   2.578   7.000  1.7984 -2.2080 -1.5448
 8847SOL     OW38176   0.248   0.435   6.902  0.3692  0.1323 -0.0389
 8847SOL    HW138177   0.305   0.407   6.974 -1.1541  0.3753  1.2817
 8847SOL    HW238178   0.271   0.364   6.843  2.0955 -0.2071  1.0492
 8848SOL     OW38179   0.442   1.307   4.216  0.2684  0.2295  0.2312
 8848SOL    HW138180   0.379   1.236   4.227  0.4699 -0.0701 -0.5604
 8848SOL    HW238181   0.413   1.344   4.133 -1.4697 -0.8184  0.3794
 8849SOL     OW38182   1.499   2.847  16.969  0.6986  0.0580 -0.5945
 8849SOL    HW138183   1.413   2.823  16.935  0.0104  0.3483  0.9434
 8849SOL    HW238184   1.477   2.903  17.043 -0.0297 -0.2421 -0.5899
 8850SOL     OW38185   2.334   3.355  15.751 -0.2569 -0.3546  0.3835
 8850SOL    HW138186   2.378   3.437  15.728 -1.0589 -0.6524 -2.2376
 8850SOL    HW238187   2.344   3.346  15.845  1.8491  2.3452  0.4023
 8851SOL     OW38188   1.248   0.387   6.387 -0.1537 -0.1057 -0.3347
 8851SOL    HW138189   1.241   0.318   6.453  1.8829  0.8760  0.9234
 8851SOL    HW238190   1.167   0.437   6.400 -0.0052  0.6770 -2.3683
 8852SOL     OW38191   2.919   3.646   3.583 -0.2979  0.1277  0.6771
 8852SOL    HW138192   2.886   3.568   3.538  1.5744 -0.7762  0.8631
 8852SOL    HW238193   2.838   3.695   3.599 -1.3125 -1.7895  1.5745
 8853SOL     OW38194   4.431   0.234   1.713  0.0383 -0.4042 -0.4501
 8853SOL    HW138195   4.401   0.325   1.718  2.1554  0.3116 -1.1493
 8853SOL    HW238196   4.459   0.226   1.804  1.6596  0.8199 -0.8469
 8854SOL     OW38197   3.337   3.994   2.547  0.2089  0.3879 -0.4961
 8854SOL    HW138198   3.269   3.976   2.612  0.7274  0.3161  0.0359
 8854SOL    HW238199   3.356   4.083   2.577  1.4456  0.0434 -0.2252
 8855SOL     OW38200   0.092   3.281   7.354  0.2879  0.4419  0.1861
 8855SOL    HW138201   0.062   3.284   7.445 -1.5333 -2.5715 -0.3189
 8855SOL    HW238202   0.026   3.338   7.314  0.5567  1.1009  0.6806
 8856SOL     OW38203   2.751   2.818  16.472  0.6279 -0.3969 -0.2178
 8856SOL    HW138204   2.692   2.743  16.468 -0.7345  0.5276  2.7807
 8856SOL    HW238205   2.735   2.850  16.383  0.3478  0.2492  0.0579
 8857SOL     OW38206   2.407   0.931   6.842  0.0861  0.1758 -0.0201
 8857SOL    HW138207   2.457   0.961   6.766 -3.2340  2.7056 -1.2270
 8857SOL    HW238208   2.440   0.841   6.842  1.6444  0.7480 -1.8960
 8858SOL     OW38209   0.465   2.534   1.082 -0.2650 -0.2556  0.5127
 8858SOL    HW138210   0.449   2.483   1.161  1.8264 -1.4875  0.1360
 8858SOL    HW238211   0.468   2.456   1.026 -2.1844 -1.0590  1.5030
 8859SOL     OW38212   2.771   2.211  15.965 -0.3049 -0.4892 -0.2004
 8859SOL    HW138213   2.833   2.282  15.951 -0.7839 -0.1854 -0.7819
 8859SOL    HW238214   2.724   2.256  16.035 -0.0449 -1.8049  0.8259
 8860SOL     OW38215   2.589   1.839   8.214  0.4273 -0.7267 -0.1590
 8860SOL    HW138216   2.663   1.890   8.182 -0.5879  0.3428 -0.8215
 8860SOL    HW238217   2.520   1.881   8.163  0.4469 -0.5570 -0.0473
 8861SOL     OW38218   0.785   2.097   2.217  0.3666 -0.2392 -0.1418
 8861SOL    HW138219   0.706   2.063   2.258 -0.0690 -0.4529 -1.1465
 8861SOL    HW238220   0.804   2.176   2.269  0.0727 -0.6710  0.6194
 8862SOL     OW38221   3.471   1.455   3.320  0.0194  0.2025  0.2036
 8862SOL    HW138222   3.526   1.402   3.378  2.2339 -0.9699 -2.9608
 8862SOL    HW238223   3.403   1.480   3.382  0.1056  0.2320  0.2870
 8863SOL     OW38224   1.418   3.539  17.388 -0.8851  0.6251 -0.1308
 8863SOL    HW138225   1.339   3.592  17.399 -1.4016  0.4380 -2.8835
 8863SOL    HW238226   1.488   3.598  17.417  0.7990 -1.0658 -0.7800
 8864SOL     OW38227   0.345   1.838  14.429 -0.4075  0.1587 -0.1263
 8864SOL    HW138228   0.344   1.780  14.353 -0.4258  0.3948 -0.3079
 8864SOL    HW238229   0.354   1.927  14.393 -0.8186  0.6185  0.8897
 8865SOL     OW38230   3.611   0.068   8.050 -0.3699 -0.2287  0.1372
 8865SOL    HW138231   3.557   0.045   8.126 -0.4717 -0.2871  0.0463
 8865SOL    HW238232   3.549   0.107   7.988  0.9079 -1.4822 -1.9266
 8866SOL     OW38233   1.249   1.660   9.511  0.0072  0.7548 -0.0556
 8866SOL    HW138234   1.252   1.567   9.486 -2.3532  1.1602 -1.8752
 8866SOL    HW238235   1.239   1.707   9.428  0.1367  1.1725  0.1679
 8867SOL     OW38236   3.601   3.864  14.695  0.5884 -0.0741 -0.7413
 8867SOL    HW138237   3.648   3.909  14.625  1.2586  0.1246 -0.1516
 8867SOL    HW238238   3.674   3.846  14.753  1.0008 -0.4151 -1.3699
 8868SOL     OW38239   2.087   1.619   3.048 -0.2343  0.0298 -0.0248
 8868SOL    HW138240   2.041   1.637   3.130 -1.9792 -0.5648 -0.8909
 8868SOL    HW238241   2.097   1.708   3.014  2.3156 -0.9405 -1.8147
 8869SOL     OW38242   2.299   2.876   8.454  0.3166  0.3583  0.5616
 8869SOL    HW138243   2.340   2.796   8.421 -0.1340  0.4715 -0.2880
 8869SOL    HW238244   2.219   2.869   8.403  0.7603  1.5150 -0.3142
 8870SOL     OW38245   1.980   2.460   5.424 -0.1374 -0.3326  0.2286
 8870SOL    HW138246   1.953   2.372   5.401 -1.3472  0.3149 -0.8139
 8870SOL    HW238247   1.901   2.486   5.472  0.9774  1.3757  1.1303
 8871SOL     OW38248   1.301   1.072   0.427  0.0963 -0.3682  0.4318
 8871SOL    HW138249   1.281   0.989   0.471  1.0954 -1.1055 -0.5177
 8871SOL    HW238250   1.382   1.089   0.476  0.2282 -0.3016  0.1909
 8872SOL     OW38251   0.408   2.516   2.169  0.0690 -0.1029  0.1657
 8872SOL    HW138252   0.434   2.470   2.090  1.3616  0.0804  0.4848
 8872SOL    HW238253   0.313   2.520   2.155 -0.5025 -0.9685  3.7220
 8873SOL     OW38254   2.888   1.816   5.632  0.2121 -0.1402 -0.1316
 8873SOL    HW138255   2.930   1.749   5.579 -0.8491  0.2340 -1.4318
 8873SOL    HW238256   2.965   1.849   5.679  0.4309 -1.7264  0.6168
 8874SOL     OW38257   1.078   0.643   6.135 -0.3457 -0.0474 -0.1228
 8874SOL    HW138258   1.135   0.617   6.063  0.7791  0.0996  0.7119
 8874SOL    HW238259   1.145   0.676   6.195 -0.7279  0.0090  0.2715
 8875SOL     OW38260   0.995   4.365   7.480 -0.1005  0.0266 -0.3306
 8875SOL    HW138261   1.070   4.420   7.503 -1.2037  1.1343  0.5877
 8875SOL    HW238262   0.975   4.333   7.567  3.5684  1.5573  1.0826
 8876SOL     OW38263   1.347   1.349   5.579 -0.8581 -0.2513 -0.3332
 8876SOL    HW138264   1.375   1.277   5.636  0.2280  1.4416  1.2567
 8876SOL    HW238265   1.272   1.381   5.629 -0.6144 -0.8708  0.4366
 8877SOL     OW38266   4.737   0.421   1.285  0.0512  0.3856 -0.1790
 8877SOL    HW138267   4.713   0.508   1.253 -1.5997 -0.3454 -0.9291
 8877SOL    HW238268   4.727   0.385   1.197 -1.1772 -1.0657  0.5444
 8878SOL     OW38269   0.227   3.497   4.721 -0.2596  0.0057 -0.4150
 8878SOL    HW138270   0.243   3.591   4.714 -0.7893 -0.0521 -2.3691
 8878SOL    HW238271   0.225   3.491   4.817 -0.9220 -0.4871 -0.4518
 8879SOL     OW38272   2.311   3.883  16.924 -0.2249  0.5085  0.0196
 8879SOL    HW138273   2.288   3.924  16.841  0.0344  0.4128 -0.1002
 8879SOL    HW238274   2.283   3.792  16.920  1.9562 -0.1720  0.0215
 8880SOL     OW38275   2.519   2.393  11.748 -0.4703  0.7049 -0.2219
 8880SOL    HW138276   2.510   2.473  11.801 -1.3509 -1.0907  2.3533
 8880SOL    HW238277   2.558   2.432  11.670  0.1865 -0.8789 -0.6871
 8881SOL     OW38278   4.381   0.554   1.588 -0.4179 -0.0756 -0.2089
 8881SOL    HW138279   4.444   0.496   1.544  1.2846  2.5704 -1.2868
 8881SOL    HW238280   4.442   0.588   1.654  2.7358 -3.4171 -1.3525
 8882SOL     OW38281   2.989   3.539   7.559  0.1953 -0.4061  0.1926
 8882SOL    HW138282   2.894   3.539   7.564  0.2564 -1.9372  1.3325
 8882SOL    HW238283   3.002   3.632   7.541  0.2086 -0.5718 -0.6352
 8883SOL     OW38284   3.389   3.518   2.889 -0.2472  0.2495  1.0076
 8883SOL    HW138285   3.421   3.561   2.810 -2.9799 -0.5424 -0.5233
 8883SOL    HW238286   3.366   3.589   2.949  0.5704  0.9198  0.5256
 8884SOL     OW38287   3.543   0.274   0.801  0.3870 -0.1573 -0.5511
 8884SOL    HW138288   3.530   0.181   0.783  1.0778 -0.3954  0.1855
 8884SOL    HW238289   3.459   0.316   0.782  0.9455  0.9716 -0.5345
 8885SOL     OW38290   3.429   2.951   2.653 -0.8817  0.5845 -0.4829
 8885SOL    HW138291   3.378   2.913   2.724 -0.7387  1.1930 -0.0591
 8885SOL    HW238292   3.498   2.889   2.628 -1.0366 -0.1067  0.8075
 8886SOL     OW38293   2.610   3.247  12.256  0.2381 -0.4252  0.5092
 8886SOL    HW138294   2.638   3.324  12.207 -0.2446 -0.3268  0.3856
 8886SOL    HW238295   2.666   3.251  12.333 -0.6362  2.1894  1.0178
 8887SOL     OW38296   3.380   0.864   2.550  0.2543 -0.7106  0.2585
 8887SOL    HW138297   3.445   0.905   2.608 -0.1648 -1.4141  1.2323
 8887SOL    HW238298   3.355   0.789   2.604 -1.7774  0.7880  1.4251
 8888SOL     OW38299   4.505   0.740   3.263 -0.5394 -0.3275 -0.3619
 8888SOL    HW138300   4.469   0.829   3.263  1.4999  0.5096 -1.4832
 8888SOL    HW238301   4.434   0.684   3.292 -0.6650  0.0021 -0.0303
 8889SOL     OW38302   3.089   3.838  12.574 -0.2888 -0.4234 -0.0914
 8889SOL    HW138303   3.035   3.759  12.569 -1.8813  0.6657  0.1311
 8889SOL    HW238304   3.014   3.897  12.569  0.7547  0.6763 -3.1067
 8890SOL     OW38305   4.056   3.305  12.662  0.2181 -0.1579 -0.3824
 8890SOL    HW138306   4.042   3.280  12.571 -0.0304  1.4731 -0.7842
 8890SOL    HW238307   4.152   3.303  12.667  0.1352 -3.6826 -0.3010
 8891SOL     OW38308   1.949   4.026   4.496  0.3711 -0.7979 -0.2528
 8891SOL    HW138309   1.977   3.972   4.423 -1.5303 -2.0639 -0.0404
 8891SOL    HW238310   1.881   3.972   4.536  1.0060  0.1022  2.0490
 8892SOL     OW38311   2.874   0.970   8.004 -0.0975  0.5625  0.8265
 8892SOL    HW138312   2.936   1.021   7.952  0.9020 -0.6172  0.8493
 8892SOL    HW238313   2.880   0.893   7.947 -2.5557 -0.1948  1.5828
 8893SOL     OW38314   3.502   0.417  11.278  0.3757  0.1645  0.9228
 8893SOL    HW138315   3.563   0.425  11.352  3.7800 -0.9175 -1.7418
 8893SOL    HW238316   3.445   0.492  11.289 -1.5280 -1.1981  0.2693
 8894SOL     OW38317   4.363   4.033   7.013  0.2239 -0.5363 -0.2480
 8894SOL    HW138318   4.425   3.989   6.954 -0.3857 -0.7476 -0.7389
 8894SOL    HW238319   4.318   3.953   7.042 -2.4945  1.2047  0.3574
 8895SOL     OW38320   2.315   2.962   5.945 -0.5913 -0.0388 -0.5985
 8895SOL    HW138321   2.356   2.919   6.020 -1.3957 -0.8182 -0.6013
 8895SOL    HW238322   2.221   2.946   5.955 -0.3501 -0.9054  0.2150
 8896SOL     OW38323   2.922   3.413   9.103  0.5694  0.5192 -0.1890
 8896SOL    HW138324   2.937   3.462   9.022 -1.6056  0.2444 -0.7629
 8896SOL    HW238325   2.891   3.490   9.151  0.9187  0.7044 -0.2626
 8897SOL     OW38326   4.617   3.076   8.754  0.0635 -0.2874 -0.0344
 8897SOL    HW138327   4.621   3.048   8.662 -0.3593  1.0199 -0.4600
 8897SOL    HW238328   4.631   2.991   8.794 -1.6648  0.1242  1.3938
 8898SOL     OW38329   3.395   1.618   4.590 -0.3579  0.8792 -0.5153
 8898SOL    HW138330   3.475   1.566   4.600 -0.4697  0.7628 -0.2034
 8898SOL    HW238331   3.345   1.585   4.664  0.5827  0.6685  0.0272
 8899SOL     OW38332   3.051   3.877   4.666  0.1881 -0.3335 -0.4850
 8899SOL    HW138333   3.043   3.852   4.758  0.5776  2.0238  0.1833
 8899SOL    HW238334   3.130   3.832   4.636  0.1994 -0.9778  0.5118
 8900SOL     OW38335   1.607   1.502   7.718  0.0336  0.3467  0.4328
 8900SOL    HW138336   1.602   1.433   7.652  1.3432 -0.9670  1.6958
 8900SOL    HW238337   1.690   1.481   7.763 -0.0999  1.2575  1.1094
 8901SOL     OW38338   0.584   1.659   6.063 -0.2179 -0.2404  0.5612
 8901SOL    HW138339   0.611   1.570   6.040 -0.4321  0.0435 -0.7994
 8901SOL    HW238340   0.493   1.657   6.094  0.9884  2.0408  4.1906
 8902SOL     OW38341   3.833   2.200   3.468 -0.2420  0.2869  0.6642
 8902SOL    HW138342   3.821   2.239   3.382 -0.5705 -0.9698  0.1367
 8902SOL    HW238343   3.853   2.284   3.510 -0.2892  0.5696  0.1145
 8903SOL     OW38344   1.468   3.984   6.224 -0.1975  0.0600  0.7279
 8903SOL    HW138345   1.405   4.047   6.188 -2.0914 -1.8291  0.7022
 8903SOL    HW238346   1.511   4.030   6.295 -0.0196  0.3108  0.4582
 8904SOL     OW38347   1.288   0.253  10.543  0.1098 -0.6790  0.3508
 8904SOL    HW138348   1.327   0.167  10.527  1.0313  0.1122 -1.7075
 8904SOL    HW238349   1.242   0.244  10.627 -2.0809  2.0686 -0.5334
 8905SOL     OW38350   1.358   2.554   1.535  0.1126  0.4803 -0.1911
 8905SOL    HW138351   1.403   2.611   1.597  4.3220 -0.0082 -2.7401
 8905SOL    HW238352   1.272   2.544   1.576 -1.1025 -0.3762 -2.9277
 8906SOL     OW38353   2.667   1.214   0.418  0.0821  0.0537  0.0466
 8906SOL    HW138354   2.601   1.214   0.348 -2.3543  1.4419  2.3253
 8906SOL    HW238355   2.655   1.130   0.462 -2.9307 -0.9451 -2.6554
 8907SOL     OW38356   4.331   3.525   3.346  0.3313  0.0512  0.0976
 8907SOL    HW138357   4.280   3.560   3.273  0.6496  1.4410  0.5433
 8907SOL    HW238358   4.285   3.443   3.362  1.4486 -0.8903 -1.4208
 8908SOL     OW38359   2.796   1.320   4.588 -0.5582 -0.5283 -0.1210
 8908SOL    HW138360   2.838   1.406   4.579 -1.8924  0.2186  0.7928
 8908SOL    HW238361   2.870   1.266   4.562 -0.8491 -1.7055  1.5122
 8909SOL     OW38362   0.130   4.325   0.974 -0.1963  0.1526  0.1985
 8909SOL    HW138363   0.051   4.308   0.923 -1.0293  0.2523  1.4545
 8909SOL    HW238364   0.125   4.268   1.051  2.2184 -0.0031  0.2215
 8910SOL     OW38365   4.116   0.329   2.875  0.3229  0.1202 -0.3077
 8910SOL    HW138366   4.114   0.346   2.969 -1.2215  0.5154 -0.4063
 8910SOL    HW238367   4.204   0.354   2.850  0.6166 -1.7308 -1.1060
 8911SOL     OW38368   1.866   2.153   7.401  0.1054 -0.4808  0.5730
 8911SOL    HW138369   1.844   2.129   7.311  2.8658 -0.6161 -0.0667
 8911SOL    HW238370   1.854   2.248   7.394  1.1502 -0.5275 -2.0204
 8912SOL     OW38371   1.725   0.692   3.308 -0.0074  0.0521 -0.0404
 8912SOL    HW138372   1.637   0.698   3.272 -0.3648 -0.7445  0.6992
 8912SOL    HW238373   1.780   0.721   3.235  1.1312 -0.4933  0.5910
 8913SOL     OW38374   0.172   3.583   5.517  0.2246  0.5263  0.3391
 8913SOL    HW138375   0.220   3.563   5.437 -1.1211  0.6594 -0.5047
 8913SOL    HW238376   0.161   3.492   5.544  0.2361  0.2174 -0.6941
 8914SOL     OW38377   0.889   3.896   7.436 -0.1084  0.3743  0.6958
 8914SOL    HW138378   0.809   3.846   7.450  0.6657 -0.5862  1.6753
 8914SOL    HW238379   0.855   3.984   7.453 -0.8353  0.2020  0.1460
 8915SOL     OW38380   2.506   1.401  10.287  0.8316  0.3155  0.3055
 8915SOL    HW138381   2.441   1.351  10.239  1.9924 -1.4195  0.5712
 8915SOL    HW238382   2.467   1.413  10.373  0.4886 -0.0976  0.2005
 8916SOL     OW38383   4.280   1.352  15.383 -0.2317  0.0480 -0.7559
 8916SOL    HW138384   4.267   1.257  15.385 -0.2206  0.0200 -1.8327
 8916SOL    HW238385   4.213   1.386  15.325 -0.6655 -1.2456 -1.0215
 8917SOL     OW38386   0.810   2.998   4.031 -0.2195 -0.1302  0.1017
 8917SOL    HW138387   0.754   2.925   4.005 -1.8977  1.8118 -1.7795
 8917SOL    HW238388   0.849   3.029   3.949 -4.5497  1.4531 -1.3905
 8918SOL     OW38389   1.299   4.452   1.524  0.5813  0.4929  0.7045
 8918SOL    HW138390   1.350   4.396   1.466  3.1371  0.3623  3.0678
 8918SOL    HW238391   1.222   4.474   1.470  1.4737  2.7583  0.3402
 8919SOL     OW38392   4.253   2.517   2.247  0.7125  0.0876  0.7758
 8919SOL    HW138393   4.263   2.495   2.154  0.6467 -1.9527  1.2580
 8919SOL    HW238394   4.228   2.430   2.280  1.7835 -0.9892 -1.2897
 8920SOL     OW38395   4.152   3.144   4.610  0.0518 -0.0953  0.0840
 8920SOL    HW138396   4.132   3.104   4.525 -3.8587 -0.1703  1.0401
 8920SOL    HW238397   4.218   3.077   4.630  1.7049  1.2861 -0.6530
 8921SOL     OW38398   3.433   2.568   5.983 -0.2201 -0.1090 -0.0264
 8921SOL    HW138399   3.403   2.502   6.046 -0.2917 -1.2982 -1.3077
 8921SOL    HW238400   3.353   2.614   5.956  1.1384  1.3818 -1.5334
 8922SOL     OW38401   1.558   0.620   5.645 -0.1068 -0.1439 -0.1297
 8922SOL    HW138402   1.490   0.641   5.581 -0.9854 -0.9581  0.5347
 8922SOL    HW238403   1.636   0.631   5.590  0.6817 -1.0233  0.8283
 8923SOL     OW38404   4.053   3.860   1.556 -0.3812  0.0458 -0.0247
 8923SOL    HW138405   3.990   3.788   1.561 -0.3262  0.0756  1.0632
 8923SOL    HW238406   4.001   3.935   1.584 -0.0107  0.6661 -1.0053
 8924SOL     OW38407   0.090   1.000  10.476 -0.3976  0.1264  0.7571
 8924SOL    HW138408   0.084   1.091  10.508 -2.1429  1.5093 -3.4967
 8924SOL    HW238409   0.134   0.964  10.553 -0.1330  0.4807  0.7725
 8925SOL     OW38410   2.126   3.260   5.788  0.3791  0.1722 -0.3677
 8925SOL    HW138411   2.111   3.171   5.755  1.0339 -0.1435  0.1805
 8925SOL    HW238412   2.136   3.234   5.879 -1.4456 -0.4068 -0.3319
 8926SOL     OW38413   3.818   0.240   7.557 -0.8933  0.1705 -0.3716
 8926SOL    HW138414   3.849   0.326   7.582  1.3021 -0.8072  0.2919
 8926SOL    HW238415   3.723   0.251   7.553 -0.7012  2.2855  1.1717
 8927SOL     OW38416   3.189   3.135   4.272 -0.1974  0.0530  0.0647
 8927SOL    HW138417   3.146   3.068   4.219  1.7946  0.4392 -2.0867
 8927SOL    HW238418   3.193   3.202   4.204  1.8437  0.2049  0.3328
 8928SOL     OW38419   3.994   0.249   0.503  0.8872  0.4746  0.3381
 8928SOL    HW138420   3.908   0.221   0.472 -0.0398  1.5481  1.9613
 8928SOL    HW238421   3.964   0.286   0.586  0.5394  1.7093 -0.3362
 8929SOL     OW38422   2.170   2.427  16.162 -0.2055 -0.2535  0.4995
 8929SOL    HW138423   2.213   2.381  16.090 -1.0979  0.1018 -0.2694
 8929SOL    HW238424   2.116   2.356  16.196 -0.2607 -0.1789  0.5664
 8930SOL     OW38425   1.413   0.692   5.412  0.0734  0.1073 -0.1392
 8930SOL    HW138426   1.464   0.639   5.351 -0.9039 -2.1472  1.0089
 8930SOL    HW238427   1.386   0.764   5.354  0.5556 -0.9873 -1.7370
 8931SOL     OW38428   2.624   1.517   8.825 -0.2474 -0.1020  0.3861
 8931SOL    HW138429   2.667   1.489   8.744  0.5982  1.8373  0.1704
 8931SOL    HW238430   2.550   1.564   8.787 -1.6088 -2.6859 -0.2052
 8932SOL     OW38431   1.698   4.029   6.692 -0.0937  0.1654 -0.4926
 8932SOL    HW138432   1.746   4.066   6.766 -0.9470  0.0566  0.1188
 8932SOL    HW238433   1.635   3.975   6.739  0.6913  0.9212  1.4219
 8933SOL     OW38434   3.426   4.710   1.454 -0.8763 -0.7489  0.6427
 8933SOL    HW138435   3.494   0.037   1.446  0.7285 -2.4564  0.3955
 8933SOL    HW238436   3.469   4.637   1.498 -0.2931 -0.9196 -0.2150
 8934SOL     OW38437   1.324   4.231   7.747  0.0580 -0.0181  0.5093
 8934SOL    HW138438   1.269   4.160   7.714 -1.4951  1.7774 -0.7660
 8934SOL    HW238439   1.405   4.185   7.767  0.8450 -0.3577 -3.5022
 8935SOL     OW38440   2.256   0.816   8.365  0.1915  0.1663  0.3738
 8935SOL    HW138441   2.164   0.796   8.378  0.6473 -0.9257  1.9951
 8935SOL    HW238442   2.270   0.791   8.274  0.1974 -0.2696  0.4943
 8936SOL     OW38443   1.871   3.782   8.361 -0.2764  0.2588  0.0411
 8936SOL    HW138444   1.919   3.768   8.280 -1.1429 -2.7661  0.0146
 8936SOL    HW238445   1.796   3.721   8.355  1.0205 -1.3530  0.1410
 8937SOL     OW38446   0.012   3.868  12.407  0.1000  0.3637 -0.3272
 8937SOL    HW138447   4.694   3.922  12.352  0.9684  1.5506 -0.0549
 8937SOL    HW238448   0.093   3.881  12.358  0.4866 -0.6576  0.0390
 8938SOL     OW38449   2.856   3.935   3.102  0.1056  0.7275 -0.2678
 8938SOL    HW138450   2.792   3.865   3.095  2.7658 -1.6798 -0.7941
 8938SOL    HW238451   2.929   3.877   3.125 -1.6329 -1.5136 -0.4220
 8939SOL     OW38452   4.626   1.866   2.803  0.0656 -0.9405  0.0947
 8939SOL    HW138453   4.536   1.892   2.820  0.9009  1.5889  0.6615
 8939SOL    HW238454   4.609   1.775   2.779 -0.5925 -0.2783 -2.0252
 8940SOL     OW38455   2.579   4.541  16.453  0.2990  0.1173 -0.0213
 8940SOL    HW138456   2.532   4.519  16.373  0.7974 -1.1725  0.0363
 8940SOL    HW238457   2.607   4.453  16.476 -0.1331  0.1284  0.5761
 8941SOL     OW38458   3.839   2.148   6.353 -0.2486 -0.3662 -1.1069
 8941SOL    HW138459   3.829   2.057   6.325  1.9729 -0.8411 -0.3668
 8941SOL    HW238460   3.903   2.170   6.285  2.1754  0.4643  1.4344
 8942SOL     OW38461   3.037   3.543   6.460 -0.1948 -0.1631 -0.1486
 8942SOL    HW138462   2.966   3.606   6.450 -2.4784 -2.5613  0.7059
 8942SOL    HW238463   3.096   3.566   6.388 -2.6587  2.2949 -1.4037
 8943SOL     OW38464   0.464   2.921   1.163  0.3965 -0.1458 -0.3825
 8943SOL    HW138465   0.523   2.913   1.088  0.0381  2.3296 -0.9288
 8943SOL    HW238466   0.400   2.854   1.137 -0.1102  0.5723 -0.9761
 8944SOL     OW38467   1.295   3.332   6.426 -0.0616 -0.3574 -0.5475
 8944SOL    HW138468   1.223   3.369   6.477 -0.2026 -0.7562 -0.4531
 8944SOL    HW238469   1.261   3.355   6.340  1.1228 -1.3762 -1.2901
 8945SOL     OW38470   3.764   3.540   9.046 -0.0160 -0.2906 -0.0611
 8945SOL    HW138471   3.727   3.561   9.132 -0.2484  0.0557 -0.2423
 8945SOL    HW238472   3.819   3.617   9.032  2.6162 -2.5048 -1.7653
 8946SOL     OW38473   2.162   4.175   4.566 -0.0122 -0.4137  0.1924
 8946SOL    HW138474   2.081   4.125   4.557 -0.0840 -0.5200  1.3923
 8946SOL    HW238475   2.159   4.187   4.661  1.6949 -4.1966  0.7550
 8947SOL     OW38476   4.191   3.570  13.279 -0.5803  0.1868 -0.0151
 8947SOL    HW138477   4.129   3.626  13.233  1.1333 -0.2159 -2.7942
 8947SOL    HW238478   4.277   3.584  13.241 -0.1654  1.8379  1.5142
 8948SOL     OW38479   1.947   4.645   5.628 -0.2980 -0.6195 -0.1957
 8948SOL    HW138480   1.972   4.716   5.687 -3.8205 -1.1405  1.9162
 8948SOL    HW238481   2.025   4.593   5.646 -0.4263 -0.8751 -0.3833
 8949SOL     OW38482   1.773   1.423   3.421 -0.5354  0.0718  0.0328
 8949SOL    HW138483   1.759   1.372   3.501 -3.2148  1.7209  0.6367
 8949SOL    HW238484   1.848   1.478   3.442  0.4788 -1.1557 -0.4201
 8950SOL     OW38485   4.273   3.129   6.681  0.0223  0.1527  0.4191
 8950SOL    HW138486   4.353   3.124   6.733  0.9824 -1.4011 -1.2064
 8950SOL    HW238487   4.229   3.050   6.711  1.6006 -0.2386  1.7005
 8951SOL     OW38488   2.254   4.302   8.477  0.0961 -0.6320  0.1669
 8951SOL    HW138489   2.206   4.349   8.546  0.0828 -0.3858 -0.0087
 8951SOL    HW238490   2.266   4.216   8.517 -1.2028 -0.6197  0.5755
 8952SOL     OW38491   1.150   3.006  13.258  0.5337  0.4445 -0.3889
 8952SOL    HW138492   1.181   2.928  13.212  1.8464  0.6115  0.2275
 8952SOL    HW238493   1.172   2.971  13.345  0.6795  1.2576 -0.0993
 8953SOL     OW38494   4.650   3.849  12.039  0.6014  0.2339 -0.0605
 8953SOL    HW138495   4.625   3.927  12.088  0.9214  0.0403  0.4058
 8953SOL    HW238496   4.618   3.872  11.952 -1.7334 -1.3331  0.3709
 8954SOL     OW38497   3.726   1.466  13.838 -0.0842 -0.0397  0.6321
 8954SOL    HW138498   3.812   1.423  13.838  0.4956  1.1142  0.3539
 8954SOL    HW238499   3.697   1.443  13.926 -2.8282 -0.7093 -0.4506
 8955SOL     OW38500   1.532   0.602   8.458  0.0247  0.0783 -0.6167
 8955SOL    HW138501   1.553   0.682   8.507 -0.4569  2.3261 -4.0830
 8955SOL    HW238502   1.601   0.541   8.483 -1.2427 -1.6242 -1.2236
 8956SOL     OW38503   4.518   2.101   3.717 -0.9150 -0.2707 -0.2344
 8956SOL    HW138504   4.567   2.099   3.799 -1.0817  1.5617 -0.0822
 8956SOL    HW238505   4.505   2.008   3.701 -0.5844 -0.4237  0.4066
 8957SOL     OW38506   1.516   3.251   8.698 -0.6374  0.1676  0.0109
 8957SOL    HW138507   1.518   3.166   8.653 -1.6632  0.3404 -0.3610
 8957SOL    HW238508   1.541   3.223   8.786  2.9905  0.0734 -1.0611
 8958SOL     OW38509   1.517   3.549   2.633 -0.4750  0.3027  0.5144
 8958SOL    HW138510   1.565   3.626   2.663 -1.1792  0.9689 -0.0331
 8958SOL    HW238511   1.583   3.481   2.622  0.8600  1.7785 -0.5644
 8959SOL     OW38512   4.599   2.218   6.935  0.0775 -0.5426 -0.0661
 8959SOL    HW138513   4.637   2.292   6.887  0.1086  0.8672  2.1531
 8959SOL    HW238514   4.539   2.192   6.865 -0.7879  0.5137  0.2849
 8960SOL     OW38515   3.601   0.236   3.470 -0.6630 -0.5616 -0.4911
 8960SOL    HW138516   3.568   0.146   3.466 -0.1612 -0.7343 -0.7825
 8960SOL    HW238517   3.679   0.226   3.415  0.9647  0.5745  1.6178
 8961SOL     OW38518   4.263   1.166   9.998 -0.0771  0.2908 -0.0264
 8961SOL    HW138519   4.280   1.252  10.035 -2.6517  0.2759  1.2341
 8961SOL    HW238520   4.346   1.121   9.982  0.7691  2.1143 -0.6477
 8962SOL     OW38521   1.282   2.505   9.851 -0.4193 -0.4965  0.6394
 8962SOL    HW138522   1.280   2.452   9.771  1.9930  0.9764 -0.4004
 8962SOL    HW238523   1.197   2.543   9.831  0.6128  0.9599 -0.9981
 8963SOL     OW38524   3.710   1.432   5.175  0.0575 -0.0112  0.2608
 8963SOL    HW138525   3.719   1.396   5.086 -0.2986 -2.6871  1.3089
 8963SOL    HW238526   3.768   1.508   5.180 -1.3858  1.1620 -0.8678
 8964SOL     OW38527   3.991   3.080   8.576 -0.0311 -0.2028  0.1458
 8964SOL    HW138528   3.977   2.994   8.537 -1.9909  0.5104 -0.7150
 8964SOL    HW238529   3.999   3.053   8.668  2.2350  0.0424  0.0191
 8965SOL     OW38530   4.594   4.561   2.800  0.1545 -0.4201  0.1075
 8965SOL    HW138531   4.634   4.568   2.886  0.8228  0.3195 -0.2597
 8965SOL    HW238532   4.616   4.472   2.772 -0.1700 -0.8100  1.0866
 8966SOL     OW38533   2.739   0.509   4.975  0.0613 -0.1088  0.5269
 8966SOL    HW138534   2.731   0.447   5.048 -0.4426  1.3831  1.7363
 8966SOL    HW238535   2.688   0.470   4.905  1.0502  0.2509 -0.3990
 8967SOL     OW38536   1.740   2.152   2.702 -0.2381  0.1184  0.8643
 8967SOL    HW138537   1.717   2.107   2.621  2.0668  1.9607 -0.8137
 8967SOL    HW238538   1.836   2.154   2.700 -0.2057 -2.4907  0.4793
 8968SOL     OW38539   1.605   4.569  13.645 -0.5949  0.5546  0.3918
 8968SOL    HW138540   1.658   4.490  13.635  2.4632  2.5863  0.6590
 8968SOL    HW238541   1.565   4.569  13.557 -1.6619 -0.3208  0.8743
 8969SOL     OW38542   2.391   3.492   2.278  0.3172 -0.2436 -0.1187
 8969SOL    HW138543   2.414   3.422   2.340 -0.7927 -0.3398  0.1821
 8969SOL    HW238544   2.466   3.551   2.288 -0.7427  1.3445 -1.5148
 8970SOL     OW38545   1.468   1.843   4.943 -0.1439 -0.2745 -0.0697
 8970SOL    HW138546   1.509   1.795   4.871 -2.3717 -3.2040  0.6402
 8970SOL    HW238547   1.508   1.786   5.008  0.7716 -0.1402 -0.5090
 8971SOL     OW38548   0.988   0.892   4.926 -0.5719  0.6236 -0.1660
 8971SOL    HW138549   0.981   0.986   4.946  1.7167  0.1920  2.6838
 8971SOL    HW238550   0.918   0.857   4.981  0.7402  0.7792  1.6135
 8972SOL     OW38551   4.691   4.331   1.765 -0.0805 -0.2415  0.2925
 8972SOL    HW138552   0.028   4.379   1.729  0.2768  0.3601  1.8767
 8972SOL    HW238553   4.665   4.291   1.682  0.7803 -0.5004  0.1400
 8973SOL     OW38554   0.269   0.628   3.327 -0.7185 -0.0083 -0.0442
 8973SOL    HW138555   0.325   0.681   3.270 -3.3334  0.9983 -1.6962
 8973SOL    HW238556   0.237   0.704   3.376 -0.2995 -0.7615  1.3987
 8974SOL     OW38557   1.656   0.767   8.901 -0.0940 -0.0298  0.0161
 8974SOL    HW138558   1.702   0.849   8.918  0.5850 -0.3475 -0.2979
 8974SOL    HW238559   1.598   0.752   8.975  0.0968 -0.7195  0.0299
 8975SOL     OW38560   3.954   3.236  17.013 -0.2540  0.0094  0.2760
 8975SOL    HW138561   4.001   3.277  17.086  0.6144  0.5175 -0.5651
 8975SOL    HW238562   3.927   3.150  17.045 -2.0201  1.0227  1.5429
 8976SOL     OW38563   0.520   4.395   6.574 -0.0577  0.3229 -0.3999
 8976SOL    HW138564   0.606   4.435   6.590 -1.5093  3.7296 -1.2059
 8976SOL    HW238565   0.529   4.368   6.483  2.1724  1.9680 -0.6795
 8977SOL     OW38566   4.499   3.503   8.801 -0.1944 -0.3868  0.2271
 8977SOL    HW138567   4.426   3.455   8.762 -0.8094  0.2876  0.5628
 8977SOL    HW238568   4.533   3.437   8.862  0.0871 -1.0441 -0.6244
 8978SOL     OW38569   2.409   0.948  11.293 -0.0218 -0.1039  0.0301
 8978SOL    HW138570   2.413   0.898  11.212  0.4395  0.6806 -0.4279
 8978SOL    HW238571   2.331   1.001  11.287 -0.7577 -0.9100  2.2126
 8979SOL     OW38572   0.649   0.475   0.938  0.2546  0.5875  0.3333
 8979SOL    HW138573   0.620   0.554   0.892 -0.9156 -0.6417 -1.0119
 8979SOL    HW238574   0.579   0.481   1.003 -0.7133  1.0345 -0.7422
 8980SOL     OW38575   1.209   4.474   0.180  0.1400  0.4487 -0.1493
 8980SOL    HW138576   1.220   4.501   0.088 -1.8815 -1.6393 -0.9961
 8980SOL    HW238577   1.281   4.416   0.205 -0.1885 -0.4200 -1.1728
 8981SOL     OW38578   1.947   3.621   4.285 -0.4521  0.3238 -0.1016
 8981SOL    HW138579   2.023   3.591   4.235  0.0010 -1.5028  1.7014
 8981SOL    HW238580   1.958   3.716   4.288 -0.2760  0.2872  0.4402
 8982SOL     OW38581   1.183   2.055   7.736 -0.0436  0.3202 -0.2948
 8982SOL    HW138582   1.132   2.120   7.688  1.1700 -0.3922 -2.5767
 8982SOL    HW238583   1.272   2.090   7.735 -0.1641  0.6519  1.4436
 8983SOL     OW38584   0.863   4.493   5.064 -0.3579  1.0511  0.0922
 8983SOL    HW138585   0.797   4.562   5.068  0.3078  1.6609  0.6117
 8983SOL    HW238586   0.872   4.485   4.969  0.8310 -1.5905  0.4241
 8984SOL     OW38587   2.208   1.297  16.939  0.4552 -0.2462 -0.4748
 8984SOL    HW138588   2.119   1.301  16.905  0.0349 -1.4416  0.4663
 8984SOL    HW238589   2.205   1.296  17.034 -1.5966  1.9339 -0.5281
 8985SOL     OW38590   2.100   1.458  15.347  0.3746 -0.1796 -0.1794
 8985SOL    HW138591   2.176   1.448  15.290  0.3836  3.1406 -0.7384
 8985SOL    HW238592   2.042   1.410  15.288  0.5439 -0.3055 -0.2450
 8986SOL     OW38593   0.101   4.659   7.169  0.0897  0.0862 -0.1857
 8986SOL    HW138594   0.115   4.619   7.083 -0.1633  0.6082 -0.4662
 8986SOL    HW238595   0.081   4.582   7.223 -1.6638  1.3941  1.0291
 8987SOL     OW38596   2.214   0.589   9.529 -0.0046  0.3365  0.2781
 8987SOL    HW138597   2.305   0.569   9.553 -0.1149  0.1150  0.5025
 8987SOL    HW238598   2.212   0.540   9.447  0.7244 -0.4901  0.7513
 8988SOL     OW38599   1.065   4.106   8.324  0.0810  0.1369 -0.1816
 8988SOL    HW138600   1.115   4.029   8.352 -1.4871 -0.6219  0.5138
 8988SOL    HW238601   0.981   4.087   8.367 -0.2891 -1.6326 -1.6996
 8989SOL     OW38602   0.884   2.334   5.046 -0.5173 -0.0516  0.8041
 8989SOL    HW138603   0.906   2.335   4.953 -1.4240 -0.8926  0.5827
 8989SOL    HW238604   0.940   2.269   5.089  0.8518  0.5943 -0.0031
 8990SOL     OW38605   3.878   0.228  11.453 -0.5528  0.5049 -0.1212
 8990SOL    HW138606   3.892   0.255  11.362  2.7464  0.3043  0.3284
 8990SOL    HW238607   3.911   0.138  11.449  1.3798  1.1947  0.3742
 8991SOL     OW38608   0.165   2.957  14.186 -0.0386  0.1790  0.1013
 8991SOL    HW138609   0.156   3.051  14.169  2.1312  0.0746 -1.6059
 8991SOL    HW238610   0.211   2.929  14.107 -0.0373 -0.7426  0.4240
 8992SOL     OW38611   1.689   2.346   6.398  0.0947 -0.2456 -0.2448
 8992SOL    HW138612   1.632   2.391   6.461 -1.5306  0.6190 -2.3516
 8992SOL    HW238613   1.632   2.357   6.322  1.5053  1.4019 -1.0482
 8993SOL     OW38614   3.693   3.634  13.477  0.3548  0.0772  0.6674
 8993SOL    HW138615   3.752   3.678  13.417  0.6703 -0.3670  0.6562
 8993SOL    HW238616   3.655   3.564  13.423 -0.4471  1.1764 -0.1822
 8994SOL     OW38617   2.828   1.337   5.439 -0.1427 -0.2228  0.0514
 8994SOL    HW138618   2.784   1.367   5.519 -0.9048 -1.7572  0.2013
 8994SOL    HW238619   2.903   1.288   5.473  0.2449  0.7125  0.5523
 8995SOL     OW38620   4.497   0.889   8.167  0.2485 -0.3151  0.3517
 8995SOL    HW138621   4.472   0.797   8.153 -1.4832 -0.0917  1.9080
 8995SOL    HW238622   4.586   0.886   8.134  0.9307 -1.0647  2.2621
 8996SOL     OW38623   3.701   3.447  12.414  0.1890 -0.1792  0.1552
 8996SOL    HW138624   3.768   3.511  12.436 -2.5917  2.9738 -0.6781
 8996SOL    HW238625   3.697   3.391  12.492  0.1296  2.2879  1.9038
 8997SOL     OW38626   3.709   1.248   4.324  0.0708  0.6272 -0.0448
 8997SOL    HW138627   3.641   1.205   4.377  0.1428  0.4007 -0.1353
 8997SOL    HW238628   3.654   1.291   4.258 -0.2032 -0.2231 -0.3800
 8998SOL     OW38629   0.867   2.224  11.080  0.0682  0.2154 -0.4996
 8998SOL    HW138630   0.849   2.316  11.101  0.8329 -0.2623  2.1971
 8998SOL    HW238631   0.797   2.173  11.120  1.6389 -0.3317  1.5528
 8999SOL     OW38632   1.095   4.191  12.876 -0.4697 -0.7517  0.2171
 8999SOL    HW138633   1.149   4.122  12.914  1.9241 -0.1284 -2.0848
 8999SOL    HW238634   1.150   4.264  12.903 -0.1759 -0.1482 -1.9998
 9000SOL     OW38635   2.596   0.908  13.369 -0.1154  0.0771  1.3935
 9000SOL    HW138636   2.576   1.000  13.350 -0.1517 -0.1256  0.4372
 9000SOL    HW238637   2.572   0.870  13.284 -0.1281 -0.4608  1.6366
 9001SOL     OW38638   2.348   4.529   4.011  0.1814 -0.4347 -0.0243
 9001SOL    HW138639   2.349   4.444   3.967  0.8488 -1.1303  1.3306
 9001SOL    HW238640   2.296   4.511   4.089  0.9910  1.0927  0.8719
 9002SOL     OW38641   2.545   4.125   4.880 -0.0333  0.8116 -0.2655
 9002SOL    HW138642   2.543   4.220   4.868 -1.0144  1.0070  1.3835
 9002SOL    HW238643   2.504   4.087   4.803  0.1142  0.8042 -0.3395
 9003SOL     OW38644   2.862   3.791   8.912  0.6965  0.4877 -0.1279
 9003SOL    HW138645   2.869   3.769   8.819  0.7934  0.0636 -0.0201
 9003SOL    HW238646   2.791   3.855   8.922 -1.9963 -2.6164  0.6867
 9004SOL     OW38647   0.097   4.442   1.359  0.0299  0.0368 -0.5249
 9004SOL    HW138648   0.153   4.439   1.282  0.0301  0.4361 -0.5387
 9004SOL    HW238649   0.030   4.509   1.342 -0.3017  0.4039  2.1827
 9005SOL     OW38650   1.777   2.061  11.471 -0.3006 -0.3646 -0.0190
 9005SOL    HW138651   1.822   2.138  11.505 -1.6412  0.5319 -0.2865
 9005SOL    HW238652   1.690   2.098  11.463 -0.2817 -0.0807  1.0963
 9006SOL     OW38653   4.238   2.684   9.130  0.2251 -0.4394  0.3079
 9006SOL    HW138654   4.144   2.692   9.110  0.1459  0.8933  1.2333
 9006SOL    HW238655   4.234   2.691   9.225 -1.9814 -3.2601  0.4049
 9007SOL     OW38656   4.444   4.470   0.997  0.1148  0.6951 -0.0878
 9007SOL    HW138657   4.351   4.483   1.012  0.1089  1.0281 -0.3976
 9007SOL    HW238658   4.445   4.379   1.023 -2.7957  0.7943  0.2756
 9008SOL     OW38659   1.724   3.805   9.884 -0.1814 -0.0655 -0.0122
 9008SOL    HW138660   1.781   3.859   9.829 -1.6266  1.3065 -0.1684
 9008SOL    HW238661   1.742   3.839   9.971 -0.2909  0.8930 -0.3623
 9009SOL     OW38662   2.229   3.283   2.995 -0.2652  0.1544  0.1670
 9009SOL    HW138663   2.207   3.260   3.085  2.3033 -2.6036  0.0767
 9009SOL    HW238664   2.304   3.340   3.013  1.1572 -1.5068 -0.4735
 9010SOL     OW38665   2.977   1.186   1.141 -0.4385 -0.5037  0.2605
 9010SOL    HW138666   2.909   1.229   1.090  1.3079  0.5087 -1.2134
 9010SOL    HW238667   2.928   1.120   1.190 -2.3777  0.4275 -0.4386
 9011SOL     OW38668   0.500   4.148   3.211  0.1796 -0.7375 -0.0366
 9011SOL    HW138669   0.416   4.159   3.166  0.4444 -2.9138 -1.0676
 9011SOL    HW238670   0.532   4.237   3.196 -2.0443 -0.1116 -1.0611
 9012SOL     OW38671   2.527   3.323   7.280  0.5677  0.1299  0.0112
 9012SOL    HW138672   2.606   3.270   7.273  0.3878 -0.0043 -0.9283
 9012SOL    HW238673   2.473   3.247   7.303  1.3738 -0.5987 -0.5284
 9013SOL     OW38674   1.284   0.498  15.195  0.1283 -0.2676  0.7623
 9013SOL    HW138675   1.368   0.539  15.175  0.6699 -2.2319 -0.9884
 9013SOL    HW238676   1.295   0.440  15.120  2.2758 -0.1706  0.9977
 9014SOL     OW38677   0.202   4.380   1.606  0.0967  0.1550 -0.0158
 9014SOL    HW138678   0.177   4.387   1.514  1.0540 -2.1090 -0.4528
 9014SOL    HW238679   0.267   4.311   1.596 -0.6646 -0.3026 -1.7412
 9015SOL     OW38680   0.871   4.434  13.908  0.0701  0.1073  0.2250
 9015SOL    HW138681   0.790   4.419  13.958  0.6782 -0.2149  1.1004
 9015SOL    HW238682   0.869   4.528  13.929 -1.9853 -0.0884  0.9594
 9016SOL     OW38683   0.598   0.161   3.203  0.0664  0.2308  0.2561
 9016SOL    HW138684   0.538   0.107   3.255 -1.4463 -1.5728 -3.3829
 9016SOL    HW238685   0.537   0.213   3.151  0.7700  1.4213  0.6225
 9017SOL     OW38686   2.662   3.600  16.124  0.2621 -0.4217  0.5019
 9017SOL    HW138687   2.693   3.510  16.132 -1.2943 -0.5824  4.6920
 9017SOL    HW238688   2.567   3.593  16.133 -0.0149 -0.3482 -2.1903
 9018SOL     OW38689   3.059   2.504  12.798  0.0544 -0.2064  0.3403
 9018SOL    HW138690   2.991   2.480  12.735 -0.7986  1.2815  0.6903
 9018SOL    HW238691   3.016   2.468  12.875 -3.6011 -0.9036 -2.0092
 9019SOL     OW38692   0.283   1.616   4.592 -0.1087 -0.1412  0.4455
 9019SOL    HW138693   0.350   1.601   4.660  2.0526  4.0880 -0.7117
 9019SOL    HW238694   0.224   1.554   4.635  1.0690 -2.0760 -0.7238
 9020SOL     OW38695   2.245   2.284   5.569  0.1581  0.0052  0.3241
 9020SOL    HW138696   2.152   2.288   5.592 -0.8657 -1.1237 -3.6519
 9020SOL    HW238697   2.272   2.197   5.598 -1.2946 -0.5037  0.1260
 9021SOL     OW38698   4.559   0.669   2.726 -0.5873  0.1709 -0.4248
 9021SOL    HW138699   4.626   0.602   2.715 -1.3236 -0.9150  1.7760
 9021SOL    HW238700   4.555   0.695   2.818  1.1719  1.7947 -0.7962
 9022SOL     OW38701   4.517   3.482  10.222  0.2811 -0.6764 -0.3738
 9022SOL    HW138702   4.562   3.562  10.252 -1.5181 -0.3544  1.4392
 9022SOL    HW238703   4.458   3.482  10.298  3.2910  0.9844  2.0087
 9023SOL     OW38704   3.872   2.383   5.964  0.2771  0.2222  0.2818
 9023SOL    HW138705   3.917   2.344   5.890  0.4742  0.7282  0.1352
 9023SOL    HW238706   3.783   2.380   5.929 -0.0508 -1.8168  1.2713
 9024SOL     OW38707   3.622   2.494   8.617  0.0888 -0.4256 -0.3462
 9024SOL    HW138708   3.544   2.472   8.565 -0.1333 -0.7781  0.1323
 9024SOL    HW238709   3.692   2.472   8.556  2.4991  1.0347  1.8833
 9025SOL     OW38710   0.680   2.035   8.089  0.3093  0.1629 -0.5118
 9025SOL    HW138711   0.694   1.997   8.175 -1.8907 -1.9897 -1.1171
 9025SOL    HW238712   0.671   1.950   8.046  1.6236  0.0480 -0.5812
 9026SOL     OW38713   2.229   2.540  10.854  0.0899  0.1990  0.3141
 9026SOL    HW138714   2.201   2.518  10.943  1.7871  0.9432  1.0380
 9026SOL    HW238715   2.298   2.603  10.876  0.5932 -0.2780  0.1042
 9027SOL     OW38716   1.161   3.015   1.773 -0.4669  0.1895 -0.0889
 9027SOL    HW138717   1.100   3.088   1.772 -2.3628 -1.3985  0.3062
 9027SOL    HW238718   1.207   3.018   1.689 -0.1566  1.8569  0.1371
 9028SOL     OW38719   2.977   0.074  15.132 -0.1756  0.6045 -0.3677
 9028SOL    HW138720   3.052   0.016  15.147 -1.2267 -0.1199  2.1646
 9028SOL    HW238721   2.907   0.017  15.166  1.5168 -0.0445  2.0749
 9029SOL     OW38722   2.925   3.166   5.799  0.4558 -0.2547  0.1190
 9029SOL    HW138723   3.012   3.191   5.769  0.2968 -1.9831 -1.7623
 9029SOL    HW238724   2.936   3.075   5.823 -0.3804 -0.8429 -1.7197
 9030SOL     OW38725   0.867   0.343  16.331  0.1380  0.4478  0.1951
 9030SOL    HW138726   0.933   0.401  16.294 -1.8822  1.5857 -1.5617
 9030SOL    HW238727   0.916   0.260  16.335 -0.7718 -0.2115 -2.6371
 9031SOL     OW38728   1.589   3.637   5.265  0.2592 -0.2414 -0.0104
 9031SOL    HW138729   1.502   3.642   5.305 -0.1419 -0.1695 -0.9144
 9031SOL    HW238730   1.621   3.568   5.324  0.3853  0.5265  0.8261
 9032SOL     OW38731   0.749   2.732   4.373 -0.3747  0.0399  0.1955
 9032SOL    HW138732   0.808   2.794   4.330 -0.1317 -0.2057  0.1724
 9032SOL    HW238733   0.679   2.727   4.308  0.4902  1.2497 -0.8448
 9033SOL     OW38734   4.060   0.754   8.656  0.3201 -0.0649 -0.0271
 9033SOL    HW138735   4.149   0.729   8.681  0.7030 -0.5354 -1.8466
 9033SOL    HW238736   4.050   0.833   8.709  1.1450  0.5503 -0.7938
 9034SOL     OW38737   3.950   3.716   3.513 -0.5436  0.0402  0.9403
 9034SOL    HW138738   3.948   3.662   3.433  0.2061 -0.7250  1.4401
 9034SOL    HW238739   4.011   3.667   3.569  1.1717  0.3646 -0.6020
 9035SOL     OW38740   3.230   1.425  13.940 -0.0756  0.0834  0.7387
 9035SOL    HW138741   3.294   1.402  14.007 -0.4136 -1.3191  0.5837
 9035SOL    HW238742   3.173   1.349  13.949 -1.2781  0.7616 -1.1359
 9036SOL     OW38743   0.752   1.412   7.447  0.1546 -0.2076  0.2869
 9036SOL    HW138744   0.697   1.482   7.483  1.1389  0.0983  1.2315
 9036SOL    HW238745   0.822   1.464   7.408 -0.3867  0.1734 -0.1852
 9037SOL     OW38746   0.524   2.869   7.755 -0.0352 -0.1407 -0.4353
 9037SOL    HW138747   0.452   2.855   7.694 -0.0570 -1.6556 -0.0623
 9037SOL    HW238748   0.501   2.829   7.838 -0.3222 -0.1826 -0.5344
 9038SOL     OW38749   3.510   0.800   8.575 -0.2889 -0.6009  0.2258
 9038SOL    HW138750   3.590   0.813   8.524 -1.0408  2.3535 -0.2055
 9038SOL    HW238751   3.488   0.888   8.607 -1.7942 -0.1720 -2.0024
 9039SOL     OW38752   3.190   0.572   7.858 -0.0506  0.2052  0.6601
 9039SOL    HW138753   3.248   0.509   7.901  0.8864  0.7955  0.2458
 9039SOL    HW238754   3.102   0.540   7.877 -0.1834 -0.0307 -0.3460
 9040SOL     OW38755   3.077   2.473   6.743  0.2241 -0.1449  0.3284
 9040SOL    HW138756   3.107   2.521   6.665 -1.1590  2.4199  1.3832
 9040SOL    HW238757   2.985   2.496   6.742  0.7116  1.7888 -0.3702
 9041SOL     OW38758   2.999   3.876   3.784 -0.5568 -0.2639  0.6149
 9041SOL    HW138759   3.085   3.910   3.808 -1.1342  1.0454  0.7982
 9041SOL    HW238760   3.012   3.822   3.706 -3.2604 -1.6156  1.0950
 9042SOL     OW38761   4.530   4.185   3.951  0.2377 -0.7076 -0.1131
 9042SOL    HW138762   4.596   4.133   3.906 -0.6649 -0.2100 -2.0027
 9042SOL    HW238763   4.583   4.263   3.969 -1.7679  0.2178  1.9092
 9043SOL     OW38764   4.021   1.889  11.255  0.8292  1.0158  0.3757
 9043SOL    HW138765   4.050   1.978  11.273 -2.7402  2.4979 -1.3891
 9043SOL    HW238766   4.105   1.864  11.215  0.4051 -0.3090  0.2998
 9044SOL     OW38767   1.737   0.501   5.036  0.9274  0.3221  0.2674
 9044SOL    HW138768   1.726   0.433   4.969 -0.0301 -0.3660  1.1220
 9044SOL    HW238769   1.818   0.535   4.998  1.2825 -2.2895 -1.3771
 9045SOL     OW38770   0.285   3.998  13.996 -0.0217  0.4134  0.0285
 9045SOL    HW138771   0.366   4.040  13.966 -0.1677  1.4602  1.1196
 9045SOL    HW238772   0.230   3.992  13.917  0.7031 -1.8934 -0.2912
 9046SOL     OW38773   0.071   3.885   7.207  1.0541 -0.4114 -0.2646
 9046SOL    HW138774   0.084   3.921   7.295  2.8232  0.0078 -0.6909
 9046SOL    HW238775   0.006   3.823   7.238 -1.3836  1.4468 -1.6619
 9047SOL     OW38776   4.301   2.035  17.593  0.5402 -0.4815 -0.3529
 9047SOL    HW138777   4.315   1.971  17.523  1.6508  0.8567 -1.3322
 9047SOL    HW238778   4.205   2.033  17.592  0.5238 -0.7614  1.0724
 9048SOL     OW38779   2.372   0.014  17.034  0.1052 -0.1418  0.0716
 9048SOL    HW138780   2.306   4.720  17.096 -1.6365  3.3786  0.0365
 9048SOL    HW238781   2.370   4.670  16.986  0.8874 -1.3583  2.1218
 9049SOL     OW38782   0.607   2.658  17.124  0.6287  0.3294 -0.7822
 9049SOL    HW138783   0.699   2.646  17.100  0.6882  0.9015 -0.8435
 9049SOL    HW238784   0.616   2.682  17.216 -1.3624  2.2620 -1.1070
 9050SOL     OW38785   4.608   1.623  11.832  0.2688 -0.5518  0.0146
 9050SOL    HW138786   4.590   1.635  11.925 -1.1991  0.1283 -0.3517
 9050SOL    HW238787   4.667   1.549  11.843  1.1569 -0.0612 -1.4123
 9051SOL     OW38788   2.011   0.994   9.453 -0.2107  0.0790 -0.6525
 9051SOL    HW138789   2.015   1.075   9.402  0.1081  0.5728  0.1584
 9051SOL    HW238790   2.061   1.013   9.532 -1.2098  0.3346 -0.0734
 9052SOL     OW38791   1.093   1.883   4.325 -0.0354 -0.5436 -0.0121
 9052SOL    HW138792   1.078   1.971   4.360  1.5630 -0.8581  1.4349
 9052SOL    HW238793   1.184   1.890   4.297  0.4790  0.6328  1.9687
 9053SOL     OW38794   3.794   0.087   4.255  0.1678 -0.3225 -0.1993
 9053SOL    HW138795   3.850   0.137   4.196 -0.2144  1.9770  1.3708
 9053SOL    HW238796   3.710   0.132   4.244  0.1608 -0.7104 -1.6996
 9054SOL     OW38797   1.755   4.198   9.214  0.5974 -0.4539  0.7124
 9054SOL    HW138798   1.667   4.228   9.238  0.7155  1.5340 -1.3029
 9054SOL    HW238799   1.747   4.161   9.126  0.4535 -3.3186  1.9326
 9055SOL     OW38800   0.460   3.800  14.421  0.0590  0.3845  0.9707
 9055SOL    HW138801   0.507   3.752  14.352 -1.3199  2.4689 -1.4099
 9055SOL    HW238802   0.403   3.853  14.366  1.3164 -0.8620 -1.5432
 9056SOL     OW38803   3.133   3.465   0.145 -0.3082  0.0654 -0.5554
 9056SOL    HW138804   3.102   3.379   0.118  1.1418 -1.4759  2.7602
 9056SOL    HW238805   3.061   3.474   0.207  2.5631  0.9657  2.6310
 9057SOL     OW38806   4.704   2.869   6.263  0.4354  0.3710  0.2477
 9057SOL    HW138807   4.696   2.964   6.260  2.0433  0.4385 -1.9056
 9057SOL    HW238808   4.611   2.852   6.250  0.4728 -0.3124  0.8774
 9058SOL     OW38809   1.620   2.758   5.648  0.2751  0.2604  0.4637
 9058SOL    HW138810   1.547   2.774   5.588  0.4180  0.2347  0.2809
 9058SOL    HW238811   1.618   2.662   5.648 -0.4825  0.2772 -0.4739
 9059SOL     OW38812   4.060   1.391   1.530 -0.0864  0.0034 -0.4835
 9059SOL    HW138813   4.128   1.324   1.533 -0.0894  0.0737  1.3904
 9059SOL    HW238814   4.049   1.405   1.436 -0.8287  0.3157 -0.3487
 9060SOL     OW38815   4.089   2.304   2.256  0.1950  0.0785 -0.1895
 9060SOL    HW138816   4.073   2.240   2.326  2.5030 -0.4775 -0.1893
 9060SOL    HW238817   4.075   2.249   2.178 -0.0269  0.6291 -0.5361
 9061SOL     OW38818   3.610   2.938   8.492  0.2231 -0.0814  0.0561
 9061SOL    HW138819   3.561   2.999   8.437 -1.9031 -1.3560  0.5479
 9061SOL    HW238820   3.668   2.994   8.543  0.6523  0.8333 -1.4462
 9062SOL     OW38821   4.199   4.451  10.638 -0.9541 -0.0955  0.5245
 9062SOL    HW138822   4.275   4.505  10.657 -0.3094  0.3262 -3.2139
 9062SOL    HW238823   4.249   4.373  10.614 -0.9807 -0.1553  0.6674
 9063SOL     OW38824   2.333   3.780  12.404  0.1472 -0.1186 -0.0037
 9063SOL    HW138825   2.281   3.717  12.453 -1.8993  0.6695 -1.1807
 9063SOL    HW238826   2.276   3.842  12.359  1.4384  1.4194  0.4555
 9064SOL     OW38827   1.823   2.734   3.596  0.3054  0.7260  0.4689
 9064SOL    HW138828   1.812   2.755   3.689 -0.5984 -0.1813  0.5610
 9064SOL    HW238829   1.886   2.662   3.596  1.7051  1.9503  0.6549
 9065SOL     OW38830   0.302   2.362   9.171 -0.3226 -0.5952  0.1562
 9065SOL    HW138831   0.303   2.446   9.216 -0.3416  0.2864 -1.4993
 9065SOL    HW238832   0.391   2.366   9.135 -0.7161  0.9798 -0.6292
 9066SOL     OW38833   1.817   0.097   9.503 -0.4166  0.5336  0.0850
 9066SOL    HW138834   1.847   0.026   9.445 -0.2424  0.4081  0.3282
 9066SOL    HW238835   1.812   0.170   9.441 -2.2821 -1.1417 -1.7650
 9067SOL     OW38836   0.597   0.428   4.424 -0.1013 -0.6048  0.3184
 9067SOL    HW138837   0.548   0.346   4.415 -0.0175 -0.8391  2.0447
 9067SOL    HW238838   0.529   0.495   4.433 -1.0610 -1.6264  0.6350
 9068SOL     OW38839   2.067   4.330  12.381  0.2858 -0.6858 -0.5433
 9068SOL    HW138840   2.112   4.415  12.375  0.7571 -1.0835 -2.5573
 9068SOL    HW238841   2.071   4.319  12.476 -0.7891  1.2459 -0.2750
 9069SOL     OW38842   2.977   0.303   6.914 -0.2062  0.5523 -0.1548
 9069SOL    HW138843   2.957   0.395   6.931 -0.9794  0.7093 -1.8708
 9069SOL    HW238844   2.973   0.300   6.818  1.8926 -0.6790 -0.2048
 9070SOL     OW38845   3.535   2.297   6.367  0.0730  0.3247  0.3321
 9070SOL    HW138846   3.581   2.260   6.442 -1.2485  1.0888  1.5030
 9070SOL    HW238847   3.480   2.357   6.416 -0.1040 -0.0485  0.5879
 9071SOL     OW38848   1.591   1.430  13.074 -0.1728  0.3544  0.1748
 9071SOL    HW138849   1.548   1.513  13.056  0.0644  0.5797  0.6526
 9071SOL    HW238850   1.628   1.443  13.161  2.1080 -1.3462 -0.5356
 9072SOL     OW38851   0.803   0.501   5.076 -0.2315 -0.3345  0.1312
 9072SOL    HW138852   0.811   0.596   5.081 -0.2987 -0.2951 -0.4600
 9072SOL    HW238853   0.814   0.465   5.164  0.8940  1.2620  0.6282
 9073SOL     OW38854   0.171   2.654  12.298  0.2437  0.2129 -0.2664
 9073SOL    HW138855   0.137   2.594  12.364 -0.5655 -0.1585 -1.0319
 9073SOL    HW238856   0.266   2.644  12.303  0.2840  1.3015  1.3772
 9074SOL     OW38857   0.749   0.009  16.411  0.1762 -0.7670 -0.3950
 9074SOL    HW138858   0.758   4.654  16.428 -2.3021 -0.9965 -0.2952
 9074SOL    HW238859   0.777   0.013  16.319  0.2623 -0.4272 -0.3543
 9075SOL     OW38860   4.363   3.792  14.769 -0.4529  0.0270  0.1332
 9075SOL    HW138861   4.370   3.767  14.677  0.3163  0.1254  0.1634
 9075SOL    HW238862   4.452   3.772  14.800 -1.0736 -1.7532  0.7979
 9076SOL     OW38863   4.604   0.462   8.047  0.1715 -0.0310  0.5538
 9076SOL    HW138864   4.533   0.412   8.008 -0.2605 -0.0391  1.3383
 9076SOL    HW238865   4.676   0.400   8.057  1.3535  1.1757 -0.4275
 9077SOL     OW38866   2.479   0.041   0.646 -0.4079  0.2567 -0.1910
 9077SOL    HW138867   2.444   0.067   0.560  0.6068  0.5360 -0.5275
 9077SOL    HW238868   2.542   0.113   0.651  0.4061 -0.4978  0.3329
 9078SOL     OW38869   1.923   1.559   5.089 -0.1278 -0.4338  0.3517
 9078SOL    HW138870   1.881   1.640   5.117  0.5917 -0.5597  1.8026
 9078SOL    HW238871   1.910   1.565   4.994 -1.5539  0.5056  0.6082
 9079SOL     OW38872   0.298   1.669   7.896  0.1099 -0.8287  0.2676
 9079SOL    HW138873   0.234   1.736   7.922  0.3944  1.0370 -3.8777
 9079SOL    HW238874   0.292   1.597   7.959  0.0961  0.4506  1.7348
 9080SOL     OW38875   2.229   2.017   7.933 -0.0155 -0.2473 -0.4183
 9080SOL    HW138876   2.149   1.974   7.963  0.6557 -0.5417  0.9388
 9080SOL    HW238877   2.189   2.104   7.925 -2.3477 -1.5233 -2.4223
 9081SOL     OW38878   2.581   1.863   5.844 -0.1737 -0.1581  0.2625
 9081SOL    HW138879   2.505   1.921   5.844  0.1182  0.2194  0.7465
 9081SOL    HW238880   2.584   1.835   5.753 -0.0757  0.5640  0.0498
 9082SOL     OW38881   4.219   4.371  15.197  0.1041 -0.0570  0.1429
 9082SOL    HW138882   4.243   4.279  15.208 -0.5367 -0.1741  0.5425
 9082SOL    HW238883   4.124   4.362  15.205 -0.0318  2.5546  1.4758
 9083SOL     OW38884   0.951   0.570   3.549  0.2791  0.1365  0.5096
 9083SOL    HW138885   0.877   0.563   3.489 -0.2801  1.9242  0.9873
 9083SOL    HW238886   1.030   0.579   3.495 -0.2078  0.6954 -0.1095
 9084SOL     OW38887   2.649   4.301   5.610  0.1066  0.0513  0.5411
 9084SOL    HW138888   2.613   4.388   5.594  1.1315  0.2761 -0.5388
 9084SOL    HW238889   2.743   4.321   5.604 -0.0255  0.6210  0.3499
 9085SOL     OW38890   0.939   4.048   0.379  0.2436  0.4553  0.0452
 9085SOL    HW138891   0.900   4.125   0.337 -0.1150 -0.4057 -1.1991
 9085SOL    HW238892   0.993   4.035   0.301  3.0973  0.2450  2.0948
 9086SOL     OW38893   4.348   3.233   1.439 -0.1477  0.1896 -0.0160
 9086SOL    HW138894   4.323   3.304   1.379 -2.5952  0.5829  1.4468
 9086SOL    HW238895   4.423   3.271   1.484  0.3722  0.8507 -1.4499
 9087SOL     OW38896   2.828   0.870  12.834  0.3401  0.2371 -0.1919
 9087SOL    HW138897   2.817   0.934  12.763 -0.8922  2.3456  1.8741
 9087SOL    HW238898   2.739   0.851  12.865  0.4409  0.8749  0.4748
 9088SOL     OW38899   0.841   3.139  17.504 -0.5015  0.0348  0.0139
 9088SOL    HW138900   0.822   3.054  17.544 -2.3730  0.4717  0.0443
 9088SOL    HW238901   0.754   3.173  17.524 -0.4954  0.4301 -0.6193
 9089SOL     OW38902   1.933   0.715   2.588 -0.2523 -0.5709 -0.4707
 9089SOL    HW138903   1.963   0.634   2.546  1.5159  0.5525 -1.3605
 9089SOL    HW238904   1.840   0.698   2.602 -0.3984 -0.0620 -0.8201
 9090SOL     OW38905   1.509   3.521  11.964 -0.0728  0.2748  0.3115
 9090SOL    HW138906   1.488   3.601  11.915  1.0699  1.1567  1.2433
 9090SOL    HW238907   1.597   3.502  11.930 -0.8043 -1.9042 -0.3367
 9091SOL     OW38908   4.530   0.770   2.982 -0.4029 -0.4173  0.4908
 9091SOL    HW138909   4.522   0.782   3.077  0.2464  1.0551  0.3558
 9091SOL    HW238910   4.595   0.833   2.954 -1.1859  1.0598  1.9975
 9092SOL     OW38911   1.354   1.419  13.295 -0.6329 -0.1127 -0.1869
 9092SOL    HW138912   1.429   1.456  13.342 -0.1795 -1.0233 -0.1786
 9092SOL    HW238913   1.355   1.473  13.216  1.3129  1.8331  1.1703
 9093SOL     OW38914   0.608   2.998   8.140  0.7691 -0.0666  0.2081
 9093SOL    HW138915   0.690   2.987   8.189  0.3465  0.7100  1.0878
 9093SOL    HW238916   0.577   3.082   8.176 -0.7098  0.3392 -2.0415
 9094SOL     OW38917   0.550   4.077   4.000  0.2646  0.7188 -0.4094
 9094SOL    HW138918   0.514   3.992   3.974  0.6357  0.5391 -0.3273
 9094SOL    HW238919   0.611   4.060   4.072 -0.1000 -2.0669 -0.7892
 9095SOL     OW38920   0.358   2.363  10.319 -0.3069  0.1258 -0.2451
 9095SOL    HW138921   0.278   2.416  10.321 -0.9237 -0.8521  0.5320
 9095SOL    HW238922   0.423   2.429  10.344  0.2771 -0.2133 -0.8385
 9096SOL     OW38923   2.361   3.232   1.980  0.0024  0.1658  0.9037
 9096SOL    HW138924   2.449   3.245   1.943 -0.6676  3.9839  0.6384
 9096SOL    HW238925   2.360   3.137   1.986  3.9550  0.0082 -1.2619
 9097SOL     OW38926   1.804   2.497   7.377  0.6150  0.3655 -0.3740
 9097SOL    HW138927   1.733   2.543   7.422  0.8754  1.1858 -0.7973
 9097SOL    HW238928   1.847   2.460   7.455 -2.2352 -2.7104 -0.2758
 9098SOL     OW38929   4.271   2.688   3.656 -0.0287 -0.4186 -0.4541
 9098SOL    HW138930   4.232   2.689   3.744  0.7258 -0.5913 -0.1167
 9098SOL    HW238931   4.343   2.626   3.670 -0.0991  0.1574  2.5017
 9099SOL     OW38932   1.385   4.356   5.063 -0.7499 -0.0743 -0.2781
 9099SOL    HW138933   1.469   4.314   5.046  0.3783  2.2531 -0.3386
 9099SOL    HW238934   1.335   4.293   5.116  0.2050  0.7371  1.6085
 9100SOL     OW38935   4.577   0.704   3.832 -0.2072  0.0223  0.0004
 9100SOL    HW138936   4.583   0.728   3.739  2.0991  0.2435  0.1904
 9100SOL    HW238937   4.487   0.675   3.844  0.4756 -2.2795 -0.5185
 9101SOL     OW38938   0.031   1.211   5.639 -0.0363 -0.2362  0.0628
 9101SOL    HW138939   0.011   1.152   5.712 -0.1292 -1.8778 -1.3086
 9101SOL    HW238940   4.690   1.217   5.585 -2.6847  0.4607  3.9618
 9102SOL     OW38941   3.090   1.838   7.514  0.8315 -0.1881 -0.1216
 9102SOL    HW138942   3.015   1.891   7.540 -0.0367 -1.3894 -0.1993
 9102SOL    HW238943   3.052   1.760   7.475  2.4077 -0.4716 -1.1077
 9103SOL     OW38944   3.755   0.897   6.941  0.5693  0.5953 -0.5046
 9103SOL    HW138945   3.726   0.915   7.031 -0.4265 -1.2181 -0.4745
 9103SOL    HW238946   3.679   0.920   6.888  0.0818 -1.4752 -0.6837
 9104SOL     OW38947   2.699   1.312   3.914 -0.1335 -0.3224 -0.4542
 9104SOL    HW138948   2.641   1.313   3.838 -1.0568 -0.5890  0.2593
 9104SOL    HW238949   2.755   1.243   3.877  1.5614  0.8453 -0.0912
 9105SOL     OW38950   3.668   0.529   3.116 -0.2571 -0.0580 -0.4944
 9105SOL    HW138951   3.628   0.445   3.095 -0.4774 -0.4354  1.3911
 9105SOL    HW238952   3.658   0.565   3.028 -0.2627  1.4219  0.1154
 9106SOL     OW38953   4.599   4.585   7.708 -0.1428  0.0535  0.1607
 9106SOL    HW138954   4.533   4.525   7.742  0.4515 -0.9218 -0.3885
 9106SOL    HW238955   4.678   4.541   7.739  0.0971 -0.1325 -0.6951
 9107SOL     OW38956   2.708   2.864  16.212  0.1154 -0.3697 -0.2356
 9107SOL    HW138957   2.626   2.913  16.218 -1.3740 -2.8059 -0.3398
 9107SOL    HW238958   2.679   2.781  16.173  0.5007 -0.1728 -0.9530
 9108SOL     OW38959   3.079   4.430   7.862  0.0645 -0.7895  0.3066
 9108SOL    HW138960   3.082   4.352   7.917  0.3038 -1.7385 -1.0465
 9108SOL    HW238961   3.099   4.390   7.777  0.8200 -0.2727  0.2376
 9109SOL     OW38962   2.572   2.447   2.789 -0.1924  0.6877  0.0947
 9109SOL    HW138963   2.543   2.359   2.814 -1.3609  1.1995  0.5402
 9109SOL    HW238964   2.655   2.417   2.752 -1.4488 -0.9673 -1.4215
 9110SOL     OW38965   4.416   0.475   7.437 -0.1064 -0.5415  0.5682
 9110SOL    HW138966   4.482   0.507   7.376 -0.8947 -0.8009 -0.4316
 9110SOL    HW238967   4.406   0.555   7.489 -3.1191 -0.3644 -0.2316
 9111SOL     OW38968   0.140   3.124  17.268 -0.2293  0.0136  0.2822
 9111SOL    HW138969   0.185   3.181  17.205 -0.9460  0.7487  0.4429
 9111SOL    HW238970   0.085   3.185  17.317 -0.7496  2.0710 -2.8997
 9112SOL     OW38971   1.096   2.281   1.884 -0.0563  0.5017 -0.7923
 9112SOL    HW138972   1.083   2.220   1.957  0.7525 -0.7441 -1.6774
 9112SOL    HW238973   1.011   2.276   1.839 -0.7732 -0.5759  0.6923
 9113SOL     OW38974   4.583   0.091  14.848  0.1341 -0.5032 -0.4824
 9113SOL    HW138975   4.649   0.067  14.783  1.5951  2.9353 -0.2400
 9113SOL    HW238976   4.514   0.024  14.838  0.8695 -1.3541  0.1687
 9114SOL     OW38977   0.470   0.484   3.485  0.7048 -0.4854 -0.2988
 9114SOL    HW138978   0.419   0.494   3.405 -1.7465 -1.9414  1.1045
 9114SOL    HW238979   0.546   0.432   3.460 -0.3154 -1.4024 -1.4588
 9115SOL     OW38980   0.421   2.249   8.844 -0.2739  0.1522 -0.1604
 9115SOL    HW138981   0.343   2.301   8.861  0.6077  1.3420  0.2104
 9115SOL    HW238982   0.462   2.291   8.769 -0.6447  1.3243  0.2985
 9116SOL     OW38983   1.197   1.132  15.593  0.1454 -0.6197 -0.2942
 9116SOL    HW138984   1.283   1.142  15.551 -0.2708 -0.2034 -1.0321
 9116SOL    HW238985   1.166   1.222  15.582  1.1456 -0.0481  1.5249
 9117SOL     OW38986   0.027   0.852   7.999  0.4354  0.3971  0.9165
 9117SOL    HW138987   4.738   0.808   7.918 -0.9084 -1.0930  2.1839
 9117SOL    HW238988   0.080   0.788   8.047  0.4008 -0.5044 -0.2387
 9118SOL     OW38989   3.394   4.673   5.210  0.2731  0.7640  0.5593
 9118SOL    HW138990   3.391   4.578   5.197 -0.9870  0.8806 -0.0257
 9118SOL    HW238991   3.452   4.680   5.286  1.2749 -0.8401 -0.0496
 9119SOL     OW38992   2.096   3.632  13.397 -0.3128  0.3616 -0.4167
 9119SOL    HW138993   2.147   3.570  13.450  1.5100  2.4413  0.2970
 9119SOL    HW238994   2.028   3.572  13.367  2.3581 -2.0296 -1.6646
 9120SOL     OW38995   3.542   0.874   4.874 -0.3703 -0.3524 -0.6037
 9120SOL    HW138996   3.624   0.900   4.917 -0.2723  0.1058 -1.0707
 9120SOL    HW238997   3.536   0.784   4.905  0.4450  0.3126  1.4813
 9121SOL     OW38998   1.951   1.676   3.273 -0.3858  0.3202  0.7194
 9121SOL    HW138999   1.970   1.618   3.347 -1.2367 -0.3906  0.3791
 9121SOL    HW239000   1.982   1.760   3.305 -1.7403  0.0654  2.6584
 9122SOL     OW39001   4.438   3.860   5.125 -0.3510 -0.1546  0.1333
 9122SOL    HW139002   4.385   3.934   5.153 -0.9527 -0.7658  0.6060
 9122SOL    HW239003   4.504   3.874   5.193  0.0221  0.8221 -0.4235
 9123SOL     OW39004   1.198   1.285  14.826 -0.0504  0.0084  0.3156
 9123SOL    HW139005   1.289   1.278  14.797  0.3935  1.0161  1.4434
 9123SOL    HW239006   1.163   1.219  14.766  2.8309 -1.9078  0.7579
 9124SOL     OW39007   3.333   4.066   4.672 -0.1730  0.4508  0.3836
 9124SOL    HW139008   3.330   3.974   4.701  1.2981  0.1089 -0.5953
 9124SOL    HW239009   3.341   4.122   4.749 -2.5466  1.6196 -0.2191
 9125SOL     OW39010   1.265   1.006   9.517 -0.2129  0.7299  0.5663
 9125SOL    HW139011   1.324   1.048   9.580 -0.5688 -0.1052  1.4587
 9125SOL    HW239012   1.267   1.053   9.434 -0.5184 -0.8805 -0.3401
 9126SOL     OW39013   3.329   2.287  16.001 -0.9911  0.3886  0.2204
 9126SOL    HW139014   3.399   2.226  16.027 -0.5954  1.4229  1.6384
 9126SOL    HW239015   3.337   2.358  16.065  3.1577 -0.9189  1.1741
 9127SOL     OW39016   0.092   0.736   6.035  0.5575 -0.0917 -0.2833
 9127SOL    HW139017   0.100   0.770   5.945 -1.6068 -2.4978 -1.4043
 9127SOL    HW239018   0.150   0.661   6.035  0.6189 -0.0402  1.0678
 9128SOL     OW39019   2.972   2.893   1.772 -0.3939 -0.4131  0.0637
 9128SOL    HW139020   2.878   2.883   1.789 -0.3045 -1.5303 -0.1020
 9128SOL    HW239021   2.966   2.940   1.690  0.0714  0.0805  0.3098
 9129SOL     OW39022   1.634   1.832   2.463  0.0014 -0.2853 -0.1565
 9129SOL    HW139023   1.729   1.828   2.471 -0.1764 -5.8684 -0.5484
 9129SOL    HW239024   1.622   1.925   2.447 -0.0762 -0.3568 -0.5247
 9130SOL     OW39025   1.095   2.033   0.734 -0.2728  0.4421 -0.0972
 9130SOL    HW139026   1.160   2.030   0.664  0.2599 -0.5284  0.4480
 9130SOL    HW239027   1.066   1.942   0.723 -1.1422  0.9834 -2.2324
 9131SOL     OW39028   1.851   0.439   6.565 -0.3063  0.4921  0.4019
 9131SOL    HW139029   1.812   0.427   6.651  0.8904 -0.7398  0.7778
 9131SOL    HW239030   1.820   0.364   6.514  1.8297  0.8231 -1.3785
 9132SOL     OW39031   1.045   4.559  17.228  0.4867 -0.2774 -0.2543
 9132SOL    HW139032   0.965   4.513  17.201  2.2789 -3.3260 -0.3672
 9132SOL    HW239033   1.016   4.619  17.297  1.0164  2.0116 -2.0400
 9133SOL     OW39034   3.123   2.295   9.310 -0.2342 -0.2999 -0.0695
 9133SOL    HW139035   3.107   2.230   9.242 -0.3663 -1.4880  1.1038
 9133SOL    HW239036   3.082   2.252   9.385 -1.4307  2.1827  0.6923
 9134SOL     OW39037   4.210   0.124   4.461 -0.0776 -0.1120 -0.0377
 9134SOL    HW139038   4.150   0.064   4.504  0.9068 -1.0404  0.0291
 9134SOL    HW239039   4.235   0.063   4.392 -0.8568  1.1816 -1.4499
 9135SOL     OW39040   1.968   1.106  13.688 -0.4343  0.4532 -0.2046
 9135SOL    HW139041   1.877   1.076  13.691  0.0372 -1.1383 -2.1589
 9135SOL    HW239042   1.988   1.068  13.603 -0.3438  0.0608 -0.0055
 9136SOL     OW39043   3.760   1.886  12.324  0.4680 -0.3530  0.5321
 9136SOL    HW139044   3.795   1.806  12.285 -0.1024  0.1418 -0.9975
 9136SOL    HW239045   3.794   1.871  12.412  5.6818  0.4850 -1.3567
 9137SOL     OW39046   0.070   1.226   0.339  0.2309 -0.3575 -0.2334
 9137SOL    HW139047   0.025   1.145   0.363  0.0001  0.4751  2.1642
 9137SOL    HW239048   0.034   1.245   0.252  1.1404 -1.3771 -0.8304
 9138SOL     OW39049   0.693   0.966   2.949  0.4613  0.2362  0.3483
 9138SOL    HW139050   0.671   0.980   3.041 -0.9120 -1.9012  0.3573
 9138SOL    HW239051   0.785   0.940   2.955  0.2016 -0.3033  2.0883
 9139SOL     OW39052   0.329   0.079   8.531 -0.0477 -0.6681 -0.0009
 9139SOL    HW139053   0.333   0.008   8.466 -2.4602 -0.2067 -0.6262
 9139SOL    HW239054   0.348   0.033   8.613  0.1661 -0.3612  0.1194
 9140SOL     OW39055   3.777   1.259  17.080 -0.7884 -0.6963 -0.0267
 9140SOL    HW139056   3.737   1.335  17.037  0.4970 -0.9132 -1.5766
 9140SOL    HW239057   3.866   1.290  17.069 -1.3171 -0.3708 -3.4268
 9141SOL     OW39058   2.620   0.004   8.373 -0.4079  0.3478  0.0628
 9141SOL    HW139059   2.553   0.071   8.388  0.6091  0.9644  1.7582
 9141SOL    HW239060   2.598   4.724   8.281  1.0801  0.1886 -0.2593
 9142SOL     OW39061   1.662   2.125   2.439  0.3650 -0.0436 -0.3671
 9142SOL    HW139062   1.593   2.177   2.397  0.1090  0.2606  0.4302
 9142SOL    HW239063   1.737   2.182   2.424 -1.0181  1.6178 -0.9472
 9143SOL     OW39064   4.661   4.125   1.580  1.1582  0.1703  0.6518
 9143SOL    HW139065   4.593   4.066   1.612  0.2422  0.2475 -1.1437
 9143SOL    HW239066   4.619   4.152   1.498  0.6272 -4.0419 -0.4347
 9144SOL     OW39067   3.314   2.376   1.156 -0.0359 -0.7433 -0.2617
 9144SOL    HW139068   3.324   2.395   1.063 -0.6919  1.8764  0.2108
 9144SOL    HW239069   3.247   2.307   1.154 -0.9957  0.1432  1.9849
 9145SOL     OW39070   2.375   3.938   6.457 -0.5715 -0.3377 -0.6703
 9145SOL    HW139071   2.323   3.942   6.537  2.2021  2.6106  1.0090
 9145SOL    HW239072   2.456   3.903   6.495 -0.4049 -0.1945 -0.8928
 9146SOL     OW39073   2.796   0.836   8.494  0.1637  0.0005  0.1879
 9146SOL    HW139074   2.762   0.916   8.534  3.0409  0.3690  1.8824
 9146SOL    HW239075   2.833   0.874   8.414  1.7477  0.9279  1.3687
 9147SOL     OW39076   2.520   0.797   1.215 -0.0802  0.3381  0.3018
 9147SOL    HW139077   2.491   0.775   1.303 -0.3941 -1.0503 -0.1576
 9147SOL    HW239078   2.563   0.717   1.185  0.6352  1.0415 -0.5532
 9148SOL     OW39079   2.790   0.771   5.057 -0.0832 -0.5317  0.3649
 9148SOL    HW139080   2.792   0.680   5.026 -0.0344  0.4515 -2.5792
 9148SOL    HW239081   2.883   0.780   5.079  0.0148  1.0485 -0.7233
 9149SOL     OW39082   4.538   2.150   8.972  0.5299  0.2498 -0.0904
 9149SOL    HW139083   4.446   2.125   8.963  0.3732  0.4302  1.1013
 9149SOL    HW239084   4.549   2.146   9.067  0.0027  2.9593  0.0872
 9150SOL     OW39085   1.578   1.965   5.476 -0.3576  1.5881 -0.1218
 9150SOL    HW139086   1.657   1.911   5.465 -1.3662 -0.3647  2.2807
 9150SOL    HW239087   1.610   2.054   5.490 -1.3522  2.1490 -1.4622
 9151SOL     OW39088   0.072   4.008  10.701  0.3080 -0.0757 -0.9181
 9151SOL    HW139089   4.737   3.958  10.664  0.0934 -1.2748  1.0946
 9151SOL    HW239090   0.055   4.092  10.658  4.5487  0.9651 -0.5143
 9152SOL     OW39091   4.696   3.687   6.534  0.4754  0.1296 -0.0636
 9152SOL    HW139092   0.013   3.617   6.501  0.3732 -0.4236  0.9575
 9152SOL    HW239093   0.026   3.745   6.567 -0.5940  0.6245  1.3086
 9153SOL     OW39094   3.467   1.604   7.699  0.6166 -0.0609 -0.2911
 9153SOL    HW139095   3.507   1.603   7.786 -0.1895 -2.7813  0.0411
 9153SOL    HW239096   3.382   1.562   7.709 -0.9910  3.4955  0.9175
 9154SOL     OW39097   0.770   4.071   4.634 -0.6924 -0.1209  0.0995
 9154SOL    HW139098   0.765   4.117   4.718  0.6257 -0.7727  0.5313
 9154SOL    HW239099   0.680   4.084   4.604 -0.9468 -1.2768  0.3635
 9155SOL     OW39100   3.395   3.112  13.464 -0.2326 -0.0162 -0.0544
 9155SOL    HW139101   3.394   3.097  13.370  1.4069  0.7845 -0.2108
 9155SOL    HW239102   3.430   3.201  13.459 -0.0934 -0.1018 -0.5954
 9156SOL     OW39103   3.163   0.369  12.807 -0.3847  0.2666 -0.5010
 9156SOL    HW139104   3.170   0.279  12.777 -1.4849  0.2142 -0.5940
 9156SOL    HW239105   3.090   0.365  12.868  0.2844  0.1613  0.3027
 9157SOL     OW39106   2.320   1.162   3.315 -0.1418 -0.1806  0.1194
 9157SOL    HW139107   2.356   1.179   3.402 -1.3729 -1.3936  0.8747
 9157SOL    HW239108   2.305   1.067   3.325 -0.1531 -0.0224  1.7256
 9158SOL     OW39109   3.007   4.404   2.594  0.3453  0.4704 -0.1979
 9158SOL    HW139110   3.018   4.348   2.517  1.9705 -0.9289  1.0546
 9158SOL    HW239111   3.049   4.482   2.559  0.7751  0.3552  0.0605
 9159SOL     OW39112   0.433   2.474   7.928  0.5679 -0.0467 -0.2493
 9159SOL    HW139113   0.513   2.453   7.977  0.2466 -0.8139 -0.0499
 9159SOL    HW239114   0.408   2.385   7.903  0.2318  0.2585 -0.9801
 9160SOL     OW39115   3.975   2.036   1.848 -0.2527  0.1754 -0.6745
 9160SOL    HW139116   3.964   2.082   1.765  1.4328  1.4168 -0.1943
 9160SOL    HW239117   3.953   1.952   1.807  0.5513 -0.1068 -0.5374
 9161SOL     OW39118   2.976   1.411   6.862 -0.0811 -0.0066 -0.5243
 9161SOL    HW139119   2.909   1.367   6.915  0.5571 -0.8185 -0.3924
 9161SOL    HW239120   3.024   1.333   6.835  0.8316  1.0256 -1.8390
 9162SOL     OW39121   3.479   2.703   7.219 -0.4079  0.0450 -0.1074
 9162SOL    HW139122   3.472   2.771   7.152 -0.1512  0.3114  0.1312
 9162SOL    HW239123   3.529   2.752   7.285 -0.4907 -0.7555  0.5463
 9163SOL     OW39124   0.864   4.386  15.438  0.5256  0.0366  0.4731
 9163SOL    HW139125   0.804   4.424  15.374 -1.3056 -2.2010  0.8861
 9163SOL    HW239126   0.916   4.466  15.450 -0.0313  0.4153  0.3324
 9164SOL     OW39127   2.765   1.420   9.021  0.4101  0.3877 -0.7635
 9164SOL    HW139128   2.757   1.326   9.004 -0.1272  0.2342  0.3012
 9164SOL    HW239129   2.715   1.453   8.947 -0.4429  0.1153 -0.3051
 9165SOL     OW39130   0.323   2.655   7.311  0.9470 -0.5790 -0.2844
 9165SOL    HW139131   0.236   2.617   7.323  0.2523  1.2671  0.6993
 9165SOL    HW239132   0.343   2.642   7.219  1.9634 -1.3978  0.0554
 9166SOL     OW39133   4.716   2.360   1.403  0.4074 -0.2038 -0.4698
 9166SOL    HW139134   0.004   2.332   1.490  1.6808 -1.3393 -1.2282
 9166SOL    HW239135   4.700   2.282   1.350  1.1410 -0.7604  0.1351
 9167SOL     OW39136   0.210   1.445  16.451 -0.5210 -0.2055 -0.1016
 9167SOL    HW139137   0.161   1.468  16.371 -0.8307 -0.9526 -0.1297
 9167SOL    HW239138   0.230   1.357  16.420 -2.0845 -0.6569  0.1548
 9168SOL     OW39139   0.450   4.432   3.200 -0.7318  0.8477  0.6884
 9168SOL    HW139140   0.368   4.464   3.162 -0.3963 -1.0404 -1.6111
 9168SOL    HW239141   0.511   4.488   3.152 -0.7686  0.4450  0.1670
 9169SOL     OW39142   3.302   0.337   0.958 -0.0889  0.4327 -0.0058
 9169SOL    HW139143   3.279   0.245   0.947 -1.2009  0.9516 -2.0641
 9169SOL    HW239144   3.379   0.325   1.013 -0.5691  1.5388  0.8978
 9170SOL     OW39145   1.472   0.786   3.169 -0.8138  0.4509  0.3085
 9170SOL    HW139146   1.398   0.757   3.222 -2.0216  3.1799  0.1005
 9170SOL    HW239147   1.469   0.714   3.106  1.1100 -1.5795  2.5354
 9171SOL     OW39148   0.670   4.638  17.467 -0.1271  0.0318  0.7546
 9171SOL    HW139149   0.592   4.694  17.458 -0.0863 -0.0534 -0.1368
 9171SOL    HW239150   0.641   4.561  17.418 -0.2576  1.2877 -1.1168
 9172SOL     OW39151   2.648   4.070   3.556  0.0560  0.0287 -0.0655
 9172SOL    HW139152   2.638   4.122   3.477  0.4329 -0.9680 -0.7721
 9172SOL    HW239153   2.740   4.088   3.578 -0.5186  1.4001  1.1487
 9173SOL     OW39154   0.500   2.367  17.455 -0.6761  0.4427 -0.2686
 9173SOL    HW139155   0.432   2.302  17.473 -1.2916  0.8947 -0.9579
 9173SOL    HW239156   0.455   2.428  17.397 -0.5928 -0.0813 -0.8809
 9174SOL     OW39157   4.164   2.258   4.139  0.4287  0.6231 -0.5748
 9174SOL    HW139158   4.170   2.163   4.147  1.0627  0.7433  0.3743
 9174SOL    HW239159   4.099   2.261   4.209  2.0792 -0.2483  1.0007
 9175SOL     OW39160   3.280   1.444   7.442  0.1019  0.1137 -0.3807
 9175SOL    HW139161   3.194   1.413   7.413  0.6181 -2.2772  0.6089
 9175SOL    HW239162   3.243   1.507   7.504 -0.0191  0.5948 -0.9439
 9176SOL     OW39163   0.816   4.006  14.963 -0.1476  0.4170 -0.3474
 9176SOL    HW139164   0.805   3.922  14.918 -2.7370  0.5033  0.0987
 9176SOL    HW239165   0.902   4.029  14.928 -0.0768  1.0115  0.2351
 9177SOL     OW39166   2.357   4.264  15.456 -0.1712 -0.3165  0.0579
 9177SOL    HW139167   2.336   4.350  15.420 -0.2151 -0.8134 -1.0960
 9177SOL    HW239168   2.452   4.267  15.444 -0.6089  1.5927 -2.9200
 9178SOL     OW39169   4.381   2.818   5.334  0.3225  0.0060  1.0829
 9178SOL    HW139170   4.328   2.865   5.398 -0.1512 -1.7754  2.0073
 9178SOL    HW239171   4.385   2.885   5.265 -0.5968 -0.8214  0.2213
 9179SOL     OW39172   2.633   4.659   6.544 -0.2755  0.2353 -0.3313
 9179SOL    HW139173   2.674   4.704   6.618  3.3672 -0.5395 -1.8633
 9179SOL    HW239174   2.546   4.649   6.582 -0.6529 -0.8569 -1.5119
 9180SOL     OW39175   1.888   0.916  15.895  0.0050 -0.0346 -0.3231
 9180SOL    HW139176   1.900   1.010  15.908  3.0232 -0.2342 -1.8227
 9180SOL    HW239177   1.980   0.894  15.907 -0.1384 -1.0071 -0.9840
 9181SOL     OW39178   1.620   0.318   5.306 -0.1771  0.6725 -0.7612
 9181SOL    HW139179   1.630   0.247   5.369  1.9460  0.3906 -1.4024
 9181SOL    HW239180   1.613   0.275   5.220 -1.3508 -0.4392 -0.1007
 9182SOL     OW39181   2.171   4.592   5.053  0.6266 -0.5509  0.2969
 9182SOL    HW139182   2.081   4.616   5.075  1.2005 -0.0709  2.0562
 9182SOL    HW239183   2.154   4.498   5.062 -0.1445 -0.2501  1.9003
 9183SOL     OW39184   3.048   3.300  11.402  0.3033  0.0240 -0.6321
 9183SOL    HW139185   2.979   3.344  11.451 -0.3965  0.9889 -2.5261
 9183SOL    HW239186   3.114   3.275  11.467 -0.2855  0.8548  0.2757
 9184SOL     OW39187   4.279   2.086   9.252 -0.1419 -0.2136 -0.4172
 9184SOL    HW139188   4.314   1.999   9.236  1.3742  0.4426 -0.6802
 9184SOL    HW239189   4.208   2.069   9.314  1.2757  2.2948  1.8924
 9185SOL     OW39190   1.420   4.659   5.403  0.0043  0.0380  0.0341
 9185SOL    HW139191   1.338   4.704   5.424 -0.0962 -0.0421 -0.1908
 9185SOL    HW239192   1.408   4.634   5.311 -2.0195 -0.7217  0.5140
 9186SOL     OW39193   0.795   1.937   3.058 -0.2118  0.0860  0.3961
 9186SOL    HW139194   0.840   1.872   3.112 -1.7815 -1.5255 -0.1993
 9186SOL    HW239195   0.756   1.872   2.998 -1.6361  0.8421  0.5060
 9187SOL     OW39196   3.793   3.608  12.197 -0.2175  0.0576  0.0767
 9187SOL    HW139197   3.758   3.521  12.211 -1.6639  0.9598  2.1051
 9187SOL    HW239198   3.888   3.593  12.190  0.0506  2.5065 -1.6153
 9188SOL     OW39199   3.905   1.106   7.883  0.1256 -0.1630  0.0118
 9188SOL    HW139200   3.866   1.064   7.960  1.2370  2.2209  1.8953
 9188SOL    HW239201   3.858   1.189   7.873 -0.6720 -0.5286  0.7074
 9189SOL     OW39202   4.212   4.490  12.776  0.1565  0.2214 -0.2395
 9189SOL    HW139203   4.138   4.432  12.798  0.0070 -0.0350 -1.4400
 9189SOL    HW239204   4.284   4.464  12.834 -0.6913 -0.1590  0.6514
 9190SOL     OW39205   4.394   0.895   6.394  0.5075 -0.0931  0.0980
 9190SOL    HW139206   4.470   0.947   6.369 -0.2549  0.2291 -1.5321
 9190SOL    HW239207   4.386   0.908   6.489 -0.9634 -0.1837 -0.0105
 9191SOL     OW39208   4.716   2.013  13.350 -0.5839 -0.4720 -0.0160
 9191SOL    HW139209   0.011   1.973  13.269 -1.3362  0.5049 -0.8084
 9191SOL    HW239210   4.678   1.939  13.398  0.7541 -1.8534 -1.0804
 9192SOL     OW39211   0.575   4.442   5.805  0.3185 -0.2677  1.2292
 9192SOL    HW139212   0.561   4.493   5.725 -1.2172 -4.6111 -1.3368
 9192SOL    HW239213   0.670   4.436   5.800  0.1295  0.2470 -2.7262
 9193SOL     OW39214   3.245   0.292   0.532 -0.3800 -0.6860 -0.3566
 9193SOL    HW139215   3.272   0.312   0.442 -0.9872 -0.8571 -0.5761
 9193SOL    HW239216   3.234   0.384   0.554 -1.0884 -0.2645 -2.3992
 9194SOL     OW39217   0.864   4.111   8.534  0.8558 -0.1195  0.3335
 9194SOL    HW139218   0.843   4.204   8.541 -0.1295 -0.4033  1.0676
 9194SOL    HW239219   0.779   4.070   8.549 -0.0245  1.0366 -1.4930
 9195SOL     OW39220   2.087   2.263   3.314 -0.1361 -0.1617 -0.2026
 9195SOL    HW139221   2.156   2.329   3.322  1.2705 -1.3782 -2.1629
 9195SOL    HW239222   2.106   2.224   3.228 -0.1666 -1.0080  0.1753
 9196SOL     OW39223   0.770   1.775  11.964 -0.2262 -0.0234  0.5730
 9196SOL    HW139224   0.722   1.854  11.938 -0.8366 -0.0728  1.5632
 9196SOL    HW239225   0.714   1.712  11.918 -1.6733  0.1182  2.1147
 9197SOL     OW39226   2.284   0.240   2.521  0.8293 -0.0604 -0.3514
 9197SOL    HW139227   2.261   0.168   2.462  0.3625  0.7782 -1.1999
 9197SOL    HW239228   2.324   0.301   2.459 -0.1952  1.0349  0.0492
 9198SOL     OW39229   1.675   1.457   7.217 -0.3878 -0.1252 -0.1795
 9198SOL    HW139230   1.707   1.547   7.227 -0.8579  0.1618 -1.2475
 9198SOL    HW239231   1.743   1.405   7.259 -0.3740 -0.5557 -0.7219
 9199SOL     OW39232   1.273   0.118   4.516  0.3261 -0.2557  0.0139
 9199SOL    HW139233   1.266   0.035   4.564  3.0242 -0.0456  0.7337
 9199SOL    HW239234   1.209   0.094   4.449  1.4640 -1.1118 -0.7616
 9200SOL     OW39235   4.239   4.543  17.312  0.1002 -0.0279 -0.2734
 9200SOL    HW139236   4.146   4.531  17.293  0.5035 -0.2105 -2.1374
 9200SOL    HW239237   4.252   4.636  17.294 -1.2771  0.1043 -0.5612
 9201SOL     OW39238   4.277   1.733   7.352 -0.3413 -0.2541  0.1684
 9201SOL    HW139239   4.262   1.827   7.363  0.1614 -0.2483  0.7873
 9201SOL    HW239240   4.282   1.712   7.445  0.4381 -1.3217 -0.1187
 9202SOL     OW39241   0.462   1.503   7.581  0.2147  0.2067 -0.1484
 9202SOL    HW139242   0.390   1.531   7.525 -1.8443 -1.0406  1.8574
 9202SOL    HW239243   0.449   1.409   7.596  0.7272  0.0149 -0.9389
 9203SOL     OW39244   0.983   0.093  16.555  0.0774 -0.6904  0.2074
 9203SOL    HW139245   0.941   0.052  16.480 -2.0409  0.9143  0.5320
 9203SOL    HW239246   1.036   0.163  16.518  0.1622 -1.5527 -1.2942
 9204SOL     OW39247   0.479   2.219  16.608 -0.0235  0.0303 -0.1865
 9204SOL    HW139248   0.506   2.247  16.696 -1.0953  0.5443 -0.0226
 9204SOL    HW239249   0.408   2.281  16.594 -1.1129 -0.2496  4.0568
 9205SOL     OW39250   1.552   2.977   0.945  0.6766  0.9605  0.1016
 9205SOL    HW139251   1.591   2.950   0.862 -2.3157 -3.4169  0.1512
 9205SOL    HW239252   1.517   3.066   0.933  1.1829  0.9398 -1.5383
 9206SOL     OW39253   4.271   1.331   5.434 -0.4691  0.0500  0.3207
 9206SOL    HW139254   4.205   1.397   5.458  0.9046  1.1641  1.0274
 9206SOL    HW239255   4.221   1.254   5.459  0.4896 -1.3806 -2.1948
 9207SOL     OW39256   0.315   3.488   6.726 -0.4458 -0.1867  0.2658
 9207SOL    HW139257   0.255   3.563   6.730  1.4848  1.4741 -2.2667
 9207SOL    HW239258   0.348   3.512   6.639 -0.1734 -2.2995 -0.2097
 9208SOL     OW39259   3.937   3.903  17.716 -0.1176  0.1897 -0.3954
 9208SOL    HW139260   3.959   3.874   0.054 -1.3492  0.3820 -0.0335
 9208SOL    HW239261   3.922   3.998  17.725  0.2103  0.0323  1.9074
 9209SOL     OW39262   2.372   0.698   3.965  0.6357 -0.1220  0.0325
 9209SOL    HW139263   2.401   0.614   3.999 -0.6740 -1.4317 -2.0919
 9209SOL    HW239264   2.420   0.697   3.883 -2.1248  1.4958 -1.6347
 9210SOL     OW39265   0.021   0.060   4.819  0.3063  0.2738  0.3741
 9210SOL    HW139266   4.674   0.084   4.783  0.8282 -0.6263 -1.4311
 9210SOL    HW239267   0.034   4.721   4.765 -1.1362  0.7197 -0.5906
 9211SOL     OW39268   3.581   2.348   4.996  0.0321  0.4367 -0.1575
 9211SOL    HW139269   3.521   2.407   4.950 -0.5400  1.7916  2.3196
 9211SOL    HW239270   3.564   2.263   4.956 -1.3186  1.5398 -1.9425
 9212SOL     OW39271   4.718   4.653   0.672 -0.6103 -0.2160 -0.1366
 9212SOL    HW139272   4.696   4.711   0.745  2.3331 -0.7311  1.1396
 9212SOL    HW239273   0.039   4.586   0.706 -5.3260 -4.7448 -0.8264
 9213SOL     OW39274   2.803   2.530   6.749  0.2103  0.3803 -0.3102
 9213SOL    HW139275   2.768   2.441   6.750 -1.5664  1.0532 -1.9677
 9213SOL    HW239276   2.724   2.575   6.780 -1.0906  0.1968 -3.3692
 9214SOL     OW39277   3.513   0.759   1.173  1.1537  0.0897  0.2654
 9214SOL    HW139278   3.524   0.701   1.098 -0.0564 -0.7684  0.7249
 9214SOL    HW239279   3.480   0.844   1.146 -3.9096 -1.4256  1.4936
 9215SOL     OW39280   2.160   3.474   4.127  0.0388  0.4031 -0.4556
 9215SOL    HW139281   2.191   3.419   4.055 -1.9666  0.6104 -1.4711
 9215SOL    HW239282   2.209   3.450   4.206  2.3384  1.6438 -1.4865
 9216SOL     OW39283   1.718   0.184   3.768 -0.5406  0.2800 -0.2599
 9216SOL    HW139284   1.702   0.262   3.821  1.2025 -0.3528  1.2093
 9216SOL    HW239285   1.771   0.132   3.828  0.1332  3.4304  1.8644
 9217SOL     OW39286   4.001   1.530   4.825 -0.5066 -0.1617  0.3390
 9217SOL    HW139287   4.047   1.610   4.850 -2.5460  1.0620  0.2015
 9217SOL    HW239288   4.044   1.504   4.744 -0.3083 -0.9523  0.7076
 9218SOL     OW39289   3.179   2.115  17.300  0.0319  0.6570  0.5201
 9218SOL    HW139290   3.156   2.063  17.222  0.7994  1.2738 -0.1232
 9218SOL    HW239291   3.096   2.111  17.346 -0.8011  0.5089 -0.9777
 9219SOL     OW39292   3.352   1.981   9.270  0.2298 -0.0462  0.2141
 9219SOL    HW139293   3.365   1.906   9.212  0.8328 -0.3979  0.8115
 9219SOL    HW239294   3.430   2.031   9.245 -0.1799  0.1908 -0.5850
 9220SOL     OW39295   3.099   1.073  14.971 -0.2400  0.4343  0.1000
 9220SOL    HW139296   3.079   0.994  15.021 -0.2789  0.2375 -0.2284
 9220SOL    HW239297   3.009   1.092  14.943 -1.4370 -2.7953  1.7193
 9221SOL     OW39298   0.246   1.075   8.760 -0.1535  0.8365  0.0366
 9221SOL    HW139299   0.306   1.102   8.690  0.2111  0.0919  0.0575
 9221SOL    HW239300   0.199   0.994   8.738  0.6848  0.8286 -1.6878
 9222SOL     OW39301   1.173   1.732   2.619 -0.4967  0.0354  0.0649
 9222SOL    HW139302   1.268   1.735   2.617 -0.4834 -0.8052 -0.3567
 9222SOL    HW239303   1.155   1.639   2.629 -1.0561  0.2348  0.9161
 9223SOL     OW39304   3.909   3.076   0.525  0.5716  0.2268  0.9612
 9223SOL    HW139305   3.862   3.084   0.608  0.8824 -2.6699  1.4406
 9223SOL    HW239306   3.933   2.983   0.525 -0.8984 -0.1456 -1.4554
 9224SOL     OW39307   2.616   2.568  16.497  0.4612 -0.9897  1.1125
 9224SOL    HW139308   2.585   2.479  16.483  0.2534 -0.6093 -0.9091
 9224SOL    HW239309   2.640   2.568  16.589 -0.3844 -0.9454  1.3314
 9225SOL     OW39310   0.467   2.875   4.599 -0.1536  0.8225 -0.1921
 9225SOL    HW139311   0.444   2.922   4.519 -3.1600  0.2246  0.3288
 9225SOL    HW239312   0.459   2.792   4.553 -1.8964  1.2809 -0.6981
 9226SOL     OW39313   1.527   4.713   3.933  0.0564 -0.2140 -0.1401
 9226SOL    HW139314   1.507   0.060   3.970 -2.0822 -0.5615 -0.4581
 9226SOL    HW239315   1.620   4.711   3.953 -0.1257 -0.5808  0.6774
 9227SOL     OW39316   0.381   3.514   9.281 -0.0433  0.3807 -0.2153
 9227SOL    HW139317   0.349   3.603   9.263  2.6334  0.7024 -3.3153
 9227SOL    HW239318   0.473   3.523   9.257  0.1847  0.6194  0.7608
 9228SOL     OW39319   2.195   3.536   6.135  0.1431 -0.0720  1.0099
 9228SOL    HW139320   2.205   3.610   6.196 -0.1927  0.3921  0.5017
 9228SOL    HW239321   2.285   3.504   6.135 -0.7221 -2.4920  2.1645
 9229SOL     OW39322   2.943   3.403  17.547 -0.5068  0.1363 -0.0032
 9229SOL    HW139323   2.885   3.361  17.610 -0.6188 -0.8026 -0.7350
 9229SOL    HW239324   2.885   3.462  17.499  0.1003  0.9206  0.2238
 9230SOL     OW39325   3.777   1.586   3.588  0.4639  0.3677  0.3225
 9230SOL    HW139326   3.865   1.617   3.570  0.7679  0.0073  1.1859
 9230SOL    HW239327   3.790   1.531   3.666  0.4205 -2.8947 -1.9619
 9231SOL     OW39328   0.154   0.218   5.717 -0.2728  0.6643  0.6665
 9231SOL    HW139329   0.221   0.287   5.715 -1.1260  1.3960 -1.8579
 9231SOL    HW239330   0.084   0.279   5.741  0.1702  1.2879  0.3713
 9232SOL     OW39331   2.527   1.490  13.669  0.1351  0.1550  0.3747
 9232SOL    HW139332   2.581   1.411  13.661  0.4329  0.4452 -0.5233
 9232SOL    HW239333   2.516   1.510  13.576 -0.9903 -0.2320  0.4348
 9233SOL     OW39334   2.844   2.019   5.429 -0.1770  1.0812  0.0058
 9233SOL    HW139335   2.859   1.953   5.497 -0.6706  0.3468 -0.6067
 9233SOL    HW239336   2.924   2.071   5.443 -0.5239  1.6914 -0.3081
 9234SOL     OW39337   1.297   2.156   9.307 -0.0364  0.0434  0.8192
 9234SOL    HW139338   1.306   2.244   9.272  0.4262  0.0683  0.9962
 9234SOL    HW239339   1.285   2.106   9.226  1.0070  1.6696 -0.3338
 9235SOL     OW39340   3.601   1.597   7.462  0.1028  0.2490 -0.1823
 9235SOL    HW139341   3.619   1.685   7.496 -0.8181  0.2827  0.2163
 9235SOL    HW239342   3.544   1.573   7.534  1.0989  0.0140  0.5296
 9236SOL     OW39343   2.237   0.992   4.767 -0.0865 -0.0498 -0.5279
 9236SOL    HW139344   2.330   1.012   4.770 -0.3986  1.2533  0.1093
 9236SOL    HW239345   2.222   0.958   4.855 -0.1888  1.0911 -0.1174
 9237SOL     OW39346   3.844   4.077   8.546  0.3620 -0.8737 -0.5777
 9237SOL    HW139347   3.753   4.051   8.529  0.9648 -1.4115 -2.9277
 9237SOL    HW239348   3.843   4.094   8.640 -0.0175  1.7145 -1.0590
 9238SOL     OW39349   4.422   4.557   7.150  0.7065 -0.7074 -0.2875
 9238SOL    HW139350   4.447   4.506   7.227  2.0789 -1.3277 -1.1344
 9238SOL    HW239351   4.343   4.603   7.177 -0.7634 -3.3696 -0.0538
 9239SOL     OW39352   3.121   3.242   9.157  0.1868  0.3620 -0.4440
 9239SOL    HW139353   3.093   3.171   9.100 -2.7735  0.7060  0.5876
 9239SOL    HW239354   3.063   3.316   9.139  1.2982  1.2041 -0.5967
 9240SOL     OW39355   1.097   4.548  15.976  0.2416  1.3745 -0.5077
 9240SOL    HW139356   1.003   4.546  15.956 -0.0153 -1.5659  1.0270
 9240SOL    HW239357   1.107   4.568  16.069  2.1453 -4.2281  0.4879
 9241SOL     OW39358   3.693   2.946  13.312  0.1706 -0.5310  0.2947
 9241SOL    HW139359   3.618   2.911  13.359 -0.2068 -0.6178 -0.3685
 9241SOL    HW239360   3.701   2.889  13.235 -0.4053  0.5154 -0.5539
 9242SOL     OW39361   3.595   0.623   1.404  0.0481 -0.2985  0.7975
 9242SOL    HW139362   3.558   0.684   1.341  0.0284  0.4019  1.4885
 9242SOL    HW239363   3.596   0.682   1.479  2.1498  1.1428 -0.3526
 9243SOL     OW39364   2.598   3.092   3.713 -0.1350 -0.3011  0.4826
 9243SOL    HW139365   2.574   3.127   3.626  1.1814 -0.4819  0.0472
 9243SOL    HW239366   2.657   3.156   3.753 -0.2542  0.2565 -0.2251
 9244SOL     OW39367   3.973   1.671   2.911 -0.6463 -0.3028  0.4386
 9244SOL    HW139368   3.908   1.731   2.948 -0.8325  0.7647 -1.6746
 9244SOL    HW239369   3.969   1.688   2.817  2.3590 -0.2044  0.3274
 9245SOL     OW39370   0.985   4.552   9.737 -0.1908 -0.4850  0.3191
 9245SOL    HW139371   0.933   4.614   9.685  1.1704  0.4477  0.0559
 9245SOL    HW239372   0.966   4.479   9.678 -0.8869 -0.0320 -0.0231
 9246SOL     OW39373   0.036   4.071   7.629 -0.0631  0.1588 -0.5347
 9246SOL    HW139374   0.084   4.001   7.586 -1.5810 -1.4870  0.4786
 9246SOL    HW239375   0.047   4.147   7.572 -3.0577 -1.5979 -3.4182
 9247SOL     OW39376   2.331   4.596   2.867 -0.4320  0.0974 -0.2083
 9247SOL    HW139377   2.412   4.550   2.888 -0.0070  1.5079  1.2023
 9247SOL    HW239378   2.358   4.651   2.794 -4.5150 -0.2619 -2.0156
 9248SOL     OW39379   4.299   1.703  12.753  0.3404  0.2599  0.2010
 9248SOL    HW139380   4.360   1.726  12.824  0.7011 -1.0166  0.3062
 9248SOL    HW239381   4.365   1.707  12.684 -2.1774 -0.6569 -2.2504
 9249SOL     OW39382   1.946   4.708   8.742 -0.1678 -0.1059 -0.3082
 9249SOL    HW139383   1.874   4.653   8.771 -1.9504  2.3299 -0.1108
 9249SOL    HW239384   1.995   4.710   8.825  0.8337  3.1237 -0.9806
 9250SOL     OW39385   2.774   2.062   3.589 -0.4388  0.5367  0.4251
 9250SOL    HW139386   2.721   2.125   3.638  1.0418  1.1671  1.2149
 9250SOL    HW239387   2.770   1.988   3.649 -1.2782  0.5469  0.3734
 9251SOL     OW39388   3.815   4.161   6.054  0.6366  0.1858 -0.1039
 9251SOL    HW139389   3.752   4.106   6.100  0.7033 -0.4301 -0.7434
 9251SOL    HW239390   3.889   4.171   6.114 -0.0766 -2.3517  1.1712
 9252SOL     OW39391   4.633   2.404   7.460 -0.3421  0.1545  0.2946
 9252SOL    HW139392   4.632   2.484   7.513  1.4469  0.5731 -0.3150
 9252SOL    HW239393   4.583   2.438   7.386 -2.2509 -0.0176  1.4978
 9253SOL     OW39394   1.526   3.268  16.017  0.4259  0.0262  0.1561
 9253SOL    HW139395   1.588   3.296  15.950  0.9599 -0.5746  0.4009
 9253SOL    HW239396   1.564   3.295  16.101 -2.1547  2.8415  0.4402
 9254SOL     OW39397   3.690   4.678   2.271 -0.6683 -0.4368  0.5253
 9254SOL    HW139398   3.715   0.028   2.244  4.6244 -2.4639 -1.1587
 9254SOL    HW239399   3.633   4.667   2.195 -1.2942 -0.6671  1.0305
 9255SOL     OW39400   1.209   2.865   3.856  0.3906  0.4453 -0.2556
 9255SOL    HW139401   1.164   2.878   3.772  2.3834 -0.3138 -1.4380
 9255SOL    HW239402   1.142   2.819   3.907  1.0638 -2.2732 -1.8058
 9256SOL     OW39403   2.214   2.839  16.406 -0.1323 -0.1528 -0.5411
 9256SOL    HW139404   2.243   2.885  16.485  1.1444 -1.0480 -0.4836
 9256SOL    HW239405   2.296   2.793  16.389 -0.6030 -1.4209  0.5912
 9257SOL     OW39406   0.688   2.046  11.167  0.4487  0.0545  0.4205
 9257SOL    HW139407   0.694   1.969  11.222 -0.4661  1.6439  2.7546
 9257SOL    HW239408   0.660   2.002  11.087  0.4531  0.1018  0.3924
 9258SOL     OW39409   0.269   1.997   3.431  0.3479  0.7236 -0.0805
 9258SOL    HW139410   0.310   2.015   3.346 -0.1643 -3.4441 -1.2217
 9258SOL    HW239411   0.303   1.914   3.463  1.0011  1.5652  1.3781
 9259SOL     OW39412   4.092   1.700  13.597  0.2663  0.1026 -0.1258
 9259SOL    HW139413   4.026   1.699  13.666 -1.5157 -0.5506 -1.8617
 9259SOL    HW239414   4.161   1.756  13.633 -0.7805  1.0699  0.3746
 9260SOL     OW39415   2.890   3.781  16.141  0.6325 -0.0206  0.3992
 9260SOL    HW139416   2.883   3.856  16.081 -0.3434 -2.0086 -1.9339
 9260SOL    HW239417   2.812   3.730  16.121  0.3603  0.6739 -0.3072
 9261SOL     OW39418   3.865   1.959  10.109  0.8026  0.3256 -0.3158
 9261SOL    HW139419   3.901   1.975  10.021 -1.2143  0.5096 -1.0957
 9261SOL    HW239420   3.899   1.874  10.136 -0.4378  0.0757  0.4302
 9262SOL     OW39421   0.700   3.063   7.715 -0.8582 -0.3740  0.3131
 9262SOL    HW139422   0.651   3.118   7.653 -0.3537 -2.9092 -2.3317
 9262SOL    HW239423   0.636   3.000   7.747 -1.3420  0.1785  0.4433
 9263SOL     OW39424   3.354   0.533   4.009  0.4281  0.3066  0.2365
 9263SOL    HW139425   3.399   0.573   3.935  2.4989 -0.0993  1.2790
 9263SOL    HW239426   3.319   0.447   3.985 -1.1691  0.8682  0.5794
 9264SOL     OW39427   4.151   2.517  10.629  0.3324  0.3312  0.0570
 9264SOL    HW139428   4.072   2.544  10.583  0.9081 -0.8907 -1.6706
 9264SOL    HW239429   4.210   2.567  10.573 -0.6284  2.1328  0.6600
 9265SOL     OW39430   4.082   4.052   5.113 -0.1444  0.3348 -0.3463
 9265SOL    HW139431   3.999   4.099   5.116 -0.3408 -0.1146  1.0061
 9265SOL    HW239432   4.065   3.977   5.056  0.7133  0.9790 -1.4678
 9266SOL     OW39433   1.545   1.878   9.130 -0.4786 -0.0741  0.6463
 9266SOL    HW139434   1.543   1.837   9.216  1.8556 -1.9798 -0.2121
 9266SOL    HW239435   1.457   1.860   9.098  0.6396 -2.0362 -1.2778
 9267SOL     OW39436   1.315   3.310   5.049  0.1737 -0.5341 -0.3249
 9267SOL    HW139437   1.363   3.379   5.004  0.5070 -0.1919  0.5590
 9267SOL    HW239438   1.270   3.370   5.109  0.7589 -0.1846 -0.2390
 9268SOL     OW39439   2.980   0.869   1.855  0.1747  0.2692 -0.0387
 9268SOL    HW139440   2.983   0.775   1.838  0.7245 -0.0348  1.7568
 9268SOL    HW239441   3.016   0.895   1.770 -1.2412  0.7619 -0.4849
 9269SOL     OW39442   3.645   2.807  10.732 -0.3682 -0.1419 -0.5153
 9269SOL    HW139443   3.675   2.896  10.748  0.3040 -0.5674  0.5998
 9269SOL    HW239444   3.712   2.770  10.675  0.4119  0.8584 -0.2428
 9270SOL     OW39445   1.111   2.933   2.044 -0.0494  0.4273  1.2159
 9270SOL    HW139446   1.115   2.935   1.949 -1.5171  3.0345  1.1971
 9270SOL    HW239447   1.065   2.849   2.051  1.1300 -0.3353 -0.3226
 9271SOL     OW39448   3.232   4.010   3.577 -0.5052 -0.6576  0.2976
 9271SOL    HW139449   3.182   4.066   3.518 -0.0007 -3.2267 -2.5488
 9271SOL    HW239450   3.211   3.925   3.539  2.6816 -0.1382 -2.6492
 9272SOL     OW39451   0.416   3.143   4.841 -0.4918 -0.0488  0.3012
 9272SOL    HW139452   0.509   3.134   4.821  0.1028  2.6535  1.9512
 9272SOL    HW239453   0.422   3.121   4.934  1.7990  2.7714  0.7861
 9273SOL     OW39454   0.395   2.150   3.642  0.1370 -0.2350  0.5036
 9273SOL    HW139455   0.362   2.097   3.570 -0.6622 -0.4403  1.0205
 9273SOL    HW239456   0.347   2.109   3.714 -1.9091  0.5357 -0.4362
 9274SOL     OW39457   3.467   4.203   0.651  0.3052  0.7800 -0.9280
 9274SOL    HW139458   3.389   4.199   0.596 -0.4868  3.1168  0.0085
 9274SOL    HW239459   3.427   4.191   0.738  5.1612 -0.3098  1.1887
 9275SOL     OW39460   0.910   4.526   3.449 -0.1463  0.1314  0.0975
 9275SOL    HW139461   0.928   4.472   3.373 -2.7282 -0.0184 -0.3981
 9275SOL    HW239462   0.874   4.461   3.509  0.5925  0.3633  0.8005
 9276SOL     OW39463   4.409   1.547   3.987  0.4459 -0.0021 -0.6044
 9276SOL    HW139464   4.351   1.475   3.962 -0.2552  0.3238  0.0782
 9276SOL    HW239465   4.365   1.568   4.069  0.4275 -0.1236 -0.5834
 9277SOL     OW39466   0.500   2.598   2.428 -0.4108 -0.4374  0.1279
 9277SOL    HW139467   0.458   2.613   2.343  1.6247  0.7587 -0.6657
 9277SOL    HW239468   0.569   2.542   2.392 -0.9367 -0.3496 -1.0063
 9278SOL     OW39469   2.018   4.608  16.202 -0.4605  0.0412  0.4235
 9278SOL    HW139470   1.953   4.539  16.189 -1.8472  1.5886 -0.7999
 9278SOL    HW239471   2.071   4.575  16.275  0.0163 -1.3397 -0.5417
 9279SOL     OW39472   0.852   3.029   7.943  0.2942  0.0460  0.0396
 9279SOL    HW139473   0.818   3.108   7.986 -0.4650  0.5740 -1.5445
 9279SOL    HW239474   0.800   3.023   7.863  2.0909  1.3249 -1.1957
 9280SOL     OW39475   0.397   1.237   5.845 -0.5096 -0.1973 -0.6386
 9280SOL    HW139476   0.462   1.246   5.916 -0.7219 -0.5891 -0.3910
 9280SOL    HW239477   0.402   1.320   5.799 -1.5061 -0.0485 -0.4786
 9281SOL     OW39478   2.711   0.168   7.921  0.2173  0.5386  0.2815
 9281SOL    HW139479   2.663   0.109   7.979 -0.2764 -1.4460 -2.1222
 9281SOL    HW239480   2.647   0.180   7.852  2.6077 -0.7444 -2.1818
 9282SOL     OW39481   1.349   3.735   5.099  0.2541  0.3424 -0.0313
 9282SOL    HW139482   1.364   3.829   5.085 -1.8687  0.7896  0.6869
 9282SOL    HW239483   1.259   3.720   5.070  0.5482  1.1567 -1.3672
 9283SOL     OW39484   3.461   4.725   3.125 -0.3600  0.1769 -0.3474
 9283SOL    HW139485   3.414   4.690   3.201 -0.0952 -0.6813 -0.5738
 9283SOL    HW239486   3.386   0.026   3.081 -1.5090 -1.0728  0.5116
 9284SOL     OW39487   1.140   1.643   7.026 -0.2555 -0.1206  0.3128
 9284SOL    HW139488   1.171   1.727   6.993  0.4268 -0.6044 -0.2570
 9284SOL    HW239489   1.140   1.649   7.122 -2.0159  3.0361  0.1432
 9285SOL     OW39490   0.194   1.095   4.881  0.9274 -0.1843 -0.3021
 9285SOL    HW139491   0.231   1.006   4.884  0.4860 -0.3856 -0.6971
 9285SOL    HW239492   0.175   1.097   4.975 -0.1003  0.6351 -0.5327
 9286SOL     OW39493   2.064   3.195   6.657  0.6148  0.0083 -1.1133
 9286SOL    HW139494   1.970   3.213   6.648 -0.0297 -2.5101  0.5036
 9286SOL    HW239495   2.074   3.106   6.691 -1.5380 -0.2739 -1.2360
 9287SOL     OW39496   1.987   1.276   2.680 -0.0971  0.3045  0.3669
 9287SOL    HW139497   2.060   1.292   2.740 -0.2706  0.1963  0.6060
 9287SOL    HW239498   1.919   1.319   2.732  0.0443 -0.5660  1.2772
 9288SOL     OW39499   3.121   4.716   1.800 -0.0485 -0.0356 -0.1395
 9288SOL    HW139500   3.134   4.622   1.792 -2.2512 -0.2886 -0.8395
 9288SOL    HW239501   3.125   0.013   1.711  1.5324 -2.2261 -0.9272
 9289SOL     OW39502   0.196   0.058   1.226  0.0084 -0.6718  0.2806
 9289SOL    HW139503   0.163   4.709   1.207 -1.6121  0.1683 -0.7707
 9289SOL    HW239504   0.218   0.097   1.141  0.1933 -0.0249  0.6239
 9290SOL     OW39505   3.996   4.585   5.588  0.8124  0.4115 -0.0172
 9290SOL    HW139506   4.019   4.666   5.542 -0.5834  1.0457  0.4091
 9290SOL    HW239507   4.038   4.599   5.673  2.4941  2.2504 -1.1581
 9291SOL     OW39508   0.807   4.551   7.326 -0.0529 -0.0682  0.2069
 9291SOL    HW139509   0.733   4.548   7.387  1.6789 -0.5807  2.2634
 9291SOL    HW239510   0.869   4.495   7.372  0.1577  0.9189  1.1282
 9292SOL     OW39511   1.890   0.259   3.276  0.4241 -0.4678 -0.0315
 9292SOL    HW139512   1.977   0.299   3.279  0.9201 -1.5471 -0.0382
 9292SOL    HW239513   1.894   0.197   3.348 -2.0623  0.2049  0.6738
 9293SOL     OW39514   2.940   4.364  13.297 -0.2427 -0.2656  0.2748
 9293SOL    HW139515   2.974   4.404  13.377 -0.7065  2.5365 -0.9125
 9293SOL    HW239516   2.902   4.440  13.252  1.0241 -0.4756 -1.1797
 9294SOL     OW39517   1.222   2.557  16.613  0.1178 -0.1930 -0.0442
 9294SOL    HW139518   1.217   2.528  16.704  1.5152 -3.3996 -0.9715
 9294SOL    HW239519   1.173   2.638  16.620  1.3308  0.5066  0.3695
 9295SOL     OW39520   4.562   4.537   6.220 -0.1753 -0.0742 -0.2051
 9295SOL    HW139521   4.483   4.489   6.244 -1.4122  2.0989  0.0097
 9295SOL    HW239522   4.570   4.611   6.280  1.0573  0.6548 -1.2704
 9296SOL     OW39523   1.743   2.853   7.474  0.3209  0.1419  0.0254
 9296SOL    HW139524   1.776   2.794   7.406  2.2398 -0.0886  1.1477
 9296SOL    HW239525   1.652   2.861   7.446  0.0999  1.1934  1.0498
 9297SOL     OW39526   0.162   3.498   4.985 -0.0205 -0.2465 -0.2498
 9297SOL    HW139527   0.249   3.473   5.018 -0.3328 -2.0169 -0.8246
 9297SOL    HW239528   0.153   3.575   5.042 -2.8011 -1.7119  1.2797
 9298SOL     OW39529   3.285   2.492   2.713 -0.2018  0.4492 -0.3434
 9298SOL    HW139530   3.256   2.475   2.624  5.0705 -1.1881 -1.7215
 9298SOL    HW239531   3.295   2.587   2.708  1.6674  0.2103 -1.0339
 9299SOL     OW39532   1.317   1.687  17.135  0.4791  0.1912 -0.8737
 9299SOL    HW139533   1.336   1.676  17.042  1.4295  0.3914 -0.7055
 9299SOL    HW239534   1.244   1.747  17.124 -0.4198 -0.9571 -1.2122
 9300SOL     OW39535   1.744   1.069   2.131 -0.0293  0.5981  0.1465
 9300SOL    HW139536   1.707   1.149   2.094 -2.0755 -0.4189 -0.0033
 9300SOL    HW239537   1.751   1.021   2.049  0.0593 -0.5124  0.7992
 9301SOL     OW39538   4.569   0.404   6.749 -0.5116  0.3394 -0.0266
 9301SOL    HW139539   4.527   0.406   6.835 -2.0007 -0.0147 -0.7598
 9301SOL    HW239540   4.492   0.419   6.695 -1.6550 -2.6700  0.7654
 9302SOL     OW39541   2.397   2.911   0.423  0.0958  0.5143 -0.1558
 9302SOL    HW139542   2.406   2.966   0.501 -0.9646  0.6300 -0.1133
 9302SOL    HW239543   2.480   2.864   0.416  0.6149  1.4163 -0.1500
 9303SOL     OW39544   0.149   4.016  13.763  0.0291 -0.1610  0.3313
 9303SOL    HW139545   0.184   4.098  13.729  1.8466 -1.8389 -1.8517
 9303SOL    HW239546   0.058   4.021  13.735  0.3339 -0.2124 -0.6368
 9304SOL     OW39547   0.081   2.637   6.351  0.2760  0.9250 -0.0692
 9304SOL    HW139548   0.024   2.714   6.346  1.2448  1.6770  0.4539
 9304SOL    HW239549   0.117   2.647   6.263  1.0817 -0.3355  0.1155
 9305SOL     OW39550   4.071   2.987   3.977 -0.3795 -0.4956  0.0720
 9305SOL    HW139551   4.126   2.979   4.056 -2.8189 -0.5094  1.7691
 9305SOL    HW239552   4.070   2.897   3.943  0.9591  0.3740 -2.1973
 9306SOL     OW39553   4.090   1.499  15.544 -0.0349  0.4163  0.4435
 9306SOL    HW139554   4.121   1.423  15.494 -3.2052 -0.6354  0.0494
 9306SOL    HW239555   4.159   1.504  15.610  1.1147 -0.3386 -0.6920
 9307SOL     OW39556   1.396   4.351  16.802 -0.1085 -0.5151  0.1098
 9307SOL    HW139557   1.342   4.358  16.723 -2.5374 -1.6853  1.6680
 9307SOL    HW239558   1.479   4.339  16.756  0.7890  0.3413  1.5102
 9308SOL     OW39559   0.160   0.993  16.582 -0.1149 -0.1925 -0.6391
 9308SOL    HW139560   0.143   0.921  16.521  0.4281  0.2122 -1.2655
 9308SOL    HW239561   0.185   1.065  16.524  2.9696  0.1732  1.1745
 9309SOL     OW39562   4.250   1.193  16.310  0.2352 -0.0543  0.0940
 9309SOL    HW139563   4.261   1.213  16.403  1.5604  1.1930 -0.3306
 9309SOL    HW239564   4.245   1.097  16.304 -0.5529 -0.0477  0.7376
 9310SOL     OW39565   0.171   1.560   1.494  0.3446 -0.0788 -0.1225
 9310SOL    HW139566   0.228   1.584   1.567 -0.0991  0.9802 -0.1173
 9310SOL    HW239567   0.092   1.538   1.543 -0.2340  1.0963 -0.5336
 9311SOL     OW39568   1.598   1.013   3.257 -0.1424 -0.2289  0.0526
 9311SOL    HW139569   1.568   1.044   3.343  1.3698  1.4597 -0.0255
 9311SOL    HW239570   1.547   0.935   3.236  0.2539 -0.8851  1.4945
 9312SOL     OW39571   4.433   0.076   8.309  0.0364  0.1444  0.0865
 9312SOL    HW139572   4.388   0.037   8.384  2.2253  0.8948  1.7812
 9312SOL    HW239573   4.387   0.159   8.315 -1.0958 -0.4869  0.2652
 9313SOL     OW39574   4.191   0.299   1.481 -0.1677  0.0173  0.4001
 9313SOL    HW139575   4.250   0.317   1.407 -1.1576 -1.0324 -0.6537
 9313SOL    HW239576   4.195   0.203   1.479 -0.1606  0.0097  0.9013
 9314SOL     OW39577   4.356   4.425   8.078 -0.6264  0.4576 -0.0128
 9314SOL    HW139578   4.376   4.517   8.061  2.1493 -0.3136 -0.8723
 9314SOL    HW239579   4.327   4.425   8.170  2.2360 -0.3414  0.9009
 9315SOL     OW39580   0.742   2.875  10.758 -0.6231  0.8746  1.0949
 9315SOL    HW139581   0.736   2.868  10.853  1.9405 -0.0139  1.2104
 9315SOL    HW239582   0.741   2.968  10.737 -0.8819  1.1198  2.2137
 9316SOL     OW39583   1.194   1.436   6.838 -0.3274 -0.2938  0.4573
 9316SOL    HW139584   1.203   1.527   6.868  0.9214  0.9637 -3.8200
 9316SOL    HW239585   1.140   1.456   6.762  3.1381  1.2351 -1.5965
 9317SOL     OW39586   1.837   3.477   5.587 -0.1031  0.0972 -0.4179
 9317SOL    HW139587   1.832   3.435   5.672  0.1458 -0.5960 -0.7430
 9317SOL    HW239588   1.823   3.400   5.532  0.0505 -0.7268  0.7109
 9318SOL     OW39589   1.335   4.548   3.779 -0.5858  0.0675  0.1227
 9318SOL    HW139590   1.428   4.552   3.758 -0.3523  0.8864  1.2563
 9318SOL    HW239591   1.338   4.585   3.867 -0.2796 -0.5431  0.3653
 9319SOL     OW39592   4.036   3.710  17.572 -0.1335  0.1861 -0.2028
 9319SOL    HW139593   3.998   3.784  17.617 -1.9563 -0.0055 -1.4295
 9319SOL    HW239594   4.113   3.751  17.532 -0.0401 -0.1569 -0.3794
 9320SOL     OW39595   0.082   0.509   7.143  0.2193 -0.3013  0.1132
 9320SOL    HW139596   0.023   0.560   7.088  0.6892  0.4414  0.2958
 9320SOL    HW239597   0.142   0.466   7.082 -0.4022  0.1509 -0.8061
 9321SOL     OW39598   3.483   3.771  14.426 -0.0457 -0.1033 -0.0013
 9321SOL    HW139599   3.463   3.761  14.333 -1.4574  0.4713  0.2501
 9321SOL    HW239600   3.427   3.846  14.440  0.3669 -0.0981  1.6498
 9322SOL     OW39601   3.611   2.350   5.865  0.3993 -0.1930 -0.0401
 9322SOL    HW139602   3.549   2.414   5.899 -0.6120  0.7501 -3.6758
 9322SOL    HW239603   3.553   2.275   5.852 -0.7960  1.0600 -1.8647
 9323SOL     OW39604   4.023   1.145   6.547 -0.2226  0.7698  0.1105
 9323SOL    HW139605   3.931   1.166   6.533 -0.6918 -1.4374 -0.2623
 9323SOL    HW239606   4.024   1.108   6.635 -0.7061  1.6309  0.4628
 9324SOL     OW39607   1.104   3.525   3.757  0.0610  0.0732  0.1877
 9324SOL    HW139608   1.150   3.442   3.763 -0.7088 -0.4601 -1.3269
 9324SOL    HW239609   1.131   3.558   3.843  1.5162 -1.0509  0.1635
 9325SOL     OW39610   3.354   3.185  11.244 -0.2022 -0.0735  0.0774
 9325SOL    HW139611   3.449   3.193  11.233 -0.3746  0.3911 -0.9875
 9325SOL    HW239612   3.318   3.264  11.206  1.4353  1.3877  1.5592
 9326SOL     OW39613   0.367   3.326   7.280  0.5165 -0.0820 -0.3974
 9326SOL    HW139614   0.274   3.340   7.296  0.7968 -0.0130  1.1283
 9326SOL    HW239615   0.366   3.331   7.184 -0.2225  1.9346 -0.2868
 9327SOL     OW39616   0.298   1.491   3.763 -0.6583  0.6262 -0.2520
 9327SOL    HW139617   0.223   1.446   3.723  2.0894 -3.8458 -0.4413
 9327SOL    HW239618   0.371   1.432   3.740  0.1142  1.4180  0.1702
 9328SOL     OW39619   2.765   0.349   5.837  0.1432  0.1105 -0.2861
 9328SOL    HW139620   2.773   0.444   5.845  1.6188 -0.0981  0.7470
 9328SOL    HW239621   2.811   0.321   5.758  0.5346 -0.3180  0.0943
 9329SOL     OW39622   3.686   1.684   9.338  0.4919 -0.0098  0.0374
 9329SOL    HW139623   3.741   1.687   9.416  1.0328 -0.7261 -0.3109
 9329SOL    HW239624   3.666   1.776   9.323  0.7908 -0.0204 -0.4388
 9330SOL     OW39625   4.650   1.310   2.213 -0.3055  0.1919  0.1271
 9330SOL    HW139626   4.650   1.278   2.122 -0.2195  0.3450  0.0723
 9330SOL    HW239627   4.619   1.400   2.205  1.3704  0.9680  2.4444
 9331SOL     OW39628   3.877   4.422   0.655  0.3496 -0.3814 -0.5928
 9331SOL    HW139629   3.926   4.460   0.582  1.8464 -2.1323 -0.5210
 9331SOL    HW239630   3.950   4.398   0.713 -1.2375 -0.5119  1.3260
 9332SOL     OW39631   2.386   1.131   2.423 -0.5218  0.5355 -0.2909
 9332SOL    HW139632   2.384   1.175   2.337 -0.1423  0.7956 -0.1683
 9332SOL    HW239633   2.479   1.134   2.444 -0.5366 -3.6038  0.2197
 9333SOL     OW39634   0.107   3.190   6.435  0.4195 -0.3412  0.1637
 9333SOL    HW139635   0.090   3.185   6.529 -1.0164 -0.4426 -0.0987
 9333SOL    HW239636   0.191   3.148   6.420  0.2612 -1.0257  1.2137
 9334SOL     OW39637   0.899   3.032   6.774  0.1651  0.4519  0.3161
 9334SOL    HW139638   0.895   3.116   6.729 -3.8230  0.8735  1.4626
 9334SOL    HW239639   0.881   2.965   6.708  1.0011 -0.4404  0.9912
 9335SOL     OW39640   4.477   3.513  14.872 -0.2079  0.5671  0.3647
 9335SOL    HW139641   4.503   3.456  14.944 -0.8013  0.3598  0.4191
 9335SOL    HW239642   4.549   3.576  14.866  0.0892 -0.0642 -2.6320
 9336SOL     OW39643   3.522   4.738   4.951 -0.6960  0.0581 -0.1742
 9336SOL    HW139644   3.568   0.026   5.031 -0.3401 -0.9130 -0.0645
 9336SOL    HW239645   3.469   4.667   4.986 -0.0011 -0.6312 -0.5225
 9337SOL     OW39646   0.598   0.711   5.420 -0.0630  0.0620 -0.0427
 9337SOL    HW139647   0.644   0.678   5.497 -0.3506 -1.4307 -0.4989
 9337SOL    HW239648   0.657   0.779   5.387  0.2554 -1.3842 -2.4856
 9338SOL     OW39649   4.130   1.580   8.330 -0.6689  0.2038  0.5337
 9338SOL    HW139650   4.213   1.539   8.306 -0.3952 -0.0883  2.0337
 9338SOL    HW239651   4.176   1.642   8.386  2.6342 -0.9963 -0.8543
 9339SOL     OW39652   0.715   0.861   7.189  0.7270 -0.1861 -0.0678
 9339SOL    HW139653   0.719   0.766   7.183  1.1502 -0.0821 -1.6357
 9339SOL    HW239654   0.774   0.881   7.261  0.8770 -0.5421 -0.0911
 9340SOL     OW39655   1.235   4.382  16.609 -0.5890  0.4714 -0.3891
 9340SOL    HW139656   1.154   4.433  16.622 -1.5467 -1.7388  2.4186
 9340SOL    HW239657   1.182   4.311  16.574  0.5307 -0.7280  0.3531
 9341SOL     OW39658   4.458   0.789   2.207  0.4101 -0.2893 -0.2862
 9341SOL    HW139659   4.439   0.697   2.226  0.2367 -0.2745 -0.3892
 9341SOL    HW239660   4.550   0.801   2.227  0.3350  0.5413 -0.4586
 9342SOL     OW39661   2.380   0.434   4.933 -0.3359  0.1371 -0.4344
 9342SOL    HW139662   2.455   0.424   4.874  0.1937 -0.0285  0.2702
 9342SOL    HW239663   2.316   0.455   4.866 -0.8597  2.2580  0.7189
 9343SOL     OW39664   2.787   0.686  10.658 -0.0086  0.4001 -0.1569
 9343SOL    HW139665   2.718   0.725  10.605 -0.2294  0.3792  0.1131
 9343SOL    HW239666   2.746   0.616  10.710  0.2450  0.8307  0.6302
 9344SOL     OW39667   3.238   0.457   6.776 -0.0646  1.0510  0.0408
 9344SOL    HW139668   3.261   0.528   6.716  2.6010 -0.7564 -1.0582
 9344SOL    HW239669   3.268   0.378   6.731 -0.1639  0.8254  0.3668
 9345SOL     OW39670   1.029   0.147   8.544  0.2984  0.6769  0.5618
 9345SOL    HW139671   1.086   0.193   8.482 -0.2271 -1.5530 -1.6193
 9345SOL    HW239672   1.044   0.200   8.622 -0.1478 -0.2652  1.2926
 9346SOL     OW39673   1.579   1.553  14.109  0.3898  0.2438 -0.3193
 9346SOL    HW139674   1.647   1.552  14.177 -0.1988 -1.4030  0.2661
 9346SOL    HW239675   1.628   1.589  14.035 -0.6173 -0.5125 -1.3381
 9347SOL     OW39676   4.299   4.603   4.627 -0.3580 -0.0536 -0.3094
 9347SOL    HW139677   4.245   4.586   4.550 -0.5962 -0.7595  0.0053
 9347SOL    HW239678   4.283   4.529   4.686 -1.8949  1.1740  0.8476
 9348SOL     OW39679   2.382   1.325  13.290 -0.3336  0.0258  0.4356
 9348SOL    HW139680   2.420   1.412  13.289  3.4424 -1.6240  0.1060
 9348SOL    HW239681   2.432   1.280  13.358  0.5539 -1.6044 -1.2778
 9349SOL     OW39682   0.683   2.028   1.445 -0.2761  0.4693  0.5524
 9349SOL    HW139683   0.662   2.009   1.536  0.0965 -0.9321  0.3529
 9349SOL    HW239684   0.777   2.043   1.453 -0.4806  0.3500  3.1820
 9350SOL     OW39685   1.050   1.569  16.925 -0.2635  0.0483  0.6543
 9350SOL    HW139686   1.095   1.490  16.955 -1.5756 -2.1209 -2.9951
 9350SOL    HW239687   0.968   1.577  16.974 -0.4393 -0.7171  0.4910
 9351SOL     OW39688   2.842   1.551  11.345  0.0331  0.0403  0.0105
 9351SOL    HW139689   2.866   1.461  11.370 -2.0524 -0.3265  0.7009
 9351SOL    HW239690   2.778   1.574  11.412 -2.3902 -3.0285 -1.2400
 9352SOL     OW39691   1.594   3.143   6.341  0.4188 -0.1764  0.6693
 9352SOL    HW139692   1.617   3.228   6.379 -1.6866 -0.0989  1.7916
 9352SOL    HW239693   1.615   3.099   6.423  1.3821  1.6425  1.3935
 9353SOL     OW39694   4.705   2.176  14.104 -0.4316  0.5091  0.0943
 9353SOL    HW139695   0.046   2.123  14.110 -1.5991 -1.1870  0.6277
 9353SOL    HW239696   4.662   2.147  14.185 -0.4574 -0.9931 -0.4476
 9354SOL     OW39697   4.041   2.927   2.261 -0.2638 -0.1285  1.3129
 9354SOL    HW139698   3.958   2.883   2.280  1.3163 -2.9815  1.5811
 9354SOL    HW239699   4.051   2.983   2.337  0.0592  0.5890  0.7425
 9355SOL     OW39700   4.399   2.292   1.249 -0.0876  0.1641 -0.6656
 9355SOL    HW139701   4.377   2.199   1.257 -1.7005  0.5939 -0.1645
 9355SOL    HW239702   4.480   2.272   1.202  0.3032 -0.0200  0.0808
 9356SOL     OW39703   2.829   3.292   8.504 -0.3025 -0.0753  0.6029
 9356SOL    HW139704   2.880   3.367   8.471 -0.5338 -0.5838 -0.8938
 9356SOL    HW239705   2.750   3.337   8.533  0.3416  3.2428 -2.7077
 9357SOL     OW39706   0.735   2.477   2.307 -0.2157 -0.0975  0.0006
 9357SOL    HW139707   0.812   2.419   2.303 -1.0552 -1.0565 -1.9150
 9357SOL    HW239708   0.666   2.412   2.318 -0.8622  0.5656 -0.2270
 9358SOL     OW39709   3.532   3.110  10.510  0.2810 -0.0452  0.8421
 9358SOL    HW139710   3.536   3.127  10.604 -1.2322  1.8961  0.5430
 9358SOL    HW239711   3.475   3.181  10.482  0.5117  1.1381  3.3923
 9359SOL     OW39712   4.597   0.275   3.903 -0.1542 -0.6202 -0.0466
 9359SOL    HW139713   4.502   0.287   3.902 -0.0570  0.1930  0.8443
 9359SOL    HW239714   4.628   0.364   3.915 -0.1043 -0.6326 -0.0871
 9360SOL     OW39715   0.193   1.998  15.370  0.0361  0.4419  0.3627
 9360SOL    HW139716   0.273   2.045  15.395 -1.2820  2.4338  0.8438
 9360SOL    HW239717   0.215   1.905  15.370 -0.6206  0.2878  1.3771
 9361SOL     OW39718   3.947   2.499   1.949  0.4345  0.4611  0.7162
 9361SOL    HW139719   3.884   2.428   1.940 -0.4455  1.2216  0.8704
 9361SOL    HW239720   4.002   2.486   1.872 -1.2884 -0.4951 -0.3543
 9362SOL     OW39721   0.225   2.017  15.041 -0.7424  0.6907  0.9559
 9362SOL    HW139722   0.197   2.080  15.107 -0.6932  0.0581  1.5784
 9362SOL    HW239723   0.186   1.936  15.074 -2.5400  1.4841  0.7927
 9363SOL     OW39724   2.269   0.916   5.019  0.1140  0.0186  0.5873
 9363SOL    HW139725   2.309   0.831   5.036 -2.9571 -1.1858  1.8838
 9363SOL    HW239726   2.232   0.933   5.106  0.2618  1.3267  0.3991
 9364SOL     OW39727   4.220   3.518   6.626  0.1104  0.4233  0.0355
 9364SOL    HW139728   4.188   3.435   6.661 -0.9958  0.4030 -1.0284
 9364SOL    HW239729   4.164   3.534   6.550  1.3073  2.0154 -0.5130
 9365SOL     OW39730   0.237   3.711   7.070 -0.2635  0.1413  0.1382
 9365SOL    HW139731   0.190   3.775   7.123  1.0872  0.3317  1.1290
 9365SOL    HW239732   0.320   3.755   7.050 -0.1472 -0.5560 -0.9008
 9366SOL     OW39733   3.392   3.059  16.738  0.2860 -0.0999 -0.2736
 9366SOL    HW139734   3.406   2.966  16.718 -0.3058  0.4179 -3.0784
 9366SOL    HW239735   3.472   3.092  16.697  0.7916  0.7766  1.4310
 9367SOL     OW39736   1.183   3.848   8.426  0.2104 -0.3127  0.4975
 9367SOL    HW139737   1.235   3.787   8.373  0.8470  0.6758 -0.0066
 9367SOL    HW239738   1.098   3.833   8.384  1.6580  0.3065 -2.6017
 9368SOL     OW39739   2.418   4.537   0.782  0.6840  0.6520  0.4108
 9368SOL    HW139740   2.436   4.490   0.701 -0.7588 -3.3664  2.4663
 9368SOL    HW239741   2.453   4.624   0.760 -2.9398  1.5322 -1.9759
 9369SOL     OW39742   0.431   4.583  10.080  0.2881  0.0395 -0.1510
 9369SOL    HW139743   0.513   4.587  10.032  0.8298  1.4490  0.8981
 9369SOL    HW239744   0.376   4.525  10.027  1.1096 -0.0098 -0.9310
 9370SOL     OW39745   0.076   2.850  17.145  0.3949 -0.7526  0.2681
 9370SOL    HW139746   0.148   2.869  17.205 -0.1115 -1.8647  1.2327
 9370SOL    HW239747   0.046   2.935  17.113  0.4612 -0.8811 -0.1301
 9371SOL     OW39748   3.116   4.291  10.359 -0.1052 -0.0153 -0.5820
 9371SOL    HW139749   3.180   4.283  10.430 -0.0595 -1.9980 -0.8444
 9371SOL    HW239750   3.129   4.382  10.335  1.7953 -0.3642 -0.9366
 9372SOL     OW39751   2.193   3.868  12.714 -0.1194 -0.1757  0.3409
 9372SOL    HW139752   2.182   3.821  12.797 -0.3535 -0.7000  0.0171
 9372SOL    HW239753   2.149   3.807  12.655 -0.9648  1.0047 -0.2405
 9373SOL     OW39754   0.020   1.712   4.967  0.1369  0.4219 -0.1802
 9373SOL    HW139755   4.727   1.667   4.888 -0.5673 -0.3308  0.5245
 9373SOL    HW239756   0.049   1.637   5.019  0.6366 -2.4012 -4.4962
 9374SOL     OW39757   4.176   0.671   2.718 -0.2129 -0.4509  0.2578
 9374SOL    HW139758   4.173   0.705   2.807 -2.6015 -1.2801  0.4821
 9374SOL    HW239759   4.176   0.752   2.668 -0.6585 -0.3380  0.4462
 9375SOL     OW39760   2.359   4.676   3.753 -0.0050  0.0449  0.0821
 9375SOL    HW139761   2.358   4.625   3.835  0.8266 -1.0323 -0.5652
 9375SOL    HW239762   2.322   4.618   3.687 -1.6164 -1.7581  2.5831
 9376SOL     OW39763   2.017   1.042   4.126 -0.0622  0.0893  0.0050
 9376SOL    HW139764   1.988   1.104   4.059  1.3425  0.1627 -0.5363
 9376SOL    HW239765   2.111   1.061   4.135  0.3499 -1.8262 -0.2912
 9377SOL     OW39766   0.447   4.085   3.516  0.0729 -0.2287  0.6117
 9377SOL    HW139767   0.410   4.003   3.486 -0.4400  0.6152 -1.0259
 9377SOL    HW239768   0.408   4.139   3.447 -1.0478 -0.1259  1.3226
 9378SOL     OW39769   1.403   1.769   4.047 -0.2697  0.5783  0.2751
 9378SOL    HW139770   1.460   1.703   4.087  2.5004  3.1793  0.5837
 9378SOL    HW239771   1.329   1.712   4.026 -1.3696  1.6193  1.2518
 9379SOL     OW39772   1.732   3.332   2.713 -0.3671 -0.6938  0.3167
 9379SOL    HW139773   1.684   3.249   2.708  0.4764 -1.1983  0.6325
 9379SOL    HW239774   1.811   3.295   2.754  0.8157  0.0313 -1.3163
 9380SOL     OW39775   4.587   4.048   6.671 -0.1378 -0.2743  0.1976
 9380SOL    HW139776   4.514   3.996   6.639  0.1043  0.9259 -2.3031
 9380SOL    HW239777   4.590   4.021   6.763  0.6899  3.3072  1.2252
 9381SOL     OW39778   2.428   2.922  11.539 -0.6039  0.1891 -0.4776
 9381SOL    HW139779   2.350   2.957  11.497 -1.0236 -0.7362 -0.4580
 9381SOL    HW239780   2.503   2.965  11.497 -0.4033  0.7753  0.4815
 9382SOL     OW39781   2.034   0.322   0.085 -0.4494 -0.0263 -0.0484
 9382SOL    HW139782   1.951   0.307   0.040  0.0663  2.3260 -1.7378
 9382SOL    HW239783   2.082   0.243   0.057  2.8985  1.3572  1.7811
 9383SOL     OW39784   2.805   1.241   7.295  0.1482 -0.2138  0.4082
 9383SOL    HW139785   2.726   1.271   7.339 -1.9700 -1.8916 -2.2173
 9383SOL    HW239786   2.822   1.160   7.343  1.0422 -0.0723  0.3275
 9384SOL     OW39787   3.093   4.276   3.738  0.0581 -0.3803 -0.0232
 9384SOL    HW139788   3.188   4.283   3.752 -0.0113  0.5830 -0.0379
 9384SOL    HW239789   3.090   4.334   3.662  1.7880 -0.1156  0.1161
 9385SOL     OW39790   1.223   1.610   4.411 -0.2438  0.0175 -0.1426
 9385SOL    HW139791   1.227   1.611   4.316  0.6268 -3.9630 -0.1600
 9385SOL    HW239792   1.198   1.700   4.431  1.4394  0.9424 -2.2528
 9386SOL     OW39793   1.865   0.192   5.804  0.8127 -0.4528 -0.3059
 9386SOL    HW139794   1.772   0.188   5.784  0.7945 -0.5844 -0.2020
 9386SOL    HW239795   1.865   0.158   5.894 -0.1886  1.3971  0.3972
 9387SOL     OW39796   3.945   2.659  10.155  0.0248  0.1140  0.2535
 9387SOL    HW139797   4.003   2.665  10.080  0.8576 -2.2733  0.6916
 9387SOL    HW239798   3.971   2.732  10.211  0.7066 -0.7256  1.0383
 9388SOL     OW39799   3.596   4.208   3.853 -0.5871 -0.8529 -0.6047
 9388SOL    HW139800   3.638   4.148   3.914 -3.3545 -1.2226  0.9571
 9388SOL    HW239801   3.635   4.169   3.775 -2.4475 -0.0152 -1.9709
 9389SOL     OW39802   4.250   1.793   9.505 -0.2124 -0.1231 -0.1723
 9389SOL    HW139803   4.330   1.839   9.530 -0.2942  0.4417 -0.9492
 9389SOL    HW239804   4.289   1.706   9.491  0.5578  0.5643 -2.3246
 9390SOL     OW39805   2.703   2.863   1.860  0.3179 -0.1516  0.0671
 9390SOL    HW139806   2.719   2.769   1.866  2.6570  0.4358  2.8767
 9390SOL    HW239807   2.616   2.855   1.820 -1.7714  2.3317  4.1372
 9391SOL     OW39808   3.713   4.515   6.849 -0.0065  0.2845  0.1401
 9391SOL    HW139809   3.793   4.526   6.901 -0.1266  1.3091  0.1076
 9391SOL    HW239810   3.735   4.425   6.822  0.7078  0.1855  1.0398
 9392SOL     OW39811   0.226   2.824  16.877 -0.3373  0.4117 -0.4893
 9392SOL    HW139812   0.260   2.749  16.926  1.4988  1.3829 -0.2906
 9392SOL    HW239813   0.133   2.802  16.874 -0.0451 -1.1023  1.3704
 9393SOL     OW39814   2.397   3.138  12.385 -0.4918  0.2047  0.2473
 9393SOL    HW139815   2.481   3.161  12.345  0.6715 -0.0291  2.5170
 9393SOL    HW239816   2.399   3.043  12.399  0.2398  0.6755  3.3910
 9394SOL     OW39817   1.981   3.729   3.080  0.0061 -0.1475 -0.5601
 9394SOL    HW139818   1.902   3.688   3.116 -0.8843  0.5437 -1.7475
 9394SOL    HW239819   2.026   3.759   3.159  1.0310 -0.0002 -1.2038
 9395SOL     OW39820   4.101   1.423   5.897 -0.6679  0.4129 -0.4362
 9395SOL    HW139821   4.023   1.412   5.951 -0.6798  3.5946  0.1847
 9395SOL    HW239822   4.154   1.348   5.924  0.7486  1.4921 -0.2286
 9396SOL     OW39823   2.296   0.539   8.203  0.8895 -0.1396  0.3022
 9396SOL    HW139824   2.210   0.556   8.166  0.8902 -0.3807  0.1956
 9396SOL    HW239825   2.268   0.484   8.276  2.5901 -0.0632  1.0358
 9397SOL     OW39826   3.849   1.774   5.440  0.0133 -0.2354 -0.2286
 9397SOL    HW139827   3.873   1.861   5.408 -1.0312  0.2182  0.2254
 9397SOL    HW239828   3.773   1.751   5.387 -0.4106 -0.7945  0.6115
 9398SOL     OW39829   2.120   2.452  13.080 -0.7108 -0.6414 -0.0586
 9398SOL    HW139830   2.213   2.429  13.076  0.6050  4.3297  1.2007
 9398SOL    HW239831   2.124   2.548  13.081 -0.4275 -0.6408 -1.0267
 9399SOL     OW39832   0.738   1.751   1.375  0.2097 -0.6236 -0.5025
 9399SOL    HW139833   0.797   1.772   1.448 -0.5138  1.6881 -0.5763
 9399SOL    HW239834   0.657   1.799   1.390  0.6508  0.0220 -0.2020
 9400SOL     OW39835   3.958   2.851   6.219  0.0396  0.3014  0.4322
 9400SOL    HW139836   3.992   2.833   6.307  1.0342 -2.7302 -0.5830
 9400SOL    HW239837   3.935   2.767   6.179 -0.0079  1.9405 -2.9903
 9401SOL     OW39838   3.060   3.221   0.069  0.3279 -0.1864 -0.5950
 9401SOL    HW139839   3.080   3.135   0.034  0.9401 -0.2144 -0.1614
 9401SOL    HW239840   2.973   3.236   0.030 -0.3847  1.5208  1.6740
 9402SOL     OW39841   2.923   4.213  13.063  0.0126 -0.1962  0.0656
 9402SOL    HW139842   2.828   4.217  13.072  0.1655  1.9746  0.6470
 9402SOL    HW239843   2.935   4.262  13.144 -0.6986  1.1101 -0.6184
 9403SOL     OW39844   3.714   2.382  16.219  0.2082  0.0283  0.0601
 9403SOL    HW139845   3.697   2.424  16.134 -0.7146  0.8868  0.6775
 9403SOL    HW239846   3.634   2.332  16.232  0.7920 -1.0414 -0.4207
 9404SOL     OW39847   1.538   2.311   6.990  0.2728  0.7809 -0.0431
 9404SOL    HW139848   1.593   2.247   6.944  0.5216  0.2626  0.9707
 9404SOL    HW239849   1.585   2.305   7.073  2.3357  1.9410 -1.1183
 9405SOL     OW39850   2.437   2.227   2.707 -0.0639 -0.3130 -0.4687
 9405SOL    HW139851   2.445   2.133   2.723 -0.3102  0.2403  2.8089
 9405SOL    HW239852   2.447   2.220   2.612  1.3262 -0.5849 -0.3007
 9406SOL     OW39853   3.797   2.278   1.894  0.2835  0.3379 -0.0801
 9406SOL    HW139854   3.726   2.270   1.958  0.3005 -2.0498 -0.3757
 9406SOL    HW239855   3.852   2.205   1.921 -2.9649 -1.9144  0.4094
 9407SOL     OW39856   3.049   2.969   7.878  0.1054  0.3514  0.6025
 9407SOL    HW139857   2.960   2.980   7.845  0.8244 -1.8318 -1.9983
 9407SOL    HW239858   3.091   2.959   7.793 -3.4552  0.6091 -1.1852
 9408SOL     OW39859   0.030   2.443   5.923  0.0567  0.0200  0.1572
 9408SOL    HW139860   0.040   2.350   5.943 -0.1983  0.4646  2.4537
 9408SOL    HW239861   0.055   2.446   5.831  0.2805 -2.7623  0.1319
 9409SOL     OW39862   1.283   0.068  16.893  0.1664 -0.2177  0.0721
 9409SOL    HW139863   1.376   0.085  16.907  0.0639  1.0186 -0.6945
 9409SOL    HW239864   1.303   0.024  16.810  1.4062 -0.2381  0.3826
 9410SOL     OW39865   3.621   1.309   3.510  0.2808 -0.3998 -0.6302
 9410SOL    HW139866   3.602   1.242   3.576  0.8017 -0.1723 -0.2529
 9410SOL    HW239867   3.713   1.292   3.490  0.2700  1.2501 -2.1205
 9411SOL     OW39868   3.378   3.262   9.071  0.2127 -0.3423 -0.5429
 9411SOL    HW139869   3.418   3.342   9.105  2.1176 -1.4767 -0.1342
 9411SOL    HW239870   3.286   3.258   9.099  0.3185  0.8436 -0.0266
 9412SOL     OW39871   1.305   3.308   3.839  0.6127 -0.4666  0.1399
 9412SOL    HW139872   1.398   3.320   3.856 -0.0891  3.3941  1.3616
 9412SOL    HW239873   1.271   3.260   3.914 -0.9794  0.3105 -0.0774
 9413SOL     OW39874   3.991   0.384   6.136  0.3262  0.2615  0.3556
 9413SOL    HW139875   4.034   0.304   6.167  1.8765  0.7137 -0.6203
 9413SOL    HW239876   3.963   0.357   6.048 -1.6322 -1.2713  1.4544
 9414SOL     OW39877   1.452   2.488  10.078  0.0451 -0.0667 -0.3584
 9414SOL    HW139878   1.534   2.485  10.028 -0.0537 -0.2961 -0.5070
 9414SOL    HW239879   1.387   2.500  10.009  0.2616 -0.1855 -0.5848
 9415SOL     OW39880   1.966   3.570   5.243 -0.1336 -0.8672 -0.3635
 9415SOL    HW139881   1.910   3.493   5.237 -1.4777  0.0817  0.1753
 9415SOL    HW239882   1.905   3.638   5.216 -0.0936 -1.1965 -1.2711
 9416SOL     OW39883   4.408   4.670   2.070 -0.2549 -0.4506  0.3149
 9416SOL    HW139884   4.342   0.000   2.059  0.3103  0.4827  2.7333
 9416SOL    HW239885   4.472   4.690   2.001  0.9322  1.0526  1.8618
 9417SOL     OW39886   3.319   4.255   5.913 -0.2316  0.4352 -0.4568
 9417SOL    HW139887   3.282   4.273   5.826  1.1270 -0.1185 -1.1404
 9417SOL    HW239888   3.404   4.219   5.888 -1.1592 -0.6928 -1.9717
 9418SOL     OW39889   1.064   4.437   1.335  0.7756 -0.2943 -0.4411
 9418SOL    HW139890   1.085   4.530   1.349  0.8247 -0.4937  0.8617
 9418SOL    HW239891   1.070   4.438   1.240  0.8805 -1.4699 -0.4420
 9419SOL     OW39892   2.003   1.747  11.575  0.3297  0.1223  0.2616
 9419SOL    HW139893   2.028   1.679  11.514  2.1999 -0.2148  1.4160
 9419SOL    HW239894   1.909   1.752  11.559  0.6114  0.6815 -1.1845
 9420SOL     OW39895   0.188   4.017   1.020  0.2947 -0.1571 -0.1256
 9420SOL    HW139896   0.259   3.953   1.015 -1.3918 -1.8953 -1.6246
 9420SOL    HW239897   0.218   4.076   1.090  0.0913 -2.2925  1.7879
 9421SOL     OW39898   2.781   3.914  10.324 -0.1252 -0.1801  0.7007
 9421SOL    HW139899   2.816   3.936  10.237 -0.9035  0.5873  0.5885
 9421SOL    HW239900   2.837   3.974  10.373  0.6888 -0.0689 -0.3730
 9422SOL     OW39901   0.071   1.003   7.272 -0.1982  0.2639  0.2300
 9422SOL    HW139902   0.162   1.029   7.258 -0.6066  0.9708 -1.1767
 9422SOL    HW239903   0.058   0.959   7.188  1.5694  2.1956 -1.0676
 9423SOL     OW39904   4.364   4.497   3.433  0.8171 -0.0886  0.9814
 9423SOL    HW139905   4.417   4.441   3.377  0.7982 -0.8753  1.7487
 9423SOL    HW239906   4.365   4.455   3.519  0.0571  1.9265  1.9960
 9424SOL     OW39907   2.651   0.489   6.093 -0.0848  0.2194  0.4689
 9424SOL    HW139908   2.628   0.396   6.086 -0.6077  0.5314 -2.1015
 9424SOL    HW239909   2.586   0.527   6.033  1.5127  1.2477 -0.6135
 9425SOL     OW39910   1.811   2.539   2.790  0.0001 -0.5417  0.0430
 9425SOL    HW139911   1.795   2.496   2.707 -1.5883  1.0031 -0.4545
 9425SOL    HW239912   1.903   2.565   2.785 -0.7300  2.4102  1.5772
 9426SOL     OW39913   1.398   3.654  11.164  0.2441  0.1688  0.0604
 9426SOL    HW139914   1.316   3.655  11.116 -0.0311 -0.8498  0.4928
 9426SOL    HW239915   1.372   3.612  11.247 -1.3563  0.2584 -0.3985
 9427SOL     OW39916   1.235   2.023   9.076  0.4034 -0.2834  0.1427
 9427SOL    HW139917   1.283   2.061   9.003  0.5296 -1.0929 -0.1931
 9427SOL    HW239918   1.143   2.045   9.061 -0.0638 -3.3683 -1.5919
 9428SOL     OW39919   3.887   3.226   4.719 -0.1915  0.3060  0.3603
 9428SOL    HW139920   3.971   3.185   4.739  0.1374  0.7798 -0.0604
 9428SOL    HW239921   3.872   3.294   4.785 -1.0511 -0.6830  1.1748
 9429SOL     OW39922   2.611   2.098   5.359 -0.0310 -0.2434 -0.2063
 9429SOL    HW139923   2.560   2.021   5.333  0.5708 -1.2992  1.7278
 9429SOL    HW239924   2.702   2.069   5.365  0.3488  1.1221  0.5422
 9430SOL     OW39925   2.984   1.237   8.423  0.3565  0.4274 -1.0011
 9430SOL    HW139926   2.942   1.164   8.377  0.4008 -0.4340  0.3404
 9430SOL    HW239927   3.013   1.203   8.508 -0.1141 -0.9608 -1.3933
 9431SOL     OW39928   1.011   2.677   7.916 -0.4807 -0.0619  0.1671
 9431SOL    HW139929   1.082   2.721   7.962 -1.5298  2.0846 -0.2740
 9431SOL    HW239930   1.059   2.636   7.843 -1.4516  0.6576 -0.8841
 9432SOL     OW39931   3.331   1.532   9.425 -0.4844  0.3965  0.3740
 9432SOL    HW139932   3.283   1.608   9.457 -3.6816 -0.7822 -1.5733
 9432SOL    HW239933   3.341   1.471   9.498  0.6406  1.2169  0.8945
 9433SOL     OW39934   1.987   3.947   7.457  0.4834 -0.7269 -0.4066
 9433SOL    HW139935   2.064   3.982   7.413 -0.3601  0.8452 -0.6341
 9433SOL    HW239936   1.915   3.984   7.405 -1.8377 -0.5067  2.8954
 9434SOL     OW39937   4.715   0.367   6.133 -0.1895  0.1462  0.6049
 9434SOL    HW139938   4.637   0.356   6.080 -0.1015  1.3120  0.2486
 9434SOL    HW239939   4.673   0.408   6.209 -2.2648 -1.4366  0.3101
 9435SOL     OW39940   1.884   2.744   5.873  0.2760  0.3937 -0.2044
 9435SOL    HW139941   1.955   2.754   5.937 -0.0578 -0.6130  0.3333
 9435SOL    HW239942   1.920   2.778   5.791 -0.5808 -0.1207 -0.7967
 9436SOL     OW39943   0.785   1.862   9.725  0.0007  0.0848  0.4853
 9436SOL    HW139944   0.701   1.880   9.682 -0.1488 -0.7010  0.4469
 9436SOL    HW239945   0.833   1.817   9.655 -0.4801  2.1155 -1.1620
 9437SOL     OW39946   4.497   1.118   9.673  0.6297  0.1099 -0.1209
 9437SOL    HW139947   4.409   1.085   9.654  0.7886  0.6447 -1.7974
 9437SOL    HW239948   4.495   1.093   9.765  2.5983 -0.0484 -0.1089
 9438SOL     OW39949   4.732   4.301   6.401  0.6085 -0.0589  0.3126
 9438SOL    HW139950   0.085   4.329   6.399  0.0601  1.8045  1.6566
 9438SOL    HW239951   4.699   4.352   6.475  0.4281  0.1548  0.0861
 9439SOL     OW39952   1.285   4.033  13.028  0.1631 -0.6711  0.5574
 9439SOL    HW139953   1.366   3.987  13.007  0.8806 -1.1628  4.4419
 9439SOL    HW239954   1.319   4.101  13.087 -0.6802  1.0419 -0.9144
 9440SOL     OW39955   3.976   0.119  15.945  0.4082  0.0740 -0.2368
 9440SOL    HW139956   3.945   0.208  15.960 -2.8008 -0.8257 -1.6738
 9440SOL    HW239957   4.014   0.094  16.029 -2.1495 -4.2991 -0.4109
 9441SOL     OW39958   0.360   0.609   5.493  0.3954  0.3581  0.2524
 9441SOL    HW139959   0.446   0.645   5.469  0.2910  1.2176  1.1860
 9441SOL    HW239960   0.306   0.623   5.416  1.7329  1.7853 -0.4238
 9442SOL     OW39961   2.261   4.092  17.091  0.3625  0.2414  0.4178
 9442SOL    HW139962   2.258   4.015  17.034  0.1198  0.2855  0.3717
 9442SOL    HW239963   2.176   4.093  17.134  0.3808 -2.9427  0.5790
 9443SOL     OW39964   2.372   2.834   4.469  0.1818  0.1385 -0.2208
 9443SOL    HW139965   2.359   2.753   4.519 -0.3961  0.4723  0.1672
 9443SOL    HW239966   2.292   2.835   4.417 -0.1058 -1.0358  0.1872
 9444SOL     OW39967   2.594   3.506  15.773  0.0989 -0.2177 -0.1012
 9444SOL    HW139968   2.572   3.418  15.803  2.3043 -0.9005 -0.4197
 9444SOL    HW239969   2.598   3.493  15.678  2.6250  0.1968 -0.0658
 9445SOL     OW39970   3.581   2.431   2.823 -0.0478 -0.4674  0.4255
 9445SOL    HW139971   3.675   2.419   2.810  0.2731  1.7167  0.8404
 9445SOL    HW239972   3.542   2.375   2.756  1.3732 -0.3608 -0.4969
 9446SOL     OW39973   0.630   2.145   9.692  0.1141  0.4128  0.1651
 9446SOL    HW139974   0.611   2.164   9.784 -0.6869  0.2464  0.0299
 9446SOL    HW239975   0.565   2.077   9.677  1.8194 -1.0816 -0.5400
 9447SOL     OW39976   0.729   4.491  16.546 -0.3656 -0.1685 -0.5461
 9447SOL    HW139977   0.644   4.453  16.568 -0.4182 -0.1805 -0.7774
 9447SOL    HW239978   0.783   4.413  16.538  1.0904  0.8552 -0.8546
 9448SOL     OW39979   0.145   4.509  10.186 -0.2741  0.8092  0.1189
 9448SOL    HW139980   0.102   4.587  10.149  3.2243  3.0265  0.7534
 9448SOL    HW239981   0.221   4.556  10.220  1.5421 -0.3919 -2.2533
 9449SOL     OW39982   4.721   2.355  16.898  0.0431 -0.3962  0.1579
 9449SOL    HW139983   4.691   2.427  16.953 -1.3003 -1.3004  0.5998
 9449SOL    HW239984   4.637   2.328  16.860  0.5217  1.5258 -2.3138
 9450SOL     OW39985   4.188   4.539   3.812  0.0143  0.7935 -0.2573
 9450SOL    HW139986   4.180   4.611   3.750  1.3769  0.6415 -0.5949
 9450SOL    HW239987   4.248   4.480   3.768  0.5218  0.3570  1.0064
 9451SOL     OW39988   2.692   1.020   9.164 -0.5463  0.0086  0.0995
 9451SOL    HW139989   2.687   0.927   9.186 -1.2017 -0.0998 -0.5169
 9451SOL    HW239990   2.684   1.045   9.256  1.9232 -1.3331  0.7039
 9452SOL     OW39991   4.682   0.090  10.967  0.0296 -0.2959 -0.4372
 9452SOL    HW139992   4.622   0.147  11.015  0.8455 -0.8082  1.1928
 9452SOL    HW239993   4.681   0.022  11.034 -0.2075  1.5379  1.4106
 9453SOL     OW39994   2.376   3.350  17.318  0.1696 -0.0513 -0.1349
 9453SOL    HW139995   2.357   3.417  17.252  0.3694  1.0692  0.9511
 9453SOL    HW239996   2.369   3.405  17.396 -0.2791  0.3955 -0.4829
 9454SOL     OW39997   4.353   2.019   2.303 -0.4572 -0.1666 -0.4779
 9454SOL    HW139998   4.315   1.950   2.248  1.5866 -2.3014  0.8305
 9454SOL    HW239999   4.346   2.086   2.235 -0.3644  1.0493  0.7148
 9455SOL     OW40000   1.682   0.813   5.785 -0.1474  0.5297  0.5583
 9455SOL    HW140001   1.695   0.786   5.877 -0.0389  1.9424  0.9613
 9455SOL    HW240002   1.627   0.745   5.746  0.5661 -0.3149  1.0010
 9456SOL     OW40003   1.352   0.074   6.441  0.0051 -0.3721 -0.2066
 9456SOL    HW140004   1.428   0.132   6.440 -0.9299  0.8565  0.6788
 9456SOL    HW240005   1.291   0.115   6.501 -1.2122  0.5720 -2.0860
 9457SOL     OW40006   1.807   2.182   4.168 -0.3948  0.3130 -0.4479
 9457SOL    HW140007   1.772   2.188   4.079  1.1117  2.4042 -0.9064
 9457SOL    HW240008   1.808   2.087   4.181 -2.1106  0.2489 -0.7457
 9458SOL     OW40009   3.612   3.558   3.526  0.0539  0.2200 -0.5615
 9458SOL    HW140010   3.629   3.487   3.464 -2.8480 -2.8256  2.1374
 9458SOL    HW240011   3.566   3.522   3.602  0.9277 -2.8908 -1.5453
 9459SOL     OW40012   2.579   1.943  11.514 -0.5540  0.3471 -0.1314
 9459SOL    HW140013   2.534   1.949  11.598 -1.3676  3.0558 -0.7650
 9459SOL    HW240014   2.525   1.987  11.449 -0.0418  1.1437 -0.0120
 9460SOL     OW40015   1.356   1.723  10.102 -0.7907 -0.3621 -0.3150
 9460SOL    HW140016   1.400   1.771  10.031  1.0665 -0.5754  0.6927
 9460SOL    HW240017   1.414   1.649  10.121 -0.4176  0.6954  2.5563
 9461SOL     OW40018   1.788   1.360   2.855 -0.0472 -0.3386  0.2665
 9461SOL    HW140019   1.729   1.435   2.842 -1.2741 -1.5205 -1.0054
 9461SOL    HW240020   1.801   1.361   2.950  1.2580 -0.4006  0.0838
 9462SOL     OW40021   1.840   0.794   6.299  0.0953  0.0559  0.4607
 9462SOL    HW140022   1.912   0.828   6.352 -0.5709  0.6771  0.9558
 9462SOL    HW240023   1.777   0.860   6.326  0.6207  0.2354  1.2277
 9463SOL     OW40024   0.564   0.812   4.388  0.0775  0.4337 -0.4740
 9463SOL    HW140025   0.656   0.789   4.397 -0.4778 -1.2254  0.9480
 9463SOL    HW240026   0.531   0.779   4.472  3.0176 -0.1616  0.4352
 9464SOL     OW40027   0.797   2.322   2.917  0.2270 -0.0319 -0.0293
 9464SOL    HW140028   0.860   2.258   2.950 -0.7084 -1.4391 -0.9798
 9464SOL    HW240029   0.768   2.262   2.848  0.6646  0.0108 -0.2564
 9465SOL     OW40030   0.634   0.043  14.109  0.0824  0.1544 -0.7747
 9465SOL    HW140031   0.551   0.084  14.132  0.6131  0.1634  1.1425
 9465SOL    HW240032   0.687   0.043  14.189  1.0408 -0.7570 -1.4101
 9466SOL     OW40033   0.817   0.724  16.105  0.6790  0.2205  0.6959
 9466SOL    HW140034   0.910   0.713  16.120  0.8892 -0.9699 -1.3931
 9466SOL    HW240035   0.763   0.660  16.152  0.2472  0.6709  0.8237
 9467SOL     OW40036   2.605   1.651   9.120  0.3404  0.8811  0.3372
 9467SOL    HW140037   2.655   1.659   9.202 -0.1853  1.0895  0.6379
 9467SOL    HW240038   2.652   1.571   9.096 -0.8670  0.6440 -1.1966
 9468SOL     OW40039   4.125   3.542   8.652  0.5568  0.2488  0.1027
 9468SOL    HW140040   4.205   3.504   8.616  0.4635  0.2782 -0.1347
 9468SOL    HW240041   4.145   3.542   8.746  0.0716 -0.0810  0.2066
 9469SOL     OW40042   1.593   3.547  14.580 -0.2130 -0.2692 -0.1117
 9469SOL    HW140043   1.678   3.550  14.536 -1.0665 -2.4413 -1.8821
 9469SOL    HW240044   1.559   3.462  14.550 -1.2938 -0.4193  1.5499
 9470SOL     OW40045   2.669   4.243  13.087 -0.3545 -0.3880 -0.4223
 9470SOL    HW140046   2.661   4.334  13.115  0.4981 -1.0228  1.9317
 9470SOL    HW240047   2.579   4.219  13.066 -0.1063 -1.5279 -0.2029
 9471SOL     OW40048   0.794   1.764   6.206  0.1132 -0.0674 -0.2275
 9471SOL    HW140049   0.755   1.845   6.240  0.3790  0.7287 -1.8431
 9471SOL    HW240050   0.714   1.721   6.177 -0.2827 -0.2976  1.1624
 9472SOL     OW40051   0.454   2.739  12.367 -0.2104  0.2439  0.5525
 9472SOL    HW140052   0.483   2.697  12.286 -0.0384 -2.2154  1.8900
 9472SOL    HW240053   0.456   2.832  12.346  2.8049 -0.2480 -1.3014
 9473SOL     OW40054   3.855   1.161   3.900 -0.6548 -0.2869  0.0505
 9473SOL    HW140055   3.905   1.227   3.852 -2.7645  0.9464 -0.4412
 9473SOL    HW240056   3.800   1.217   3.954  1.4676 -0.0013  1.8908
 9474SOL     OW40057   4.647   4.663  16.626  0.5552 -0.1281  0.4273
 9474SOL    HW140058   4.617   4.585  16.579 -1.1898  1.6554 -1.3855
 9474SOL    HW240059   4.726   4.640  16.675  1.4637 -0.2341 -1.0982
 9475SOL     OW40060   1.100   4.077   8.031  0.4741  0.2229 -0.0448
 9475SOL    HW140061   1.174   4.023   8.059  0.3438  0.7390  1.2758
 9475SOL    HW240062   1.077   4.127   8.109  1.4695 -0.3049  0.5877
 9476SOL     OW40063   3.716   3.830   3.612 -0.2864 -0.0295 -0.6187
 9476SOL    HW140064   3.806   3.804   3.594  0.7759  1.9727  1.6727
 9476SOL    HW240065   3.676   3.765   3.555  1.0863 -1.8872  0.5398
 9477SOL     OW40066   1.545   1.053   7.429  0.3329 -0.5325 -0.0501
 9477SOL    HW140067   1.572   0.982   7.488  0.5394 -0.9367 -0.6345
 9477SOL    HW240068   1.536   1.010   7.344 -0.7742 -0.9315  0.2700
 9478SOL     OW40069   4.372   3.208  10.560  0.0122 -0.0570  0.9885
 9478SOL    HW140070   4.416   3.219  10.644 -0.0972 -0.9475  1.1675
 9478SOL    HW240071   4.330   3.122  10.565 -0.7546  0.1739 -1.4957
 9479SOL     OW40072   3.506   1.732   5.820 -0.3030 -0.4664 -0.0632
 9479SOL    HW140073   3.496   1.639   5.840 -0.0959 -0.3858  0.4281
 9479SOL    HW240074   3.442   1.751   5.752 -0.8357  0.4706  0.6903
 9480SOL     OW40075   1.163   3.981   1.297  1.0207  0.4342 -0.3174
 9480SOL    HW140076   1.208   3.935   1.226  0.3522  1.9300 -1.7000
 9480SOL    HW240077   1.220   4.056   1.309  0.4971  0.8102 -0.1857
 9481SOL     OW40078   1.406   4.272  12.492 -0.1727  0.2493  0.3795
 9481SOL    HW140079   1.379   4.294  12.403  2.1021  0.6504 -0.2077
 9481SOL    HW240080   1.472   4.340  12.501 -2.3136  1.8780  3.6334
 9482SOL     OW40081   2.889   0.079   9.104 -0.2695 -0.2201  1.0311
 9482SOL    HW140082   2.946   0.044   9.172  1.0437 -0.6538 -0.2893
 9482SOL    HW240083   2.956   0.098   9.038 -0.6643  0.3283  0.7831
 9483SOL     OW40084   0.398   0.676   1.354 -0.1169  0.0260 -0.1155
 9483SOL    HW140085   0.352   0.594   1.370 -0.4887  0.3014  0.2501
 9483SOL    HW240086   0.330   0.743   1.361  0.7296  0.7698  0.9925
 9484SOL     OW40087   0.247   1.459   6.642 -0.2167 -0.1891 -0.2518
 9484SOL    HW140088   0.151   1.467   6.640 -0.1846  0.3355  0.2985
 9484SOL    HW240089   0.263   1.391   6.708 -0.3188  0.2963  0.2731
 9485SOL     OW40090   0.245   0.992  12.750  1.0579 -0.0850  0.4085
 9485SOL    HW140091   0.223   0.901  12.732  1.8163 -0.1251 -0.3229
 9485SOL    HW240092   0.213   1.035  12.670 -1.1899  0.0385  1.3740
 9486SOL     OW40093   2.800   2.114   8.928  0.1650 -0.3102  0.0237
 9486SOL    HW140094   2.779   2.028   8.965 -0.8942 -0.6835 -1.4257
 9486SOL    HW240095   2.894   2.099   8.915  0.1072 -0.7091  0.0615
 9487SOL     OW40096   2.043   1.260   7.932  0.1020 -0.3540 -0.2141
 9487SOL    HW140097   2.056   1.193   8.000 -1.3623 -2.4063 -1.9449
 9487SOL    HW240098   2.123   1.310   7.945  0.2539 -0.4990 -0.6055
 9488SOL     OW40099   3.587   3.289   5.337  0.0440  0.0530  0.0561
 9488SOL    HW140100   3.669   3.330   5.311  0.7175 -0.9656  0.5641
 9488SOL    HW240101   3.597   3.275   5.431 -1.6669 -0.6982  0.1413
 9489SOL     OW40102   2.906   1.413   2.323  0.6449 -0.2594  0.0885
 9489SOL    HW140103   2.824   1.452   2.293 -0.1991 -2.2790 -0.2547
 9489SOL    HW240104   2.950   1.490   2.359  0.6795 -0.9460  1.5167
 9490SOL     OW40105   1.792   4.161   8.653 -0.1981 -0.2494  0.3613
 9490SOL    HW140106   1.788   4.067   8.637 -1.1222 -0.2889  0.8236
 9490SOL    HW240107   1.720   4.194   8.599 -2.3085 -3.6654  1.1066
 9491SOL     OW40108   3.753   3.778  15.847 -0.1330  0.1174 -0.2464
 9491SOL    HW140109   3.779   3.725  15.923  0.3667  3.1022  1.6581
 9491SOL    HW240110   3.658   3.772  15.834  0.3971 -1.5551 -3.2084
 9492SOL     OW40111   3.860   2.488   5.212 -0.7676 -0.2861 -0.0471
 9492SOL    HW140112   3.855   2.462   5.120  1.6934  0.6876 -0.4503
 9492SOL    HW240113   3.954   2.481   5.232 -1.1284  1.1505  2.1185
 9493SOL     OW40114   3.622   0.491   8.948  0.2589  0.2143  0.0691
 9493SOL    HW140115   3.554   0.544   8.907 -1.1118 -2.0631 -0.5822
 9493SOL    HW240116   3.693   0.554   8.962 -1.0621  1.4317  1.2647
 9494SOL     OW40117   3.227   1.774   4.288 -0.1973 -0.2121 -0.0124
 9494SOL    HW140118   3.145   1.799   4.331  1.4863  2.9318  1.3672
 9494SOL    HW240119   3.188   1.735   4.210  1.4814 -1.5823 -0.1812
 9495SOL     OW40120   2.039   4.252   1.809  0.1843 -0.3987  0.2473
 9495SOL    HW140121   2.100   4.192   1.766  0.6863  1.5692 -1.8440
 9495SOL    HW240122   2.102   4.306   1.857 -0.9709  2.5862 -1.5785
 9496SOL     OW40123   1.837   0.893  10.932  0.5751  0.0945 -0.1484
 9496SOL    HW140124   1.773   0.858  10.869 -1.3702  1.6127  0.9946
 9496SOL    HW240125   1.897   0.819  10.941  0.0680 -0.5131 -1.7707
 9497SOL     OW40126   4.138   2.248   5.392  0.0620  0.3322 -0.2338
 9497SOL    HW140127   4.144   2.311   5.464 -0.9647  1.9833 -1.5770
 9497SOL    HW240128   4.152   2.312   5.322  0.4625  1.9110  1.2873
 9498SOL     OW40129   0.030   2.901  12.405 -0.2116 -0.2173  0.1098
 9498SOL    HW140130   0.097   2.841  12.439  0.2263 -0.9239 -2.0286
 9498SOL    HW240131   0.076   2.922  12.324  1.4834  0.4342  1.2407
 9499SOL     OW40132   4.656   2.936   1.872  0.6438  0.7729  0.0606
 9499SOL    HW140133   4.627   2.968   1.957 -1.6220 -0.9520 -0.0523
 9499SOL    HW240134   4.606   2.994   1.814 -0.2643  0.8692  0.9357
 9500SOL     OW40135   1.108   2.103   6.829  0.0456 -0.3175  0.0403
 9500SOL    HW140136   1.174   2.123   6.896  0.6750  1.0810 -1.0159
 9500SOL    HW240137   1.045   2.054   6.882  0.3262  1.0403  1.6373
 9501SOL     OW40138   3.247   2.769   7.841  0.2085  0.2931  0.8395
 9501SOL    HW140139   3.224   2.677   7.829  1.5094  0.2731 -1.4878
 9501SOL    HW240140   3.163   2.807   7.868 -0.1222  0.5146 -0.4910
 9502SOL     OW40141   2.636   3.331   1.853 -0.0402 -0.1902 -0.1869
 9502SOL    HW140142   2.650   3.321   1.947  2.5127 -1.6060 -0.7134
 9502SOL    HW240143   2.721   3.300   1.822  0.4571  0.1085  0.8564
 9503SOL     OW40144   0.065   1.656   2.124  0.4354  0.3520 -0.2734
 9503SOL    HW140145   4.732   1.595   2.104  0.2056  0.5724 -0.1163
 9503SOL    HW240146   0.083   1.643   2.217 -0.4310  0.8408 -0.0370
 9504SOL     OW40147   2.761   2.568   9.212  0.2997  0.5053 -0.7898
 9504SOL    HW140148   2.815   2.543   9.136  3.0336  1.8319  0.7079
 9504SOL    HW240149   2.671   2.579   9.181 -0.2361  1.0555  0.9976
 9505SOL     OW40150   1.585   0.411  14.598  0.1095  0.0802 -0.0305
 9505SOL    HW140151   1.562   0.499  14.629  1.5336  0.7743 -0.9118
 9505SOL    HW240152   1.666   0.394  14.645 -0.9756 -1.4687  1.2632
 9506SOL     OW40153   4.669   0.510   3.407 -0.3408  0.0119  0.0511
 9506SOL    HW140154   4.706   0.509   3.319  2.2092 -1.0520  1.1379
 9506SOL    HW240155   4.584   0.551   3.388  0.8870  1.1172 -3.1111
 9507SOL     OW40156   2.112   1.297   0.132 -0.4685 -0.2403 -0.3719
 9507SOL    HW140157   2.176   1.344   0.079  2.4372 -3.2022  0.4528
 9507SOL    HW240158   2.075   1.359   0.195  2.8694  2.7030 -1.2696
 9508SOL     OW40159   4.215   1.882   7.855  0.4120 -0.2568 -0.0520
 9508SOL    HW140160   4.135   1.893   7.907  1.0248 -2.4396  1.3185
 9508SOL    HW240161   4.281   1.921   7.912 -0.0274  0.9156 -0.3429
 9509SOL     OW40162   0.718   3.992   8.873 -0.4494 -0.1337 -0.5371
 9509SOL    HW140163   0.755   4.079   8.858  2.0282 -1.6199 -3.0890
 9509SOL    HW240164   0.796   3.937   8.875 -0.6431 -0.4596 -1.9139
 9510SOL     OW40165   2.765   3.145  10.646 -0.5048  0.1312 -0.2711
 9510SOL    HW140166   2.749   3.178  10.734 -0.2934  1.2513 -0.6601
 9510SOL    HW240167   2.856   3.168  10.629 -0.5323 -0.5907 -1.3633
 9511SOL     OW40168   3.357   2.981   5.152 -0.0700  0.2455 -0.2921
 9511SOL    HW140169   3.297   3.049   5.122  1.0540  1.2027 -0.3574
 9511SOL    HW240170   3.439   3.010   5.113  0.7691 -0.1281  1.1757
 9512SOL     OW40171   3.848   2.804  14.492 -0.4608 -0.2554 -0.3999
 9512SOL    HW140172   3.897   2.806  14.573 -2.1979 -0.4786  0.6685
 9512SOL    HW240173   3.904   2.858  14.437  0.3318  0.6709  1.3176
 9513SOL     OW40174   3.194   2.774   2.397 -0.2405 -0.0133  0.0644
 9513SOL    HW140175   3.221   2.864   2.382  1.4077 -0.6382 -0.6992
 9513SOL    HW240176   3.252   2.733   2.333  2.0006  2.4502  0.5146
 9514SOL     OW40177   4.520   0.264  11.110 -0.1997  0.0884 -0.1631
 9514SOL    HW140178   4.443   0.266  11.053 -0.1297  0.0254 -0.2590
 9514SOL    HW240179   4.517   0.184  11.162  0.1069  0.2002  0.0237
 9515SOL     OW40180   3.854   3.580   6.720 -0.5178 -0.0842 -0.4384
 9515SOL    HW140181   3.849   3.620   6.807 -1.3265 -1.1010 -0.0228
 9515SOL    HW240182   3.854   3.487   6.741 -1.7550  0.5161  2.1514
 9516SOL     OW40183   2.346   2.894   4.195  0.3614  0.7279  0.0997
 9516SOL    HW140184   2.428   2.869   4.154  0.5370  1.0511  0.2561
 9516SOL    HW240185   2.345   2.988   4.173  1.3974  0.3736 -1.4427
 9517SOL     OW40186   2.718   4.236  14.160 -0.5951 -0.6185  0.1309
 9517SOL    HW140187   2.736   4.166  14.222  0.1715 -1.4423 -1.0225
 9517SOL    HW240188   2.632   4.265  14.189  0.0382  0.8351  0.5137
 9518SOL     OW40189   3.718   4.247   7.642 -0.1540  0.6311  0.4049
 9518SOL    HW140190   3.699   4.272   7.733  0.5855  2.7989 -0.0516
 9518SOL    HW240191   3.796   4.298   7.623  0.7308  0.0685  2.4745
 9519SOL     OW40192   2.123   2.577   3.897  0.3064  0.1637 -0.1581
 9519SOL    HW140193   2.136   2.519   3.973 -2.1215 -1.2201 -0.7931
 9519SOL    HW240194   2.128   2.660   3.944 -1.3416 -0.4005  1.0250
 9520SOL     OW40195   0.271   1.891   5.056  0.3770 -0.0065  0.1552
 9520SOL    HW140196   0.352   1.941   5.071 -0.1596  1.1344 -0.7801
 9520SOL    HW240197   0.302   1.812   5.012  0.5171  0.2463 -0.1980
 9521SOL     OW40198   2.745   2.533  12.384  0.3038 -0.2477  0.1495
 9521SOL    HW140199   2.713   2.510  12.471  2.0027  1.0332  1.1124
 9521SOL    HW240200   2.668   2.509  12.333  0.3997 -0.1056 -0.0633
 9522SOL     OW40201   1.372   1.002  12.288 -0.2681 -0.3965  0.4963
 9522SOL    HW140202   1.343   1.021  12.377 -1.0868  2.0061 -0.2628
 9522SOL    HW240203   1.298   1.031  12.235 -0.7946 -2.3365  0.1835
 9523SOL     OW40204   1.732   1.317   5.483  0.5085 -0.5237  0.3097
 9523SOL    HW140205   1.734   1.287   5.392 -0.2023  0.1979  0.0588
 9523SOL    HW240206   1.774   1.246   5.531 -0.7018 -0.9404  0.7397
 9524SOL     OW40207   3.184   2.395  10.746 -0.0791 -0.6189 -0.5631
 9524SOL    HW140208   3.271   2.391  10.784 -0.5547  2.0496  0.8249
 9524SOL    HW240209   3.202   2.432  10.660 -0.1121 -1.3828 -0.8958
 9525SOL     OW40210   0.710   2.468   6.646 -0.0353  0.6703 -0.0055
 9525SOL    HW140211   0.734   2.376   6.636 -0.7137  0.0984  3.6848
 9525SOL    HW240212   0.791   2.518   6.657 -0.3481  1.2592 -0.3948
 9526SOL     OW40213   2.354   0.571   3.214  1.0754 -0.2590  0.0388
 9526SOL    HW140214   2.381   0.545   3.126 -0.0056  0.0606 -0.3838
 9526SOL    HW240215   2.294   0.645   3.207  1.8254  0.5101  1.7398
 9527SOL     OW40216   2.195   0.167   7.661 -0.2364  0.5000  0.4126
 9527SOL    HW140217   2.111   0.129   7.636 -0.3777  0.1813  1.3663
 9527SOL    HW240218   2.204   0.148   7.755  1.5743  1.4795  0.4565
 9528SOL     OW40219   0.845   4.601   2.541 -0.6021 -0.2533 -0.0793
 9528SOL    HW140220   0.871   4.655   2.467 -1.3008  4.0590  2.8116
 9528SOL    HW240221   0.818   4.520   2.497 -1.5370 -0.3654  0.6784
 9529SOL     OW40222   0.432   3.473   1.859 -0.1678 -0.5329 -0.0829
 9529SOL    HW140223   0.445   3.392   1.908  1.2083  0.0478  0.5019
 9529SOL    HW240224   0.389   3.433   1.783 -0.1184 -1.5767  0.4291
 9530SOL     OW40225   4.178   0.369   4.340 -0.1473  0.7343 -0.3610
 9530SOL    HW140226   4.187   0.274   4.353 -2.0734  0.5833 -0.1195
 9530SOL    HW240227   4.175   0.395   4.432 -1.6464  0.5837 -0.3658
 9531SOL     OW40228   0.037   2.320  11.495  0.5698 -0.4880  0.1385
 9531SOL    HW140229   0.004   2.231  11.480  1.5980 -1.0801  1.4150
 9531SOL    HW240230   4.693   2.366  11.514  1.7251  1.7724 -0.3764
 9532SOL     OW40231   0.901   3.906   5.436 -0.5381 -0.3576  0.6910
 9532SOL    HW140232   0.983   3.900   5.387  1.2982  0.4792  3.6697
 9532SOL    HW240233   0.886   4.000   5.430 -1.0824 -0.4189  1.0823
 9533SOL     OW40234   3.357   2.495  16.182 -0.0118 -0.5719  0.1240
 9533SOL    HW140235   3.441   2.534  16.157 -0.5609  1.2393  1.0891
 9533SOL    HW240236   3.309   2.565  16.227  0.8999 -0.8121  1.4690
 9534SOL     OW40237   0.205   2.494   6.942  0.1816  0.0452  0.1412
 9534SOL    HW140238   0.115   2.525   6.949  0.1696  0.3220 -1.2195
 9534SOL    HW240239   0.183   2.402   6.951  1.8711 -0.4090 -0.4470
 9535SOL     OW40240   4.481   3.622   1.129  0.1199 -0.3416  0.1589
 9535SOL    HW140241   4.436   3.706   1.137 -1.2028 -0.9397 -0.8491
 9535SOL    HW240242   4.556   3.636   1.071 -0.0181 -1.5828 -0.3220
 9536SOL     OW40243   4.505   3.326   4.036 -0.9946 -0.1334  0.6824
 9536SOL    HW140244   4.558   3.394   3.996 -0.9432  0.3586  1.6133
 9536SOL    HW240245   4.475   3.283   3.956 -1.8518  0.3053  0.7668
 9537SOL     OW40246   4.615   3.551  11.219 -0.5808 -0.5395  0.1088
 9537SOL    HW140247   4.697   3.505  11.202 -0.9395 -1.2612  0.3597
 9537SOL    HW240248   4.643   3.639  11.192  0.4981 -1.3845 -1.5203
 9538SOL     OW40249   3.872   1.235   1.064  0.3111 -0.0926  0.2593
 9538SOL    HW140250   3.783   1.260   1.087  0.3658  1.3843 -1.1655
 9538SOL    HW240251   3.878   1.262   0.973 -0.5180  0.3802  0.3470
 9539SOL     OW40252   4.462   3.394   7.254  0.3766 -0.6343  0.1517
 9539SOL    HW140253   4.450   3.300   7.243 -1.2401 -0.4027 -0.0886
 9539SOL    HW240254   4.500   3.418   7.170 -0.0116 -1.6652 -0.3066
 9540SOL     OW40255   0.416   0.184   7.494  0.0654  0.2300 -0.6242
 9540SOL    HW140256   0.510   0.167   7.501 -0.3937 -1.6071  0.9825
 9540SOL    HW240257   0.388   0.107   7.445 -0.3449  1.2118 -1.9422
 9541SOL     OW40258   2.491   2.367   6.372 -0.1054 -0.7841 -0.2929
 9541SOL    HW140259   2.499   2.430   6.444 -0.7779 -1.5793  0.4617
 9541SOL    HW240260   2.542   2.288   6.389  1.2242 -0.4903 -2.9028
 9542SOL     OW40261   3.087   0.071   3.572 -0.4878  0.2411 -0.3140
 9542SOL    HW140262   3.170   0.028   3.592 -0.1384  0.9812 -0.1756
 9542SOL    HW240263   3.028   0.004   3.607 -1.2182  0.9845 -0.0963
 9543SOL     OW40264   0.960   2.310  14.749 -0.0922  0.0604  0.2576
 9543SOL    HW140265   1.038   2.271  14.789 -1.5031 -0.6918  2.2575
 9543SOL    HW240266   0.894   2.255  14.791 -0.0833 -0.3859 -0.3121
 9544SOL     OW40267   3.232   0.575   7.066 -0.4722 -0.7328  0.1130
 9544SOL    HW140268   3.312   0.530   7.093 -0.5220 -0.4870  0.6652
 9544SOL    HW240269   3.235   0.547   6.975 -1.4705 -0.8135  0.1064
 9545SOL     OW40270   3.383   3.553   8.115  0.7546  0.2226  0.1859
 9545SOL    HW140271   3.451   3.592   8.060 -0.0158 -0.0438 -0.9642
 9545SOL    HW240272   3.436   3.530   8.191  0.4763  0.1457  0.3548
 9546SOL     OW40273   2.645   1.976   9.523  0.1181  0.1510  0.3067
 9546SOL    HW140274   2.613   1.978   9.433 -2.5739 -1.0041  1.2459
 9546SOL    HW240275   2.592   2.047   9.559 -1.1337  0.5350 -2.2689
 9547SOL     OW40276   1.716   4.358   6.979  0.5709 -0.3219 -0.5631
 9547SOL    HW140277   1.700   4.430   7.039 -0.6905 -0.0694 -1.2143
 9547SOL    HW240278   1.807   4.383   6.958  0.6364 -0.8028 -0.8460
 9548SOL     OW40279   0.947   2.094   7.968  0.1245 -0.3244 -0.1158
 9548SOL    HW140280   0.929   2.137   7.884 -1.1967 -1.0545 -0.2073
 9548SOL    HW240281   0.861   2.088   8.010  0.0840 -2.7688 -0.5822
 9549SOL     OW40282   2.229   0.600   9.126  0.0397 -0.1544 -0.2761
 9549SOL    HW140283   2.140   0.634   9.113 -0.0081 -0.1091  0.1370
 9549SOL    HW240284   2.276   0.682   9.141  1.2501 -0.6269 -1.5478
 9550SOL     OW40285   3.736   2.260   6.576  0.0106 -0.2559  0.3743
 9550SOL    HW140286   3.781   2.202   6.515  0.7894 -0.3596  1.0467
 9550SOL    HW240287   3.773   2.346   6.556  0.2196 -0.0356  1.6990
 9551SOL     OW40288   1.119   0.243   2.913 -0.0539  0.3030 -0.2596
 9551SOL    HW140289   1.073   0.160   2.925 -0.6839  1.0443  2.5195
 9551SOL    HW240290   1.193   0.204   2.868 -0.2592  1.3645 -1.5249
 9552SOL     OW40291   4.561   1.391   7.942  0.3562  0.5529  0.0748
 9552SOL    HW140292   4.589   1.304   7.915  1.5546  1.1778 -0.7013
 9552SOL    HW240293   4.555   1.375   8.036 -1.2853 -2.8761 -0.6399
 9553SOL     OW40294   3.265   2.663   7.421  0.4406 -0.1446  0.7033
 9553SOL    HW140295   3.192   2.629   7.369  0.9169  0.7831 -0.5656
 9553SOL    HW240296   3.316   2.717   7.361 -2.8599  1.4417 -0.6940
 9554SOL     OW40297   2.513   0.118   3.189 -0.2066  0.0377 -0.5855
 9554SOL    HW140298   2.430   0.090   3.149 -1.8116  0.5698  2.4037
 9554SOL    HW240299   2.502   0.082   3.277 -1.2097  0.3489 -0.5831
 9555SOL     OW40300   3.546   0.356  13.534  0.1728 -0.0519 -0.2897
 9555SOL    HW140301   3.596   0.394  13.461  0.3590  0.2748  0.0088
 9555SOL    HW240302   3.497   0.430  13.568 -0.1097 -0.7160  0.7176
 9556SOL     OW40303   0.752   3.863   4.953  0.2382  0.3918  0.0259
 9556SOL    HW140304   0.717   3.951   4.937  0.8429  0.7707  0.7746
 9556SOL    HW240305   0.844   3.887   4.944  0.5109 -0.9233 -0.6811
 9557SOL     OW40306   2.461   3.247  12.751 -0.6987  0.1609 -0.4769
 9557SOL    HW140307   2.517   3.217  12.679  0.0625  1.2383 -0.3382
 9557SOL    HW240308   2.518   3.229  12.826  3.1068  0.8023 -3.1954
 9558SOL     OW40309   0.003   4.257   6.091 -0.2301  0.0541  0.4743
 9558SOL    HW140310   0.031   4.349   6.089  0.4835 -0.1687  0.4692
 9558SOL    HW240311   4.724   4.255   6.185 -0.9028  0.1275  0.3522
 9559SOL     OW40312   1.520   4.219   4.581  0.0182  0.5263 -0.2726
 9559SOL    HW140313   1.529   4.164   4.503  0.6612  0.1872  0.0383
 9559SOL    HW240314   1.580   4.291   4.559 -0.7653  1.4705  0.6950
 9560SOL     OW40315   0.196   3.802   6.640 -0.1164 -0.0395  0.7097
 9560SOL    HW140316   0.215   3.890   6.671 -1.9156  0.4127  0.5279
 9560SOL    HW240317   0.274   3.784   6.587 -0.7129  1.0181 -0.5051
 9561SOL     OW40318   0.778   1.564   6.843  0.5700 -0.1422 -0.0069
 9561SOL    HW140319   0.806   1.645   6.886 -0.4179 -0.6802  1.6426
 9561SOL    HW240320   0.861   1.541   6.800  1.0091 -1.2652  1.4627
 9562SOL     OW40321   2.507   2.806   4.869  0.2898 -0.2298  0.2131
 9562SOL    HW140322   2.439   2.741   4.859 -0.1404  0.1680  0.5467
 9562SOL    HW240323   2.541   2.834   4.783 -0.8312  0.7077  0.0766
 9563SOL     OW40324   2.168   3.669   5.401  0.8492 -0.1752 -0.2784
 9563SOL    HW140325   2.177   3.590   5.455 -0.2423  1.7374  2.6721
 9563SOL    HW240326   2.100   3.625   5.349  1.0369 -0.5343 -0.2235
 9564SOL     OW40327   4.246   1.284  13.056  0.3414  0.3522  0.1666
 9564SOL    HW140328   4.228   1.295  13.149 -2.6223  1.3904 -0.5192
 9564SOL    HW240329   4.317   1.345  13.037  2.2117 -2.5744 -2.3438
 9565SOL     OW40330   4.469   0.300   3.174  0.4503  0.1593 -0.4678
 9565SOL    HW140331   4.425   0.219   3.147  0.8547 -0.2787  0.1728
 9565SOL    HW240332   4.551   0.262   3.207  0.6748  1.2584  0.2538
 9566SOL     OW40333   1.177   4.439   4.892 -0.4696  0.4965  0.0771
 9566SOL    HW140334   1.272   4.437   4.908 -1.1634 -0.4134  3.9598
 9566SOL    HW240335   1.148   4.446   4.982 -0.1427 -0.1605  0.2326
 9567SOL     OW40336   4.536   4.007   7.434 -0.2665  0.1722  0.2122
 9567SOL    HW140337   4.566   4.054   7.356 -1.7378  0.1777 -0.3434
 9567SOL    HW240338   4.582   3.923   7.426  0.7991  0.7523  0.2357
 9568SOL     OW40339   3.603   2.624   1.813  0.5445 -0.4146 -0.1902
 9568SOL    HW140340   3.537   2.599   1.877 -1.8463  0.7615 -2.1895
 9568SOL    HW240341   3.624   2.538   1.777 -2.5634 -0.8708 -0.9427
 9569SOL     OW40342   1.959   0.688   6.613 -0.2904  0.3592  0.7382
 9569SOL    HW140343   1.925   0.765   6.569  0.9700 -0.4199 -1.6208
 9569SOL    HW240344   1.894   0.619   6.597  1.1124 -0.6075 -0.9122
   4.73830   4.73830  17.75123
